 Entering Gaussian System, Link 0=g16
 Input=clay_new-glu_gluC6-DDDL-Na2_1Me2O-bisCF3-ts-b3lyp_d3bj-631gd-pcm_thf.gjf
 Output=clay_new-glu_gluC6-DDDL-Na2_1Me2O-bisCF3-ts-b3lyp_d3bj-631gd-pcm_thf.out
 Initial command:
 /home/ekwan/sw/g16/l1.exe "/scratch/users/ekwan/clay_new-glu_gluC6-DDDL-Na2_1Me2O-bisCF3-ts-b3lyp_d3bj-631gd-pcm_thf/Gau-35461.inp" -scrdir="/scratch/users/ekwan/clay_new-glu_gluC6-DDDL-Na2_1Me2O-bisCF3-ts-b3lyp_d3bj-631gd-pcm_thf/"
 Entering Link 1 = /home/ekwan/sw/g16/l1.exe PID=     35462.
  
 Copyright (c) 1988,1990,1992,1993,1995,1998,2003,2009,2016,
            Gaussian, Inc.  All Rights Reserved.
  
 This is part of the Gaussian(R) 16 program.  It is based on
 the Gaussian(R) 09 system (copyright 2009, Gaussian, Inc.),
 the Gaussian(R) 03 system (copyright 2003, Gaussian, Inc.),
 the Gaussian(R) 98 system (copyright 1998, Gaussian, Inc.),
 the Gaussian(R) 94 system (copyright 1995, Gaussian, Inc.),
 the Gaussian 92(TM) system (copyright 1992, Gaussian, Inc.),
 the Gaussian 90(TM) system (copyright 1990, Gaussian, Inc.),
 the Gaussian 88(TM) system (copyright 1988, Gaussian, Inc.),
 the Gaussian 86(TM) system (copyright 1986, Carnegie Mellon
 University), and the Gaussian 82(TM) system (copyright 1983,
 Carnegie Mellon University). Gaussian is a federally registered
 trademark of Gaussian, Inc.
  
 This software contains proprietary and confidential information,
 including trade secrets, belonging to Gaussian, Inc.
  
 This software is provided under written license and may be
 used, copied, transmitted, or stored only in accord with that
 written license.
  
 The following legend is applicable only to US Government
 contracts under FAR:
  
                    RESTRICTED RIGHTS LEGEND
  
 Use, reproduction and disclosure by the US Government is
 subject to restrictions as set forth in subparagraphs (a)
 and (c) of the Commercial Computer Software - Restricted
 Rights clause in FAR 52.227-19.
  
 Gaussian, Inc.
 340 Quinnipiac St., Bldg. 40, Wallingford CT 06492
  
  
 ---------------------------------------------------------------
 Warning -- This program may not be used in any manner that
 competes with the business of Gaussian, Inc. or will provide
 assistance to any competitor of Gaussian, Inc.  The licensee
 of this program is prohibited from giving any competitor of
 Gaussian, Inc. access to this program.  By using this program,
 the user acknowledges that Gaussian, Inc. is engaged in the
 business of creating and licensing software in the field of
 computational chemistry and represents and warrants to the
 licensee that it is not a competitor of Gaussian, Inc. and that
 it will not use this program in any manner prohibited above.
 ---------------------------------------------------------------
  

 Cite this work as:
 Gaussian 16, Revision A.03,
 M. J. Frisch, G. W. Trucks, H. B. Schlegel, G. E. Scuseria, 
 M. A. Robb, J. R. Cheeseman, G. Scalmani, V. Barone, 
 G. A. Petersson, H. Nakatsuji, X. Li, M. Caricato, A. V. Marenich, 
 J. Bloino, B. G. Janesko, R. Gomperts, B. Mennucci, H. P. Hratchian, 
 J. V. Ortiz, A. F. Izmaylov, J. L. Sonnenberg, D. Williams-Young, 
 F. Ding, F. Lipparini, F. Egidi, J. Goings, B. Peng, A. Petrone, 
 T. Henderson, D. Ranasinghe, V. G. Zakrzewski, J. Gao, N. Rega, 
 G. Zheng, W. Liang, M. Hada, M. Ehara, K. Toyota, R. Fukuda, 
 J. Hasegawa, M. Ishida, T. Nakajima, Y. Honda, O. Kitao, H. Nakai, 
 T. Vreven, K. Throssell, J. A. Montgomery, Jr., J. E. Peralta, 
 F. Ogliaro, M. J. Bearpark, J. J. Heyd, E. N. Brothers, K. N. Kudin, 
 V. N. Staroverov, T. A. Keith, R. Kobayashi, J. Normand, 
 K. Raghavachari, A. P. Rendell, J. C. Burant, S. S. Iyengar, 
 J. Tomasi, M. Cossi, J. M. Millam, M. Klene, C. Adamo, R. Cammi, 
 J. W. Ochterski, R. L. Martin, K. Morokuma, O. Farkas, 
 J. B. Foresman, and D. J. Fox, Gaussian, Inc., Wallingford CT, 2016.
 
 ******************************************
 Gaussian 16:  AS64L-G16RevA.03 25-Dec-2016
                28-May-2019 
 ******************************************
 %mem=48GB
 %nprocshared=32
 Will use up to   32 processors via shared memory.
 ----------------------------------------------------------------------
 #p opt=(ts,noeigentest,calcfc,maxstep=1,modredundant,recalc=30) freq=n
 oraman b3lyp 6-31g* pop=none scrf=(solvent=tetrahydrofuran,pcm) empiri
 caldispersion=gd3bj
 ----------------------------------------------------------------------
 1/5=1,8=1,10=4,11=1,18=120,26=3,38=1,71=30/1,3;
 2/9=110,12=2,17=6,18=5,40=1/2;
 3/5=1,6=6,7=1,11=2,25=1,30=1,70=2201,71=2,72=20,74=-5,124=41,140=1/1,2,3;
 4//1;
 5/5=2,38=5,53=20/2;
 8/6=4,10=90,11=11/1;
 11/6=1,8=1,9=11,15=111,16=1/1,2,10;
 10/6=1,13=1/2;
 7/10=1,18=20,25=1/1,2,3,16;
 1/5=1,8=1,10=4,11=1,18=20,26=3,71=30/3(2);
 2/9=110/2;
 99//99;
 2/9=110/2;
 3/5=1,6=6,7=1,11=2,25=1,30=1,70=2205,71=1,72=20,74=-5,124=41/1,2,3;
 4/5=5,16=3,69=1/1;
 5/5=2,38=5,53=20/2;
 7//1,2,3,16;
 1/5=1,8=1,11=1,18=20,26=3,71=30/3(-5);
 2/9=110/2;
 99/9=1/99;
 Leave Link    1 at Tue May 28 07:50:20 2019, MaxMem=  6442450944 cpu:               5.7 elap:               0.2
 (Enter /home/ekwan/sw/g16/l101.exe)
 -----
 title
 -----
 Symbolic Z-matrix:
 Charge =  0 Multiplicity = 1
 C                    -5.45977  -0.12809  -0.69622 
 C                    -6.40433   0.90599  -0.08321 
 C                    -5.63058   1.85643   0.84654 
 C                    -3.56405   1.52477  -0.31418 
 C                    -4.21599   0.53495  -1.28811 
 H                    -6.25307   2.70387   1.16415 
 H                    -6.82023   1.52092  -0.89682 
 H                    -5.13856  -0.81933   0.09339 
 H                    -3.17953   0.97007   0.55479 
 H                    -4.51284   1.08505  -2.19022 
 O                    -4.56246   2.45524   0.14041 
 O                    -5.21107   1.12016   1.96451 
 O                    -7.44506   0.20434   0.57269 
 O                    -6.09453  -0.84677  -1.74674 
 O                    -3.30734  -0.51358  -1.64417 
 C                    -2.41151   2.35448  -0.92139 
 H                    -2.21436   3.15645  -0.16996 
 H                    -2.84391   2.88769  -1.79951 
 O                    -1.29816   1.61276  -1.22394 
 C                    -8.53512   1.01863   0.97258 
 H                    -8.2698    1.68389   1.80522 
 H                    -8.90713   1.62864   0.13629 
 H                    -9.32824   0.34386   1.30316 
 C                    -6.65624  -2.09101  -1.35516 
 H                    -5.88993  -2.75584  -0.92944 
 H                    -7.45945  -1.95886  -0.62293 
 H                    -7.05818  -2.55209  -2.26146 
 C                    -2.96266  -0.53258  -3.02625 
 H                    -3.86199  -0.62278  -3.6458 
 H                    -2.39872   0.36872  -3.29097 
 H                    -2.33324  -1.41345  -3.1818 
 C                     2.99576   1.67934  -0.90493 
 C                     1.49958   1.36975  -0.95725 
 C                     0.7866    2.03407   0.18799 
 C                     2.36103   3.87708   0.22534 
 C                     3.18422   3.19585  -0.87693 
 H                    -0.18813   1.6946    0.48998 
 H                     1.05225   1.83838  -1.84389 
 H                     3.41717   1.24985   0.00836 
 H                     2.90419   3.77216   1.16708 
 H                     2.89128   3.59654  -1.85611 
 O                     1.05122   3.264     0.49225 
 O                    -0.37994  -0.30387   1.80016 
 O                     1.2107   -0.01639  -0.96654 
 O                     3.6692    1.17753  -2.04912 
 O                     4.54213   3.49885  -0.60131 
 C                     2.01151   5.34118  -0.08203 
 H                     1.49067   5.77131   0.78627 
 H                     1.32586   5.35364  -0.93548 
 O                     3.12318   6.12199  -0.45121 
 S                     1.02624  -0.18798   2.27742 
 O                     1.20965  -0.31633   3.73237 
 O                     1.70623   1.0639    1.73546 
 C                     1.93266  -1.53021   1.4994 
 C                     3.32481  -1.46098   1.46069 
 C                     1.24634  -2.58007   0.90559 
 C                     4.03179  -2.45254   0.78819 
 H                     3.84518  -0.62753   1.91587 
 C                     1.97271  -3.56031   0.22362 
 H                     0.16217  -2.61827   0.92701 
 C                     3.36104  -3.50425   0.15675 
 H                     3.91497  -4.25917  -0.38865 
 C                     1.05154  -0.55835  -2.28579 
 H                     0.16903  -0.12026  -2.76727 
 H                     1.93557  -0.36525  -2.89726 
 H                     0.92063  -1.6346   -2.1568 
 C                     4.49056   0.04439  -1.78924 
 H                     5.2066    0.25074  -0.98453 
 H                     3.89217  -0.83239  -1.51857 
 H                     5.03747  -0.16443  -2.71135 
 C                     5.26864   4.00115  -1.7195 
 H                     5.27806   3.27528  -2.53973 
 H                     4.8404    4.95023  -2.06284 
 H                     6.29007   4.17016  -1.37063 
 C                     4.0011    6.42766   0.62723 
 H                     4.70738   7.17146   0.25176 
 H                     3.44764   6.8522    1.47683 
 H                     4.55594   5.54218   0.95658 
 C                    -4.56358   1.91602   2.95311 
 H                    -4.36419   1.25964   3.8022 
 H                    -3.61948   2.32928   2.58056 
 H                    -5.21207   2.74333   3.27428 
 Na                   -1.25475  -0.45408  -0.37824 
 O                    -1.93792  -2.60276   0.31062 
 C                    -2.74137  -2.56101   1.48728 
 H                    -2.82371  -3.56174   1.93172 
 H                    -2.2433   -1.88493   2.18292 
 H                    -3.74771  -2.18577   1.25892 
 C                    -2.4743   -3.47013  -0.68357 
 H                    -3.43952  -3.09341  -1.04066 
 H                    -1.75953  -3.48918  -1.50727 
 H                    -2.5897   -4.48655  -0.28633 
 C                     5.53105  -2.39235   0.68894 
 F                     5.93688  -2.50805  -0.60005 
 F                     6.12202  -3.39516   1.3729 
 F                     6.02869  -1.23006   1.16082 
 C                     1.21455  -4.61553  -0.53045 
 F                     1.99091  -5.6555   -0.88816 
 F                     0.68616  -4.10401  -1.67982 
 F                     0.17664  -5.1006    0.18246 
 
 Add virtual bond connecting atoms H37        and O19        Dist= 3.86D+00.
 Add virtual bond connecting atoms O53        and C34        Dist= 3.86D+00.
 Add virtual bond connecting atoms O84        and H60        Dist= 4.14D+00.
 Add virtual bond connecting atoms H88        and H8         Dist= 4.29D+00.
 The following ModRedundant input section has been read:
 
 ITRead=  0  0  0  0  0  0  0  0  0  0  0  0  0  0  0  0  0  0  0  0
 ITRead=  0  0  0  0  0  0  0  0  0  0  0  0  0  0  0  0  0  0  0  0
 ITRead=  0  0  0  0  0  0  0  0  0  0  0  0  0  0  0  0  0  0  0  0
 ITRead=  0  0  0  0  0  0  0  0  0  0  0  0  0  0  0  0  0  0  0  0
 ITRead=  0  0  0  0  0  0  0  0  0  0  0  0  0  0  0  0  0  0  0  0
 MicOpt= -1 -1 -1 -1 -1 -1 -1 -1 -1 -1 -1 -1 -1 -1 -1 -1 -1 -1 -1 -1
 MicOpt= -1 -1 -1 -1 -1 -1 -1 -1 -1 -1 -1 -1 -1 -1 -1 -1 -1 -1 -1 -1
 MicOpt= -1 -1 -1 -1 -1 -1 -1 -1 -1 -1 -1 -1 -1 -1 -1 -1 -1 -1 -1 -1
 MicOpt= -1 -1 -1 -1 -1 -1 -1 -1 -1 -1 -1 -1 -1 -1 -1 -1 -1 -1 -1 -1
 MicOpt= -1 -1 -1 -1 -1 -1 -1 -1 -1 -1 -1 -1 -1 -1 -1 -1 -1 -1 -1 -1
 NAtoms=    100 NQM=      100 NQMF=       0 NMMI=      0 NMMIF=      0
                NMic=       0 NMicF=      0.
                    Isotopes and Nuclear Properties:
 (Nuclear quadrupole moments (NQMom) in fm**2, nuclear magnetic moments (NMagM)
  in nuclear magnetons)

  Atom         1           2           3           4           5           6           7           8           9          10
 IAtWgt=          12          12          12          12          12           1           1           1           1           1
 AtmWgt=  12.0000000  12.0000000  12.0000000  12.0000000  12.0000000   1.0078250   1.0078250   1.0078250   1.0078250   1.0078250
 NucSpn=           0           0           0           0           0           1           1           1           1           1
 AtZEff=   0.0000000   0.0000000   0.0000000   0.0000000   0.0000000   0.0000000   0.0000000   0.0000000   0.0000000   0.0000000
 NQMom=    0.0000000   0.0000000   0.0000000   0.0000000   0.0000000   0.0000000   0.0000000   0.0000000   0.0000000   0.0000000
 NMagM=    0.0000000   0.0000000   0.0000000   0.0000000   0.0000000   2.7928460   2.7928460   2.7928460   2.7928460   2.7928460
 AtZNuc=   6.0000000   6.0000000   6.0000000   6.0000000   6.0000000   1.0000000   1.0000000   1.0000000   1.0000000   1.0000000

  Atom        11          12          13          14          15          16          17          18          19          20
 IAtWgt=          16          16          16          16          16          12           1           1          16          12
 AtmWgt=  15.9949146  15.9949146  15.9949146  15.9949146  15.9949146  12.0000000   1.0078250   1.0078250  15.9949146  12.0000000
 NucSpn=           0           0           0           0           0           0           1           1           0           0
 AtZEff=   0.0000000   0.0000000   0.0000000   0.0000000   0.0000000   0.0000000   0.0000000   0.0000000   0.0000000   0.0000000
 NQMom=    0.0000000   0.0000000   0.0000000   0.0000000   0.0000000   0.0000000   0.0000000   0.0000000   0.0000000   0.0000000
 NMagM=    0.0000000   0.0000000   0.0000000   0.0000000   0.0000000   0.0000000   2.7928460   2.7928460   0.0000000   0.0000000
 AtZNuc=   8.0000000   8.0000000   8.0000000   8.0000000   8.0000000   6.0000000   1.0000000   1.0000000   8.0000000   6.0000000

  Atom        21          22          23          24          25          26          27          28          29          30
 IAtWgt=           1           1           1          12           1           1           1          12           1           1
 AtmWgt=   1.0078250   1.0078250   1.0078250  12.0000000   1.0078250   1.0078250   1.0078250  12.0000000   1.0078250   1.0078250
 NucSpn=           1           1           1           0           1           1           1           0           1           1
 AtZEff=   0.0000000   0.0000000   0.0000000   0.0000000   0.0000000   0.0000000   0.0000000   0.0000000   0.0000000   0.0000000
 NQMom=    0.0000000   0.0000000   0.0000000   0.0000000   0.0000000   0.0000000   0.0000000   0.0000000   0.0000000   0.0000000
 NMagM=    2.7928460   2.7928460   2.7928460   0.0000000   2.7928460   2.7928460   2.7928460   0.0000000   2.7928460   2.7928460
 AtZNuc=   1.0000000   1.0000000   1.0000000   6.0000000   1.0000000   1.0000000   1.0000000   6.0000000   1.0000000   1.0000000

  Atom        31          32          33          34          35          36          37          38          39          40
 IAtWgt=           1          12          12          12          12          12           1           1           1           1
 AtmWgt=   1.0078250  12.0000000  12.0000000  12.0000000  12.0000000  12.0000000   1.0078250   1.0078250   1.0078250   1.0078250
 NucSpn=           1           0           0           0           0           0           1           1           1           1
 AtZEff=   0.0000000   0.0000000   0.0000000   0.0000000   0.0000000   0.0000000   0.0000000   0.0000000   0.0000000   0.0000000
 NQMom=    0.0000000   0.0000000   0.0000000   0.0000000   0.0000000   0.0000000   0.0000000   0.0000000   0.0000000   0.0000000
 NMagM=    2.7928460   0.0000000   0.0000000   0.0000000   0.0000000   0.0000000   2.7928460   2.7928460   2.7928460   2.7928460
 AtZNuc=   1.0000000   6.0000000   6.0000000   6.0000000   6.0000000   6.0000000   1.0000000   1.0000000   1.0000000   1.0000000

  Atom        41          42          43          44          45          46          47          48          49          50
 IAtWgt=           1          16          16          16          16          16          12           1           1          16
 AtmWgt=   1.0078250  15.9949146  15.9949146  15.9949146  15.9949146  15.9949146  12.0000000   1.0078250   1.0078250  15.9949146
 NucSpn=           1           0           0           0           0           0           0           1           1           0
 AtZEff=   0.0000000   0.0000000   0.0000000   0.0000000   0.0000000   0.0000000   0.0000000   0.0000000   0.0000000   0.0000000
 NQMom=    0.0000000   0.0000000   0.0000000   0.0000000   0.0000000   0.0000000   0.0000000   0.0000000   0.0000000   0.0000000
 NMagM=    2.7928460   0.0000000   0.0000000   0.0000000   0.0000000   0.0000000   0.0000000   2.7928460   2.7928460   0.0000000
 AtZNuc=   1.0000000   8.0000000   8.0000000   8.0000000   8.0000000   8.0000000   6.0000000   1.0000000   1.0000000   8.0000000

  Atom        51          52          53          54          55          56          57          58          59          60
 IAtWgt=          32          16          16          12          12          12          12           1          12           1
 AtmWgt=  31.9720718  15.9949146  15.9949146  12.0000000  12.0000000  12.0000000  12.0000000   1.0078250  12.0000000   1.0078250
 NucSpn=           0           0           0           0           0           0           0           1           0           1
 AtZEff=   0.0000000   0.0000000   0.0000000   0.0000000   0.0000000   0.0000000   0.0000000   0.0000000   0.0000000   0.0000000
 NQMom=    0.0000000   0.0000000   0.0000000   0.0000000   0.0000000   0.0000000   0.0000000   0.0000000   0.0000000   0.0000000
 NMagM=    0.0000000   0.0000000   0.0000000   0.0000000   0.0000000   0.0000000   0.0000000   2.7928460   0.0000000   2.7928460
 AtZNuc=  16.0000000   8.0000000   8.0000000   6.0000000   6.0000000   6.0000000   6.0000000   1.0000000   6.0000000   1.0000000

  Atom        61          62          63          64          65          66          67          68          69          70
 IAtWgt=          12           1          12           1           1           1          12           1           1           1
 AtmWgt=  12.0000000   1.0078250  12.0000000   1.0078250   1.0078250   1.0078250  12.0000000   1.0078250   1.0078250   1.0078250
 NucSpn=           0           1           0           1           1           1           0           1           1           1
 AtZEff=   0.0000000   0.0000000   0.0000000   0.0000000   0.0000000   0.0000000   0.0000000   0.0000000   0.0000000   0.0000000
 NQMom=    0.0000000   0.0000000   0.0000000   0.0000000   0.0000000   0.0000000   0.0000000   0.0000000   0.0000000   0.0000000
 NMagM=    0.0000000   2.7928460   0.0000000   2.7928460   2.7928460   2.7928460   0.0000000   2.7928460   2.7928460   2.7928460
 AtZNuc=   6.0000000   1.0000000   6.0000000   1.0000000   1.0000000   1.0000000   6.0000000   1.0000000   1.0000000   1.0000000

  Atom        71          72          73          74          75          76          77          78          79          80
 IAtWgt=          12           1           1           1          12           1           1           1          12           1
 AtmWgt=  12.0000000   1.0078250   1.0078250   1.0078250  12.0000000   1.0078250   1.0078250   1.0078250  12.0000000   1.0078250
 NucSpn=           0           1           1           1           0           1           1           1           0           1
 AtZEff=   0.0000000   0.0000000   0.0000000   0.0000000   0.0000000   0.0000000   0.0000000   0.0000000   0.0000000   0.0000000
 NQMom=    0.0000000   0.0000000   0.0000000   0.0000000   0.0000000   0.0000000   0.0000000   0.0000000   0.0000000   0.0000000
 NMagM=    0.0000000   2.7928460   2.7928460   2.7928460   0.0000000   2.7928460   2.7928460   2.7928460   0.0000000   2.7928460
 AtZNuc=   6.0000000   1.0000000   1.0000000   1.0000000   6.0000000   1.0000000   1.0000000   1.0000000   6.0000000   1.0000000

  Atom        81          82          83          84          85          86          87          88          89          90
 IAtWgt=           1           1          23          16          12           1           1           1          12           1
 AtmWgt=   1.0078250   1.0078250  22.9897697  15.9949146  12.0000000   1.0078250   1.0078250   1.0078250  12.0000000   1.0078250
 NucSpn=           1           1           3           0           0           1           1           1           0           1
 AtZEff=   0.0000000   0.0000000   0.0000000   0.0000000   0.0000000   0.0000000   0.0000000   0.0000000   0.0000000   0.0000000
 NQMom=    0.0000000   0.0000000  10.4000000   0.0000000   0.0000000   0.0000000   0.0000000   0.0000000   0.0000000   0.0000000
 NMagM=    2.7928460   2.7928460   2.2175200   0.0000000   0.0000000   2.7928460   2.7928460   2.7928460   0.0000000   2.7928460
 AtZNuc=   1.0000000   1.0000000  11.0000000   8.0000000   6.0000000   1.0000000   1.0000000   1.0000000   6.0000000   1.0000000

  Atom        91          92          93          94          95          96          97          98          99         100
 IAtWgt=           1           1          12          19          19          19          12          19          19          19
 AtmWgt=   1.0078250   1.0078250  12.0000000  18.9984033  18.9984033  18.9984033  12.0000000  18.9984033  18.9984033  18.9984033
 NucSpn=           1           1           0           1           1           1           0           1           1           1
 AtZEff=   0.0000000   0.0000000   0.0000000   0.0000000   0.0000000   0.0000000   0.0000000   0.0000000   0.0000000   0.0000000
 NQMom=    0.0000000   0.0000000   0.0000000   0.0000000   0.0000000   0.0000000   0.0000000   0.0000000   0.0000000   0.0000000
 NMagM=    2.7928460   2.7928460   0.0000000   2.6288670   2.6288670   2.6288670   0.0000000   2.6288670   2.6288670   2.6288670
 AtZNuc=   1.0000000   1.0000000   6.0000000   9.0000000   9.0000000   9.0000000   6.0000000   9.0000000   9.0000000   9.0000000
 Leave Link  101 at Tue May 28 07:50:21 2019, MaxMem=  6442450944 cpu:              17.9 elap:               0.7
 (Enter /home/ekwan/sw/g16/l103.exe)

 GradGradGradGradGradGradGradGradGradGradGradGradGradGradGradGradGradGrad
 Berny optimization.
 Initialization pass.
                           ----------------------------
                           !    Initial Parameters    !
                           ! (Angstroms and Degrees)  !
 --------------------------                            --------------------------
 ! Name  Definition              Value          Derivative Info.                !
 --------------------------------------------------------------------------------
 ! R1    R(1,2)                  1.5288         calculate D2E/DX2 analytically  !
 ! R2    R(1,5)                  1.5287         calculate D2E/DX2 analytically  !
 ! R3    R(1,8)                  1.0975         calculate D2E/DX2 analytically  !
 ! R4    R(1,14)                 1.4223         calculate D2E/DX2 analytically  !
 ! R5    R(2,3)                  1.5383         calculate D2E/DX2 analytically  !
 ! R6    R(2,7)                  1.1014         calculate D2E/DX2 analytically  !
 ! R7    R(2,13)                 1.4162         calculate D2E/DX2 analytically  !
 ! R8    R(3,6)                  1.0984         calculate D2E/DX2 analytically  !
 ! R9    R(3,11)                 1.4135         calculate D2E/DX2 analytically  !
 ! R10   R(3,12)                 1.4028         calculate D2E/DX2 analytically  !
 ! R11   R(4,5)                  1.534          calculate D2E/DX2 analytically  !
 ! R12   R(4,9)                  1.1003         calculate D2E/DX2 analytically  !
 ! R13   R(4,11)                 1.4385         calculate D2E/DX2 analytically  !
 ! R14   R(4,16)                 1.5445         calculate D2E/DX2 analytically  !
 ! R15   R(5,10)                 1.0975         calculate D2E/DX2 analytically  !
 ! R16   R(5,15)                 1.4324         calculate D2E/DX2 analytically  !
 ! R17   R(8,88)                 2.2716         calculate D2E/DX2 analytically  !
 ! R18   R(12,79)                1.4248         calculate D2E/DX2 analytically  !
 ! R19   R(13,20)                1.4182         calculate D2E/DX2 analytically  !
 ! R20   R(14,24)                1.4202         calculate D2E/DX2 analytically  !
 ! R21   R(15,28)                1.4245         calculate D2E/DX2 analytically  !
 ! R22   R(16,17)                1.1165         calculate D2E/DX2 analytically  !
 ! R23   R(16,18)                1.1146         calculate D2E/DX2 analytically  !
 ! R24   R(16,19)                1.3716         calculate D2E/DX2 analytically  !
 ! R25   R(19,37)                2.0436         calculate D2E/DX2 analytically  !
 ! R26   R(19,83)                2.2336         calculate D2E/DX2 analytically  !
 ! R27   R(20,21)                1.0983         calculate D2E/DX2 analytically  !
 ! R28   R(20,22)                1.0999         calculate D2E/DX2 analytically  !
 ! R29   R(20,23)                1.0925         calculate D2E/DX2 analytically  !
 ! R30   R(24,25)                1.1002         calculate D2E/DX2 analytically  !
 ! R31   R(24,26)                1.0949         calculate D2E/DX2 analytically  !
 ! R32   R(24,27)                1.0934         calculate D2E/DX2 analytically  !
 ! R33   R(28,29)                1.0958         calculate D2E/DX2 analytically  !
 ! R34   R(28,30)                1.0956         calculate D2E/DX2 analytically  !
 ! R35   R(28,31)                1.0938         calculate D2E/DX2 analytically  !
 ! R36   R(32,33)                1.5288         calculate D2E/DX2 analytically  !
 ! R37   R(32,36)                1.5284         calculate D2E/DX2 analytically  !
 ! R38   R(32,39)                1.0937         calculate D2E/DX2 analytically  !
 ! R39   R(32,45)                1.4193         calculate D2E/DX2 analytically  !
 ! R40   R(33,34)                1.5037         calculate D2E/DX2 analytically  !
 ! R41   R(33,38)                1.0981         calculate D2E/DX2 analytically  !
 ! R42   R(33,44)                1.416          calculate D2E/DX2 analytically  !
 ! R43   R(34,37)                1.0754         calculate D2E/DX2 analytically  !
 ! R44   R(34,42)                1.2944         calculate D2E/DX2 analytically  !
 ! R45   R(34,53)                2.0449         calculate D2E/DX2 analytically  !
 ! R46   R(35,36)                1.5352         calculate D2E/DX2 analytically  !
 ! R47   R(35,40)                1.0922         calculate D2E/DX2 analytically  !
 ! R48   R(35,42)                1.4706         calculate D2E/DX2 analytically  !
 ! R49   R(35,47)                1.5363         calculate D2E/DX2 analytically  !
 ! R50   R(36,41)                1.0978         calculate D2E/DX2 analytically  !
 ! R51   R(36,46)                1.4183         calculate D2E/DX2 analytically  !
 ! R52   R(43,51)                1.4895         calculate D2E/DX2 analytically  !
 ! R53   R(44,63)                1.4351         calculate D2E/DX2 analytically  !
 ! R54   R(45,67)                1.4234         calculate D2E/DX2 analytically  !
 ! R55   R(46,71)                1.4249         calculate D2E/DX2 analytically  !
 ! R56   R(47,48)                1.1001         calculate D2E/DX2 analytically  !
 ! R57   R(47,49)                1.0948         calculate D2E/DX2 analytically  !
 ! R58   R(47,50)                1.4078         calculate D2E/DX2 analytically  !
 ! R59   R(50,75)                1.4238         calculate D2E/DX2 analytically  !
 ! R60   R(51,52)                1.4721         calculate D2E/DX2 analytically  !
 ! R61   R(51,53)                1.5242         calculate D2E/DX2 analytically  !
 ! R62   R(51,54)                1.7968         calculate D2E/DX2 analytically  !
 ! R63   R(54,55)                1.3944         calculate D2E/DX2 analytically  !
 ! R64   R(54,56)                1.3877         calculate D2E/DX2 analytically  !
 ! R65   R(55,57)                1.3911         calculate D2E/DX2 analytically  !
 ! R66   R(55,58)                1.0829         calculate D2E/DX2 analytically  !
 ! R67   R(56,59)                1.3977         calculate D2E/DX2 analytically  !
 ! R68   R(56,60)                1.0851         calculate D2E/DX2 analytically  !
 ! R69   R(57,61)                1.3981         calculate D2E/DX2 analytically  !
 ! R70   R(57,93)                1.5037         calculate D2E/DX2 analytically  !
 ! R71   R(59,61)                1.3911         calculate D2E/DX2 analytically  !
 ! R72   R(59,97)                1.5023         calculate D2E/DX2 analytically  !
 ! R73   R(60,84)                2.1887         calculate D2E/DX2 analytically  !
 ! R74   R(61,62)                1.0836         calculate D2E/DX2 analytically  !
 ! R75   R(63,64)                1.0966         calculate D2E/DX2 analytically  !
 ! R76   R(63,65)                1.0921         calculate D2E/DX2 analytically  !
 ! R77   R(63,66)                1.0918         calculate D2E/DX2 analytically  !
 ! R78   R(67,68)                1.0967         calculate D2E/DX2 analytically  !
 ! R79   R(67,69)                1.0955         calculate D2E/DX2 analytically  !
 ! R80   R(67,70)                1.0922         calculate D2E/DX2 analytically  !
 ! R81   R(71,72)                1.0953         calculate D2E/DX2 analytically  !
 ! R82   R(71,73)                1.0964         calculate D2E/DX2 analytically  !
 ! R83   R(71,74)                1.0925         calculate D2E/DX2 analytically  !
 ! R84   R(75,76)                1.0923         calculate D2E/DX2 analytically  !
 ! R85   R(75,77)                1.0993         calculate D2E/DX2 analytically  !
 ! R86   R(75,78)                1.0956         calculate D2E/DX2 analytically  !
 ! R87   R(79,80)                1.0916         calculate D2E/DX2 analytically  !
 ! R88   R(79,81)                1.0959         calculate D2E/DX2 analytically  !
 ! R89   R(79,82)                1.0992         calculate D2E/DX2 analytically  !
 ! R90   R(84,85)                1.4254         calculate D2E/DX2 analytically  !
 ! R91   R(84,89)                1.4242         calculate D2E/DX2 analytically  !
 ! R92   R(85,86)                1.0981         calculate D2E/DX2 analytically  !
 ! R93   R(85,87)                1.0905         calculate D2E/DX2 analytically  !
 ! R94   R(85,88)                1.098          calculate D2E/DX2 analytically  !
 ! R95   R(89,90)                1.0959         calculate D2E/DX2 analytically  !
 ! R96   R(89,91)                1.0908         calculate D2E/DX2 analytically  !
 ! R97   R(89,92)                1.0974         calculate D2E/DX2 analytically  !
 ! R98   R(93,94)                1.3563         calculate D2E/DX2 analytically  !
 ! R99   R(93,95)                1.3501         calculate D2E/DX2 analytically  !
 ! R100  R(93,96)                1.3495         calculate D2E/DX2 analytically  !
 ! R101  R(97,98)                1.3462         calculate D2E/DX2 analytically  !
 ! R102  R(97,99)                1.3645         calculate D2E/DX2 analytically  !
 ! R103  R(97,100)               1.3494         calculate D2E/DX2 analytically  !
 ! A1    A(2,1,5)              111.3806         calculate D2E/DX2 analytically  !
 ! A2    A(2,1,8)              108.5633         calculate D2E/DX2 analytically  !
 ! A3    A(2,1,14)             111.2349         calculate D2E/DX2 analytically  !
 ! A4    A(5,1,8)              108.2772         calculate D2E/DX2 analytically  !
 ! A5    A(5,1,14)             107.2352         calculate D2E/DX2 analytically  !
 ! A6    A(8,1,14)             110.1065         calculate D2E/DX2 analytically  !
 ! A7    A(1,2,3)              110.456          calculate D2E/DX2 analytically  !
 ! A8    A(1,2,7)              108.3449         calculate D2E/DX2 analytically  !
 ! A9    A(1,2,13)             107.7353         calculate D2E/DX2 analytically  !
 ! A10   A(3,2,7)              106.945          calculate D2E/DX2 analytically  !
 ! A11   A(3,2,13)             113.3171         calculate D2E/DX2 analytically  !
 ! A12   A(7,2,13)             109.9521         calculate D2E/DX2 analytically  !
 ! A13   A(2,3,6)              111.4929         calculate D2E/DX2 analytically  !
 ! A14   A(2,3,11)             109.8699         calculate D2E/DX2 analytically  !
 ! A15   A(2,3,12)             107.9269         calculate D2E/DX2 analytically  !
 ! A16   A(6,3,11)             104.2319         calculate D2E/DX2 analytically  !
 ! A17   A(6,3,12)             110.1182         calculate D2E/DX2 analytically  !
 ! A18   A(11,3,12)            113.2331         calculate D2E/DX2 analytically  !
 ! A19   A(5,4,9)              108.9433         calculate D2E/DX2 analytically  !
 ! A20   A(5,4,11)             108.8464         calculate D2E/DX2 analytically  !
 ! A21   A(5,4,16)             114.4663         calculate D2E/DX2 analytically  !
 ! A22   A(9,4,11)             108.6067         calculate D2E/DX2 analytically  !
 ! A23   A(9,4,16)             108.6948         calculate D2E/DX2 analytically  !
 ! A24   A(11,4,16)            107.1385         calculate D2E/DX2 analytically  !
 ! A25   A(1,5,4)              112.3222         calculate D2E/DX2 analytically  !
 ! A26   A(1,5,10)             108.3956         calculate D2E/DX2 analytically  !
 ! A27   A(1,5,15)             107.1495         calculate D2E/DX2 analytically  !
 ! A28   A(4,5,10)             108.2629         calculate D2E/DX2 analytically  !
 ! A29   A(4,5,15)             111.1335         calculate D2E/DX2 analytically  !
 ! A30   A(10,5,15)            109.5212         calculate D2E/DX2 analytically  !
 ! A31   A(1,8,88)             158.0069         calculate D2E/DX2 analytically  !
 ! A32   A(3,11,4)             114.0989         calculate D2E/DX2 analytically  !
 ! A33   A(3,12,79)            113.3094         calculate D2E/DX2 analytically  !
 ! A34   A(2,13,20)            114.2661         calculate D2E/DX2 analytically  !
 ! A35   A(1,14,24)            114.5539         calculate D2E/DX2 analytically  !
 ! A36   A(5,15,28)            113.854          calculate D2E/DX2 analytically  !
 ! A37   A(4,16,17)            104.6571         calculate D2E/DX2 analytically  !
 ! A38   A(4,16,18)            106.0951         calculate D2E/DX2 analytically  !
 ! A39   A(4,16,19)            113.6997         calculate D2E/DX2 analytically  !
 ! A40   A(17,16,18)           104.7795         calculate D2E/DX2 analytically  !
 ! A41   A(17,16,19)           113.1751         calculate D2E/DX2 analytically  !
 ! A42   A(18,16,19)           113.5661         calculate D2E/DX2 analytically  !
 ! A43   A(16,19,37)           103.5474         calculate D2E/DX2 analytically  !
 ! A44   A(16,19,83)           115.6365         calculate D2E/DX2 analytically  !
 ! A45   A(37,19,83)            73.0794         calculate D2E/DX2 analytically  !
 ! A46   A(13,20,21)           112.0789         calculate D2E/DX2 analytically  !
 ! A47   A(13,20,22)           111.3459         calculate D2E/DX2 analytically  !
 ! A48   A(13,20,23)           106.779          calculate D2E/DX2 analytically  !
 ! A49   A(21,20,22)           108.7948         calculate D2E/DX2 analytically  !
 ! A50   A(21,20,23)           108.6683         calculate D2E/DX2 analytically  !
 ! A51   A(22,20,23)           109.0899         calculate D2E/DX2 analytically  !
 ! A52   A(14,24,25)           111.1377         calculate D2E/DX2 analytically  !
 ! A53   A(14,24,26)           111.6417         calculate D2E/DX2 analytically  !
 ! A54   A(14,24,27)           106.6365         calculate D2E/DX2 analytically  !
 ! A55   A(25,24,26)           108.9728         calculate D2E/DX2 analytically  !
 ! A56   A(25,24,27)           108.7805         calculate D2E/DX2 analytically  !
 ! A57   A(26,24,27)           109.6068         calculate D2E/DX2 analytically  !
 ! A58   A(15,28,29)           110.5516         calculate D2E/DX2 analytically  !
 ! A59   A(15,28,30)           110.3637         calculate D2E/DX2 analytically  !
 ! A60   A(15,28,31)           106.7353         calculate D2E/DX2 analytically  !
 ! A61   A(29,28,30)           110.7039         calculate D2E/DX2 analytically  !
 ! A62   A(29,28,31)           109.0018         calculate D2E/DX2 analytically  !
 ! A63   A(30,28,31)           109.3869         calculate D2E/DX2 analytically  !
 ! A64   A(33,32,36)           108.7978         calculate D2E/DX2 analytically  !
 ! A65   A(33,32,39)           109.0355         calculate D2E/DX2 analytically  !
 ! A66   A(33,32,45)           111.4184         calculate D2E/DX2 analytically  !
 ! A67   A(36,32,39)           109.0764         calculate D2E/DX2 analytically  !
 ! A68   A(36,32,45)           107.8822         calculate D2E/DX2 analytically  !
 ! A69   A(39,32,45)           110.5799         calculate D2E/DX2 analytically  !
 ! A70   A(32,33,34)           110.396          calculate D2E/DX2 analytically  !
 ! A71   A(32,33,38)           109.8699         calculate D2E/DX2 analytically  !
 ! A72   A(32,33,44)           113.4619         calculate D2E/DX2 analytically  !
 ! A73   A(34,33,38)           103.4883         calculate D2E/DX2 analytically  !
 ! A74   A(34,33,44)           109.9218         calculate D2E/DX2 analytically  !
 ! A75   A(38,33,44)           109.2306         calculate D2E/DX2 analytically  !
 ! A76   A(33,34,37)           120.2757         calculate D2E/DX2 analytically  !
 ! A77   A(33,34,42)           120.1246         calculate D2E/DX2 analytically  !
 ! A78   A(33,34,53)            98.8302         calculate D2E/DX2 analytically  !
 ! A79   A(37,34,42)           114.7869         calculate D2E/DX2 analytically  !
 ! A80   A(37,34,53)            92.5991         calculate D2E/DX2 analytically  !
 ! A81   A(42,34,53)           100.4272         calculate D2E/DX2 analytically  !
 ! A82   A(36,35,40)           108.0472         calculate D2E/DX2 analytically  !
 ! A83   A(36,35,42)           115.0188         calculate D2E/DX2 analytically  !
 ! A84   A(36,35,47)           113.6557         calculate D2E/DX2 analytically  !
 ! A85   A(40,35,42)           104.2639         calculate D2E/DX2 analytically  !
 ! A86   A(40,35,47)           112.1601         calculate D2E/DX2 analytically  !
 ! A87   A(42,35,47)           103.3547         calculate D2E/DX2 analytically  !
 ! A88   A(32,36,35)           112.7883         calculate D2E/DX2 analytically  !
 ! A89   A(32,36,41)           108.2344         calculate D2E/DX2 analytically  !
 ! A90   A(32,36,46)           109.4857         calculate D2E/DX2 analytically  !
 ! A91   A(35,36,41)           109.5955         calculate D2E/DX2 analytically  !
 ! A92   A(35,36,46)           106.204          calculate D2E/DX2 analytically  !
 ! A93   A(41,36,46)           110.5376         calculate D2E/DX2 analytically  !
 ! A94   A(19,37,34)           105.6307         calculate D2E/DX2 analytically  !
 ! A95   A(34,42,35)           122.3824         calculate D2E/DX2 analytically  !
 ! A96   A(33,44,63)           113.4757         calculate D2E/DX2 analytically  !
 ! A97   A(32,45,67)           114.0829         calculate D2E/DX2 analytically  !
 ! A98   A(36,46,71)           114.2642         calculate D2E/DX2 analytically  !
 ! A99   A(35,47,48)           108.809          calculate D2E/DX2 analytically  !
 ! A100  A(35,47,49)           108.0157         calculate D2E/DX2 analytically  !
 ! A101  A(35,47,50)           113.6654         calculate D2E/DX2 analytically  !
 ! A102  A(48,47,49)           108.3198         calculate D2E/DX2 analytically  !
 ! A103  A(48,47,50)           111.3462         calculate D2E/DX2 analytically  !
 ! A104  A(49,47,50)           106.4872         calculate D2E/DX2 analytically  !
 ! A105  A(47,50,75)           114.0386         calculate D2E/DX2 analytically  !
 ! A106  A(43,51,52)           115.3112         calculate D2E/DX2 analytically  !
 ! A107  A(43,51,53)           111.7863         calculate D2E/DX2 analytically  !
 ! A108  A(43,51,54)           106.2232         calculate D2E/DX2 analytically  !
 ! A109  A(52,51,53)           111.5587         calculate D2E/DX2 analytically  !
 ! A110  A(52,51,54)           107.4564         calculate D2E/DX2 analytically  !
 ! A111  A(53,51,54)           103.5635         calculate D2E/DX2 analytically  !
 ! A112  A(34,53,51)           117.2644         calculate D2E/DX2 analytically  !
 ! A113  A(51,54,55)           118.5921         calculate D2E/DX2 analytically  !
 ! A114  A(51,54,56)           120.0613         calculate D2E/DX2 analytically  !
 ! A115  A(55,54,56)           121.2947         calculate D2E/DX2 analytically  !
 ! A116  A(54,55,57)           119.0393         calculate D2E/DX2 analytically  !
 ! A117  A(54,55,58)           120.419          calculate D2E/DX2 analytically  !
 ! A118  A(57,55,58)           120.5024         calculate D2E/DX2 analytically  !
 ! A119  A(54,56,59)           118.8377         calculate D2E/DX2 analytically  !
 ! A120  A(54,56,60)           120.8198         calculate D2E/DX2 analytically  !
 ! A121  A(59,56,60)           120.2786         calculate D2E/DX2 analytically  !
 ! A122  A(55,57,61)           120.7095         calculate D2E/DX2 analytically  !
 ! A123  A(55,57,93)           120.6681         calculate D2E/DX2 analytically  !
 ! A124  A(61,57,93)           118.5955         calculate D2E/DX2 analytically  !
 ! A125  A(56,59,61)           120.9211         calculate D2E/DX2 analytically  !
 ! A126  A(56,59,97)           118.3758         calculate D2E/DX2 analytically  !
 ! A127  A(61,59,97)           120.5206         calculate D2E/DX2 analytically  !
 ! A128  A(56,60,84)           162.3466         calculate D2E/DX2 analytically  !
 ! A129  A(57,61,59)           119.1706         calculate D2E/DX2 analytically  !
 ! A130  A(57,61,62)           120.4069         calculate D2E/DX2 analytically  !
 ! A131  A(59,61,62)           120.4179         calculate D2E/DX2 analytically  !
 ! A132  A(44,63,64)           109.9984         calculate D2E/DX2 analytically  !
 ! A133  A(44,63,65)           110.9868         calculate D2E/DX2 analytically  !
 ! A134  A(44,63,66)           106.0787         calculate D2E/DX2 analytically  !
 ! A135  A(64,63,65)           109.5704         calculate D2E/DX2 analytically  !
 ! A136  A(64,63,66)           110.437          calculate D2E/DX2 analytically  !
 ! A137  A(65,63,66)           109.7246         calculate D2E/DX2 analytically  !
 ! A138  A(45,67,68)           111.1554         calculate D2E/DX2 analytically  !
 ! A139  A(45,67,69)           111.5335         calculate D2E/DX2 analytically  !
 ! A140  A(45,67,70)           106.6778         calculate D2E/DX2 analytically  !
 ! A141  A(68,67,69)           109.0215         calculate D2E/DX2 analytically  !
 ! A142  A(68,67,70)           109.1782         calculate D2E/DX2 analytically  !
 ! A143  A(69,67,70)           109.2138         calculate D2E/DX2 analytically  !
 ! A144  A(46,71,72)           111.0028         calculate D2E/DX2 analytically  !
 ! A145  A(46,71,73)           110.5938         calculate D2E/DX2 analytically  !
 ! A146  A(46,71,74)           106.2974         calculate D2E/DX2 analytically  !
 ! A147  A(72,71,73)           110.0308         calculate D2E/DX2 analytically  !
 ! A148  A(72,71,74)           109.4878         calculate D2E/DX2 analytically  !
 ! A149  A(73,71,74)           109.3456         calculate D2E/DX2 analytically  !
 ! A150  A(50,75,76)           106.5308         calculate D2E/DX2 analytically  !
 ! A151  A(50,75,77)           110.9698         calculate D2E/DX2 analytically  !
 ! A152  A(50,75,78)           111.4957         calculate D2E/DX2 analytically  !
 ! A153  A(76,75,77)           109.163          calculate D2E/DX2 analytically  !
 ! A154  A(76,75,78)           109.0401         calculate D2E/DX2 analytically  !
 ! A155  A(77,75,78)           109.5585         calculate D2E/DX2 analytically  !
 ! A156  A(12,79,80)           106.6692         calculate D2E/DX2 analytically  !
 ! A157  A(12,79,81)           111.4865         calculate D2E/DX2 analytically  !
 ! A158  A(12,79,82)           110.7972         calculate D2E/DX2 analytically  !
 ! A159  A(80,79,81)           109.502          calculate D2E/DX2 analytically  !
 ! A160  A(80,79,82)           109.456          calculate D2E/DX2 analytically  !
 ! A161  A(81,79,82)           108.8917         calculate D2E/DX2 analytically  !
 ! A162  A(60,84,85)           107.973          calculate D2E/DX2 analytically  !
 ! A163  A(60,84,89)           123.6161         calculate D2E/DX2 analytically  !
 ! A164  A(85,84,89)           112.4446         calculate D2E/DX2 analytically  !
 ! A165  A(84,85,86)           110.4682         calculate D2E/DX2 analytically  !
 ! A166  A(84,85,87)           106.6974         calculate D2E/DX2 analytically  !
 ! A167  A(84,85,88)           110.7892         calculate D2E/DX2 analytically  !
 ! A168  A(86,85,87)           109.9429         calculate D2E/DX2 analytically  !
 ! A169  A(86,85,88)           109.0801         calculate D2E/DX2 analytically  !
 ! A170  A(87,85,88)           109.8407         calculate D2E/DX2 analytically  !
 ! A171  A(8,88,85)            150.8596         calculate D2E/DX2 analytically  !
 ! A172  A(84,89,90)           110.4746         calculate D2E/DX2 analytically  !
 ! A173  A(84,89,91)           106.9172         calculate D2E/DX2 analytically  !
 ! A174  A(84,89,92)           110.5482         calculate D2E/DX2 analytically  !
 ! A175  A(90,89,91)           109.6998         calculate D2E/DX2 analytically  !
 ! A176  A(90,89,92)           110.103          calculate D2E/DX2 analytically  !
 ! A177  A(91,89,92)           109.0324         calculate D2E/DX2 analytically  !
 ! A178  A(57,93,94)           110.9551         calculate D2E/DX2 analytically  !
 ! A179  A(57,93,95)           111.9169         calculate D2E/DX2 analytically  !
 ! A180  A(57,93,96)           112.2749         calculate D2E/DX2 analytically  !
 ! A181  A(94,93,95)           106.6852         calculate D2E/DX2 analytically  !
 ! A182  A(94,93,96)           107.1843         calculate D2E/DX2 analytically  !
 ! A183  A(95,93,96)           107.5277         calculate D2E/DX2 analytically  !
 ! A184  A(59,97,98)           112.6409         calculate D2E/DX2 analytically  !
 ! A185  A(59,97,99)           110.7883         calculate D2E/DX2 analytically  !
 ! A186  A(59,97,100)          112.0544         calculate D2E/DX2 analytically  !
 ! A187  A(98,97,99)           106.8041         calculate D2E/DX2 analytically  !
 ! A188  A(98,97,100)          107.8351         calculate D2E/DX2 analytically  !
 ! A189  A(99,97,100)          106.3751         calculate D2E/DX2 analytically  !
 ! D1    D(5,1,2,3)            -49.1544         calculate D2E/DX2 analytically  !
 ! D2    D(5,1,2,7)             67.6797         calculate D2E/DX2 analytically  !
 ! D3    D(5,1,2,13)          -173.4065         calculate D2E/DX2 analytically  !
 ! D4    D(8,1,2,3)             69.9731         calculate D2E/DX2 analytically  !
 ! D5    D(8,1,2,7)           -173.1927         calculate D2E/DX2 analytically  !
 ! D6    D(8,1,2,13)           -54.279          calculate D2E/DX2 analytically  !
 ! D7    D(14,1,2,3)          -168.7254         calculate D2E/DX2 analytically  !
 ! D8    D(14,1,2,7)           -51.8913         calculate D2E/DX2 analytically  !
 ! D9    D(14,1,2,13)           67.0225         calculate D2E/DX2 analytically  !
 ! D10   D(2,1,5,4)             48.8439         calculate D2E/DX2 analytically  !
 ! D11   D(2,1,5,10)           -70.7306         calculate D2E/DX2 analytically  !
 ! D12   D(2,1,5,15)           171.1596         calculate D2E/DX2 analytically  !
 ! D13   D(8,1,5,4)            -70.4541         calculate D2E/DX2 analytically  !
 ! D14   D(8,1,5,10)           169.9715         calculate D2E/DX2 analytically  !
 ! D15   D(8,1,5,15)            51.8617         calculate D2E/DX2 analytically  !
 ! D16   D(14,1,5,4)           170.7618         calculate D2E/DX2 analytically  !
 ! D17   D(14,1,5,10)           51.1873         calculate D2E/DX2 analytically  !
 ! D18   D(14,1,5,15)          -66.9225         calculate D2E/DX2 analytically  !
 ! D19   D(2,1,8,88)          -143.1923         calculate D2E/DX2 analytically  !
 ! D20   D(5,1,8,88)           -22.1335         calculate D2E/DX2 analytically  !
 ! D21   D(14,1,8,88)           94.8154         calculate D2E/DX2 analytically  !
 ! D22   D(2,1,14,24)          -95.9006         calculate D2E/DX2 analytically  !
 ! D23   D(5,1,14,24)          142.0904         calculate D2E/DX2 analytically  !
 ! D24   D(8,1,14,24)           24.4942         calculate D2E/DX2 analytically  !
 ! D25   D(1,2,3,6)            170.515          calculate D2E/DX2 analytically  !
 ! D26   D(1,2,3,11)            55.4749         calculate D2E/DX2 analytically  !
 ! D27   D(1,2,3,12)           -68.4264         calculate D2E/DX2 analytically  !
 ! D28   D(7,2,3,6)             52.8168         calculate D2E/DX2 analytically  !
 ! D29   D(7,2,3,11)           -62.2233         calculate D2E/DX2 analytically  !
 ! D30   D(7,2,3,12)           173.8754         calculate D2E/DX2 analytically  !
 ! D31   D(13,2,3,6)           -68.5001         calculate D2E/DX2 analytically  !
 ! D32   D(13,2,3,11)          176.4598         calculate D2E/DX2 analytically  !
 ! D33   D(13,2,3,12)           52.5585         calculate D2E/DX2 analytically  !
 ! D34   D(1,2,13,20)         -168.5818         calculate D2E/DX2 analytically  !
 ! D35   D(3,2,13,20)           68.9107         calculate D2E/DX2 analytically  !
 ! D36   D(7,2,13,20)          -50.7004         calculate D2E/DX2 analytically  !
 ! D37   D(2,3,11,4)           -63.704          calculate D2E/DX2 analytically  !
 ! D38   D(6,3,11,4)           176.7201         calculate D2E/DX2 analytically  !
 ! D39   D(12,3,11,4)           57.0475         calculate D2E/DX2 analytically  !
 ! D40   D(2,3,12,79)         -175.6422         calculate D2E/DX2 analytically  !
 ! D41   D(6,3,12,79)          -53.7308         calculate D2E/DX2 analytically  !
 ! D42   D(11,3,12,79)          62.5122         calculate D2E/DX2 analytically  !
 ! D43   D(9,4,5,1)             65.46           calculate D2E/DX2 analytically  !
 ! D44   D(9,4,5,10)          -174.8882         calculate D2E/DX2 analytically  !
 ! D45   D(9,4,5,15)           -54.5694         calculate D2E/DX2 analytically  !
 ! D46   D(11,4,5,1)           -52.8085         calculate D2E/DX2 analytically  !
 ! D47   D(11,4,5,10)           66.8433         calculate D2E/DX2 analytically  !
 ! D48   D(11,4,5,15)         -172.8379         calculate D2E/DX2 analytically  !
 ! D49   D(16,4,5,1)          -172.637          calculate D2E/DX2 analytically  !
 ! D50   D(16,4,5,10)          -52.9852         calculate D2E/DX2 analytically  !
 ! D51   D(16,4,5,15)           67.3336         calculate D2E/DX2 analytically  !
 ! D52   D(5,4,11,3)            61.726          calculate D2E/DX2 analytically  !
 ! D53   D(9,4,11,3)           -56.7543         calculate D2E/DX2 analytically  !
 ! D54   D(16,4,11,3)         -173.9957         calculate D2E/DX2 analytically  !
 ! D55   D(5,4,16,17)          167.8805         calculate D2E/DX2 analytically  !
 ! D56   D(5,4,16,18)           57.3991         calculate D2E/DX2 analytically  !
 ! D57   D(5,4,16,19)          -68.129          calculate D2E/DX2 analytically  !
 ! D58   D(9,4,16,17)          -70.0808         calculate D2E/DX2 analytically  !
 ! D59   D(9,4,16,18)          179.4378         calculate D2E/DX2 analytically  !
 ! D60   D(9,4,16,19)           53.9097         calculate D2E/DX2 analytically  !
 ! D61   D(11,4,16,17)          47.1028         calculate D2E/DX2 analytically  !
 ! D62   D(11,4,16,18)         -63.3786         calculate D2E/DX2 analytically  !
 ! D63   D(11,4,16,19)         171.0933         calculate D2E/DX2 analytically  !
 ! D64   D(1,5,15,28)          120.7993         calculate D2E/DX2 analytically  !
 ! D65   D(4,5,15,28)         -116.1466         calculate D2E/DX2 analytically  !
 ! D66   D(10,5,15,28)           3.4247         calculate D2E/DX2 analytically  !
 ! D67   D(1,8,88,85)           14.232          calculate D2E/DX2 analytically  !
 ! D68   D(3,12,79,80)         175.1342         calculate D2E/DX2 analytically  !
 ! D69   D(3,12,79,81)         -65.3689         calculate D2E/DX2 analytically  !
 ! D70   D(3,12,79,82)          56.0789         calculate D2E/DX2 analytically  !
 ! D71   D(2,13,20,21)         -70.5719         calculate D2E/DX2 analytically  !
 ! D72   D(2,13,20,22)          51.5555         calculate D2E/DX2 analytically  !
 ! D73   D(2,13,20,23)         170.541          calculate D2E/DX2 analytically  !
 ! D74   D(1,14,24,25)         -58.6676         calculate D2E/DX2 analytically  !
 ! D75   D(1,14,24,26)          63.2304         calculate D2E/DX2 analytically  !
 ! D76   D(1,14,24,27)        -177.0774         calculate D2E/DX2 analytically  !
 ! D77   D(5,15,28,29)         -57.3684         calculate D2E/DX2 analytically  !
 ! D78   D(5,15,28,30)          65.4446         calculate D2E/DX2 analytically  !
 ! D79   D(5,15,28,31)        -175.7823         calculate D2E/DX2 analytically  !
 ! D80   D(4,16,19,37)         -90.1908         calculate D2E/DX2 analytically  !
 ! D81   D(4,16,19,83)         -12.6903         calculate D2E/DX2 analytically  !
 ! D82   D(17,16,19,37)         29.0519         calculate D2E/DX2 analytically  !
 ! D83   D(17,16,19,83)        106.5524         calculate D2E/DX2 analytically  !
 ! D84   D(18,16,19,37)        148.3573         calculate D2E/DX2 analytically  !
 ! D85   D(18,16,19,83)       -134.1422         calculate D2E/DX2 analytically  !
 ! D86   D(16,19,37,34)       -127.0318         calculate D2E/DX2 analytically  !
 ! D87   D(83,19,37,34)        119.8967         calculate D2E/DX2 analytically  !
 ! D88   D(36,32,33,34)        -55.2221         calculate D2E/DX2 analytically  !
 ! D89   D(36,32,33,38)         58.2921         calculate D2E/DX2 analytically  !
 ! D90   D(36,32,33,44)       -179.1168         calculate D2E/DX2 analytically  !
 ! D91   D(39,32,33,34)         63.6368         calculate D2E/DX2 analytically  !
 ! D92   D(39,32,33,38)        177.151          calculate D2E/DX2 analytically  !
 ! D93   D(39,32,33,44)        -60.2579         calculate D2E/DX2 analytically  !
 ! D94   D(45,32,33,34)       -174.0347         calculate D2E/DX2 analytically  !
 ! D95   D(45,32,33,38)        -60.5206         calculate D2E/DX2 analytically  !
 ! D96   D(45,32,33,44)         62.0706         calculate D2E/DX2 analytically  !
 ! D97   D(33,32,36,35)         52.1798         calculate D2E/DX2 analytically  !
 ! D98   D(33,32,36,41)        -69.2473         calculate D2E/DX2 analytically  !
 ! D99   D(33,32,36,46)        170.1965         calculate D2E/DX2 analytically  !
 ! D100  D(39,32,36,35)        -66.6534         calculate D2E/DX2 analytically  !
 ! D101  D(39,32,36,41)        171.9194         calculate D2E/DX2 analytically  !
 ! D102  D(39,32,36,46)         51.3633         calculate D2E/DX2 analytically  !
 ! D103  D(45,32,36,35)        173.1878         calculate D2E/DX2 analytically  !
 ! D104  D(45,32,36,41)         51.7607         calculate D2E/DX2 analytically  !
 ! D105  D(45,32,36,46)        -68.7955         calculate D2E/DX2 analytically  !
 ! D106  D(33,32,45,67)       -107.8667         calculate D2E/DX2 analytically  !
 ! D107  D(36,32,45,67)        132.775          calculate D2E/DX2 analytically  !
 ! D108  D(39,32,45,67)         13.5674         calculate D2E/DX2 analytically  !
 ! D109  D(32,33,34,37)       -161.0629         calculate D2E/DX2 analytically  !
 ! D110  D(32,33,34,42)         44.7783         calculate D2E/DX2 analytically  !
 ! D111  D(32,33,34,53)        -62.7935         calculate D2E/DX2 analytically  !
 ! D112  D(38,33,34,37)         81.4151         calculate D2E/DX2 analytically  !
 ! D113  D(38,33,34,42)        -72.7438         calculate D2E/DX2 analytically  !
 ! D114  D(38,33,34,53)        179.6845         calculate D2E/DX2 analytically  !
 ! D115  D(44,33,34,37)        -35.1494         calculate D2E/DX2 analytically  !
 ! D116  D(44,33,34,42)        170.6917         calculate D2E/DX2 analytically  !
 ! D117  D(44,33,34,53)         63.12           calculate D2E/DX2 analytically  !
 ! D118  D(32,33,44,63)        -93.9444         calculate D2E/DX2 analytically  !
 ! D119  D(34,33,44,63)        141.9031         calculate D2E/DX2 analytically  !
 ! D120  D(38,33,44,63)         28.9995         calculate D2E/DX2 analytically  !
 ! D121  D(33,34,37,19)        -49.9884         calculate D2E/DX2 analytically  !
 ! D122  D(42,34,37,19)        105.4757         calculate D2E/DX2 analytically  !
 ! D123  D(53,34,37,19)       -151.7847         calculate D2E/DX2 analytically  !
 ! D124  D(33,34,42,35)        -27.9648         calculate D2E/DX2 analytically  !
 ! D125  D(37,34,42,35)        176.5309         calculate D2E/DX2 analytically  !
 ! D126  D(53,34,42,35)         78.7279         calculate D2E/DX2 analytically  !
 ! D127  D(33,34,53,51)        -93.2084         calculate D2E/DX2 analytically  !
 ! D128  D(37,34,53,51)         27.9755         calculate D2E/DX2 analytically  !
 ! D129  D(42,34,53,51)        143.7657         calculate D2E/DX2 analytically  !
 ! D130  D(40,35,36,32)         80.9296         calculate D2E/DX2 analytically  !
 ! D131  D(40,35,36,41)       -158.4183         calculate D2E/DX2 analytically  !
 ! D132  D(40,35,36,46)        -38.9957         calculate D2E/DX2 analytically  !
 ! D133  D(42,35,36,32)        -35.0491         calculate D2E/DX2 analytically  !
 ! D134  D(42,35,36,41)         85.603          calculate D2E/DX2 analytically  !
 ! D135  D(42,35,36,46)       -154.9744         calculate D2E/DX2 analytically  !
 ! D136  D(47,35,36,32)       -153.9122         calculate D2E/DX2 analytically  !
 ! D137  D(47,35,36,41)        -33.2601         calculate D2E/DX2 analytically  !
 ! D138  D(47,35,36,46)         86.1625         calculate D2E/DX2 analytically  !
 ! D139  D(36,35,42,34)         22.4372         calculate D2E/DX2 analytically  !
 ! D140  D(40,35,42,34)        -95.6882         calculate D2E/DX2 analytically  !
 ! D141  D(47,35,42,34)        146.9012         calculate D2E/DX2 analytically  !
 ! D142  D(36,35,47,48)       -175.8015         calculate D2E/DX2 analytically  !
 ! D143  D(36,35,47,49)         66.8149         calculate D2E/DX2 analytically  !
 ! D144  D(36,35,47,50)        -51.1131         calculate D2E/DX2 analytically  !
 ! D145  D(40,35,47,48)        -52.8723         calculate D2E/DX2 analytically  !
 ! D146  D(40,35,47,49)       -170.2558         calculate D2E/DX2 analytically  !
 ! D147  D(40,35,47,50)         71.8161         calculate D2E/DX2 analytically  !
 ! D148  D(42,35,47,48)         58.8508         calculate D2E/DX2 analytically  !
 ! D149  D(42,35,47,49)        -58.5327         calculate D2E/DX2 analytically  !
 ! D150  D(42,35,47,50)       -176.4607         calculate D2E/DX2 analytically  !
 ! D151  D(32,36,46,71)        107.6904         calculate D2E/DX2 analytically  !
 ! D152  D(35,36,46,71)       -130.258          calculate D2E/DX2 analytically  !
 ! D153  D(41,36,46,71)        -11.4534         calculate D2E/DX2 analytically  !
 ! D154  D(33,44,63,64)        -65.2936         calculate D2E/DX2 analytically  !
 ! D155  D(33,44,63,65)         56.1321         calculate D2E/DX2 analytically  !
 ! D156  D(33,44,63,66)        175.26           calculate D2E/DX2 analytically  !
 ! D157  D(32,45,67,68)        -54.4103         calculate D2E/DX2 analytically  !
 ! D158  D(32,45,67,69)         67.4867         calculate D2E/DX2 analytically  !
 ! D159  D(32,45,67,70)       -173.3344         calculate D2E/DX2 analytically  !
 ! D160  D(36,46,71,72)        -59.9535         calculate D2E/DX2 analytically  !
 ! D161  D(36,46,71,73)         62.4723         calculate D2E/DX2 analytically  !
 ! D162  D(36,46,71,74)       -178.9368         calculate D2E/DX2 analytically  !
 ! D163  D(35,47,50,75)        -72.5576         calculate D2E/DX2 analytically  !
 ! D164  D(48,47,50,75)         50.7558         calculate D2E/DX2 analytically  !
 ! D165  D(49,47,50,75)        168.6353         calculate D2E/DX2 analytically  !
 ! D166  D(47,50,75,76)       -170.1299         calculate D2E/DX2 analytically  !
 ! D167  D(47,50,75,77)        -51.4153         calculate D2E/DX2 analytically  !
 ! D168  D(47,50,75,78)         71.0134         calculate D2E/DX2 analytically  !
 ! D169  D(43,51,53,34)        -14.2106         calculate D2E/DX2 analytically  !
 ! D170  D(52,51,53,34)       -144.9767         calculate D2E/DX2 analytically  !
 ! D171  D(54,51,53,34)         99.7386         calculate D2E/DX2 analytically  !
 ! D172  D(43,51,54,55)        162.443          calculate D2E/DX2 analytically  !
 ! D173  D(43,51,54,56)        -14.9718         calculate D2E/DX2 analytically  !
 ! D174  D(52,51,54,55)        -73.6215         calculate D2E/DX2 analytically  !
 ! D175  D(52,51,54,56)        108.9637         calculate D2E/DX2 analytically  !
 ! D176  D(53,51,54,55)         44.5499         calculate D2E/DX2 analytically  !
 ! D177  D(53,51,54,56)       -132.8649         calculate D2E/DX2 analytically  !
 ! D178  D(51,54,55,57)       -176.039          calculate D2E/DX2 analytically  !
 ! D179  D(51,54,55,58)          1.6925         calculate D2E/DX2 analytically  !
 ! D180  D(56,54,55,57)          1.3425         calculate D2E/DX2 analytically  !
 ! D181  D(56,54,55,58)        179.074          calculate D2E/DX2 analytically  !
 ! D182  D(51,54,56,59)        175.4019         calculate D2E/DX2 analytically  !
 ! D183  D(51,54,56,60)         -1.6993         calculate D2E/DX2 analytically  !
 ! D184  D(55,54,56,59)         -1.9417         calculate D2E/DX2 analytically  !
 ! D185  D(55,54,56,60)       -179.0428         calculate D2E/DX2 analytically  !
 ! D186  D(54,55,57,61)          0.1032         calculate D2E/DX2 analytically  !
 ! D187  D(54,55,57,93)        178.1914         calculate D2E/DX2 analytically  !
 ! D188  D(58,55,57,61)       -177.6264         calculate D2E/DX2 analytically  !
 ! D189  D(58,55,57,93)          0.4618         calculate D2E/DX2 analytically  !
 ! D190  D(54,56,59,61)          1.1166         calculate D2E/DX2 analytically  !
 ! D191  D(54,56,59,97)       -173.9983         calculate D2E/DX2 analytically  !
 ! D192  D(60,56,59,61)        178.2339         calculate D2E/DX2 analytically  !
 ! D193  D(60,56,59,97)          3.119          calculate D2E/DX2 analytically  !
 ! D194  D(54,56,60,84)        112.9272         calculate D2E/DX2 analytically  !
 ! D195  D(59,56,60,84)        -64.1323         calculate D2E/DX2 analytically  !
 ! D196  D(55,57,61,59)         -0.8978         calculate D2E/DX2 analytically  !
 ! D197  D(55,57,61,62)        178.322          calculate D2E/DX2 analytically  !
 ! D198  D(93,57,61,59)       -179.0249         calculate D2E/DX2 analytically  !
 ! D199  D(93,57,61,62)          0.1949         calculate D2E/DX2 analytically  !
 ! D200  D(55,57,93,94)       -127.5798         calculate D2E/DX2 analytically  !
 ! D201  D(55,57,93,95)        113.3761         calculate D2E/DX2 analytically  !
 ! D202  D(55,57,93,96)         -7.6623         calculate D2E/DX2 analytically  !
 ! D203  D(61,57,93,94)         50.5481         calculate D2E/DX2 analytically  !
 ! D204  D(61,57,93,95)        -68.4959         calculate D2E/DX2 analytically  !
 ! D205  D(61,57,93,96)        170.4656         calculate D2E/DX2 analytically  !
 ! D206  D(56,59,61,57)          0.2802         calculate D2E/DX2 analytically  !
 ! D207  D(56,59,61,62)       -178.9394         calculate D2E/DX2 analytically  !
 ! D208  D(97,59,61,57)        175.2905         calculate D2E/DX2 analytically  !
 ! D209  D(97,59,61,62)         -3.9292         calculate D2E/DX2 analytically  !
 ! D210  D(56,59,97,98)       -166.0812         calculate D2E/DX2 analytically  !
 ! D211  D(56,59,97,99)         74.3548         calculate D2E/DX2 analytically  !
 ! D212  D(56,59,97,100)       -44.2761         calculate D2E/DX2 analytically  !
 ! D213  D(61,59,97,98)         18.7836         calculate D2E/DX2 analytically  !
 ! D214  D(61,59,97,99)       -100.7804         calculate D2E/DX2 analytically  !
 ! D215  D(61,59,97,100)       140.5887         calculate D2E/DX2 analytically  !
 ! D216  D(56,60,84,85)       -170.4135         calculate D2E/DX2 analytically  !
 ! D217  D(56,60,84,89)         55.3484         calculate D2E/DX2 analytically  !
 ! D218  D(60,84,85,86)        -79.8924         calculate D2E/DX2 analytically  !
 ! D219  D(60,84,85,87)         39.5835         calculate D2E/DX2 analytically  !
 ! D220  D(60,84,85,88)        159.1153         calculate D2E/DX2 analytically  !
 ! D221  D(89,84,85,86)         59.902          calculate D2E/DX2 analytically  !
 ! D222  D(89,84,85,87)        179.3779         calculate D2E/DX2 analytically  !
 ! D223  D(89,84,85,88)        -61.0903         calculate D2E/DX2 analytically  !
 ! D224  D(60,84,89,90)       -162.8823         calculate D2E/DX2 analytically  !
 ! D225  D(60,84,89,91)        -43.564          calculate D2E/DX2 analytically  !
 ! D226  D(60,84,89,92)         74.9923         calculate D2E/DX2 analytically  !
 ! D227  D(85,84,89,90)         64.623          calculate D2E/DX2 analytically  !
 ! D228  D(85,84,89,91)       -176.0587         calculate D2E/DX2 analytically  !
 ! D229  D(85,84,89,92)        -57.5024         calculate D2E/DX2 analytically  !
 ! D230  D(84,85,88,8)         -35.4584         calculate D2E/DX2 analytically  !
 ! D231  D(86,85,88,8)        -157.2683         calculate D2E/DX2 analytically  !
 ! D232  D(87,85,88,8)          82.1682         calculate D2E/DX2 analytically  !
 --------------------------------------------------------------------------------
 Trust Radius=1.00D-02 FncErr=1.00D-07 GrdErr=1.00D-06 EigMax=2.50D+02 EigMin=1.00D-04
 Number of steps in this run=    534 maximum allowed number of steps=    600.
 Search for a saddle point of order  1.
 Step   0 in ReCalcFC=30 IGetFC= 4 compute analytic Hessian.
 GradGradGradGradGradGradGradGradGradGradGradGradGradGradGradGradGradGrad

 Leave Link  103 at Tue May 28 07:50:21 2019, MaxMem=  6442450944 cpu:               4.9 elap:               0.2
 (Enter /home/ekwan/sw/g16/l202.exe)
 Stoichiometry    C30H47F6NaO15S
 Framework group  C1[X(C30H47F6NaO15S)]
 Deg. of freedom   294
 Full point group                 C1      NOp   1
 Largest Abelian subgroup         C1      NOp   1
 Largest concise Abelian subgroup C1      NOp   1
                         Standard orientation:                         
 ---------------------------------------------------------------------
 Center     Atomic      Atomic             Coordinates (Angstroms)
 Number     Number       Type             X           Y           Z
 ---------------------------------------------------------------------
      1          6           0       -5.459768   -0.128086   -0.696224
      2          6           0       -6.404325    0.905994   -0.083207
      3          6           0       -5.630585    1.856430    0.846535
      4          6           0       -3.564050    1.524770   -0.314183
      5          6           0       -4.215987    0.534950   -1.288107
      6          1           0       -6.253074    2.703868    1.164146
      7          1           0       -6.820228    1.520915   -0.896819
      8          1           0       -5.138557   -0.819330    0.093393
      9          1           0       -3.179526    0.970074    0.554789
     10          1           0       -4.512837    1.085051   -2.190217
     11          8           0       -4.562457    2.455243    0.140407
     12          8           0       -5.211070    1.120157    1.964512
     13          8           0       -7.445058    0.204343    0.572685
     14          8           0       -6.094534   -0.846765   -1.746738
     15          8           0       -3.307344   -0.513583   -1.644166
     16          6           0       -2.411513    2.354482   -0.921390
     17          1           0       -2.214362    3.156451   -0.169963
     18          1           0       -2.843906    2.887689   -1.799511
     19          8           0       -1.298157    1.612759   -1.223942
     20          6           0       -8.535123    1.018629    0.972583
     21          1           0       -8.269802    1.683890    1.805220
     22          1           0       -8.907132    1.628636    0.136294
     23          1           0       -9.328236    0.343857    1.303156
     24          6           0       -6.656244   -2.091005   -1.355162
     25          1           0       -5.889928   -2.755840   -0.929444
     26          1           0       -7.459447   -1.958858   -0.622933
     27          1           0       -7.058178   -2.552088   -2.261464
     28          6           0       -2.962662   -0.532577   -3.026254
     29          1           0       -3.861993   -0.622775   -3.645799
     30          1           0       -2.398719    0.368722   -3.290973
     31          1           0       -2.333237   -1.413452   -3.181799
     32          6           0        2.995758    1.679336   -0.904929
     33          6           0        1.499580    1.369749   -0.957250
     34          6           0        0.786595    2.034065    0.187987
     35          6           0        2.361025    3.877080    0.225341
     36          6           0        3.184219    3.195850   -0.876925
     37          1           0       -0.188129    1.694596    0.489983
     38          1           0        1.052255    1.838383   -1.843889
     39          1           0        3.417167    1.249846    0.008355
     40          1           0        2.904185    3.772159    1.167075
     41          1           0        2.891282    3.596543   -1.856107
     42          8           0        1.051223    3.264002    0.492253
     43          8           0       -0.379941   -0.303872    1.800156
     44          8           0        1.210697   -0.016389   -0.966541
     45          8           0        3.669201    1.177525   -2.049120
     46          8           0        4.542130    3.498848   -0.601312
     47          6           0        2.011509    5.341182   -0.082025
     48          1           0        1.490670    5.771309    0.786266
     49          1           0        1.325858    5.353636   -0.935477
     50          8           0        3.123178    6.121988   -0.451213
     51         16           0        1.026242   -0.187975    2.277417
     52          8           0        1.209653   -0.316327    3.732368
     53          8           0        1.706233    1.063899    1.735455
     54          6           0        1.932657   -1.530212    1.499397
     55          6           0        3.324805   -1.460977    1.460693
     56          6           0        1.246342   -2.580067    0.905592
     57          6           0        4.031791   -2.452539    0.788193
     58          1           0        3.845179   -0.627525    1.915867
     59          6           0        1.972710   -3.560305    0.223616
     60          1           0        0.162172   -2.618270    0.927014
     61          6           0        3.361042   -3.504249    0.156749
     62          1           0        3.914973   -4.259175   -0.388649
     63          6           0        1.051538   -0.558353   -2.285790
     64          1           0        0.169027   -0.120255   -2.767265
     65          1           0        1.935573   -0.365248   -2.897261
     66          1           0        0.920626   -1.634604   -2.156801
     67          6           0        4.490564    0.044385   -1.789243
     68          1           0        5.206598    0.250743   -0.984526
     69          1           0        3.892166   -0.832394   -1.518568
     70          1           0        5.037470   -0.164432   -2.711350
     71          6           0        5.268640    4.001145   -1.719502
     72          1           0        5.278055    3.275277   -2.539725
     73          1           0        4.840400    4.950231   -2.062835
     74          1           0        6.290075    4.170156   -1.370629
     75          6           0        4.001097    6.427662    0.627228
     76          1           0        4.707382    7.171457    0.251756
     77          1           0        3.447639    6.852198    1.476826
     78          1           0        4.555937    5.542177    0.956576
     79          6           0       -4.563575    1.916021    2.953110
     80          1           0       -4.364187    1.259638    3.802195
     81          1           0       -3.619477    2.329279    2.580558
     82          1           0       -5.212066    2.743334    3.274279
     83         11           0       -1.254749   -0.454081   -0.378236
     84          8           0       -1.937918   -2.602760    0.310622
     85          6           0       -2.741369   -2.561008    1.487276
     86          1           0       -2.823713   -3.561739    1.931721
     87          1           0       -2.243300   -1.884925    2.182923
     88          1           0       -3.747707   -2.185770    1.258922
     89          6           0       -2.474299   -3.470133   -0.683572
     90          1           0       -3.439524   -3.093414   -1.040659
     91          1           0       -1.759525   -3.489182   -1.507274
     92          1           0       -2.589702   -4.486550   -0.286331
     93          6           0        5.531045   -2.392345    0.688940
     94          9           0        5.936877   -2.508054   -0.600052
     95          9           0        6.122024   -3.395161    1.372895
     96          9           0        6.028690   -1.230059    1.160823
     97          6           0        1.214550   -4.615527   -0.530453
     98          9           0        1.990914   -5.655495   -0.888164
     99          9           0        0.686155   -4.104012   -1.679817
    100          9           0        0.176635   -5.100598    0.182461
 ---------------------------------------------------------------------
 Rotational constants (GHZ):           0.0637455           0.0364435           0.0273275
 Leave Link  202 at Tue May 28 07:50:21 2019, MaxMem=  6442450944 cpu:               5.0 elap:               0.2
 (Enter /home/ekwan/sw/g16/l301.exe)
 Standard basis: 6-31G(d) (6D, 7F)
 Ernie: Thresh=  0.10000D-02 Tol=  0.10000D-05 Strict=F.
 There are   897 symmetry adapted cartesian basis functions of A   symmetry.
 There are   897 symmetry adapted basis functions of A   symmetry.
   897 basis functions,  1720 primitive gaussians,   897 cartesian basis functions
   214 alpha electrons      214 beta electrons
       nuclear repulsion energy      9436.8151664223 Hartrees.
 IExCor=  402 DFT=T Ex+Corr=B3LYP ExCW=0 ScaHFX=  0.200000
 ScaDFX=  0.800000  0.720000  1.000000  0.810000 ScalE2=  1.000000  1.000000
 IRadAn=      5 IRanWt=     -1 IRanGd=            0 ICorTp=0 IEmpDi=141
 NAtoms=  100 NActive=  100 NUniq=  100 SFac= 1.00D+00 NAtFMM=   60 NAOKFM=T Big=T
 Integral buffers will be    131072 words long.
 Raffenetti 2 integral format.
 Two-electron integral symmetry is turned on.
 R6Disp:  Grimme-D3(BJ) Dispersion energy=       -0.2336325447 Hartrees.
 Nuclear repulsion after empirical dispersion term =     9436.5815338776 Hartrees.
 Force inversion solution in PCM.
 ------------------------------------------------------------------------------
 Polarizable Continuum Model (PCM)
 =================================
 Model                : PCM.
 Atomic radii         : UFF (Universal Force Field).
 Polarization charges : Total charges.
 Charge compensation  : None.
 Solution method      : Matrix inversion.
 Cavity type          : Scaled VdW (van der Waals Surface) (Alpha=1.100).
 Cavity algorithm     : GePol (No added spheres)
                        Default sphere list used, NSphG=  100.
                        Lebedev-Laikov grids with approx.  5.0 points / Ang**2.
                        Smoothing algorithm: York/Karplus (Gamma=1.0000).
                        Polarization charges: spherical gaussians, with
                                              point-specific exponents (IZeta= 3).
                        Self-potential: point-specific (ISelfS= 7).
                        Self-field    : sphere-specific E.n sum rule (ISelfD= 2).
 1st derivatives      : Analytical E(r).r(x)/FMM algorithm (CHGder, D1EAlg=3).
                        Cavity 1st derivative terms included.
 2nd derivatives      : Analytical E(r).r(xy)/FMM algorithm (CHGder, D2EAlg=3).
                        Cavity 2nd derivative terms included.
 Solvent              : TetraHydroFuran, Eps=   7.425700 Eps(inf)=   1.974025
 ------------------------------------------------------------------------------
 GePol: Number of generator spheres                  =     100
 GePol: Total number of spheres                      =     100
 GePol: Number of exposed spheres                    =     100 (100.00%)
 GePol: Number of points                             =    6152
 GePol: Average weight of points                     =       0.12
 GePol: Minimum weight of points                     =   0.10D-10
 GePol: Maximum weight of points                     =    0.20977
 GePol: Number of points with low weight             =     494
 GePol: Fraction of low-weight points (<1% of avg)   =       8.03%
 GePol: Cavity surface area                          =    762.425 Ang**2
 GePol: Cavity volume                                =    976.130 Ang**3
 Leave Link  301 at Tue May 28 07:50:22 2019, MaxMem=  6442450944 cpu:               7.8 elap:               0.3
 (Enter /home/ekwan/sw/g16/l302.exe)
 NPDir=0 NMtPBC=     1 NCelOv=     1 NCel=       1 NClECP=     1 NCelD=      1
         NCelK=      1 NCelE2=     1 NClLst=     1 CellRange=     0.0.
 One-electron integrals computed using PRISM.
 One-electron integral symmetry used in STVInt
 NBasis=   897 RedAO= T EigKep=  3.73D-04  NBF=   897
 NBsUse=   897 1.00D-06 EigRej= -1.00D+00 NBFU=   897
 Precomputing XC quadrature grid using
 IXCGrd= 4 IRadAn=           5 IRanWt=          -1 IRanGd=           0 AccXCQ= 0.00D+00.
 Generated NRdTot=       0 NPtTot=           0 NUsed=           0 NTot=          32
 NSgBfM=   828   821   828   828   828 MxSgAt=   100 MxSgA2=   100.
 Leave Link  302 at Tue May 28 07:50:40 2019, MaxMem=  6442450944 cpu:             540.5 elap:              18.1
 (Enter /home/ekwan/sw/g16/l303.exe)
 DipDrv:  MaxL=1.
 Leave Link  303 at Tue May 28 07:50:41 2019, MaxMem=  6442450944 cpu:              16.0 elap:               0.6
 (Enter /home/ekwan/sw/g16/l401.exe)
 ExpMin= 2.60D-02 ExpMax= 2.19D+04 ExpMxC= 3.30D+03 IAcc=3 IRadAn=         5 AccDes= 0.00D+00
 Harris functional with IExCor=  402 and IRadAn=       5 diagonalized for initial guess.
 HarFok:  IExCor=  402 AccDes= 0.00D+00 IRadAn=         5 IDoV= 1 UseB2=F ITyADJ=14
 ICtDFT=  3500011 ScaDFX=  1.000000  1.000000  1.000000  1.000000
 FoFCou: FMM=F IPFlag=           0 FMFlag=      100000 FMFlg1=        2001
         NFxFlg=           0 DoJE=T BraDBF=F KetDBF=T FulRan=T
         wScrn=  0.000000 ICntrl=       500 IOpCl=  0 I1Cent=   200000004 NGrid=           0
         NMat0=    1 NMatS0=      1 NMatT0=    0 NMatD0=    1 NMtDS0=    0 NMtDT0=    0
 Petite list used in FoFCou.
 Harris En= -3459.37107082598    
 JPrj=0 DoOrth=F DoCkMO=F.
 Leave Link  401 at Tue May 28 07:50:55 2019, MaxMem=  6442450944 cpu:             463.9 elap:              14.6
 (Enter /home/ekwan/sw/g16/l502.exe)
 Integral symmetry usage will be decided dynamically.
 Closed shell SCF:
 Using DIIS extrapolation, IDIIS=  1040.
 NGot=  6442450944 LenX=  6440803163 LenY=  6439997657
 Requested convergence on RMS density matrix=1.00D-08 within 128 cycles.
 Requested convergence on MAX density matrix=1.00D-06.
 Requested convergence on             energy=1.00D-06.
 No special actions if energy rises.
 Fock matrices will be formed incrementally for  20 cycles.

 Cycle   1  Pass 1  IDiag  1:
 FoFJK:  IHMeth= 1 ICntrl=       0 DoSepK=F KAlg= 0 I1Cent=           0 FoldK=F
[...]
 052,-0.00014536,-0.00011141,-0.00001655,-0.00013856,-0.00009969,0.0000
 2678,0.00000452,0.00006517,-0.00001684,0.00000463,-0.00001542,-0.00000
 262,-0.00000143,0.00000050,-0.00000005,-0.00003360,-0.00005520,-0.0000
 1562,-0.00022634,0.00049292,0.00072449,0.00002912,-0.00008322,-0.00032
 995,0.00006669,-0.00023929,-0.00011933,0.00030286,0.00071125,0.0006146
 2,-0.00087203,-0.00001811,0.00000207,-0.00011548,-0.00028107,-0.000363
 72,-0.00023735,-0.00123678,0.00022403,-0.00000766,0.00004290,0.0000046
 5,-0.00921227,0.00982269,-0.01273938,-0.00024051,-0.00008447,0.0000934
 7,0.00153232,0.00007917,-0.00122623,-0.00041335,0.00003016,-0.00019075
 ,0.00030144,0.00146192,0.00065105,-0.00002815,-0.00039350,0.00004406,-
 0.00004671,-0.00040508,0.00003925,-0.00024304,-0.00189646,-0.00028549,
 0.00012072,0.00006975,-0.00002407,-0.00001258,-0.00000082,-0.00001857,
 0.00000005,-0.00003817,-0.00000838,-0.00001749,-0.00001310,0.00003111,
 0.00004336,0.00003480,-0.00006371,0.00000649,0.00000390,0.00000292,-0.
 00000094,-0.00000988,0.00001251,-0.00001541,-0.00000625,0.00000347,0.0
 0001827,0.00002058,0.00002979,-0.00000482,-0.00000567,-0.00000038,0.00
 000221,-0.00000298,-0.00000714,0.00000260,0.00000229,0.00000081,-0.000
 00582,0.00000568,0.00002190,-0.00000233,0.00000095,-0.00000247,0.00000
 101,0.00000410,-0.00000066,0.00000389,-0.00000457,-0.00000218,-0.00050
 316,0.00046135,0.00035050,0.00027476,0.00025218,-0.00040912,-0.0001352
 0,-0.00007202,0.00027018,0.00005499,0.00005372,-0.00004897,0.00000235,
 -0.00001861,-0.00001541,0.00004591,0.00001810,-0.00003954,-0.00011785,
 -0.00041152,0.00093124,0.00019352,0.00010266,-0.00020560,0.00050117,-0
 .00025948,-0.00069009,0.00020836,0.00013121,-0.00018160,0.00090553,-0.
 00033054,0.00007492,-0.00021950,0.00006067,0.00010827,-0.00026278,0.00
 018119,-0.00009627,-0.00025574,-0.00003304,-0.00006302,0.01557344,-0.0
 8004054,0.03107267,0.04186742,-0.03397168,0.03398085,-0.04262641,0.114
 25628,-0.00000836,-0.00000214,-0.00003261,0.00001246,-0.00001267,-0.00
 002169,-0.00000700,0.00002483,-0.00007880,-0.00002321,-0.00002386,-0.0
 0005404,0.00011079,-0.00011971,-0.00005484,0.00000018,-0.00000016,0.00
 000894,0.00000197,-0.00000087,0.00000528,0.00000621,-0.00000671,-0.000
 00238,0.00000341,-0.00000982,0.00001936,-0.00000941,0.00000991,0.00000
 922,-0.00001274,0.00002530,0.00006264,0.00003081,-0.00000489,0.0000725
 3,-0.00002722,0.00001078,0.00003306,-0.00002018,0.00002203,0.00004769,
 -0.00012920,0.00017194,0.00017632,-0.00001166,0.00001360,0.00000909,-0
 .00000632,0.00002186,0.00000898,0.00002385,-0.00001509,0.00000664,0.00
 006623,0.00013412,0.00023534,0.00000919,-0.00001198,-0.00001256,-0.000
 00039,0.00000666,0.00000456,-0.00000055,-0.00000039,0.00000335,-0.0000
 0488,0.00000015,0.00000001,0.00001943,-0.00000711,-0.00000541,0.000003
 13,0.00000556,-0.00001726,-0.00001502,0.00000618,0.00000321,0.00001025
 ,0.00000049,0.00000378,0.00013152,-0.00014520,-0.00016891,-0.00002854,
 0.00002014,0.00001878,-0.00000537,-0.00000420,-0.00000529,-0.00001073,
 0.00003791,0.00006417,-0.00009041,0.00007090,-0.00022738,-0.00011751,-
 0.00035673,0.00021657,-0.00031145,0.00063423,-0.00089107,0.00004383,0.
 00004071,-0.00007278,0.00005353,-0.00000190,-0.00000685,-0.00003307,-0
 .00001813,0.00004096,-0.00000303,-0.00003355,0.00001397,0.00007361,0.0
 0006465,0.00002138,-0.00000656,0.00000977,0.00001460,-0.00000552,-0.00
 002996,0.00001682,-0.00004030,-0.00021771,0.00018894,0.00091504,-0.000
 63094,0.00004456,0.00030243,0.00082362,0.00076665,0.00016676,-0.000055
 07,0.00023548,-0.00001611,-0.00001115,0.00006042,-0.00000774,0.0000330
 6,-0.00001544,0.00000085,-0.00000003,0.00000245,0.00000601,-0.00000307
 ,0.00000605,-0.00000044,-0.00002046,0.00002191,-0.00142680,0.00273762,
 0.00091485,0.00028219,-0.00063006,-0.00070312,0.00024488,-0.00166065,0
 .00049417,-0.00008959,-0.00082885,0.00076620,-0.00098412,-0.00015405,-
 0.00040221,-0.00145503,0.00085411,0.00130105,-0.00133153,-0.00234519,0
 .00060842,-0.00000492,0.00007700,-0.00011391,-0.02544377,0.00636926,-0
 .03017461,-0.00013294,0.00044151,-0.00083836,0.00282496,-0.00178733,-0
 .00349195,0.00001963,0.00069753,-0.00063497,-0.00032694,-0.00171002,-0
 .00049832,0.00005087,0.00027545,0.00003563,0.00001264,0.00026219,0.000
 02204,-0.00009600,-0.00059309,-0.00007355,-0.00007348,0.00015102,-0.00
 006586,0.00008581,0.00010349,0.00000772,-0.00010336,-0.00001110,-0.000
 17866,-0.00004737,-0.00006301,0.00005915,0.00002155,0.00001644,-0.0000
 4815,-0.00000528,0.00000478,0.00000706,0.00000181,-0.00000747,0.000002
 97,0.00000134,0.00000204,0.00000273,-0.00000871,0.00000804,-0.00001148
 ,-0.00000187,-0.00000347,0.00000114,-0.00000097,0.00000232,0.00000085,
 0.00000494,-0.00000385,-0.00000137,-0.00002445,-0.00001318,-0.00003490
 ,-0.00000314,-0.00000277,0.00001177,0.00000516,0.00000728,-0.00000402,
 0.00000640,0.00000177,0.00000371,0.00002020,-0.00022138,-0.00075760,0.
 00026301,0.00004968,0.00108076,0.00008389,0.00012634,-0.00010118,-0.00
 006458,-0.00003842,0.00002911,-0.00008452,0.00003681,0.00009489,0.0000
 2133,-0.00002922,0.00000689,0.00021233,0.00006418,-0.00176686,-0.00018
 796,-0.00002034,0.00029010,0.00138324,-0.00072533,0.00057708,-0.000296
 51,-0.00008260,0.00022034,0.00267532,-0.00052131,-0.00039519,-0.000697
 17,0.00005012,0.00059590,-0.00072365,0.00033538,-0.00015360,-0.0009396
 4,-0.00040733,-0.00013099,-0.06075619,0.03232769,-0.18912890,-0.016783
 13,0.02179740,0.00723448,0.08768915,-0.09165958,0.27124537,0.00001175,
 -0.00007159,0.00004250,0.00000513,-0.00001537,-0.00001489,-0.00002240,
 -0.00004346,0.00001751,-0.00001086,-0.00004452,-0.00000519,0.00005477,
 -0.00008189,-0.00005777,0.00000294,0.00000958,0.00000243,-0.00000944,0
 .00001125,-0.00000163,0.00000777,0.00001385,-0.00002344,-0.00000828,0.
 00000057,-0.00000638,-0.00001604,0.00002550,-0.00000497,0.00005485,0.0
 0004873,-0.00001021,0.00001243,0.00003609,0.00000288,-0.00001740,0.000
 03531,0.00000353,-0.00000990,0.00009559,-0.00001883,0.00001752,0.00020
 745,-0.00009971,-0.00017063,0.00008135,0.00004860,0.00001886,-0.000013
 12,-0.00002463,0.00004319,-0.00001770,0.00000630,0.00029991,0.00000667
 ,0.00005406,0.00002149,-0.00002092,-0.00000411,-0.00000248,0.00000393,
 0.00000403,-0.00000325,0.00000514,-0.00000446,0.00000039,0.00000030,0.
 00000142,0.00004003,-0.00010070,0.00006407,0.00000068,0.00003801,-0.00
 002754,-0.00001474,0.00000801,-0.00000703,-0.00000581,0.00000387,-0.00
 000889,-0.00003618,-0.00001797,0.00011977,0.00000455,0.00000429,-0.000
 01398,-0.00000293,0.00003357,-0.00003718,-0.00002569,-0.00002077,0.000
 03473,-0.00005240,0.00004652,-0.00006145,0.00003102,0.00020709,0.00000
 224,-0.00031450,0.00044259,-0.00033258,0.00004494,0.00005314,-0.000005
 09,0.00005474,0.00007404,0.00001444,-0.00003002,-0.00003115,0.00001914
 ,-0.00001203,-0.00003991,0.00001852,0.00004577,0.00006069,0.00001158,-
 0.00001000,0.00000271,0.00000569,-0.00000154,-0.00002250,0.00000919,-0
 .00000560,-0.00027673,0.00000675,0.00097349,-0.00025900,-0.00005782,0.
 00013105,-0.00025101,0.00015262,0.00007284,-0.00023045,0.00006355,-0.0
 0008905,-0.00008297,0.00003330,-0.00000306,0.00006262,-0.00001629,0.00
 000548,-0.00001622,-0.00000413,0.00000077,-0.00000122,0.00000348,-0.00
 001589,-0.00004954,-0.00001004,-0.00163814,0.00166502,0.00113938,0.000
 32490,-0.00038336,-0.00071992,0.00032813,-0.00101506,0.00008108,0.0000
 5118,-0.00015047,-0.00123758,-0.00050799,-0.00042624,-0.00003757,-0.00
 177598,0.00222192,0.00041511,-0.00158449,0.00025340,-0.00139621,0.0001
 0792,-0.00011468,0.00013210,-0.02877547,-0.01998506,0.01823891,0.00036
 587,-0.00157178,0.00003058,0.00153626,-0.00500452,-0.00191125,0.000736
 98,0.00001192,0.00074441,-0.00001474,0.00008939,-0.00011953,0.00002332
 ,-0.00007453,0.00004818,-0.00000241,0.00000499,0.00001118,-0.00006289,
 0.00004017,-0.00008002,0.00001711,0.00027283,-0.00007148,0.00002810,0.
 00003287,-0.00001527,-0.00007336,-0.00003864,-0.00008231,-0.00001939,-
 0.00003698,0.00004519,0.00003515,0.00003898,-0.00005387,0.00000366,0.0
 0000462,-0.00000095,0.00000099,-0.00001263,0.00001106,-0.00001038,-0.0
 0000198,0.00000290,0.00000711,0.00002279,0.00002026,-0.00000407,-0.000
 00470,0.00000033,0.00000318,-0.00000302,-0.00000667,0.00000402,-0.0000
 0015,0.00000186,-0.00001936,-0.00002933,-0.00000945,0.00000050,-0.0000
 0169,-0.00000495,0.00000606,0.00000391,-0.00000210,-0.00000088,0.00000
 634,0.00000120,-0.00042756,-0.00037001,0.00003484,-0.00103018,0.001190
 98,0.00015339,0.00048594,-0.00022891,-0.00078321,0.00008218,-0.0000250
 8,-0.00002031,-0.00005245,0.00000883,0.00011333,-0.00017522,0.00003869
 ,0.00008673,-0.00068265,-0.00076821,0.00029071,-0.00005046,0.00060992,
 0.00024175,-0.00020738,-0.00034498,0.00049467,0.00069103,0.00090448,-0
 .00064042,0.00225396,-0.00032410,-0.00045459,-0.00053558,0.00000525,0.
 00029921,-0.00067145,0.00038541,-0.00018073,-0.00083248,-0.00047139,-0
 .00008680,-0.19122060,-0.06929183,0.06215541,-0.05134948,0.01514046,0.
 03684333,0.01509145,-0.00626129,0.01514442,0.25847376,-0.00002022,-0.0
 0002574,-0.00001323,-0.00002140,-0.00000294,0.00000997,-0.00004018,-0.
 00002467,0.00003142,-0.00002471,0.00001243,0.00000253,-0.00004498,0.00
 001754,0.00000661,0.00000767,-0.00000017,-0.00000440,0.00000173,0.0000
 0094,-0.00000135,-0.00000355,-0.00000017,0.00000269,-0.00000746,-0.000
 00892,0.00001118,0.00000485,-0.00000555,0.00000181,0.00008043,-0.00000
 343,-0.00003232,0.00001728,0.00001348,-0.00001816,0.00002875,0.0000115
 5,-0.00001110,0.00003519,0.00005009,0.00000518,0.00006120,-0.00000993,
 0.00000731,-0.00015665,0.00011075,0.00004206,0.00001325,-0.00002966,-0
 .00003336,0.00004545,-0.00002637,0.00001254,0.00024960,-0.00008747,0.0
 0005609,-0.00000823,0.00000324,0.00000132,0.00000065,-0.00000130,0.000
 00086,0.00000040,-0.00000094,-0.00000114,0.00000438,0.00000036,-0.0000
 0113,-0.00000912,-0.00004002,0.00001269,-0.00000473,0.00000348,-0.0000
 0575,0.00000458,0.00000117,-0.00000264,0.00000409,0.00000255,0.0000027
 2,-0.00002316,-0.00000013,-0.00000258,0.00001738,-0.00000444,0.0000051
 4,-0.00000658,0.00001043,-0.00000995,-0.00001770,-0.00000544,-0.000021
 18,-0.00000501,0.00002100,-0.00006402,0.00005396,0.00024073,-0.0000012
 2,-0.00025726,0.00046333,-0.00030028,0.00007428,0.00006686,-0.00001117
 ,0.00005377,0.00007335,0.00000843,-0.00002300,-0.00001336,0.00002147,-
 0.00001502,-0.00003420,0.00001871,0.00003791,0.00004613,0.00000822,-0.
 00001291,0.00000089,0.00000613,-0.00000079,-0.00001840,0.00000821,-0.0
 0003687,-0.00032060,0.00000103,0.00063209,-0.00042552,-0.00019215,0.00
 004913,-0.00029434,0.00014495,0.00000841,-0.00016586,0.00006685,-0.000
 10589,-0.00008122,0.00003707,-0.00000003,0.00006611,-0.00001669,0.0000
 0470,-0.00001405,-0.00000251,0.00000031,-0.00000114,0.00000209,-0.0000
 2630,-0.00005341,-0.00000935,-0.00093488,0.00169994,0.00119664,0.00018
 401,-0.00035118,-0.00069411,0.00015800,-0.00097510,0.00010229,-0.00023
 704,0.00040869,0.00004266,-0.00057027,-0.00032245,-0.00008069,-0.00048
 150,-0.00020170,0.00016550,-0.00219971,0.00017639,-0.00067753,-0.00002
 177,-0.00002745,0.00004115,-0.03267862,-0.00625832,0.01386310,-0.00113
 428,-0.00086076,0.00006371,0.00108290,-0.00544340,-0.00230068,-0.00009
 181,-0.00003383,0.00030335,0.00001401,0.00019936,-0.00011428,0.0000225
 5,-0.00006574,0.00004023,-0.00001367,-0.00003590,0.00001936,-0.0000553
 4,0.00012240,-0.00007752,0.00004658,0.00019162,-0.00005449,0.00002023,
 0.00003049,-0.00001640,-0.00005670,-0.00003507,-0.00007072,-0.00002294
 ,-0.00003244,0.00004334,0.00003908,0.00003623,-0.00005945,0.00000381,0
 .00000429,0.00000220,0.00000030,-0.00001105,0.00001120,-0.00001183,-0.
 00000355,0.00000309,0.00001205,0.00002129,0.00002316,-0.00000459,-0.00
 000557,0.00000011,0.00000228,-0.00000235,-0.00000645,0.00000370,0.0000
 0067,0.00000059,-0.00001277,-0.00000484,0.00000983,-0.00000303,0.00000
 002,-0.00000086,0.00000322,0.00000532,-0.00000235,0.00000386,-0.000002
 04,-0.00000090,-0.00031411,0.00019084,-0.00005960,0.00095607,-0.000088
 95,-0.00011552,-0.00015411,-0.00014184,0.00042164,0.00003193,0.0000972
 7,-0.00006022,-0.00002718,-0.00001157,0.00001787,0.00006967,0.00003561
 ,-0.00009653,0.00000076,-0.00100540,0.00032801,0.00010888,0.00009694,-
 0.00009533,0.00003084,0.00004366,-0.00015152,0.00048217,0.00010158,-0.
 00003420,0.00203344,-0.00045304,-0.00047562,-0.00049730,0.00004359,0.0
 0031433,-0.00064486,0.00040202,-0.00017485,-0.00076199,-0.00039940,-0.
 00007237,-0.06513869,-0.11206067,0.02978133,0.02836457,0.01610930,-0.0
 1616077,-0.01230327,-0.00762231,0.03627525,0.08407768,0.11692137,-0.00
 000938,0.00001762,-0.00002925,0.00000306,0.00000040,-0.00000599,0.0000
 0061,0.00002575,-0.00004190,-0.00000877,0.00000456,-0.00002400,0.00003
 043,-0.00002517,-0.00000912,-0.00000007,-0.00000355,0.00000315,0.00000
 396,-0.00000391,0.00000328,0.00000109,-0.00000842,0.00000567,0.0000041
 3,-0.00000517,0.00001136,0.00000049,-0.00000290,0.00000584,-0.00001882
 ,-0.00000536,0.00003053,0.00001155,-0.00001460,0.00003310,-0.00000455,
 -0.00000638,0.00001432,-0.00000351,-0.00001450,0.00002857,-0.00004844,
 0.00002203,0.00009388,0.00003849,-0.00001596,-0.00001181,-0.00000724,0
 .00001179,0.00000978,-0.00000178,-0.00000183,0.00000323,-0.00005285,0.
 00004028,0.00007043,-0.00000378,0.00000194,-0.00000460,0.00000073,0.00
 000189,0.00000086,0.00000089,-0.00000212,0.00000326,-0.00000230,0.,-0.
 00000066,-0.00000448,0.00001998,-0.00001782,0.00000045,-0.00000728,-0.
 00000089,-0.00000437,0.00000235,0.00000208,0.00000591,-0.00000033,0.00
 000447,0.00005840,-0.00004636,-0.00009292,-0.00000946,0.00000671,0.000
 01122,-0.00000125,-0.00000866,0.00000860,0.00000749,0.00002101,0.00001
 178,-0.00000817,0.00000596,-0.00006592,-0.00004417,-0.00016747,0.00006
 405,-0.00002234,0.00009681,-0.00021183,0.00000663,0.00000206,-0.000025
 31,0.00000390,-0.00001879,-0.00000680,-0.00000277,0.00000382,0.0000053
 4,0.00000262,-0.00000134,-0.00000075,0.00001237,0.00000724,0.00000382,
 0.00000030,0.00000222,0.00000379,-0.00000149,-0.00000455,0.00000360,-0
 .00001488,-0.00000393,0.00006055,-0.00002058,-0.00018786,0.00002041,0.
 00005802,0.00030322,0.00023249,0.00002394,0.00005248,0.00006751,0.0000
 1353,0.00001712,0.00001511,-0.00000108,-0.00000453,-0.00000220,-0.0000
 0133,0.00000487,0.00000247,0.00000225,-0.00000058,0.00000119,0.0000028
 6,0.00000558,0.00001201,0.00015103,0.00055792,-0.00003153,-0.00001949,
 -0.00011924,0.00002159,-0.00005001,-0.00024374,0.00016628,0.00005150,0
 .00067094,0.00056200,-0.00068292,0.00002243,0.00007419,0.00029339,-0.0
 0204245,-0.00052316,-0.00025377,-0.00035285,-0.00091027,-0.00006839,0.
 00003208,0.00001301,-0.00305377,-0.00306213,0.00917481,-0.00079982,0.0
 0027066,-0.00017166,0.00063445,-0.00012009,0.00055734,-0.00032700,-0.0
 0012174,0.00015965,-0.00010776,-0.00056424,-0.00018808,0.00001269,0.00
 010224,0.00000158,-0.00000005,0.00007367,0.00000791,0.00005894,-0.0002
 3636,-0.00000420,-0.00002277,-0.00003232,-0.00000160,0.00002112,0.0000
 2667,0.00000671,-0.00001315,0.00000589,-0.00004311,-0.00001383,-0.0000
 1369,0.00001012,-0.00000002,-0.00000463,-0.00000591,-0.00000282,0.0000
 0066,0.00000365,0.00000027,0.00000077,-0.00000178,0.00000300,0.0000008
 9,0.00000024,-0.00000470,-0.00000350,-0.00001028,0.00000030,-0.0000002
 3,0.00000038,-0.00000153,0.00000197,0.00000232,0.00000082,-0.00000139,
 -0.00000127,-0.00000563,0.00000484,-0.00001373,-0.00000200,-0.00000052
 ,0.00000779,0.00000003,0.00000264,-0.00000124,0.00000385,-0.00000173,0
 .00000146,0.00010709,0.00003113,-0.00030258,0.00042283,-0.00042930,0.0
 0039493,-0.00010494,0.00017849,0.00013958,-0.00008583,-0.00003683,0.00
 002535,-0.00003037,0.00003176,0.00001005,0.00006337,-0.00003825,0.0000
 0389,-0.00021140,0.00045179,-0.00122225,-0.00007147,-0.00005066,0.0002
 1596,0.00005073,-0.00014288,0.00026422,-0.00052409,-0.00003937,0.00000
 946,0.00031679,-0.00001258,-0.00031573,-0.00009540,0.00002213,0.000148
 21,-0.00009239,0.00003562,0.00004511,-0.00003508,0.00000637,0.00005677
 ,0.06718965,0.03481236,-0.10743861,0.03766230,-0.00883613,-0.01024708,
 0.02839040,0.04024331,-0.05668100,-0.12875042,-0.06119656,0.16573456\\
 0.00000037,-0.00000207,-0.00000066,-0.00000023,-0.00000271,-0.00000051
 ,-0.00000082,-0.00000269,0.00000001,-0.00000052,-0.00000143,-0.0000000
 5,-0.00000005,-0.00000142,-0.00000031,-0.00000117,-0.00000289,0.,-0.00
 000044,-0.00000266,-0.00000035,0.00000048,-0.00000216,-0.00000079,-0.0
 0000044,-0.00000143,-0.00000012,-0.00000008,-0.00000130,-0.00000022,-0
 .00000093,-0.00000190,0.00000009,-0.00000049,-0.00000263,-0.00000032,-
 0.00000005,-0.00000326,-0.00000075,0.00000077,-0.00000207,-0.00000084,
 0.00000052,-0.00000090,-0.00000052,-0.00000064,-0.00000064,0.00000022,
 -0.00000127,-0.00000074,0.00000055,-0.00000099,-0.00000063,0.00000041,
 -0.00000039,-0.00000016,0.00000023,-0.00000036,-0.00000393,-0.00000067
 ,-0.00000078,-0.00000399,-0.00000046,-0.00000059,-0.00000385,-0.000000
 53,-0.00000013,-0.00000433,-0.00000090,0.00000123,-0.00000242,-0.00000
 126,0.00000147,-0.00000225,-0.00000134,0.00000109,-0.00000303,-0.00000
 129,0.00000152,-0.00000243,-0.00000141,0.00000068,-0.00000036,-0.00000
 039,0.00000082,-0.00000065,-0.00000059,0.00000031,-0.00000008,-0.00000
 018,0.00000103,-0.00000010,-0.00000074,-0.00000051,0.00000173,0.000000
 74,-0.00000034,0.00000112,0.00000040,-0.00000089,0.00000017,0.00000058
 ,-0.00000147,0.00000121,0.00000115,-0.00000119,0.00000176,0.00000112,-
 0.00000062,-0.00000001,0.00000033,-0.00000053,0.00000108,0.00000054,-0
 .00000044,0.00000167,0.00000058,-0.00000168,0.00000118,0.00000119,-0.0
 0000127,0.00000195,0.00000112,-0.00000129,0.00000064,0.00000089,0.0000
 0035,-0.00000050,-0.00000010,0.00000025,0.00000098,0.00000009,-0.00000
 018,0.00000233,0.00000063,-0.00000141,0.00000235,0.00000129,-0.0000022
 3,0.00000107,0.00000152,-0.00000252,0.00000064,0.00000157,-0.00000215,
 0.00000102,0.00000144,-0.00000252,0.00000168,0.00000182,0.00000002,0.0
 0000007,-0.00000031,-0.00000008,-0.00000023,-0.00000005,-0.00000058,0.
 00000036,0.00000047,0.00000065,0.00000063,-0.00000019,0.00000044,0.000
 00133,-0.00000005,0.00000114,0.00000066,-0.00000056,0.00000118,0.00000
 182,-0.00000023,0.00000028,0.00000139,0.00000017,0.00000162,0.00000102
 ,-0.00000071,0.00000125,0.,-0.00000069,0.00000175,0.00000156,-0.000000
 65,0.00000211,0.00000198,-0.00000074,0.00000069,0.00000100,-0.00000017
 ,0.00000052,0.00000094,-0.00000007,0.00000060,0.00000175,0.00000003,0.
 00000108,0.00000112,-0.00000037,0.00000032,0.00000262,0.00000043,0.000
 00014,0.00000273,0.00000053,0.00000068,0.00000231,0.00000014,0.0000005
 0,0.00000311,0.00000041,-0.00000146,0.00000296,0.00000149,-0.00000105,
 0.00000317,0.00000131,-0.00000184,0.00000286,0.00000169,-0.00000157,0.
 00000333,0.00000164,-0.00000280,0.00000178,0.00000198,-0.00000308,0.00
 000221,0.00000224,-0.00000306,0.00000134,0.00000203,-0.00000243,0.0000
 0196,0.00000181,-0.00000105,-0.00000268,-0.00000009,-0.00000079,-0.000
 00274,-0.00000017,-0.00000114,-0.00000210,0.00000019,-0.00000140,-0.00
 000298,0.00000013,0.00000068,-0.00000010,-0.00000022,0.00000122,-0.000
 00073,-0.00000081,0.00000102,-0.00000138,-0.00000093,0.00000155,-0.000
 00158,-0.00000124,0.00000079,-0.00000139,-0.00000077,0.00000101,-0.000
 00185,-0.00000098,0.00000180,-0.00000074,-0.00000123,0.00000165,-0.000
 00111,-0.00000117,0.00000180,-0.00000024,-0.00000105,0.00000219,-0.000
 00092,-0.00000145,0.00000120,0.00000250,-0.00000010,0.00000135,0.00000
 298,-0.00000013,0.00000155,0.00000253,-0.00000028,0.00000059,0.0000025
 8,0.00000024,0.00000225,0.00000082,-0.00000113,0.00000279,0.00000126,-
 0.00000129,0.00000223,0.00000093,-0.00000104,0.00000242,0.00000019,-0.
 00000132\\\@


 IT IS A SIMPLE TASK TO MAKE THINGS COMPLEX,
 BUT A COMPLEX TASK TO MAKE THEM SIMPLE.
 Job cpu time:       4 days  6 hours 50 minutes 40.5 seconds.
 Elapsed time:       0 days  3 hours 25 minutes 44.6 seconds.
 File lengths (MBytes):  RWF=   9755 Int=      0 D2E=      0 Chk=    106 Scr=      1
 Normal termination of Gaussian 16 at Tue May 28 14:46:07 2019.
