 Entering Gaussian System, Link 0=g16
 Input=clay_new-glu_gluC6-DADR-Na2_1Me2O-bisCF3-ts-b3lyp_d3bj-631gd-pcm_thf.gjf
 Output=clay_new-glu_gluC6-DADR-Na2_1Me2O-bisCF3-ts-b3lyp_d3bj-631gd-pcm_thf.out
 Initial command:
 /home/ekwan/sw/g16/l1.exe "/scratch/users/ekwan/clay_new-glu_gluC6-DADR-Na2_1Me2O-bisCF3-ts-b3lyp_d3bj-631gd-pcm_thf/Gau-21868.inp" -scrdir="/scratch/users/ekwan/clay_new-glu_gluC6-DADR-Na2_1Me2O-bisCF3-ts-b3lyp_d3bj-631gd-pcm_thf/"
 Entering Link 1 = /home/ekwan/sw/g16/l1.exe PID=     21869.
  
 Copyright (c) 1988,1990,1992,1993,1995,1998,2003,2009,2016,
            Gaussian, Inc.  All Rights Reserved.
  
 This is part of the Gaussian(R) 16 program.  It is based on
 the Gaussian(R) 09 system (copyright 2009, Gaussian, Inc.),
 the Gaussian(R) 03 system (copyright 2003, Gaussian, Inc.),
 the Gaussian(R) 98 system (copyright 1998, Gaussian, Inc.),
 the Gaussian(R) 94 system (copyright 1995, Gaussian, Inc.),
 the Gaussian 92(TM) system (copyright 1992, Gaussian, Inc.),
 the Gaussian 90(TM) system (copyright 1990, Gaussian, Inc.),
 the Gaussian 88(TM) system (copyright 1988, Gaussian, Inc.),
 the Gaussian 86(TM) system (copyright 1986, Carnegie Mellon
 University), and the Gaussian 82(TM) system (copyright 1983,
 Carnegie Mellon University). Gaussian is a federally registered
 trademark of Gaussian, Inc.
  
 This software contains proprietary and confidential information,
 including trade secrets, belonging to Gaussian, Inc.
  
 This software is provided under written license and may be
 used, copied, transmitted, or stored only in accord with that
 written license.
  
 The following legend is applicable only to US Government
 contracts under FAR:
  
                    RESTRICTED RIGHTS LEGEND
  
 Use, reproduction and disclosure by the US Government is
 subject to restrictions as set forth in subparagraphs (a)
 and (c) of the Commercial Computer Software - Restricted
 Rights clause in FAR 52.227-19.
  
 Gaussian, Inc.
 340 Quinnipiac St., Bldg. 40, Wallingford CT 06492
  
  
 ---------------------------------------------------------------
 Warning -- This program may not be used in any manner that
 competes with the business of Gaussian, Inc. or will provide
 assistance to any competitor of Gaussian, Inc.  The licensee
 of this program is prohibited from giving any competitor of
 Gaussian, Inc. access to this program.  By using this program,
 the user acknowledges that Gaussian, Inc. is engaged in the
 business of creating and licensing software in the field of
 computational chemistry and represents and warrants to the
 licensee that it is not a competitor of Gaussian, Inc. and that
 it will not use this program in any manner prohibited above.
 ---------------------------------------------------------------
  

 Cite this work as:
 Gaussian 16, Revision A.03,
 M. J. Frisch, G. W. Trucks, H. B. Schlegel, G. E. Scuseria, 
 M. A. Robb, J. R. Cheeseman, G. Scalmani, V. Barone, 
 G. A. Petersson, H. Nakatsuji, X. Li, M. Caricato, A. V. Marenich, 
 J. Bloino, B. G. Janesko, R. Gomperts, B. Mennucci, H. P. Hratchian, 
 J. V. Ortiz, A. F. Izmaylov, J. L. Sonnenberg, D. Williams-Young, 
 F. Ding, F. Lipparini, F. Egidi, J. Goings, B. Peng, A. Petrone, 
 T. Henderson, D. Ranasinghe, V. G. Zakrzewski, J. Gao, N. Rega, 
 G. Zheng, W. Liang, M. Hada, M. Ehara, K. Toyota, R. Fukuda, 
 J. Hasegawa, M. Ishida, T. Nakajima, Y. Honda, O. Kitao, H. Nakai, 
 T. Vreven, K. Throssell, J. A. Montgomery, Jr., J. E. Peralta, 
 F. Ogliaro, M. J. Bearpark, J. J. Heyd, E. N. Brothers, K. N. Kudin, 
 V. N. Staroverov, T. A. Keith, R. Kobayashi, J. Normand, 
 K. Raghavachari, A. P. Rendell, J. C. Burant, S. S. Iyengar, 
 J. Tomasi, M. Cossi, J. M. Millam, M. Klene, C. Adamo, R. Cammi, 
 J. W. Ochterski, R. L. Martin, K. Morokuma, O. Farkas, 
 J. B. Foresman, and D. J. Fox, Gaussian, Inc., Wallingford CT, 2016.
 
 ******************************************
 Gaussian 16:  AS64L-G16RevA.03 25-Dec-2016
                31-May-2019 
 ******************************************
 %mem=48GB
 %nprocshared=32
 Will use up to   32 processors via shared memory.
 ----------------------------------------------------------------------
 #p opt=(ts,noeigentest,calcfc,maxstep=5,modredundant,recalc=30) freq=n
 oraman b3lyp 6-31g* pop=none scrf=(solvent=tetrahydrofuran,pcm) empiri
 caldispersion=gd3bj
 ----------------------------------------------------------------------
 1/5=1,8=5,10=4,11=1,18=120,26=3,38=1,71=30/1,3;
 2/9=110,12=2,17=6,18=5,40=1/2;
 3/5=1,6=6,7=1,11=2,25=1,30=1,70=2201,71=2,72=20,74=-5,124=41,140=1/1,2,3;
 4//1;
 5/5=2,38=5,53=20/2;
 8/6=4,10=90,11=11/1;
 11/6=1,8=1,9=11,15=111,16=1/1,2,10;
 10/6=1,13=1/2;
 7/10=1,18=20,25=1/1,2,3,16;
 1/5=1,8=5,10=4,11=1,18=20,26=3,71=30/3(2);
 2/9=110/2;
 99//99;
 2/9=110/2;
 3/5=1,6=6,7=1,11=2,25=1,30=1,70=2205,71=1,72=20,74=-5,124=41/1,2,3;
 4/5=5,16=3,69=1/1;
 5/5=2,38=5,53=20/2;
 7//1,2,3,16;
 1/5=1,8=5,11=1,18=20,26=3,71=30/3(-5);
 2/9=110/2;
 99/9=1/99;
 Leave Link    1 at Fri May 31 08:02:36 2019, MaxMem=  6442450944 cpu:               6.3 elap:               0.2
 (Enter /home/ekwan/sw/g16/l101.exe)
 -----
 title
 -----
 Symbolic Z-matrix:
 Charge =  0 Multiplicity = 1
 C                     4.28742  -2.54299  -0.7984 
 C                     4.37786  -1.0453   -1.09485 
 C                     3.2882   -0.5971   -2.0813 
 C                     1.83717  -2.40944  -1.48237 
 C                     2.85447  -2.96386  -0.48387 
 H                     3.23069   0.49801  -2.13056 
 H                     4.18832  -0.50108  -0.15965 
 H                     4.63813  -3.10463  -1.67394 
 H                     2.01368  -2.88367  -2.45736 
 H                     2.61357  -2.57583   0.51238 
 O                     2.01667  -0.98602  -1.60804 
 O                     3.59506  -1.12149  -3.34544 
 O                     5.69223  -0.77076  -1.54788 
 O                     5.06819  -2.87692   0.34716 
 O                     2.79149  -4.38555  -0.47569 
 C                     0.37693  -2.65994  -1.06383 
 H                     0.24073  -3.76083  -1.12672 
 H                    -0.23845  -2.24513  -1.89416 
 O                     0.03427  -2.13993   0.15776 
 C                     5.98499   0.61174  -1.68014 
 H                     5.49299   1.05022  -2.5589 
 H                     5.67922   1.17513  -0.78794 
 H                     7.06705   0.69492  -1.80637 
 C                     6.39151  -3.31116   0.065 
 H                     6.38306  -4.19301  -0.59179 
 H                     6.9845   -2.52049  -0.40558 
 H                     6.84042  -3.58761   1.02283 
 C                     2.25125  -4.92914   0.71831 
 H                     2.88462  -4.68695   1.58383 
 H                     1.23314  -4.56168   0.90294 
 H                     2.22524  -6.01465   0.59045 
 C                    -4.14688  -0.12379  -0.90146 
 C                    -2.6339   -0.36524  -0.85248 
 C                    -2.25771  -1.00477   0.44992 
 C                    -4.37263  -2.18266   0.60095 
 C                    -4.85714  -1.45531  -0.66241 
 H                    -1.27926  -0.88359   0.86607 
 H                    -2.38284  -1.10865  -1.63241 
 H                    -4.41754   0.58572  -0.11082 
 H                    -4.9584   -1.81829   1.44626 
 H                    -4.68268  -2.09285  -1.539 
 O                    -2.98396  -1.90284   1.00457 
 O                    -0.68619   0.01196   2.8723 
 O                    -1.94591   0.83221  -1.07903 
 O                    -4.54695   0.34919  -2.16916 
 O                    -6.24643  -1.2506   -0.4722 
 C                    -4.42329  -3.71361   0.47594 
 H                    -4.16126  -4.1635    1.44469 
 H                    -3.67395  -4.01926  -0.26155 
 O                    -5.66377  -4.18497   0.00665 
 S                    -1.61665   1.15602   2.60825 
 O                    -1.96353   1.93732   3.8097 
 O                    -2.81682   0.73861   1.8027 
 C                    -0.68975   2.23997   1.51269 
 C                    -1.38132   3.103     0.66507 
 C                     0.69852   2.20032   1.5098 
 C                    -0.6633    3.92875  -0.19512 
 H                    -2.46336   3.09687   0.65166 
 C                     1.40606   3.04634   0.65247 
 H                     1.22784   1.5041    2.14775 
 C                     0.7343    3.912    -0.2052 
 H                     1.28516   4.55665  -0.87846 
 C                    -0.64971   0.66479  -1.6597 
 H                    -0.25019   1.66938  -1.79782 
 H                     0.00586   0.07472  -1.01776 
 H                    -0.72904   0.16978  -2.63672 
 C                    -4.6256    1.77009  -2.27382 
 H                    -5.3112    2.17883  -1.51873 
 H                    -3.6433    2.23742  -2.16249 
 H                    -5.02444   1.98149  -3.26875 
 C                    -7.0469   -1.58635  -1.60317 
 H                    -6.77871  -0.97446  -2.47028 
 H                    -6.93923  -2.65016  -1.84813 
 H                    -8.08141  -1.38397  -1.31665 
 C                    -6.71267  -4.11464   0.96838 
 H                    -7.55927  -4.6583    0.54365 
 H                    -6.41329  -4.59205   1.91193 
 H                    -7.01275  -3.07858   1.16024 
 C                     2.72179  -0.65412  -4.36768 
 H                     3.10211  -1.04809  -5.31219 
 H                     1.69508  -1.0042   -4.21095 
 H                     2.71856   0.44481  -4.40598 
 Na                    0.91982  -1.34934   1.96746 
 O                     2.59952  -0.2676    3.1406 
 C                     3.99359  -0.33124   2.8431 
 H                     4.55799  -0.67826   3.71873 
 H                     4.13     -1.04517   2.02897 
 H                     4.3667    0.65392   2.53895 
 C                     2.33258   0.51792   4.30216 
 H                     2.69254   1.54573   4.16214 
 H                     1.25067   0.5221    4.44087 
 H                     2.82314   0.08189   5.18219 
 C                     2.90401   2.95284   0.64733 
 F                     3.48604   3.9055   -0.10148 
 F                     3.31739   1.75039   0.15677 
 F                     3.41669   3.04035   1.89765 
 C                    -1.40884   4.74577  -1.21171 
 F                    -2.59845   5.17554  -0.74393 
 F                    -1.66962   4.01108  -2.32564 
 F                    -0.7075    5.82619  -1.61254 
 
 Add virtual bond connecting atoms H37        and O19        Dist= 3.69D+00.
 Add virtual bond connecting atoms O84        and Na83       Dist= 4.38D+00.
 Add virtual bond connecting atoms H87        and H7         Dist= 4.26D+00.
 The following ModRedundant input section has been read:
 
 ITRead=  0  0  0  0  0  0  0  0  0  0  0  0  0  0  0  0  0  0  0  0
 ITRead=  0  0  0  0  0  0  0  0  0  0  0  0  0  0  0  0  0  0  0  0
 ITRead=  0  0  0  0  0  0  0  0  0  0  0  0  0  0  0  0  0  0  0  0
 ITRead=  0  0  0  0  0  0  0  0  0  0  0  0  0  0  0  0  0  0  0  0
 ITRead=  0  0  0  0  0  0  0  0  0  0  0  0  0  0  0  0  0  0  0  0
 MicOpt= -1 -1 -1 -1 -1 -1 -1 -1 -1 -1 -1 -1 -1 -1 -1 -1 -1 -1 -1 -1
 MicOpt= -1 -1 -1 -1 -1 -1 -1 -1 -1 -1 -1 -1 -1 -1 -1 -1 -1 -1 -1 -1
 MicOpt= -1 -1 -1 -1 -1 -1 -1 -1 -1 -1 -1 -1 -1 -1 -1 -1 -1 -1 -1 -1
 MicOpt= -1 -1 -1 -1 -1 -1 -1 -1 -1 -1 -1 -1 -1 -1 -1 -1 -1 -1 -1 -1
 MicOpt= -1 -1 -1 -1 -1 -1 -1 -1 -1 -1 -1 -1 -1 -1 -1 -1 -1 -1 -1 -1
 NAtoms=    100 NQM=      100 NQMF=       0 NMMI=      0 NMMIF=      0
                NMic=       0 NMicF=      0.
                    Isotopes and Nuclear Properties:
 (Nuclear quadrupole moments (NQMom) in fm**2, nuclear magnetic moments (NMagM)
  in nuclear magnetons)

  Atom         1           2           3           4           5           6           7           8           9          10
 IAtWgt=          12          12          12          12          12           1           1           1           1           1
 AtmWgt=  12.0000000  12.0000000  12.0000000  12.0000000  12.0000000   1.0078250   1.0078250   1.0078250   1.0078250   1.0078250
 NucSpn=           0           0           0           0           0           1           1           1           1           1
 AtZEff=   0.0000000   0.0000000   0.0000000   0.0000000   0.0000000   0.0000000   0.0000000   0.0000000   0.0000000   0.0000000
 NQMom=    0.0000000   0.0000000   0.0000000   0.0000000   0.0000000   0.0000000   0.0000000   0.0000000   0.0000000   0.0000000
 NMagM=    0.0000000   0.0000000   0.0000000   0.0000000   0.0000000   2.7928460   2.7928460   2.7928460   2.7928460   2.7928460
 AtZNuc=   6.0000000   6.0000000   6.0000000   6.0000000   6.0000000   1.0000000   1.0000000   1.0000000   1.0000000   1.0000000

  Atom        11          12          13          14          15          16          17          18          19          20
 IAtWgt=          16          16          16          16          16          12           1           1          16          12
 AtmWgt=  15.9949146  15.9949146  15.9949146  15.9949146  15.9949146  12.0000000   1.0078250   1.0078250  15.9949146  12.0000000
 NucSpn=           0           0           0           0           0           0           1           1           0           0
 AtZEff=   0.0000000   0.0000000   0.0000000   0.0000000   0.0000000   0.0000000   0.0000000   0.0000000   0.0000000   0.0000000
 NQMom=    0.0000000   0.0000000   0.0000000   0.0000000   0.0000000   0.0000000   0.0000000   0.0000000   0.0000000   0.0000000
 NMagM=    0.0000000   0.0000000   0.0000000   0.0000000   0.0000000   0.0000000   2.7928460   2.7928460   0.0000000   0.0000000
 AtZNuc=   8.0000000   8.0000000   8.0000000   8.0000000   8.0000000   6.0000000   1.0000000   1.0000000   8.0000000   6.0000000

  Atom        21          22          23          24          25          26          27          28          29          30
 IAtWgt=           1           1           1          12           1           1           1          12           1           1
 AtmWgt=   1.0078250   1.0078250   1.0078250  12.0000000   1.0078250   1.0078250   1.0078250  12.0000000   1.0078250   1.0078250
 NucSpn=           1           1           1           0           1           1           1           0           1           1
 AtZEff=   0.0000000   0.0000000   0.0000000   0.0000000   0.0000000   0.0000000   0.0000000   0.0000000   0.0000000   0.0000000
 NQMom=    0.0000000   0.0000000   0.0000000   0.0000000   0.0000000   0.0000000   0.0000000   0.0000000   0.0000000   0.0000000
 NMagM=    2.7928460   2.7928460   2.7928460   0.0000000   2.7928460   2.7928460   2.7928460   0.0000000   2.7928460   2.7928460
 AtZNuc=   1.0000000   1.0000000   1.0000000   6.0000000   1.0000000   1.0000000   1.0000000   6.0000000   1.0000000   1.0000000

  Atom        31          32          33          34          35          36          37          38          39          40
 IAtWgt=           1          12          12          12          12          12           1           1           1           1
 AtmWgt=   1.0078250  12.0000000  12.0000000  12.0000000  12.0000000  12.0000000   1.0078250   1.0078250   1.0078250   1.0078250
 NucSpn=           1           0           0           0           0           0           1           1           1           1
 AtZEff=   0.0000000   0.0000000   0.0000000   0.0000000   0.0000000   0.0000000   0.0000000   0.0000000   0.0000000   0.0000000
 NQMom=    0.0000000   0.0000000   0.0000000   0.0000000   0.0000000   0.0000000   0.0000000   0.0000000   0.0000000   0.0000000
 NMagM=    2.7928460   0.0000000   0.0000000   0.0000000   0.0000000   0.0000000   2.7928460   2.7928460   2.7928460   2.7928460
 AtZNuc=   1.0000000   6.0000000   6.0000000   6.0000000   6.0000000   6.0000000   1.0000000   1.0000000   1.0000000   1.0000000

  Atom        41          42          43          44          45          46          47          48          49          50
 IAtWgt=           1          16          16          16          16          16          12           1           1          16
 AtmWgt=   1.0078250  15.9949146  15.9949146  15.9949146  15.9949146  15.9949146  12.0000000   1.0078250   1.0078250  15.9949146
 NucSpn=           1           0           0           0           0           0           0           1           1           0
 AtZEff=   0.0000000   0.0000000   0.0000000   0.0000000   0.0000000   0.0000000   0.0000000   0.0000000   0.0000000   0.0000000
 NQMom=    0.0000000   0.0000000   0.0000000   0.0000000   0.0000000   0.0000000   0.0000000   0.0000000   0.0000000   0.0000000
 NMagM=    2.7928460   0.0000000   0.0000000   0.0000000   0.0000000   0.0000000   0.0000000   2.7928460   2.7928460   0.0000000
 AtZNuc=   1.0000000   8.0000000   8.0000000   8.0000000   8.0000000   8.0000000   6.0000000   1.0000000   1.0000000   8.0000000

  Atom        51          52          53          54          55          56          57          58          59          60
 IAtWgt=          32          16          16          12          12          12          12           1          12           1
 AtmWgt=  31.9720718  15.9949146  15.9949146  12.0000000  12.0000000  12.0000000  12.0000000   1.0078250  12.0000000   1.0078250
 NucSpn=           0           0           0           0           0           0           0           1           0           1
 AtZEff=   0.0000000   0.0000000   0.0000000   0.0000000   0.0000000   0.0000000   0.0000000   0.0000000   0.0000000   0.0000000
 NQMom=    0.0000000   0.0000000   0.0000000   0.0000000   0.0000000   0.0000000   0.0000000   0.0000000   0.0000000   0.0000000
 NMagM=    0.0000000   0.0000000   0.0000000   0.0000000   0.0000000   0.0000000   0.0000000   2.7928460   0.0000000   2.7928460
 AtZNuc=  16.0000000   8.0000000   8.0000000   6.0000000   6.0000000   6.0000000   6.0000000   1.0000000   6.0000000   1.0000000

  Atom        61          62          63          64          65          66          67          68          69          70
 IAtWgt=          12           1          12           1           1           1          12           1           1           1
 AtmWgt=  12.0000000   1.0078250  12.0000000   1.0078250   1.0078250   1.0078250  12.0000000   1.0078250   1.0078250   1.0078250
 NucSpn=           0           1           0           1           1           1           0           1           1           1
 AtZEff=   0.0000000   0.0000000   0.0000000   0.0000000   0.0000000   0.0000000   0.0000000   0.0000000   0.0000000   0.0000000
 NQMom=    0.0000000   0.0000000   0.0000000   0.0000000   0.0000000   0.0000000   0.0000000   0.0000000   0.0000000   0.0000000
 NMagM=    0.0000000   2.7928460   0.0000000   2.7928460   2.7928460   2.7928460   0.0000000   2.7928460   2.7928460   2.7928460
 AtZNuc=   6.0000000   1.0000000   6.0000000   1.0000000   1.0000000   1.0000000   6.0000000   1.0000000   1.0000000   1.0000000

  Atom        71          72          73          74          75          76          77          78          79          80
 IAtWgt=          12           1           1           1          12           1           1           1          12           1
 AtmWgt=  12.0000000   1.0078250   1.0078250   1.0078250  12.0000000   1.0078250   1.0078250   1.0078250  12.0000000   1.0078250
 NucSpn=           0           1           1           1           0           1           1           1           0           1
 AtZEff=   0.0000000   0.0000000   0.0000000   0.0000000   0.0000000   0.0000000   0.0000000   0.0000000   0.0000000   0.0000000
 NQMom=    0.0000000   0.0000000   0.0000000   0.0000000   0.0000000   0.0000000   0.0000000   0.0000000   0.0000000   0.0000000
 NMagM=    0.0000000   2.7928460   2.7928460   2.7928460   0.0000000   2.7928460   2.7928460   2.7928460   0.0000000   2.7928460
 AtZNuc=   6.0000000   1.0000000   1.0000000   1.0000000   6.0000000   1.0000000   1.0000000   1.0000000   6.0000000   1.0000000

  Atom        81          82          83          84          85          86          87          88          89          90
 IAtWgt=           1           1          23          16          12           1           1           1          12           1
 AtmWgt=   1.0078250   1.0078250  22.9897697  15.9949146  12.0000000   1.0078250   1.0078250   1.0078250  12.0000000   1.0078250
 NucSpn=           1           1           3           0           0           1           1           1           0           1
 AtZEff=   0.0000000   0.0000000   0.0000000   0.0000000   0.0000000   0.0000000   0.0000000   0.0000000   0.0000000   0.0000000
 NQMom=    0.0000000   0.0000000  10.4000000   0.0000000   0.0000000   0.0000000   0.0000000   0.0000000   0.0000000   0.0000000
 NMagM=    2.7928460   2.7928460   2.2175200   0.0000000   0.0000000   2.7928460   2.7928460   2.7928460   0.0000000   2.7928460
 AtZNuc=   1.0000000   1.0000000  11.0000000   8.0000000   6.0000000   1.0000000   1.0000000   1.0000000   6.0000000   1.0000000

  Atom        91          92          93          94          95          96          97          98          99         100
 IAtWgt=           1           1          12          19          19          19          12          19          19          19
 AtmWgt=   1.0078250   1.0078250  12.0000000  18.9984033  18.9984033  18.9984033  12.0000000  18.9984033  18.9984033  18.9984033
 NucSpn=           1           1           0           1           1           1           0           1           1           1
 AtZEff=   0.0000000   0.0000000   0.0000000   0.0000000   0.0000000   0.0000000   0.0000000   0.0000000   0.0000000   0.0000000
 NQMom=    0.0000000   0.0000000   0.0000000   0.0000000   0.0000000   0.0000000   0.0000000   0.0000000   0.0000000   0.0000000
 NMagM=    2.7928460   2.7928460   0.0000000   2.6288670   2.6288670   2.6288670   0.0000000   2.6288670   2.6288670   2.6288670
 AtZNuc=   1.0000000   1.0000000   6.0000000   9.0000000   9.0000000   9.0000000   6.0000000   9.0000000   9.0000000   9.0000000
 Leave Link  101 at Fri May 31 08:02:37 2019, MaxMem=  6442450944 cpu:              16.9 elap:               0.6
 (Enter /home/ekwan/sw/g16/l103.exe)

 GradGradGradGradGradGradGradGradGradGradGradGradGradGradGradGradGradGrad
 Berny optimization.
 Initialization pass.
                           ----------------------------
                           !    Initial Parameters    !
                           ! (Angstroms and Degrees)  !
 --------------------------                            --------------------------
 ! Name  Definition              Value          Derivative Info.                !
 --------------------------------------------------------------------------------
 ! R1    R(1,2)                  1.5294         calculate D2E/DX2 analytically  !
 ! R2    R(1,5)                  1.5262         calculate D2E/DX2 analytically  !
 ! R3    R(1,8)                  1.0977         calculate D2E/DX2 analytically  !
 ! R4    R(1,14)                 1.426          calculate D2E/DX2 analytically  !
 ! R5    R(2,3)                  1.5367         calculate D2E/DX2 analytically  !
 ! R6    R(2,7)                  1.0985         calculate D2E/DX2 analytically  !
 ! R7    R(2,13)                 1.4171         calculate D2E/DX2 analytically  !
 ! R8    R(3,6)                  1.0977         calculate D2E/DX2 analytically  !
 ! R9    R(3,11)                 1.4114         calculate D2E/DX2 analytically  !
 ! R10   R(3,12)                 1.4026         calculate D2E/DX2 analytically  !
 ! R11   R(4,5)                  1.5295         calculate D2E/DX2 analytically  !
 ! R12   R(4,9)                  1.0985         calculate D2E/DX2 analytically  !
 ! R13   R(4,11)                 1.4402         calculate D2E/DX2 analytically  !
 ! R14   R(4,16)                 1.5396         calculate D2E/DX2 analytically  !
 ! R15   R(5,10)                 1.096          calculate D2E/DX2 analytically  !
 ! R16   R(5,15)                 1.4231         calculate D2E/DX2 analytically  !
 ! R17   R(7,87)                 2.256          calculate D2E/DX2 analytically  !
 ! R18   R(12,79)                1.4234         calculate D2E/DX2 analytically  !
 ! R19   R(13,20)                1.4193         calculate D2E/DX2 analytically  !
 ! R20   R(14,24)                1.421          calculate D2E/DX2 analytically  !
 ! R21   R(15,28)                1.4188         calculate D2E/DX2 analytically  !
 ! R22   R(16,17)                1.1111         calculate D2E/DX2 analytically  !
 ! R23   R(16,18)                1.1136         calculate D2E/DX2 analytically  !
 ! R24   R(16,19)                1.3712         calculate D2E/DX2 analytically  !
 ! R25   R(19,37)                1.9508         calculate D2E/DX2 analytically  !
 ! R26   R(19,83)                2.1643         calculate D2E/DX2 analytically  !
 ! R27   R(20,21)                1.0984         calculate D2E/DX2 analytically  !
 ! R28   R(20,22)                1.0986         calculate D2E/DX2 analytically  !
 ! R29   R(20,23)                1.0926         calculate D2E/DX2 analytically  !
 ! R30   R(24,25)                1.0996         calculate D2E/DX2 analytically  !
 ! R31   R(24,26)                1.0946         calculate D2E/DX2 analytically  !
 ! R32   R(24,27)                1.0933         calculate D2E/DX2 analytically  !
 ! R33   R(28,29)                1.0995         calculate D2E/DX2 analytically  !
 ! R34   R(28,30)                1.098          calculate D2E/DX2 analytically  !
 ! R35   R(28,31)                1.0933         calculate D2E/DX2 analytically  !
 ! R36   R(32,33)                1.5329         calculate D2E/DX2 analytically  !
 ! R37   R(32,36)                1.5279         calculate D2E/DX2 analytically  !
 ! R38   R(32,39)                1.0963         calculate D2E/DX2 analytically  !
 ! R39   R(32,45)                1.411          calculate D2E/DX2 analytically  !
 ! R40   R(33,34)                1.4989         calculate D2E/DX2 analytically  !
 ! R41   R(33,38)                1.1063         calculate D2E/DX2 analytically  !
 ! R42   R(33,44)                1.3995         calculate D2E/DX2 analytically  !
 ! R43   R(34,37)                1.0702         calculate D2E/DX2 analytically  !
 ! R44   R(34,42)                1.2813         calculate D2E/DX2 analytically  !
 ! R45   R(35,36)                1.5362         calculate D2E/DX2 analytically  !
 ! R46   R(35,40)                1.0911         calculate D2E/DX2 analytically  !
 ! R47   R(35,42)                1.473          calculate D2E/DX2 analytically  !
 ! R48   R(35,47)                1.5369         calculate D2E/DX2 analytically  !
 ! R49   R(36,41)                1.0979         calculate D2E/DX2 analytically  !
 ! R50   R(36,46)                1.4171         calculate D2E/DX2 analytically  !
 ! R51   R(43,51)                1.4981         calculate D2E/DX2 analytically  !
 ! R52   R(43,83)                2.2915         calculate D2E/DX2 analytically  !
 ! R53   R(44,63)                1.4301         calculate D2E/DX2 analytically  !
 ! R54   R(45,67)                1.4269         calculate D2E/DX2 analytically  !
 ! R55   R(46,71)                1.4257         calculate D2E/DX2 analytically  !
 ! R56   R(47,48)                1.0998         calculate D2E/DX2 analytically  !
 ! R57   R(47,49)                1.0949         calculate D2E/DX2 analytically  !
 ! R58   R(47,50)                1.4076         calculate D2E/DX2 analytically  !
 ! R59   R(50,75)                1.4248         calculate D2E/DX2 analytically  !
 ! R60   R(51,52)                1.4745         calculate D2E/DX2 analytically  !
 ! R61   R(51,53)                1.5045         calculate D2E/DX2 analytically  !
 ! R62   R(51,54)                1.7984         calculate D2E/DX2 analytically  !
 ! R63   R(54,55)                1.3934         calculate D2E/DX2 analytically  !
 ! R64   R(54,56)                1.3888         calculate D2E/DX2 analytically  !
 ! R65   R(55,57)                1.3919         calculate D2E/DX2 analytically  !
 ! R66   R(55,58)                1.0821         calculate D2E/DX2 analytically  !
 ! R67   R(56,59)                1.3969         calculate D2E/DX2 analytically  !
 ! R68   R(56,60)                1.0825         calculate D2E/DX2 analytically  !
 ! R69   R(57,61)                1.3977         calculate D2E/DX2 analytically  !
 ! R70   R(57,97)                1.5023         calculate D2E/DX2 analytically  !
 ! R71   R(59,61)                1.3915         calculate D2E/DX2 analytically  !
 ! R72   R(59,93)                1.5009         calculate D2E/DX2 analytically  !
 ! R73   R(61,62)                1.0827         calculate D2E/DX2 analytically  !
 ! R74   R(63,64)                1.0899         calculate D2E/DX2 analytically  !
 ! R75   R(63,65)                1.0909         calculate D2E/DX2 analytically  !
 ! R76   R(63,66)                1.0981         calculate D2E/DX2 analytically  !
 ! R77   R(67,68)                1.0988         calculate D2E/DX2 analytically  !
 ! R78   R(67,69)                1.0935         calculate D2E/DX2 analytically  !
 ! R79   R(67,70)                1.0925         calculate D2E/DX2 analytically  !
 ! R80   R(71,72)                1.0946         calculate D2E/DX2 analytically  !
 ! R81   R(71,73)                1.0969         calculate D2E/DX2 analytically  !
 ! R82   R(71,74)                1.0924         calculate D2E/DX2 analytically  !
 ! R83   R(75,76)                1.0921         calculate D2E/DX2 analytically  !
 ! R84   R(75,77)                1.099          calculate D2E/DX2 analytically  !
 ! R85   R(75,78)                1.0956         calculate D2E/DX2 analytically  !
 ! R86   R(79,80)                1.0918         calculate D2E/DX2 analytically  !
 ! R87   R(79,81)                1.096          calculate D2E/DX2 analytically  !
 ! R88   R(79,82)                1.0996         calculate D2E/DX2 analytically  !
 ! R89   R(83,84)                2.3169         calculate D2E/DX2 analytically  !
 ! R90   R(84,85)                1.4269         calculate D2E/DX2 analytically  !
 ! R91   R(84,89)                1.4274         calculate D2E/DX2 analytically  !
 ! R92   R(85,86)                1.098          calculate D2E/DX2 analytically  !
 ! R93   R(85,87)                1.0914         calculate D2E/DX2 analytically  !
 ! R94   R(85,88)                1.0965         calculate D2E/DX2 analytically  !
 ! R95   R(89,90)                1.098          calculate D2E/DX2 analytically  !
 ! R96   R(89,91)                1.0908         calculate D2E/DX2 analytically  !
 ! R97   R(89,92)                1.0978         calculate D2E/DX2 analytically  !
 ! R98   R(93,94)                1.3443         calculate D2E/DX2 analytically  !
 ! R99   R(93,95)                1.3629         calculate D2E/DX2 analytically  !
 ! R100  R(93,96)                1.3542         calculate D2E/DX2 analytically  !
 ! R101  R(97,98)                1.3486         calculate D2E/DX2 analytically  !
 ! R102  R(97,99)                1.3596         calculate D2E/DX2 analytically  !
 ! R103  R(97,100)               1.349          calculate D2E/DX2 analytically  !
 ! A1    A(2,1,5)              111.4381         calculate D2E/DX2 analytically  !
 ! A2    A(2,1,8)              109.1193         calculate D2E/DX2 analytically  !
 ! A3    A(2,1,14)             110.6499         calculate D2E/DX2 analytically  !
 ! A4    A(5,1,8)              108.8588         calculate D2E/DX2 analytically  !
 ! A5    A(5,1,14)             106.4952         calculate D2E/DX2 analytically  !
 ! A6    A(8,1,14)             110.2429         calculate D2E/DX2 analytically  !
 ! A7    A(1,2,3)              111.5994         calculate D2E/DX2 analytically  !
 ! A8    A(1,2,7)              108.0547         calculate D2E/DX2 analytically  !
 ! A9    A(1,2,13)             107.8498         calculate D2E/DX2 analytically  !
 ! A10   A(3,2,7)              106.24           calculate D2E/DX2 analytically  !
 ! A11   A(3,2,13)             113.3266         calculate D2E/DX2 analytically  !
 ! A12   A(7,2,13)             109.647          calculate D2E/DX2 analytically  !
 ! A13   A(2,3,6)              110.9119         calculate D2E/DX2 analytically  !
 ! A14   A(2,3,11)             110.0729         calculate D2E/DX2 analytically  !
 ! A15   A(2,3,12)             108.3242         calculate D2E/DX2 analytically  !
 ! A16   A(6,3,11)             104.0487         calculate D2E/DX2 analytically  !
 ! A17   A(6,3,12)             110.1214         calculate D2E/DX2 analytically  !
 ! A18   A(11,3,12)            113.3471         calculate D2E/DX2 analytically  !
 ! A19   A(5,4,9)              108.4261         calculate D2E/DX2 analytically  !
 ! A20   A(5,4,11)             109.4109         calculate D2E/DX2 analytically  !
 ! A21   A(5,4,16)             113.2288         calculate D2E/DX2 analytically  !
 ! A22   A(9,4,11)             109.2212         calculate D2E/DX2 analytically  !
 ! A23   A(9,4,16)             108.8719         calculate D2E/DX2 analytically  !
 ! A24   A(11,4,16)            107.6229         calculate D2E/DX2 analytically  !
 ! A25   A(1,5,4)              112.9533         calculate D2E/DX2 analytically  !
 ! A26   A(1,5,10)             107.2217         calculate D2E/DX2 analytically  !
 ! A27   A(1,5,15)             108.5552         calculate D2E/DX2 analytically  !
 ! A28   A(4,5,10)             108.5969         calculate D2E/DX2 analytically  !
 ! A29   A(4,5,15)             109.6605         calculate D2E/DX2 analytically  !
 ! A30   A(10,5,15)            109.8005         calculate D2E/DX2 analytically  !
 ! A31   A(2,7,87)             135.3077         calculate D2E/DX2 analytically  !
 ! A32   A(3,11,4)             114.4496         calculate D2E/DX2 analytically  !
 ! A33   A(3,12,79)            112.9731         calculate D2E/DX2 analytically  !
 ! A34   A(2,13,20)            114.1928         calculate D2E/DX2 analytically  !
 ! A35   A(1,14,24)            114.9562         calculate D2E/DX2 analytically  !
 ! A36   A(5,15,28)            113.8561         calculate D2E/DX2 analytically  !
 ! A37   A(4,16,17)            105.195          calculate D2E/DX2 analytically  !
 ! A38   A(4,16,18)            105.1184         calculate D2E/DX2 analytically  !
 ! A39   A(4,16,19)            114.6785         calculate D2E/DX2 analytically  !
 ! A40   A(17,16,18)           105.018          calculate D2E/DX2 analytically  !
 ! A41   A(17,16,19)           113.3014         calculate D2E/DX2 analytically  !
 ! A42   A(18,16,19)           112.6376         calculate D2E/DX2 analytically  !
 ! A43   A(16,19,37)           137.3918         calculate D2E/DX2 analytically  !
 ! A44   A(16,19,83)           141.3724         calculate D2E/DX2 analytically  !
 ! A45   A(37,19,83)            74.7309         calculate D2E/DX2 analytically  !
 ! A46   A(13,20,21)           111.7766         calculate D2E/DX2 analytically  !
 ! A47   A(13,20,22)           111.4955         calculate D2E/DX2 analytically  !
 ! A48   A(13,20,23)           106.8105         calculate D2E/DX2 analytically  !
 ! A49   A(21,20,22)           108.683          calculate D2E/DX2 analytically  !
 ! A50   A(21,20,23)           108.7102         calculate D2E/DX2 analytically  !
 ! A51   A(22,20,23)           109.2952         calculate D2E/DX2 analytically  !
 ! A52   A(14,24,25)           110.8857         calculate D2E/DX2 analytically  !
 ! A53   A(14,24,26)           111.6609         calculate D2E/DX2 analytically  !
 ! A54   A(14,24,27)           106.5988         calculate D2E/DX2 analytically  !
 ! A55   A(25,24,26)           109.0665         calculate D2E/DX2 analytically  !
 ! A56   A(25,24,27)           108.8835         calculate D2E/DX2 analytically  !
 ! A57   A(26,24,27)           109.6836         calculate D2E/DX2 analytically  !
 ! A58   A(15,28,29)           111.0223         calculate D2E/DX2 analytically  !
 ! A59   A(15,28,30)           111.4903         calculate D2E/DX2 analytically  !
 ! A60   A(15,28,31)           106.9199         calculate D2E/DX2 analytically  !
 ! A61   A(29,28,30)           109.1502         calculate D2E/DX2 analytically  !
 ! A62   A(29,28,31)           108.9322         calculate D2E/DX2 analytically  !
 ! A63   A(30,28,31)           109.261          calculate D2E/DX2 analytically  !
 ! A64   A(33,32,36)           108.4539         calculate D2E/DX2 analytically  !
 ! A65   A(33,32,39)           108.8192         calculate D2E/DX2 analytically  !
 ! A66   A(33,32,45)           111.1843         calculate D2E/DX2 analytically  !
 ! A67   A(36,32,39)           109.658          calculate D2E/DX2 analytically  !
 ! A68   A(36,32,45)           107.5111         calculate D2E/DX2 analytically  !
 ! A69   A(39,32,45)           111.1635         calculate D2E/DX2 analytically  !
 ! A70   A(32,33,34)           110.0404         calculate D2E/DX2 analytically  !
 ! A71   A(32,33,38)           107.8963         calculate D2E/DX2 analytically  !
 ! A72   A(32,33,44)           110.1981         calculate D2E/DX2 analytically  !
 ! A73   A(34,33,38)           105.5986         calculate D2E/DX2 analytically  !
 ! A74   A(34,33,44)           112.4788         calculate D2E/DX2 analytically  !
 ! A75   A(38,33,44)           110.4425         calculate D2E/DX2 analytically  !
 ! A76   A(33,34,37)           121.2679         calculate D2E/DX2 analytically  !
 ! A77   A(33,34,42)           122.2042         calculate D2E/DX2 analytically  !
 ! A78   A(37,34,42)           115.4223         calculate D2E/DX2 analytically  !
 ! A79   A(36,35,40)           108.0416         calculate D2E/DX2 analytically  !
 ! A80   A(36,35,42)           115.6432         calculate D2E/DX2 analytically  !
 ! A81   A(36,35,47)           113.2259         calculate D2E/DX2 analytically  !
 ! A82   A(40,35,42)           103.3214         calculate D2E/DX2 analytically  !
 ! A83   A(40,35,47)           112.2088         calculate D2E/DX2 analytically  !
 ! A84   A(42,35,47)           104.0401         calculate D2E/DX2 analytically  !
 ! A85   A(32,36,35)           113.2452         calculate D2E/DX2 analytically  !
 ! A86   A(32,36,41)           107.8948         calculate D2E/DX2 analytically  !
 ! A87   A(32,36,46)           110.5384         calculate D2E/DX2 analytically  !
 ! A88   A(35,36,41)           109.3648         calculate D2E/DX2 analytically  !
 ! A89   A(35,36,46)           105.4989         calculate D2E/DX2 analytically  !
 ! A90   A(41,36,46)           110.2944         calculate D2E/DX2 analytically  !
 ! A91   A(19,37,34)           113.6732         calculate D2E/DX2 analytically  !
 ! A92   A(34,42,35)           123.293          calculate D2E/DX2 analytically  !
 ! A93   A(51,43,83)           145.0195         calculate D2E/DX2 analytically  !
 ! A94   A(33,44,63)           114.2753         calculate D2E/DX2 analytically  !
 ! A95   A(32,45,67)           114.5404         calculate D2E/DX2 analytically  !
 ! A96   A(36,46,71)           114.2013         calculate D2E/DX2 analytically  !
 ! A97   A(35,47,48)           109.1467         calculate D2E/DX2 analytically  !
 ! A98   A(35,47,49)           108.0776         calculate D2E/DX2 analytically  !
 ! A99   A(35,47,50)           112.9392         calculate D2E/DX2 analytically  !
 ! A100  A(48,47,49)           108.4246         calculate D2E/DX2 analytically  !
 ! A101  A(48,47,50)           111.5108         calculate D2E/DX2 analytically  !
 ! A102  A(49,47,50)           106.5645         calculate D2E/DX2 analytically  !
 ! A103  A(47,50,75)           114.0295         calculate D2E/DX2 analytically  !
 ! A104  A(43,51,52)           114.025          calculate D2E/DX2 analytically  !
 ! A105  A(43,51,53)           112.2066         calculate D2E/DX2 analytically  !
 ! A106  A(43,51,54)           104.3322         calculate D2E/DX2 analytically  !
 ! A107  A(52,51,53)           113.3042         calculate D2E/DX2 analytically  !
 ! A108  A(52,51,54)           107.3523         calculate D2E/DX2 analytically  !
 ! A109  A(53,51,54)           104.6068         calculate D2E/DX2 analytically  !
 ! A110  A(51,54,55)           119.2143         calculate D2E/DX2 analytically  !
 ! A111  A(51,54,56)           119.9498         calculate D2E/DX2 analytically  !
 ! A112  A(55,54,56)           120.833          calculate D2E/DX2 analytically  !
 ! A113  A(54,55,57)           119.1668         calculate D2E/DX2 analytically  !
 ! A114  A(54,55,58)           120.0202         calculate D2E/DX2 analytically  !
 ! A115  A(57,55,58)           120.7648         calculate D2E/DX2 analytically  !
 ! A116  A(54,56,59)           119.3588         calculate D2E/DX2 analytically  !
 ! A117  A(54,56,60)           120.3914         calculate D2E/DX2 analytically  !
 ! A118  A(59,56,60)           120.2332         calculate D2E/DX2 analytically  !
 ! A119  A(55,57,61)           120.8747         calculate D2E/DX2 analytically  !
 ! A120  A(55,57,97)           119.0022         calculate D2E/DX2 analytically  !
 ! A121  A(61,57,97)           119.8588         calculate D2E/DX2 analytically  !
 ! A122  A(56,59,61)           120.6995         calculate D2E/DX2 analytically  !
 ! A123  A(56,59,93)           118.0269         calculate D2E/DX2 analytically  !
 ! A124  A(61,59,93)           121.2299         calculate D2E/DX2 analytically  !
 ! A125  A(57,61,59)           119.0602         calculate D2E/DX2 analytically  !
 ! A126  A(57,61,62)           120.4029         calculate D2E/DX2 analytically  !
 ! A127  A(59,61,62)           120.534          calculate D2E/DX2 analytically  !
 ! A128  A(44,63,64)           106.009          calculate D2E/DX2 analytically  !
 ! A129  A(44,63,65)           111.6574         calculate D2E/DX2 analytically  !
 ! A130  A(44,63,66)           110.3982         calculate D2E/DX2 analytically  !
 ! A131  A(64,63,65)           110.6615         calculate D2E/DX2 analytically  !
 ! A132  A(64,63,66)           109.2215         calculate D2E/DX2 analytically  !
 ! A133  A(65,63,66)           108.8527         calculate D2E/DX2 analytically  !
 ! A134  A(45,67,68)           110.7574         calculate D2E/DX2 analytically  !
 ! A135  A(45,67,69)           111.6287         calculate D2E/DX2 analytically  !
 ! A136  A(45,67,70)           106.2359         calculate D2E/DX2 analytically  !
 ! A137  A(68,67,69)           109.3643         calculate D2E/DX2 analytically  !
 ! A138  A(68,67,70)           109.0299         calculate D2E/DX2 analytically  !
 ! A139  A(69,67,70)           109.7532         calculate D2E/DX2 analytically  !
 ! A140  A(46,71,72)           111.0504         calculate D2E/DX2 analytically  !
 ! A141  A(46,71,73)           110.5134         calculate D2E/DX2 analytically  !
 ! A142  A(46,71,74)           106.2616         calculate D2E/DX2 analytically  !
 ! A143  A(72,71,73)           109.9479         calculate D2E/DX2 analytically  !
 ! A144  A(72,71,74)           109.6483         calculate D2E/DX2 analytically  !
 ! A145  A(73,71,74)           109.3415         calculate D2E/DX2 analytically  !
 ! A146  A(50,75,76)           106.4747         calculate D2E/DX2 analytically  !
 ! A147  A(50,75,77)           110.9486         calculate D2E/DX2 analytically  !
 ! A148  A(50,75,78)           111.5013         calculate D2E/DX2 analytically  !
 ! A149  A(76,75,77)           109.1974         calculate D2E/DX2 analytically  !
 ! A150  A(76,75,78)           109.0592         calculate D2E/DX2 analytically  !
 ! A151  A(77,75,78)           109.5764         calculate D2E/DX2 analytically  !
 ! A152  A(12,79,80)           106.8041         calculate D2E/DX2 analytically  !
 ! A153  A(12,79,81)           111.5398         calculate D2E/DX2 analytically  !
 ! A154  A(12,79,82)           110.7918         calculate D2E/DX2 analytically  !
 ! A155  A(80,79,81)           109.5587         calculate D2E/DX2 analytically  !
 ! A156  A(80,79,82)           109.3615         calculate D2E/DX2 analytically  !
 ! A157  A(81,79,82)           108.75           calculate D2E/DX2 analytically  !
 ! A158  A(19,83,43)           105.0945         calculate D2E/DX2 analytically  !
 ! A159  A(19,83,84)           152.9459         calculate D2E/DX2 analytically  !
 ! A160  A(43,83,84)            91.7652         calculate D2E/DX2 analytically  !
 ! A161  A(83,84,85)           125.5862         calculate D2E/DX2 analytically  !
 ! A162  A(83,84,89)           122.2357         calculate D2E/DX2 analytically  !
 ! A163  A(85,84,89)           112.1426         calculate D2E/DX2 analytically  !
 ! A164  A(84,85,86)           110.488          calculate D2E/DX2 analytically  !
 ! A165  A(84,85,87)           107.8672         calculate D2E/DX2 analytically  !
 ! A166  A(84,85,88)           110.5008         calculate D2E/DX2 analytically  !
 ! A167  A(86,85,87)           108.8982         calculate D2E/DX2 analytically  !
 ! A168  A(86,85,88)           109.2839         calculate D2E/DX2 analytically  !
 ! A169  A(87,85,88)           109.7732         calculate D2E/DX2 analytically  !
 ! A170  A(7,87,85)            124.6908         calculate D2E/DX2 analytically  !
 ! A171  A(84,89,90)           110.4909         calculate D2E/DX2 analytically  !
 ! A172  A(84,89,91)           106.9223         calculate D2E/DX2 analytically  !
 ! A173  A(84,89,92)           110.4981         calculate D2E/DX2 analytically  !
 ! A174  A(90,89,91)           109.743          calculate D2E/DX2 analytically  !
 ! A175  A(90,89,92)           109.1186         calculate D2E/DX2 analytically  !
 ! A176  A(91,89,92)           110.0477         calculate D2E/DX2 analytically  !
 ! A177  A(59,93,94)           112.9479         calculate D2E/DX2 analytically  !
 ! A178  A(59,93,95)           111.0338         calculate D2E/DX2 analytically  !
 ! A179  A(59,93,96)           111.7569         calculate D2E/DX2 analytically  !
 ! A180  A(94,93,95)           107.0635         calculate D2E/DX2 analytically  !
 ! A181  A(94,93,96)           107.7339         calculate D2E/DX2 analytically  !
 ! A182  A(95,93,96)           105.9337         calculate D2E/DX2 analytically  !
 ! A183  A(57,97,98)           112.1086         calculate D2E/DX2 analytically  !
 ! A184  A(57,97,99)           110.8379         calculate D2E/DX2 analytically  !
 ! A185  A(57,97,100)          112.249          calculate D2E/DX2 analytically  !
 ! A186  A(98,97,99)           106.69           calculate D2E/DX2 analytically  !
 ! A187  A(98,97,100)          107.8441         calculate D2E/DX2 analytically  !
 ! A188  A(99,97,100)          106.8013         calculate D2E/DX2 analytically  !
 ! D1    D(5,1,2,3)            -47.2392         calculate D2E/DX2 analytically  !
 ! D2    D(5,1,2,7)             69.211          calculate D2E/DX2 analytically  !
 ! D3    D(5,1,2,13)          -172.3323         calculate D2E/DX2 analytically  !
 ! D4    D(8,1,2,3)             73.003          calculate D2E/DX2 analytically  !
 ! D5    D(8,1,2,7)           -170.5468         calculate D2E/DX2 analytically  !
 ! D6    D(8,1,2,13)           -52.0901         calculate D2E/DX2 analytically  !
 ! D7    D(14,1,2,3)          -165.5313         calculate D2E/DX2 analytically  !
 ! D8    D(14,1,2,7)           -49.0811         calculate D2E/DX2 analytically  !
 ! D9    D(14,1,2,13)           69.3756         calculate D2E/DX2 analytically  !
 ! D10   D(2,1,5,4)             46.9849         calculate D2E/DX2 analytically  !
 ! D11   D(2,1,5,10)           -72.6097         calculate D2E/DX2 analytically  !
 ! D12   D(2,1,5,15)           168.8264         calculate D2E/DX2 analytically  !
 ! D13   D(8,1,5,4)            -73.4106         calculate D2E/DX2 analytically  !
 ! D14   D(8,1,5,10)           166.9948         calculate D2E/DX2 analytically  !
 ! D15   D(8,1,5,15)            48.4309         calculate D2E/DX2 analytically  !
 ! D16   D(14,1,5,4)           167.7426         calculate D2E/DX2 analytically  !
 ! D17   D(14,1,5,10)           48.148          calculate D2E/DX2 analytically  !
 ! D18   D(14,1,5,15)          -70.4159         calculate D2E/DX2 analytically  !
 ! D19   D(2,1,14,24)          -93.8447         calculate D2E/DX2 analytically  !
 ! D20   D(5,1,14,24)          144.8931         calculate D2E/DX2 analytically  !
 ! D21   D(8,1,14,24)           26.9557         calculate D2E/DX2 analytically  !
 ! D22   D(1,2,3,6)            168.5086         calculate D2E/DX2 analytically  !
 ! D23   D(1,2,3,11)            53.9079         calculate D2E/DX2 analytically  !
 ! D24   D(1,2,3,12)           -70.5282         calculate D2E/DX2 analytically  !
 ! D25   D(7,2,3,6)             50.9595         calculate D2E/DX2 analytically  !
 ! D26   D(7,2,3,11)           -63.6412         calculate D2E/DX2 analytically  !
 ! D27   D(7,2,3,12)           171.9227         calculate D2E/DX2 analytically  !
 ! D28   D(13,2,3,6)           -69.5032         calculate D2E/DX2 analytically  !
 ! D29   D(13,2,3,11)          175.896          calculate D2E/DX2 analytically  !
 ! D30   D(13,2,3,12)           51.46           calculate D2E/DX2 analytically  !
 ! D31   D(1,2,7,87)            14.9393         calculate D2E/DX2 analytically  !
 ! D32   D(3,2,7,87)           134.8217         calculate D2E/DX2 analytically  !
 ! D33   D(13,2,7,87)         -102.3642         calculate D2E/DX2 analytically  !
 ! D34   D(1,2,13,20)         -171.3918         calculate D2E/DX2 analytically  !
 ! D35   D(3,2,13,20)           64.5512         calculate D2E/DX2 analytically  !
 ! D36   D(7,2,13,20)          -53.96           calculate D2E/DX2 analytically  !
 ! D37   D(2,3,11,4)           -62.2612         calculate D2E/DX2 analytically  !
 ! D38   D(6,3,11,4)           178.8463         calculate D2E/DX2 analytically  !
 ! D39   D(12,3,11,4)           59.2258         calculate D2E/DX2 analytically  !
 ! D40   D(2,3,12,79)         -173.9567         calculate D2E/DX2 analytically  !
 ! D41   D(6,3,12,79)          -52.5052         calculate D2E/DX2 analytically  !
 ! D42   D(11,3,12,79)          63.5809         calculate D2E/DX2 analytically  !
 ! D43   D(9,4,5,1)             67.2392         calculate D2E/DX2 analytically  !
 ! D44   D(9,4,5,10)          -173.9614         calculate D2E/DX2 analytically  !
 ! D45   D(9,4,5,15)           -53.978          calculate D2E/DX2 analytically  !
 ! D46   D(11,4,5,1)           -51.7939         calculate D2E/DX2 analytically  !
 ! D47   D(11,4,5,10)           67.0055         calculate D2E/DX2 analytically  !
 ! D48   D(11,4,5,15)         -173.0112         calculate D2E/DX2 analytically  !
 ! D49   D(16,4,5,1)          -171.8302         calculate D2E/DX2 analytically  !
 ! D50   D(16,4,5,10)          -53.0309         calculate D2E/DX2 analytically  !
 ! D51   D(16,4,5,15)           66.9525         calculate D2E/DX2 analytically  !
 ! D52   D(5,4,11,3)            60.8677         calculate D2E/DX2 analytically  !
 ! D53   D(9,4,11,3)           -57.6721         calculate D2E/DX2 analytically  !
 ! D54   D(16,4,11,3)         -175.7173         calculate D2E/DX2 analytically  !
 ! D55   D(5,4,16,17)          -67.172          calculate D2E/DX2 analytically  !
 ! D56   D(5,4,16,18)         -177.7519         calculate D2E/DX2 analytically  !
 ! D57   D(5,4,16,19)           57.9906         calculate D2E/DX2 analytically  !
 ! D58   D(9,4,16,17)           53.5062         calculate D2E/DX2 analytically  !
 ! D59   D(9,4,16,18)          -57.0737         calculate D2E/DX2 analytically  !
 ! D60   D(9,4,16,19)          178.6687         calculate D2E/DX2 analytically  !
 ! D61   D(11,4,16,17)         171.7767         calculate D2E/DX2 analytically  !
 ! D62   D(11,4,16,18)          61.1969         calculate D2E/DX2 analytically  !
 ! D63   D(11,4,16,19)         -63.0607         calculate D2E/DX2 analytically  !
 ! D64   D(1,5,15,28)          125.8574         calculate D2E/DX2 analytically  !
 ! D65   D(4,5,15,28)         -110.3108         calculate D2E/DX2 analytically  !
 ! D66   D(10,5,15,28)           8.9352         calculate D2E/DX2 analytically  !
 ! D67   D(2,7,87,85)          175.0429         calculate D2E/DX2 analytically  !
 ! D68   D(3,12,79,80)         175.0087         calculate D2E/DX2 analytically  !
 ! D69   D(3,12,79,81)         -65.3108         calculate D2E/DX2 analytically  !
 ! D70   D(3,12,79,82)          55.9892         calculate D2E/DX2 analytically  !
 ! D71   D(2,13,20,21)         -73.9371         calculate D2E/DX2 analytically  !
 ! D72   D(2,13,20,22)          47.9377         calculate D2E/DX2 analytically  !
 ! D73   D(2,13,20,23)         167.2762         calculate D2E/DX2 analytically  !
 ! D74   D(1,14,24,25)         -58.1764         calculate D2E/DX2 analytically  !
 ! D75   D(1,14,24,26)          63.6773         calculate D2E/DX2 analytically  !
 ! D76   D(1,14,24,27)        -176.5496         calculate D2E/DX2 analytically  !
 ! D77   D(5,15,28,29)         -63.1106         calculate D2E/DX2 analytically  !
 ! D78   D(5,15,28,30)          58.8276         calculate D2E/DX2 analytically  !
 ! D79   D(5,15,28,31)         178.1897         calculate D2E/DX2 analytically  !
 ! D80   D(4,16,19,37)         121.9227         calculate D2E/DX2 analytically  !
 ! D81   D(4,16,19,83)         -15.5864         calculate D2E/DX2 analytically  !
 ! D82   D(17,16,19,37)       -117.2823         calculate D2E/DX2 analytically  !
 ! D83   D(17,16,19,83)        105.2087         calculate D2E/DX2 analytically  !
 ! D84   D(18,16,19,37)          1.7498         calculate D2E/DX2 analytically  !
 ! D85   D(18,16,19,83)       -135.7593         calculate D2E/DX2 analytically  !
 ! D86   D(16,19,37,34)         42.5961         calculate D2E/DX2 analytically  !
 ! D87   D(83,19,37,34)       -163.3228         calculate D2E/DX2 analytically  !
 ! D88   D(16,19,83,43)        155.5774         calculate D2E/DX2 analytically  !
 ! D89   D(16,19,83,84)         28.832          calculate D2E/DX2 analytically  !
 ! D90   D(37,19,83,43)          3.8727         calculate D2E/DX2 analytically  !
 ! D91   D(37,19,83,84)       -122.8728         calculate D2E/DX2 analytically  !
 ! D92   D(36,32,33,34)        -55.9036         calculate D2E/DX2 analytically  !
 ! D93   D(36,32,33,38)         58.8408         calculate D2E/DX2 analytically  !
 ! D94   D(36,32,33,44)        179.4962         calculate D2E/DX2 analytically  !
 ! D95   D(39,32,33,34)         63.3316         calculate D2E/DX2 analytically  !
 ! D96   D(39,32,33,38)        178.076          calculate D2E/DX2 analytically  !
 ! D97   D(39,32,33,44)        -61.2685         calculate D2E/DX2 analytically  !
 ! D98   D(45,32,33,34)       -173.9067         calculate D2E/DX2 analytically  !
 ! D99   D(45,32,33,38)        -59.1623         calculate D2E/DX2 analytically  !
 ! D100  D(45,32,33,44)         61.4931         calculate D2E/DX2 analytically  !
 ! D101  D(33,32,36,35)         51.959          calculate D2E/DX2 analytically  !
 ! D102  D(33,32,36,41)        -69.2335         calculate D2E/DX2 analytically  !
 ! D103  D(33,32,36,46)        170.0903         calculate D2E/DX2 analytically  !
 ! D104  D(39,32,36,35)        -66.7475         calculate D2E/DX2 analytically  !
 ! D105  D(39,32,36,41)        172.0601         calculate D2E/DX2 analytically  !
 ! D106  D(39,32,36,46)         51.3838         calculate D2E/DX2 analytically  !
 ! D107  D(45,32,36,35)        172.2742         calculate D2E/DX2 analytically  !
 ! D108  D(45,32,36,41)         51.0818         calculate D2E/DX2 analytically  !
 ! D109  D(45,32,36,46)        -69.5945         calculate D2E/DX2 analytically  !
 ! D110  D(33,32,45,67)        -94.294          calculate D2E/DX2 analytically  !
 ! D111  D(36,32,45,67)        147.1342         calculate D2E/DX2 analytically  !
 ! D112  D(39,32,45,67)         27.1069         calculate D2E/DX2 analytically  !
 ! D113  D(32,33,34,37)       -153.5828         calculate D2E/DX2 analytically  !
 ! D114  D(32,33,34,42)         38.9912         calculate D2E/DX2 analytically  !
 ! D115  D(38,33,34,37)         90.2211         calculate D2E/DX2 analytically  !
 ! D116  D(38,33,34,42)        -77.2049         calculate D2E/DX2 analytically  !
 ! D117  D(44,33,34,37)        -30.3068         calculate D2E/DX2 analytically  !
 ! D118  D(44,33,34,42)        162.2672         calculate D2E/DX2 analytically  !
 ! D119  D(32,33,44,63)       -152.3858         calculate D2E/DX2 analytically  !
 ! D120  D(34,33,44,63)         84.4263         calculate D2E/DX2 analytically  !
 ! D121  D(38,33,44,63)        -33.2708         calculate D2E/DX2 analytically  !
 ! D122  D(33,34,37,19)        -84.1253         calculate D2E/DX2 analytically  !
 ! D123  D(42,34,37,19)         84.1061         calculate D2E/DX2 analytically  !
 ! D124  D(33,34,42,35)        -14.023          calculate D2E/DX2 analytically  !
 ! D125  D(37,34,42,35)        177.8668         calculate D2E/DX2 analytically  !
 ! D126  D(40,35,36,32)         87.2133         calculate D2E/DX2 analytically  !
 ! D127  D(40,35,36,41)       -152.4264         calculate D2E/DX2 analytically  !
 ! D128  D(40,35,36,46)        -33.8076         calculate D2E/DX2 analytically  !
 ! D129  D(42,35,36,32)        -27.9478         calculate D2E/DX2 analytically  !
 ! D130  D(42,35,36,41)         92.4125         calculate D2E/DX2 analytically  !
 ! D131  D(42,35,36,46)       -148.9688         calculate D2E/DX2 analytically  !
 ! D132  D(47,35,36,32)       -147.8714         calculate D2E/DX2 analytically  !
 ! D133  D(47,35,36,41)        -27.5111         calculate D2E/DX2 analytically  !
 ! D134  D(47,35,36,46)         91.1077         calculate D2E/DX2 analytically  !
 ! D135  D(36,35,42,34)          7.7498         calculate D2E/DX2 analytically  !
 ! D136  D(40,35,42,34)       -110.0712         calculate D2E/DX2 analytically  !
 ! D137  D(47,35,42,34)        132.5669         calculate D2E/DX2 analytically  !
 ! D138  D(36,35,47,48)       -174.3452         calculate D2E/DX2 analytically  !
 ! D139  D(36,35,47,49)         67.9273         calculate D2E/DX2 analytically  !
 ! D140  D(36,35,47,50)        -49.7052         calculate D2E/DX2 analytically  !
 ! D141  D(40,35,47,48)        -51.714          calculate D2E/DX2 analytically  !
 ! D142  D(40,35,47,49)       -169.4415         calculate D2E/DX2 analytically  !
 ! D143  D(40,35,47,50)         72.9261         calculate D2E/DX2 analytically  !
 ! D144  D(42,35,47,48)         59.3026         calculate D2E/DX2 analytically  !
 ! D145  D(42,35,47,49)        -58.4249         calculate D2E/DX2 analytically  !
 ! D146  D(42,35,47,50)       -176.0574         calculate D2E/DX2 analytically  !
 ! D147  D(32,36,46,71)        103.4239         calculate D2E/DX2 analytically  !
 ! D148  D(35,36,46,71)       -133.8073         calculate D2E/DX2 analytically  !
 ! D149  D(41,36,46,71)        -15.8109         calculate D2E/DX2 analytically  !
 ! D150  D(83,43,51,52)       -153.2983         calculate D2E/DX2 analytically  !
 ! D151  D(83,43,51,53)         76.1748         calculate D2E/DX2 analytically  !
 ! D152  D(83,43,51,54)        -36.4962         calculate D2E/DX2 analytically  !
 ! D153  D(51,43,83,19)        -52.6371         calculate D2E/DX2 analytically  !
 ! D154  D(51,43,83,84)        105.9781         calculate D2E/DX2 analytically  !
 ! D155  D(33,44,63,64)        178.6912         calculate D2E/DX2 analytically  !
 ! D156  D(33,44,63,65)        -60.7186         calculate D2E/DX2 analytically  !
 ! D157  D(33,44,63,66)         60.5198         calculate D2E/DX2 analytically  !
 ! D158  D(32,45,67,68)        -57.021          calculate D2E/DX2 analytically  !
 ! D159  D(32,45,67,69)         65.1014         calculate D2E/DX2 analytically  !
 ! D160  D(32,45,67,70)       -175.2859         calculate D2E/DX2 analytically  !
 ! D161  D(36,46,71,72)        -60.9747         calculate D2E/DX2 analytically  !
 ! D162  D(36,46,71,73)         61.3226         calculate D2E/DX2 analytically  !
 ! D163  D(36,46,71,74)        179.8444         calculate D2E/DX2 analytically  !
 ! D164  D(35,47,50,75)        -73.5264         calculate D2E/DX2 analytically  !
 ! D165  D(48,47,50,75)         49.8145         calculate D2E/DX2 analytically  !
 ! D166  D(49,47,50,75)        167.9563         calculate D2E/DX2 analytically  !
 ! D167  D(47,50,75,76)       -170.5994         calculate D2E/DX2 analytically  !
 ! D168  D(47,50,75,77)        -51.8887         calculate D2E/DX2 analytically  !
 ! D169  D(47,50,75,78)         70.552          calculate D2E/DX2 analytically  !
 ! D170  D(43,51,54,55)        155.2001         calculate D2E/DX2 analytically  !
 ! D171  D(43,51,54,56)        -24.178          calculate D2E/DX2 analytically  !
 ! D172  D(52,51,54,55)        -83.4621         calculate D2E/DX2 analytically  !
 ! D173  D(52,51,54,56)         97.1598         calculate D2E/DX2 analytically  !
 ! D174  D(53,51,54,55)         37.1851         calculate D2E/DX2 analytically  !
 ! D175  D(53,51,54,56)       -142.193          calculate D2E/DX2 analytically  !
 ! D176  D(51,54,55,57)       -179.1518         calculate D2E/DX2 analytically  !
 ! D177  D(51,54,55,58)         -1.6543         calculate D2E/DX2 analytically  !
 ! D178  D(56,54,55,57)          0.2206         calculate D2E/DX2 analytically  !
 ! D179  D(56,54,55,58)        177.7181         calculate D2E/DX2 analytically  !
 ! D180  D(51,54,56,59)        179.9088         calculate D2E/DX2 analytically  !
 ! D181  D(51,54,56,60)          1.3877         calculate D2E/DX2 analytically  !
 ! D182  D(55,54,56,59)          0.541          calculate D2E/DX2 analytically  !
 ! D183  D(55,54,56,60)       -177.9802         calculate D2E/DX2 analytically  !
 ! D184  D(54,55,57,61)         -0.7669         calculate D2E/DX2 analytically  !
 ! D185  D(54,55,57,97)        173.3191         calculate D2E/DX2 analytically  !
 ! D186  D(58,55,57,61)       -178.2453         calculate D2E/DX2 analytically  !
 ! D187  D(58,55,57,97)         -4.1592         calculate D2E/DX2 analytically  !
 ! D188  D(54,56,59,61)         -0.7741         calculate D2E/DX2 analytically  !
 ! D189  D(54,56,59,93)       -178.3967         calculate D2E/DX2 analytically  !
 ! D190  D(60,56,59,61)        177.7494         calculate D2E/DX2 analytically  !
 ! D191  D(60,56,59,93)          0.1268         calculate D2E/DX2 analytically  !
 ! D192  D(55,57,61,59)          0.5381         calculate D2E/DX2 analytically  !
 ! D193  D(55,57,61,62)        179.9183         calculate D2E/DX2 analytically  !
 ! D194  D(97,57,61,59)       -173.4977         calculate D2E/DX2 analytically  !
 ! D195  D(97,57,61,62)          5.8826         calculate D2E/DX2 analytically  !
 ! D196  D(55,57,97,98)         35.1133         calculate D2E/DX2 analytically  !
 ! D197  D(55,57,97,99)        -83.9846         calculate D2E/DX2 analytically  !
 ! D198  D(55,57,97,100)       156.6832         calculate D2E/DX2 analytically  !
 ! D199  D(61,57,97,98)       -150.7393         calculate D2E/DX2 analytically  !
 ! D200  D(61,57,97,99)         90.1628         calculate D2E/DX2 analytically  !
 ! D201  D(61,57,97,100)       -29.1694         calculate D2E/DX2 analytically  !
 ! D202  D(56,59,61,57)          0.2402         calculate D2E/DX2 analytically  !
 ! D203  D(56,59,61,62)       -179.1392         calculate D2E/DX2 analytically  !
 ! D204  D(93,59,61,57)        177.786          calculate D2E/DX2 analytically  !
 ! D205  D(93,59,61,62)         -1.5934         calculate D2E/DX2 analytically  !
 ! D206  D(56,59,93,94)       -173.2151         calculate D2E/DX2 analytically  !
 ! D207  D(56,59,93,95)         66.5057         calculate D2E/DX2 analytically  !
 ! D208  D(56,59,93,96)        -51.5385         calculate D2E/DX2 analytically  !
 ! D209  D(61,59,93,94)          9.1755         calculate D2E/DX2 analytically  !
 ! D210  D(61,59,93,95)       -111.1037         calculate D2E/DX2 analytically  !
 ! D211  D(61,59,93,96)        130.8521         calculate D2E/DX2 analytically  !
 ! D212  D(19,83,84,85)        -33.3081         calculate D2E/DX2 analytically  !
 ! D213  D(19,83,84,89)        149.0335         calculate D2E/DX2 analytically  !
 ! D214  D(43,83,84,85)       -162.5916         calculate D2E/DX2 analytically  !
 ! D215  D(43,83,84,89)         19.75           calculate D2E/DX2 analytically  !
 ! D216  D(83,84,85,86)       -123.928          calculate D2E/DX2 analytically  !
 ! D217  D(83,84,85,87)         -4.9989         calculate D2E/DX2 analytically  !
 ! D218  D(83,84,85,88)        115.0014         calculate D2E/DX2 analytically  !
 ! D219  D(89,84,85,86)         53.9337         calculate D2E/DX2 analytically  !
 ! D220  D(89,84,85,87)        172.8628         calculate D2E/DX2 analytically  !
 ! D221  D(89,84,85,88)        -67.1369         calculate D2E/DX2 analytically  !
 ! D222  D(83,84,89,90)       -122.3046         calculate D2E/DX2 analytically  !
 ! D223  D(83,84,89,91)         -2.9221         calculate D2E/DX2 analytically  !
 ! D224  D(83,84,89,92)        116.8322         calculate D2E/DX2 analytically  !
 ! D225  D(85,84,89,90)         59.7512         calculate D2E/DX2 analytically  !
 ! D226  D(85,84,89,91)        179.1337         calculate D2E/DX2 analytically  !
 ! D227  D(85,84,89,92)        -61.1121         calculate D2E/DX2 analytically  !
 ! D228  D(84,85,87,7)          93.0877         calculate D2E/DX2 analytically  !
 ! D229  D(86,85,87,7)        -146.9747         calculate D2E/DX2 analytically  !
 ! D230  D(88,85,87,7)         -27.3704         calculate D2E/DX2 analytically  !
 --------------------------------------------------------------------------------
 Trust Radius=5.00D-02 FncErr=1.00D-07 GrdErr=1.00D-06 EigMax=2.50D+02 EigMin=1.00D-04
 Number of steps in this run=    531 maximum allowed number of steps=    600.
 Search for a saddle point of order  1.
 Step   0 in ReCalcFC=30 IGetFC= 4 compute analytic Hessian.
 GradGradGradGradGradGradGradGradGradGradGradGradGradGradGradGradGradGrad

 Leave Link  103 at Fri May 31 08:02:37 2019, MaxMem=  6442450944 cpu:               3.7 elap:               0.2
 (Enter /home/ekwan/sw/g16/l202.exe)
 Stoichiometry    C30H47F6NaO15S
 Framework group  C1[X(C30H47F6NaO15S)]
 Deg. of freedom   294
 Full point group                 C1      NOp   1
 Largest Abelian subgroup         C1      NOp   1
 Largest concise Abelian subgroup C1      NOp   1
                         Standard orientation:                         
 ---------------------------------------------------------------------
 Center     Atomic      Atomic             Coordinates (Angstroms)
 Number     Number       Type             X           Y           Z
 ---------------------------------------------------------------------
      1          6           0        4.287422   -2.542988   -0.798398
      2          6           0        4.377861   -1.045296   -1.094846
      3          6           0        3.288198   -0.597098   -2.081302
      4          6           0        1.837172   -2.409439   -1.482370
      5          6           0        2.854469   -2.963857   -0.483872
      6          1           0        3.230685    0.498005   -2.130558
      7          1           0        4.188321   -0.501078   -0.159654
      8          1           0        4.638129   -3.104629   -1.673935
      9          1           0        2.013676   -2.883674   -2.457359
     10          1           0        2.613571   -2.575829    0.512380
     11          8           0        2.016667   -0.986018   -1.608043
     12          8           0        3.595061   -1.121491   -3.345437
     13          8           0        5.692228   -0.770759   -1.547881
     14          8           0        5.068190   -2.876924    0.347160
     15          8           0        2.791485   -4.385551   -0.475688
     16          6           0        0.376931   -2.659941   -1.063828
     17          1           0        0.240727   -3.760832   -1.126723
     18          1           0       -0.238453   -2.245129   -1.894155
     19          8           0        0.034268   -2.139932    0.157760
     20          6           0        5.984989    0.611739   -1.680141
     21          1           0        5.492994    1.050217   -2.558896
     22          1           0        5.679218    1.175126   -0.787944
     23          1           0        7.067052    0.694922   -1.806369
     24          6           0        6.391510   -3.311157    0.064996
     25          1           0        6.383055   -4.193011   -0.591790
     26          1           0        6.984498   -2.520494   -0.405584
     27          1           0        6.840424   -3.587609    1.022828
     28          6           0        2.251249   -4.929135    0.718311
     29          1           0        2.884617   -4.686950    1.583833
     30          1           0        1.233138   -4.561676    0.902936
     31          1           0        2.225244   -6.014650    0.590453
     32          6           0       -4.146879   -0.123789   -0.901463
     33          6           0       -2.633902   -0.365243   -0.852478
     34          6           0       -2.257711   -1.004767    0.449923
     35          6           0       -4.372625   -2.182656    0.600948
     36          6           0       -4.857139   -1.455314   -0.662410
     37          1           0       -1.279264   -0.883587    0.866070
     38          1           0       -2.382840   -1.108649   -1.632411
     39          1           0       -4.417538    0.585715   -0.110821
     40          1           0       -4.958395   -1.818289    1.446257
     41          1           0       -4.682683   -2.092847   -1.538998
     42          8           0       -2.983961   -1.902844    1.004572
     43          8           0       -0.686189    0.011961    2.872302
     44          8           0       -1.945907    0.832211   -1.079029
     45          8           0       -4.546948    0.349189   -2.169159
     46          8           0       -6.246428   -1.250601   -0.472201
     47          6           0       -4.423289   -3.713612    0.475941
     48          1           0       -4.161258   -4.163497    1.444686
     49          1           0       -3.673949   -4.019264   -0.261552
     50          8           0       -5.663773   -4.184967    0.006646
     51         16           0       -1.616649    1.156024    2.608252
     52          8           0       -1.963526    1.937321    3.809696
     53          8           0       -2.816820    0.738612    1.802695
     54          6           0       -0.689749    2.239972    1.512687
     55          6           0       -1.381317    3.102999    0.665073
     56          6           0        0.698520    2.200316    1.509797
     57          6           0       -0.663295    3.928745   -0.195122
     58          1           0       -2.463362    3.096871    0.651663
     59          6           0        1.406062    3.046340    0.652467
     60          1           0        1.227843    1.504100    2.147746
     61          6           0        0.734299    3.912004   -0.205198
     62          1           0        1.285164    4.556650   -0.878455
     63          6           0       -0.649714    0.664790   -1.659703
     64          1           0       -0.250185    1.669378   -1.797820
     65          1           0        0.005855    0.074717   -1.017764
     66          1           0       -0.729039    0.169783   -2.636715
     67          6           0       -4.625601    1.770091   -2.273825
     68          1           0       -5.311203    2.178827   -1.518726
     69          1           0       -3.643303    2.237421   -2.162487
     70          1           0       -5.024439    1.981485   -3.268748
     71          6           0       -7.046900   -1.586352   -1.603173
     72          1           0       -6.778706   -0.974461   -2.470280
     73          1           0       -6.939233   -2.650159   -1.848131
     74          1           0       -8.081408   -1.383973   -1.316652
     75          6           0       -6.712668   -4.114638    0.968381
     76          1           0       -7.559269   -4.658296    0.543647
     77          1           0       -6.413286   -4.592048    1.911933
     78          1           0       -7.012746   -3.078577    1.160240
     79          6           0        2.721790   -0.654119   -4.367676
     80          1           0        3.102113   -1.048092   -5.312194
     81          1           0        1.695075   -1.004200   -4.210949
     82          1           0        2.718555    0.444811   -4.405976
     83         11           0        0.919816   -1.349336    1.967458
     84          8           0        2.599517   -0.267602    3.140598
     85          6           0        3.993593   -0.331236    2.843096
     86          1           0        4.557991   -0.678257    3.718732
     87          1           0        4.129996   -1.045173    2.028966
     88          1           0        4.366698    0.653920    2.538949
     89          6           0        2.332580    0.517919    4.302162
     90          1           0        2.692539    1.545730    4.162144
     91          1           0        1.250674    0.522099    4.440868
     92          1           0        2.823138    0.081888    5.182187
     93          6           0        2.904006    2.952841    0.647331
     94          9           0        3.486043    3.905496   -0.101475
     95          9           0        3.317386    1.750387    0.156767
     96          9           0        3.416688    3.040353    1.897651
     97          6           0       -1.408836    4.745765   -1.211712
     98          9           0       -2.598452    5.175540   -0.743925
     99          9           0       -1.669618    4.011083   -2.325640
    100          9           0       -0.707503    5.826190   -1.612538
 ---------------------------------------------------------------------
 Rotational constants (GHZ):           0.0593350           0.0400713           0.0321510
 Leave Link  202 at Fri May 31 08:02:37 2019, MaxMem=  6442450944 cpu:               2.8 elap:               0.1
 (Enter /home/ekwan/sw/g16/l301.exe)
 Standard basis: 6-31G(d) (6D, 7F)
 Ernie: Thresh=  0.10000D-02 Tol=  0.10000D-05 Strict=F.
 There are   897 symmetry adapted cartesian basis functions of A   symmetry.
 There are   897 symmetry adapted basis functions of A   symmetry.
   897 basis functions,  1720 primitive gaussians,   897 cartesian basis functions
   214 alpha electrons      214 beta electrons
       nuclear repulsion energy      9514.1973899327 Hartrees.
 IExCor=  402 DFT=T Ex+Corr=B3LYP ExCW=0 ScaHFX=  0.200000
 ScaDFX=  0.800000  0.720000  1.000000  0.810000 ScalE2=  1.000000  1.000000
 IRadAn=      5 IRanWt=     -1 IRanGd=            0 ICorTp=0 IEmpDi=141
 NAtoms=  100 NActive=  100 NUniq=  100 SFac= 1.00D+00 NAtFMM=   60 NAOKFM=T Big=T
 Integral buffers will be    131072 words long.
 Raffenetti 2 integral format.
 Two-electron integral symmetry is turned on.
 R6Disp:  Grimme-D3(BJ) Dispersion energy=       -0.2290676038 Hartrees.
 Nuclear repulsion after empirical dispersion term =     9513.9683223289 Hartrees.
 Force inversion solution in PCM.
 ------------------------------------------------------------------------------
 Polarizable Continuum Model (PCM)
 =================================
 Model                : PCM.
 Atomic radii         : UFF (Universal Force Field).
 Polarization charges : Total charges.
 Charge compensation  : None.
 Solution method      : Matrix inversion.
 Cavity type          : Scaled VdW (van der Waals Surface) (Alpha=1.100).
 Cavity algorithm     : GePol (No added spheres)
                        Default sphere list used, NSphG=  100.
                        Lebedev-Laikov grids with approx.  5.0 points / Ang**2.
                        Smoothing algorithm: York/Karplus (Gamma=1.0000).
                        Polarization charges: spherical gaussians, with
                                              point-specific exponents (IZeta= 3).
                        Self-potential: point-specific (ISelfS= 7).
                        Self-field    : sphere-specific E.n sum rule (ISelfD= 2).
 1st derivatives      : Analytical E(r).r(x)/FMM algorithm (CHGder, D1EAlg=3).
                        Cavity 1st derivative terms included.
 2nd derivatives      : Analytical E(r).r(xy)/FMM algorithm (CHGder, D2EAlg=3).
                        Cavity 2nd derivative terms included.
 Solvent              : TetraHydroFuran, Eps=   7.425700 Eps(inf)=   1.974025
 ------------------------------------------------------------------------------
 GePol: Number of generator spheres                  =     100
 GePol: Total number of spheres                      =     100
 GePol: Number of exposed spheres                    =     100 (100.00%)
 GePol: Number of points                             =    6222
 GePol: Average weight of points                     =       0.12
 GePol: Minimum weight of points                     =   0.15D-10
 GePol: Maximum weight of points                     =    0.21593
 GePol: Number of points with low weight             =     403
 GePol: Fraction of low-weight points (<1% of avg)   =       6.48%
 GePol: Cavity surface area                          =    776.227 Ang**2
 GePol: Cavity volume                                =    977.882 Ang**3
 Leave Link  301 at Fri May 31 08:02:38 2019, MaxMem=  6442450944 cpu:               6.6 elap:               0.3
 (Enter /home/ekwan/sw/g16/l302.exe)
 NPDir=0 NMtPBC=     1 NCelOv=     1 NCel=       1 NClECP=     1 NCelD=      1
         NCelK=      1 NCelE2=     1 NClLst=     1 CellRange=     0.0.
 One-electron integrals computed using PRISM.
 One-electron integral symmetry used in STVInt
 NBasis=   897 RedAO= T EigKep=  3.69D-04  NBF=   897
 NBsUse=   897 1.00D-06 EigRej= -1.00D+00 NBFU=   897
 Precomputing XC quadrature grid using
 IXCGrd= 4 IRadAn=           5 IRanWt=          -1 IRanGd=           0 AccXCQ= 0.00D+00.
 Generated NRdTot=       0 NPtTot=           0 NUsed=           0 NTot=          32
 NSgBfM=   823   812   818   819   823 MxSgAt=   100 MxSgA2=   100.
 Leave Link  302 at Fri May 31 08:02:52 2019, MaxMem=  6442450944 cpu:             433.5 elap:              14.5
 (Enter /home/ekwan/sw/g16/l303.exe)
 DipDrv:  MaxL=1.
 Leave Link  303 at Fri May 31 08:02:53 2019, MaxMem=  6442450944 cpu:              14.1 elap:               0.6
 (Enter /home/ekwan/sw/g16/l401.exe)
 ExpMin= 2.60D-02 ExpMax= 2.19D+04 ExpMxC= 3.30D+03 IAcc=3 IRadAn=         5 AccDes= 0.00D+00
 Harris functional with IExCor=  402 and IRadAn=       5 diagonalized for initial guess.
 HarFok:  IExCor=  402 AccDes= 0.00D+00 IRadAn=         5 IDoV= 1 UseB2=F ITyADJ=14
 ICtDFT=  3500011 ScaDFX=  1.000000  1.000000  1.000000  1.000000
 FoFCou: FMM=F IPFlag=           0 FMFlag=      100000 FMFlg1=        2001
         NFxFlg=           0 DoJE=T BraDBF=F KetDBF=T FulRan=T
         wScrn=  0.000000 ICntrl=       500 IOpCl=  0 I1Cent=   200000004 NGrid=           0
         NMat0=    1 NMatS0=      1 NMatT0=    0 NMatD0=    1 NMtDS0=    0 NMtDT0=    0
 Petite list used in FoFCou.
 Harris En= -3459.37654161075    
 JPrj=0 DoOrth=F DoCkMO=F.
 Leave Link  401 at Fri May 31 08:03:08 2019, MaxMem=  6442450944 cpu:             476.4 elap:              15.0
 (Enter /home/ekwan/sw/g16/l502.exe)
 Integral symmetry usage will be decided dynamically.
 Closed shell SCF:
 Using DIIS extrapolation, IDIIS=  1040.
 NGot=  6442450944 LenX=  6440803163 LenY=  6439997657
 Requested convergence on RMS density matrix=1.00D-08 within 128 cycles.
 Requested convergence on MAX density matrix=1.00D-06.
 Requested convergence on             energy=1.00D-06.
 No special actions if energy rises.
 Fock matrices will be formed incrementally for  20 cycles.

 Cycle   1  Pass 1  IDiag  1:
 FoFJK:  IHMeth= 1 ICntrl=       0 DoSepK=F KAlg= 0 I1Cent=           0 FoldK=F
 IRaf= 830000000 NMat=       1 IRICut=       1 DoRegI=T DoRafI=F ISym2E= 0 IDoP0=0 IntGTp=1.
 FoFCou: FMM=T IPFlag=           0 FMFlag=      100000 FMFlg1=        2001
         NFxFlg=           0 DoJE=F BraDBF=F KetDBF=F FulRan=T
         wScrn=  0.000000 ICntrl=         0 IOpCl=  0 I1Cent=           0 NGrid=           0
[...]
 099,0.00005078,0.00010636,-0.00020112,-0.00075915,0.00016953,-0.000339
 36,-0.00084246,0.00026674,-0.00019805,-0.00005258,-0.00001320,0.000026
 54,0.00007267,0.00001984,-0.00000127,-0.00002396,0.00000656,-0.0000023
 7,-0.00000063,-0.00000017,-0.00006152,-0.00004898,0.00002559,-0.000159
 94,-0.00011689,-0.00044583,-0.00000162,0.00008869,0.00016225,0.0000661
 7,0.00007922,0.00027174,-0.00013992,0.00051717,-0.00066043,-0.00019778
 ,0.00009201,-0.00007967,0.00050189,-0.00004201,0.00003186,0.00267070,0
 .00958912,0.00361901,0.00007636,-0.00017898,-0.00006251,-0.00011503,-0
 .00048352,0.00002067,-0.00000366,0.00003853,-0.00003208,-0.00078552,0.
 00042151,0.00051446,0.00035006,-0.00013626,0.00007665,0.00075063,0.001
 05505,0.00041206,-0.00076783,-0.00082238,-0.00026446,-0.00025766,-0.00
 025785,-0.00004996,-0.00010366,-0.00014628,-0.00007200,0.00119205,0.00
 080206,0.00017218,-0.00036052,-0.00009245,0.00005321,-0.00073603,-0.00
 030005,-0.00021375,-0.00020428,-0.00006965,-0.00007556,0.00006116,0.00
 003856,0.00005782,0.00002128,0.00000148,0.00000879,-0.00000444,-0.0000
 1259,-0.00001017,-0.00002448,-0.00000484,-0.00000107,0.00003758,0.0000
 1031,-0.00003875,-0.00000703,-0.00000391,0.00000072,0.00000046,-0.0000
 0477,0.00001028,0.00000307,0.00000322,-0.00000263,-0.00003437,0.000012
 44,-0.00000249,0.00000842,-0.00000744,-0.00000803,0.00000829,0.0000218
 1,0.00000158,-0.00001590,-0.00001017,0.00000296,-0.00004435,0.00004437
 ,-0.00009976,0.00003107,0.00000453,0.00004538,-0.00002727,0.00000015,0
 .00000487,0.00000585,-0.00000268,0.00000655,-0.00000261,0.00000512,-0.
 00000116,-0.00000257,0.00000268,-0.00000550,0.00000549,-0.00002169,-0.
 00003240,-0.00000152,0.00000335,-0.00000473,-0.00000187,0.00000027,-0.
 00000975,0.00000539,-0.00000319,0.00000768,-0.00029651,-0.00019449,-0.
 00009464,0.00007470,0.00008630,-0.00003309,0.00008898,0.00004396,0.000
 02459,0.00004674,0.00001814,0.00003422,-0.01715917,-0.10220420,-0.0614
 7459,0.01829585,-0.01482575,-0.03856494,0.03168513,0.16081698,0.000000
 71,-0.00001177,0.00000399,0.00003949,-0.00004344,-0.00011190,0.0000275
 2,-0.00004178,-0.00018264,-0.00001363,0.00000037,-0.00001725,0.0000043
 4,-0.00002788,-0.00004963,-0.00001663,0.00000744,-0.00003314,0.0000198
 8,-0.00000502,0.00005192,-0.00000888,0.00001509,0.00000440,-0.00001258
 ,0.00001196,0.00002001,-0.00000264,-0.00000297,0.00003105,0.00003171,-
 0.00000210,0.00010482,0.00006736,-0.00001429,0.00020785,-0.00002911,0.
 00001581,0.00006907,-0.00001715,0.00002262,0.00002491,-0.00000091,0.00
 002233,0.00003259,-0.00001113,-0.00003162,-0.00023728,-0.00000306,0.00
 003033,0.00003769,0.00003458,-0.00000681,0.00007975,-0.00004799,0.0001
 3779,0.00026290,-0.00001005,-0.00002132,-0.00008626,0.00000472,-0.0000
 0617,0.00001411,0.00002927,0.00000624,0.00002983,-0.00000679,0.0000046
 5,0.00000967,0.00002328,-0.00001482,-0.00000743,-0.00000198,0.00000819
 ,0.00000523,-0.00000228,-0.00000143,-0.00000108,0.00000021,-0.00000179
 ,0.00000085,0.00000525,-0.00000218,-0.00001652,0.00000655,-0.00000203,
 0.00000186,-0.00000547,-0.00000487,-0.00000410,-0.00000204,0.00000638,
 0.00000119,-0.00017903,0.00012203,-0.00054901,0.00015981,0.00015897,0.
 00005726,-0.00001172,-0.00070742,-0.00061579,-0.00015828,-0.00006602,-
 0.00010710,0.00003994,0.00002333,-0.00000556,-0.00003271,-0.00005500,0
 .00000367,0.00000857,0.00001346,0.00002401,-0.00004249,0.00002158,0.00
 002047,0.00001066,-0.00000870,0.00002142,0.00000376,0.00001932,0.00000
 839,0.00017417,0.00024995,0.00013779,0.00015073,0.00124876,-0.00063065
 ,-0.00000474,-0.00016419,0.00073882,-0.00016610,-0.00077851,0.00048853
 ,0.00000171,-0.00001602,0.00006717,0.00000469,-0.00002650,0.00000284,-
 0.00000222,-0.00001527,0.00000850,-0.00000492,0.00000317,-0.00000033,0
 .00001625,0.00001415,0.00003190,-0.00240304,-0.00216479,0.00176640,0.0
 0064669,0.00024174,-0.00088522,0.00113861,0.00109665,0.00029709,0.0000
 4367,0.00150457,0.00109651,-0.00289311,-0.00122741,0.00024789,-0.00120
 639,0.00016241,-0.00061250,-0.01877988,-0.01564776,-0.03867124,0.00019
 198,-0.00085996,-0.00061389,-0.00123813,0.00272588,-0.00027168,0.00001
 964,-0.00030015,-0.00008413,0.00341063,0.00060863,-0.00271807,-0.00008
 512,-0.00094084,-0.00059476,0.00056241,0.00062720,0.00002748,-0.000878
 47,0.00034954,-0.00082226,-0.00014081,-0.00026561,0.00000590,-0.000000
 32,0.00010214,0.00007883,0.00103171,0.00075874,0.00031577,-0.00031599,
 -0.00011215,0.00006340,0.00042810,0.00061636,-0.00090818,-0.00003037,-
 0.00001534,-0.00000485,-0.00000347,0.00001306,-0.00004932,0.00001616,-
 0.00000319,0.00002360,-0.00000058,-0.00000166,0.00000107,-0.00000734,-
 0.00000163,0.00000679,0.00000700,0.00000085,-0.00001275,0.00000263,0.0
 0000274,0.00000028,0.00000161,-0.00000541,0.00000424,-0.00000163,0.000
 00359,-0.00000589,-0.00009869,0.00008458,-0.00009260,0.00000754,-0.000
 00813,0.00000765,0.00001658,0.00002106,-0.00000398,-0.00001662,-0.0000
 3668,0.00000054,0.00007522,-0.00043095,-0.00003965,-0.00024311,0.00020
 008,-0.00012108,0.00018196,-0.00008623,-0.00005300,-0.00004463,0.00002
 302,-0.00002690,-0.00000121,0.00000053,0.00000746,0.00002344,-0.000011
 00,0.00001983,0.00000899,-0.00005473,0.00009171,0.00006109,0.00003791,
 0.00004821,-0.00000978,-0.00003811,0.00007395,-0.00004490,0.00005513,-
 0.00003200,0.00289691,0.00015956,-0.00039385,-0.00078916,-0.00024441,0
 .00028040,-0.00105653,0.00069178,0.00038572,-0.00081695,0.00000841,-0.
 00037612,-0.03763250,-0.06331103,-0.19916250,0.02658504,-0.03524250,-0
 .03568396,0.04238871,0.13204472,0.26708597,-0.00000357,-0.00001372,0.0
 0000488,-0.00000586,-0.00000521,-0.00000573,-0.00003489,-0.00006550,0.
 00000617,-0.00000691,-0.00002837,0.00000021,-0.00000540,-0.00000344,-0
 .00000389,0.00000098,0.00001320,-0.00001094,0.00000270,-0.00000246,0.0
 0000494,0.00000021,0.00000237,0.00000031,0.00000187,0.00000244,-0.0000
 0024,-0.00000251,0.00000074,0.00000067,0.00004999,0.00003690,-0.000009
 28,0.00001404,0.00002732,0.00000328,0.00001423,0.00003556,-0.00000270,
 0.00000263,0.00001048,-0.00000252,0.00000946,0.00001264,-0.00000472,-0
 .00002208,0.00002304,0.00001468,0.00000585,-0.00000513,-0.00000287,0.0
 0000565,-0.00000062,0.00000789,0.00005118,-0.00003127,0.00000716,0.000
 00141,-0.00003487,0.00000092,-0.00000067,-0.00000052,-0.00000687,0.000
 00364,0.00000109,0.00000861,-0.00000183,0.00000254,-0.00000002,0.00000
 038,-0.00000475,0.00000060,0.00000001,0.00000178,0.00000128,0.00000213
 ,0.00000028,-0.00000047,-0.00000026,-0.00000029,-0.00000069,-0.0000078
 9,-0.00000229,0.00000487,0.00000121,0.,0.00000040,0.00000278,0.0000000
 5,-0.00000223,0.00000063,0.00000080,-0.00000076,-0.00006328,0.00007570
 ,-0.00012239,0.00010344,0.00009578,0.00000303,-0.00003619,-0.00001015,
 -0.00009305,-0.00002263,-0.00000182,-0.00002224,0.00003274,0.00002610,
 0.00000122,-0.00001633,-0.00000787,0.00000281,-0.00000665,-0.00002635,
 0.00000318,0.00000509,0.00001063,-0.00000393,0.00000083,-0.00000023,0.
 00000039,-0.00000251,-0.00000445,-0.00000214,0.00001652,-0.00001059,0.
 00004068,0.00008900,0.00008683,-0.00003830,0.00006662,-0.00016867,0.00
 004982,-0.00003725,-0.00033659,0.00009190,-0.00003367,-0.00002946,-0.0
 0000536,0.00000563,0.00001978,0.00000741,-0.00000047,-0.00000886,0.000
 00337,0.00000044,-0.00000163,-0.00000224,-0.00000512,-0.00001560,0.000
 00616,-0.00045756,-0.00016039,0.00004332,0.00013021,0.00001992,-0.0000
 8034,0.00020144,0.00004369,0.00010175,0.00000014,0.00049167,-0.0005847
 2,-0.00064985,0.00026114,-0.00012206,0.00027596,0.00035166,-0.00036617
 ,0.00850375,0.00168542,-0.00272645,0.00021568,0.00043563,-0.00035996,0
 .00132887,-0.00003489,0.00025850,0.00011483,0.00004342,-0.00008881,-0.
 00353561,0.00176919,-0.00001713,0.00132693,0.00133112,-0.00153249,-0.0
 0002404,0.00012363,0.00007824,-0.00020405,0.00003011,-0.00005485,-0.00
 002094,-0.00004805,-0.00000488,0.00000203,-0.00001644,-0.00001322,0.00
 026989,0.00031275,0.00005527,-0.00001585,-0.00001101,-0.00000450,-0.00
 002030,0.00011753,-0.00004829,-0.00004183,-0.00002370,-0.00002197,0.00
 001855,0.00001868,0.00001466,0.00000455,0.00000244,0.00000671,-0.00000
 041,-0.00000855,-0.00000269,-0.00000292,0.00000155,-0.00000022,0.00000
 400,0.00000931,-0.00000613,-0.00000180,-0.00000087,-0.00000050,0.00000
 099,-0.00000203,0.00000327,0.00000180,-0.00000139,-0.00000197,-0.00001
 213,-0.00002755,0.00000072,-0.00000054,0.00000242,0.00000132,0.0000051
 0,0.00000580,-0.00000095,0.00000039,0.00000730,0.00000041,-0.00001977,
 -0.00002733,-0.00001052,0.00000176,0.00001942,-0.00001209,-0.00000542,
 -0.00001523,0.00000378,-0.00000098,0.00000287,-0.00000346,0.00000069,-
 0.00000119,0.00000125,0.00000666,0.00000257,0.00000259,-0.00000359,-0.
 00001049,0.00001004,0.00000395,0.00000476,0.00000412,-0.00000019,-0.00
 000255,0.00000248,-0.00000316,0.00000396,-0.00000279,0.00025481,-0.000
 35648,0.00028474,-0.00005281,0.00011353,-0.00009407,-0.00006069,0.0001
 2473,0.00000778,-0.00005852,0.00002927,-0.00010610,-0.10964577,-0.0682
 5582,0.02986126,-0.05547537,-0.03416698,0.03367495,-0.00601943,-0.0345
 5844,-0.01107826,0.16348524,-0.00003958,0.00002088,-0.00002368,-0.0000
 8897,0.00000227,0.00005467,-0.00014353,0.00000473,0.00013641,0.0000035
 8,0.00004873,0.00000510,-0.00001573,0.00005919,-0.00000543,0.00000079,
 -0.00000769,0.00002645,-0.00000873,0.00000205,-0.00003113,0.00001000,-
 0.00001171,-0.00000078,0.00001824,-0.00001685,-0.00002115,-0.00000795,
 0.00000397,-0.00001841,0.00013077,-0.00004660,-0.00005909,0.00004823,-
 0.00002031,-0.00011646,0.00009589,0.00003356,-0.00003796,0.00007684,-0
 .00003452,0.00001896,0.00002282,-0.00006281,0.00001273,-0.00006808,0.0
 0012947,0.00018921,0.00001783,-0.00007016,-0.00003462,0.00000751,0.000
 00880,-0.00000640,0.00016271,-0.00031058,-0.00010098,-0.00000966,-0.00
 003023,0.00003730,-0.00000712,0.00000570,-0.00000421,-0.00002483,0.000
 00102,-0.00001230,0.00001481,-0.00000215,-0.00000669,-0.00004905,0.000
 01862,0.00001166,0.00000469,-0.00000563,-0.00000512,0.00000639,0.00000
 192,-0.00000487,0.00000655,-0.00000325,0.00000339,-0.00001216,0.000014
 88,-0.00002253,0.00000152,0.00000219,0.00001047,0.00001075,0.00000789,
 -0.00000220,0.00000271,-0.00001175,0.00000005,0.00006289,0.00001112,-0
 .00005551,0.00036548,0.00042628,-0.00004565,-0.00000363,0.00060142,0.0
 0005530,0.00015870,0.00006254,0.00001008,0.00011409,0.00007712,0.00000
 383,-0.00001056,0.00004355,0.00000147,-0.00002631,-0.00010717,-0.00001
 323,0.00003481,0.00000022,-0.00000111,-0.00001840,-0.00000116,-0.00000
 979,-0.00001162,-0.00001026,-0.00000595,-0.00022878,-0.00036678,0.0001
 2291,0.00002533,-0.00122930,0.00069991,-0.00017121,-0.00064458,-0.0001
 4834,-0.00018596,-0.00036259,0.00001743,-0.00019890,-0.00005067,-0.000
 05122,0.00002725,0.00010087,0.00001711,-0.00000012,-0.00001817,0.00000
 367,0.00000011,-0.00000392,-0.00000088,-0.00007755,-0.00006716,0.00001
 212,0.00211927,0.00152879,-0.00191983,-0.00059798,0.00000934,0.0009946
 2,-0.00082484,-0.00078215,0.00006683,-0.00169508,-0.00079322,0.0015930
 4,0.00666832,-0.00268971,0.00270476,0.00035748,-0.00037565,0.00026381,
 -0.02106031,-0.02849473,0.01812812,0.00004475,0.00028884,-0.00048048,0
 .00057934,-0.00007868,0.00084470,0.00005147,0.00005872,-0.00011704,-0.
 00282100,-0.00008770,0.00040674,0.00157422,-0.00129611,0.00015153,0.00
 000670,0.00038010,0.00017844,-0.00032645,0.00011126,0.00009339,-0.0000
 7420,0.00001782,-0.00001072,-0.00006622,-0.00013441,-0.00009049,0.0005
 4198,0.00036254,0.00009698,-0.00009879,-0.00002468,0.00002316,0.000070
 07,0.00014174,-0.00012226,-0.00009193,-0.00003389,-0.00005444,0.000069
 10,0.00003938,0.00008377,0.00001117,0.00000247,-0.00000202,-0.00000330
 ,-0.00001478,-0.00001195,-0.00002061,-0.00000179,-0.00000460,0.0000376
 1,0.00001482,-0.00003711,-0.00000980,-0.00000599,0.00000010,0.00000028
 ,-0.00000276,0.00001033,0.00000481,0.00000049,0.00000029,0.00000212,-0
 .00002493,0.00003621,0.00000494,-0.00000556,-0.00001252,0.00000378,0.0
 0001658,0.00000108,-0.00001257,0.00000505,0.00000331,-0.00014709,0.000
 32315,-0.00005766,0.00019038,-0.00009826,0.00012098,-0.00014533,0.0000
 4299,0.00004207,0.00003391,-0.00001633,0.00002235,-0.00000142,0.000005
 16,-0.00000534,-0.00001138,0.00001124,-0.00001720,-0.00001159,-0.00000
 708,-0.00008976,-0.00002842,-0.00001127,-0.00003280,-0.00000112,0.0000
 1653,-0.00006368,0.00003529,-0.00003232,0.00002665,-0.00207791,-0.0002
 3922,0.00011511,0.00061189,0.00030724,-0.00022179,0.00064188,-0.000320
 76,-0.00014434,0.00064491,0.00002824,0.00033175,-0.06027150,-0.2056080
 1,0.06375787,-0.02031321,0.01317875,0.00750586,-0.03431500,-0.05256857
 ,-0.02121518,0.13069853,0.27866438,0.00001570,-0.00000844,0.00000787,0
 .00004695,-0.00001512,-0.00005732,0.00007272,0.00000087,-0.00011798,-0
 .00000451,-0.00001160,-0.00000830,0.00000877,-0.00003145,-0.00001491,-
 0.00000629,0.00000216,-0.00001814,0.00000961,-0.00000148,0.00002796,-0
 .00000697,0.00000905,0.00000194,-0.00001182,0.00001000,0.00001524,0.00
 000265,-0.00000279,0.00001791,-0.00005092,0.00000747,0.00006151,0.0000
 0218,-0.00000443,0.00011716,-0.00004815,-0.00001463,0.00003926,-0.0000
 3485,0.00001858,0.00000320,-0.00001111,0.00002867,0.00000834,0.0000279
 1,-0.00006689,-0.00016038,-0.00000957,0.00003907,0.00002721,0.00000786
 ,-0.00000626,0.00002894,-0.00009005,0.00017608,0.00013202,-0.00000036,
 0.00001181,-0.00004482,0.00000448,-0.00000420,0.00000843,0.00001722,0.
 00000143,0.00001311,-0.00000710,0.00000150,0.00000549,0.00002614,-0.00
 001142,-0.00000730,-0.00000235,0.00000480,0.00000358,-0.00000367,-0.00
 000127,0.00000135,-0.00000223,0.00000047,-0.00000070,0.00000823,-0.000
 00587,0.00000099,0.00000161,-0.00000156,-0.00000327,-0.00000668,-0.000
 00484,-0.00000015,-0.00000196,0.00000661,0.00000061,-0.00008127,0.0000
 3558,-0.00016266,-0.00008285,-0.00011519,0.00004151,0.00000237,-0.0004
 9327,-0.00023450,-0.00011756,-0.00004817,-0.00004045,-0.00003394,-0.00
 002452,-0.00000428,-0.00000635,-0.00003528,0.00000087,0.00001308,0.000
 04660,0.00001352,-0.00002781,0.00000819,0.00000777,0.00001090,-0.00000
 263,0.00001131,0.00000599,0.00001100,0.00000557,0.00015074,0.00023656,
 -0.00000205,0.00001440,0.00094983,-0.00044882,0.00006009,0.00022029,0.
 00027416,0.00001902,-0.00011319,0.00015069,0.00008326,0.00001687,0.000
 04466,-0.00000979,-0.00005125,-0.00000658,-0.00000066,0.00000254,0.000
 00129,-0.00000183,0.00000281,0.00000049,0.00003713,0.00003312,0.000006
 13,-0.00179978,-0.00146827,0.00125271,0.00052353,0.00008474,-0.0007258
 2,0.00071059,0.00069346,0.00008480,0.00056811,0.00030402,-0.00186460,-
 0.00467272,0.00232852,-0.00075559,0.00000882,0.00058189,-0.00044488,0.
 01520627,0.03113914,-0.00583093,0.00001599,-0.00016077,0.00062903,-0.0
 0021026,-0.00004629,-0.00043062,-0.00001352,-0.00004282,0.00009024,0.0
 0106338,0.00035882,-0.00080625,-0.00099078,0.00074807,-0.00051946,0.00
 013762,0.00001550,-0.00006843,-0.00008447,-0.00000298,-0.00023153,-0.0
 0000114,-0.00008749,0.00000634,0.00003062,0.00008287,0.00006220,0.0001
 4586,0.00011285,0.00001068,-0.00006489,-0.00002247,0.00000923,0.000077
 91,0.00012911,-0.00010058,0.00001538,0.00000328,0.00002002,-0.00003039
 ,-0.00001260,-0.00005211,0.00000080,-0.00000215,0.00000871,0.00000115,
 0.00000596,0.00000540,0.00000596,0.00000007,0.00000416,-0.00001284,-0.
 00000638,0.00001064,0.00000502,0.00000346,0.00000012,0.00000041,-0.000
 00071,-0.00000286,-0.00000266,0.00000123,-0.00000208,-0.00003253,0.000
 04648,-0.00004692,0.00000063,-0.00000117,0.00000723,0.00000314,-0.0000
 0087,-0.00000163,-0.00000084,-0.00001649,-0.00000134,0.00009226,-0.000
 27246,0.00000764,-0.00015824,0.00010430,-0.00008071,0.00011974,-0.0000
 4285,-0.00003517,-0.00002835,0.00001286,-0.00001657,-0.00000014,-0.000
 00112,0.00000446,0.00001079,-0.00000899,0.00001241,0.00001158,-0.00001
 614,0.00006039,0.00003018,0.00001604,0.00002679,-0.00000219,-0.0000197
 4,0.00005051,-0.00002883,0.00002981,-0.00002022,0.00165966,0.00000031,
 -0.00015786,-0.00047469,-0.00018537,0.00017317,-0.00050821,0.00031400,
 0.00013902,-0.00049765,0.00000263,-0.00021903,0.02504630,0.06083538,-0
 .09950849,0.02979396,0.01251375,-0.00277115,-0.01865406,-0.03535940,0.
 01035492,-0.04700486,-0.07349720,0.10191659\\0.00000072,0.00000078,-0.
 00000214,-0.00000061,0.00000070,-0.00000282,-0.00000024,0.00000069,-0.
 00000144,-0.00000087,0.00000082,-0.00000105,0.00000045,0.00000072,-0.0
 0000217,-0.00000104,0.00000143,-0.00000099,0.00000020,0.00000099,-0.00
 000166,-0.00000045,0.00000055,-0.00000244,-0.00000114,0.00000091,-0.00
 000160,-0.00000051,0.00000046,-0.00000045,-0.00000074,0.00000057,-0.00
 000067,-0.00000128,0.00000130,-0.00000141,-0.00000104,0.00000094,-0.00
 000172,0.00000045,-0.00000009,-0.00000256,-0.00000077,-0.00000007,-0.0
 0000384,-0.00000071,-0.00000248,-0.00000078,-0.00000013,0.00000032,-0.
 00000051,-0.00000033,0.00000039,-0.00000028,0.00000055,0.00000387,-0.0
 0000057,-0.00000064,0.00000076,-0.00000280,-0.00000107,0.00000123,-0.0
 0000182,-0.00000089,0.00000080,-0.00000133,-0.00000108,0.00000107,-0.0
 0000254,0.00000010,0.00000083,-0.00000354,0.00000013,0.00000048,-0.000
 00391,0.00000016,0.00000047,-0.00000367,0.00000082,0.00000004,-0.00000
 376,0.00000218,-0.00000046,-0.00000186,0.00000072,-0.00000029,-0.00000
 256,-0.00000073,0.00000054,-0.00000211,0.00000082,0.00000014,-0.000002
 51,0.00000028,-0.00000024,0.00000203,0.00000023,-0.00000050,0.00000126
 ,0.00000206,0.00000076,0.00000256,-0.00000026,0.00000028,0.00000188,-0
 .00000031,-0.00000012,0.00000281,-0.00000007,0.00000071,-0.00000193,-0
 .00000067,0.00000003,0.00000002,-0.00000014,0.,0.00000275,0.00000120,-
 0.00000053,0.00000151,-0.00000011,-0.00000009,0.00000121,0.00000075,-0
 .00000307,0.00000024,0.00000056,-0.00000261,0.00000247,0.00000016,0.00
 000026,0.00000106,-0.00000112,0.00000024,0.00000242,-0.00000015,-0.000
 00065,0.00000180,0.00000034,-0.00000068,0.00000046,0.00000105,-0.00000
 083,0.00000074,0.00000016,-0.00000014,0.00000040,0.00000054,-0.0000002
 5,0.00000175,-0.00000026,-0.00000034,-0.00000060,0.00000193,-0.0000018
 0,0.00000156,-0.00000013,-0.00000010,0.00000171,0.00000039,-0.00000131
 ,0.00000093,0.00000004,-0.00000103,0.00000138,0.00000054,0.00000041,0.
 00000141,-0.00000004,0.00000009,0.00000154,-0.00000007,-0.00000064,0.0
 0000211,0.,-0.00000006,0.00000027,0.00000094,-0.00000007,0.00000025,0.
 ,-0.00000022,0.00000118,-0.00000079,0.00000029,0.00000095,-0.00000107,
 -0.00000028,0.00000055,-0.00000105,0.00000057,0.00000089,-0.00000077,0
 .00000035,0.00000056,-0.00000074,0.00000039,0.00000116,-0.00000111,0.0
 0000038,0.00000224,-0.00000092,0.00000001,0.00000317,-0.00000081,0.000
 00051,0.00000248,-0.00000146,0.00000054,0.00000307,-0.00000066,-0.0000
 0018,0.00000330,-0.00000095,0.00000022,0.00000258,-0.00000056,0.000000
 19,0.00000231,-0.00000017,-0.00000025,0.00000307,0.00000047,-0.0000010
 0,0.00000098,0.00000066,-0.00000073,0.00000208,0.00000141,-0.00000133,
 0.00000197,0.00000074,-0.00000062,0.00000228,-0.00000174,0.00000114,-0
 .00000125,-0.00000213,0.00000176,-0.00000142,-0.00000172,0.00000129,-0
 .00000089,-0.00000190,0.00000180,-0.00000090,0.00000341,-0.00000360,-0
 .00000164,0.00000405,0.00000301,0.00000164,0.00000178,-0.00000388,-0.0
 0000543,0.00000114,-0.00000126,-0.00000281,0.00000108,-0.00000016,-0.0
 0000258,0.00000096,-0.00000091,-0.00000051,-0.00000119,-0.00000038,0.0
 0000123,0.00000216,-0.00000137,-0.00000043,0.00000171,-0.00000080,-0.0
 0000003,0.00000168,-0.00000138,-0.00000152,0.00000015,0.00000009,-0.00
 000005,-0.00000032,0.00000027,0.,0.00000115,-0.00000156,-0.00000191,0.
 00000049,-0.00000028,-0.00000038,-0.00000011,0.00000042,0.00000282,-0.
 00000094,0.00000021,0.00000292,-0.00000167,0.00000040,0.00000162,-0.00
 000114,0.00000025,0.00000221\\\@


 Make no judgements where you have no compassion.
                               -- Anne McCaffrey
 Job cpu time:       4 days  6 hours 45 minutes 58.8 seconds.
 Elapsed time:       0 days  3 hours 28 minutes  4.4 seconds.
 File lengths (MBytes):  RWF=   9785 Int=      0 D2E=      0 Chk=     85 Scr=      1
 Normal termination of Gaussian 16 at Fri May 31 14:57:27 2019.
