 Entering Gaussian System, Link 0=g16
 Input=clay_new-glu_gluC6-CDUR-Na2_1Me2O-bisCF3-ts-b3lyp_d3bj-631gd-pcm_thf.gjf
 Output=clay_new-glu_gluC6-CDUR-Na2_1Me2O-bisCF3-ts-b3lyp_d3bj-631gd-pcm_thf.out
 Initial command:
 /home/ekwan/sw/g16/l1.exe "/scratch/users/ekwan/clay_new-glu_gluC6-CDUR-Na2_1Me2O-bisCF3-ts-b3lyp_d3bj-631gd-pcm_thf/Gau-33738.inp" -scrdir="/scratch/users/ekwan/clay_new-glu_gluC6-CDUR-Na2_1Me2O-bisCF3-ts-b3lyp_d3bj-631gd-pcm_thf/"
 Entering Link 1 = /home/ekwan/sw/g16/l1.exe PID=     33747.
  
 Copyright (c) 1988,1990,1992,1993,1995,1998,2003,2009,2016,
            Gaussian, Inc.  All Rights Reserved.
  
 This is part of the Gaussian(R) 16 program.  It is based on
 the Gaussian(R) 09 system (copyright 2009, Gaussian, Inc.),
 the Gaussian(R) 03 system (copyright 2003, Gaussian, Inc.),
 the Gaussian(R) 98 system (copyright 1998, Gaussian, Inc.),
 the Gaussian(R) 94 system (copyright 1995, Gaussian, Inc.),
 the Gaussian 92(TM) system (copyright 1992, Gaussian, Inc.),
 the Gaussian 90(TM) system (copyright 1990, Gaussian, Inc.),
 the Gaussian 88(TM) system (copyright 1988, Gaussian, Inc.),
 the Gaussian 86(TM) system (copyright 1986, Carnegie Mellon
 University), and the Gaussian 82(TM) system (copyright 1983,
 Carnegie Mellon University). Gaussian is a federally registered
 trademark of Gaussian, Inc.
  
 This software contains proprietary and confidential information,
 including trade secrets, belonging to Gaussian, Inc.
  
 This software is provided under written license and may be
 used, copied, transmitted, or stored only in accord with that
 written license.
  
 The following legend is applicable only to US Government
 contracts under FAR:
  
                    RESTRICTED RIGHTS LEGEND
  
 Use, reproduction and disclosure by the US Government is
 subject to restrictions as set forth in subparagraphs (a)
 and (c) of the Commercial Computer Software - Restricted
 Rights clause in FAR 52.227-19.
  
 Gaussian, Inc.
 340 Quinnipiac St., Bldg. 40, Wallingford CT 06492
  
  
 ---------------------------------------------------------------
 Warning -- This program may not be used in any manner that
 competes with the business of Gaussian, Inc. or will provide
 assistance to any competitor of Gaussian, Inc.  The licensee
 of this program is prohibited from giving any competitor of
 Gaussian, Inc. access to this program.  By using this program,
 the user acknowledges that Gaussian, Inc. is engaged in the
 business of creating and licensing software in the field of
 computational chemistry and represents and warrants to the
 licensee that it is not a competitor of Gaussian, Inc. and that
 it will not use this program in any manner prohibited above.
 ---------------------------------------------------------------
  

 Cite this work as:
 Gaussian 16, Revision A.03,
 M. J. Frisch, G. W. Trucks, H. B. Schlegel, G. E. Scuseria, 
 M. A. Robb, J. R. Cheeseman, G. Scalmani, V. Barone, 
 G. A. Petersson, H. Nakatsuji, X. Li, M. Caricato, A. V. Marenich, 
 J. Bloino, B. G. Janesko, R. Gomperts, B. Mennucci, H. P. Hratchian, 
 J. V. Ortiz, A. F. Izmaylov, J. L. Sonnenberg, D. Williams-Young, 
 F. Ding, F. Lipparini, F. Egidi, J. Goings, B. Peng, A. Petrone, 
 T. Henderson, D. Ranasinghe, V. G. Zakrzewski, J. Gao, N. Rega, 
 G. Zheng, W. Liang, M. Hada, M. Ehara, K. Toyota, R. Fukuda, 
 J. Hasegawa, M. Ishida, T. Nakajima, Y. Honda, O. Kitao, H. Nakai, 
 T. Vreven, K. Throssell, J. A. Montgomery, Jr., J. E. Peralta, 
 F. Ogliaro, M. J. Bearpark, J. J. Heyd, E. N. Brothers, K. N. Kudin, 
 V. N. Staroverov, T. A. Keith, R. Kobayashi, J. Normand, 
 K. Raghavachari, A. P. Rendell, J. C. Burant, S. S. Iyengar, 
 J. Tomasi, M. Cossi, J. M. Millam, M. Klene, C. Adamo, R. Cammi, 
 J. W. Ochterski, R. L. Martin, K. Morokuma, O. Farkas, 
 J. B. Foresman, and D. J. Fox, Gaussian, Inc., Wallingford CT, 2016.
 
 ******************************************
 Gaussian 16:  AS64L-G16RevA.03 25-Dec-2016
                 1-Jun-2019 
 ******************************************
 %mem=48GB
 %nprocshared=32
 Will use up to   32 processors via shared memory.
 ----------------------------------------------------------------------
 #p opt=(ts,noeigentest,calcfc,maxstep=5,modredundant,recalc=30) freq=n
 oraman b3lyp 6-31g* pop=none scrf=(solvent=tetrahydrofuran,pcm) empiri
 caldispersion=gd3bj
 ----------------------------------------------------------------------
 1/5=1,8=5,10=4,11=1,18=120,26=3,38=1,71=30/1,3;
 2/9=110,12=2,17=6,18=5,40=1/2;
 3/5=1,6=6,7=1,11=2,25=1,30=1,70=2201,71=2,72=20,74=-5,124=41,140=1/1,2,3;
 4//1;
 5/5=2,38=5,53=20/2;
 8/6=4,10=90,11=11/1;
 11/6=1,8=1,9=11,15=111,16=1/1,2,10;
 10/6=1,13=1/2;
 7/10=1,18=20,25=1/1,2,3,16;
 1/5=1,8=5,10=4,11=1,18=20,26=3,71=30/3(2);
 2/9=110/2;
 99//99;
 2/9=110/2;
 3/5=1,6=6,7=1,11=2,25=1,30=1,70=2205,71=1,72=20,74=-5,124=41/1,2,3;
 4/5=5,16=3,69=1/1;
 5/5=2,38=5,53=20/2;
 7//1,2,3,16;
 1/5=1,8=5,11=1,18=20,26=3,71=30/3(-5);
 2/9=110/2;
 99/9=1/99;
 Leave Link    1 at Sat Jun  1 08:10:04 2019, MaxMem=  6442450944 cpu:              24.2 elap:               0.9
 (Enter /home/ekwan/sw/g16/l101.exe)
 -----
 title
 -----
 Symbolic Z-matrix:
 Charge =  0 Multiplicity = 1
 C                    -3.37102   3.53308   0.0597 
 C                    -3.79976   2.51272   1.117 
 C                    -3.6085    1.07325   0.6068 
 C                    -1.90291   1.73575  -0.95618 
 C                    -1.99527   3.19801  -0.51639 
 H                    -3.70894   0.34205   1.42176 
 H                    -3.13872   2.62789   1.99135 
 H                    -4.09878   3.51624  -0.76173 
 H                    -2.59669   1.55775  -1.78715 
 H                    -1.24173   3.37393   0.26442 
 O                    -2.28019   0.89813   0.15703 
 O                    -4.5633    0.82305  -0.38721 
 O                    -5.13607   2.80492   1.48266 
 O                    -3.29372   4.83863   0.62277 
 O                    -1.74775   4.03967  -1.63954 
 C                    -0.49091   1.32474  -1.38806 
 H                     0.17324   1.52808  -0.51747 
 H                    -0.18688   2.06891  -2.152 
 O                    -0.40953   0.03094  -1.82955 
 C                    -5.60195   2.07972   2.60837 
 H                    -5.75295   1.01628   2.37889 
 H                    -4.90587   2.16413   3.45619 
 H                    -6.56263   2.51693   2.89064 
 C                    -4.43481   5.64998   0.3868 
 H                    -4.60772   5.78619  -0.6908 
 H                    -5.33469   5.2231    0.84264 
 H                    -4.22525   6.62444   0.83672 
 C                    -0.725     5.00072  -1.42764 
 H                    -0.96456   5.65536  -0.58082 
 H                     0.24829   4.52058  -1.25215 
 H                    -0.66223   5.60083  -2.3398 
 C                    -1.39968  -2.8218    1.62579 
 C                    -0.66079  -1.57783   1.13559 
 C                     0.00353  -1.76687  -0.19023 
 C                    -1.24894  -3.74277  -0.72102 
 C                    -2.17099  -3.43703   0.46131 
 H                     0.67797  -1.01528  -0.55709 
 H                    -1.41316  -0.80358   0.91171 
 H                    -0.67619  -3.55237   2.01026 
 H                    -0.53408  -4.52231  -0.44284 
 H                    -2.93922  -2.72983   0.13438 
 O                    -0.43824  -2.5822   -1.09126 
 O                     2.485    -2.30563  -1.85552 
 O                     0.24216  -1.12011   2.12025 
 O                    -2.34256  -2.47088   2.62419 
 O                    -2.75271  -4.67319   0.83325 
 C                    -1.99606  -4.15569  -1.97047 
 H                    -2.47578  -5.1253   -1.77696 
 H                    -1.28114  -4.28378  -2.79762 
 O                    -2.95265  -3.16248  -2.2767 
 S                     2.86891  -2.55807  -0.43412 
 O                     4.06777  -3.39617  -0.25563 
 O                     1.70223  -3.02654   0.40539 
 C                     3.25689  -0.93298   0.24133 
 C                     3.22961   0.19645  -0.56731 
 C                     3.56938  -0.83904   1.59945 
 C                     3.53314   1.44199  -0.00411 
 H                     2.96877   0.11674  -1.61653 
 C                     3.87005   0.40557   2.14133 
 H                     3.57284  -1.72582   2.2213 
 C                     3.85626   1.55419   1.34299 
 H                     4.09756   2.51955   1.77009 
 C                     0.32374   0.2986    2.23772 
 H                     0.77153   0.7528    1.34588 
 H                    -0.66691   0.74147   2.39242 
 H                     0.96492   0.49614   3.09646 
 C                    -1.86752  -2.61322   3.95956 
 H                    -1.58768  -3.65538   4.16693 
 H                    -1.00577  -1.96567   4.14935 
 H                    -2.6946   -2.32823   4.61405 
 C                    -4.16131  -4.60641   1.03644 
 H                    -4.40875  -3.91488   1.84878 
 H                    -4.6755   -4.29061   0.11828 
 H                    -4.48548  -5.61539   1.30136 
 C                    -3.71134  -3.47271  -3.4334 
 H                    -4.41621  -2.65208  -3.58046 
 H                    -3.06821  -3.56132  -4.32122 
 H                    -4.26744  -4.41284  -3.30594 
 C                    -4.54025  -0.52495  -0.85018 
 H                    -5.34004  -0.61749  -1.58794 
 H                    -3.58203  -0.78041  -1.31232 
 H                    -4.73416  -1.22129  -0.02103 
 Na                    0.82238  -1.21633  -3.11184 
 O                     2.48417   0.20567  -3.86223 
 C                     2.12672   1.48498  -4.37851 
 H                     2.15192   1.48261  -5.4767 
 H                     1.1135    1.6943   -4.03106 
 H                     2.8061    2.25695  -4.00125 
 C                     3.81918  -0.17027  -4.18799 
 H                     4.53095   0.56168  -3.78569 
 H                     3.99197  -1.1426   -3.72398 
 H                     3.95143  -0.24317  -5.27593 
 C                     4.15682   0.54014   3.61143 
 F                     5.10354   1.47275   3.85132 
 F                     4.57378  -0.61945   4.15594 
 F                     3.05194   0.92644   4.30086 
 C                     3.517     2.65328  -0.89461 
 F                     4.3721    2.50932  -1.93836 
 F                     3.86296   3.77968  -0.24368 
 F                     2.29139   2.86051  -1.43581 
 
 Add virtual bond connecting atoms H37        and O19        Dist= 3.73D+00.
 Add virtual bond connecting atoms H38        and O11        Dist= 3.88D+00.
 Add virtual bond connecting atoms H64        and H17        Dist= 3.98D+00.
 Add virtual bond connecting atoms O43        and Na83       Dist= 4.44D+00.
 Add virtual bond connecting atoms O53        and C34        Dist= 4.15D+00.
 Add virtual bond connecting atoms O84        and H58        Dist= 4.34D+00.
 Add virtual bond connecting atoms O84        and Na83       Dist= 4.37D+00.
 Add virtual bond connecting atoms H87        and H18        Dist= 4.38D+00.
 The following ModRedundant input section has been read:
 
 ITRead=  0  0  0  0  0  0  0  0  0  0  0  0  0  0  0  0  0  0  0  0
 ITRead=  0  0  0  0  0  0  0  0  0  0  0  0  0  0  0  0  0  0  0  0
 ITRead=  0  0  0  0  0  0  0  0  0  0  0  0  0  0  0  0  0  0  0  0
 ITRead=  0  0  0  0  0  0  0  0  0  0  0  0  0  0  0  0  0  0  0  0
 ITRead=  0  0  0  0  0  0  0  0  0  0  0  0  0  0  0  0  0  0  0  0
 MicOpt= -1 -1 -1 -1 -1 -1 -1 -1 -1 -1 -1 -1 -1 -1 -1 -1 -1 -1 -1 -1
 MicOpt= -1 -1 -1 -1 -1 -1 -1 -1 -1 -1 -1 -1 -1 -1 -1 -1 -1 -1 -1 -1
 MicOpt= -1 -1 -1 -1 -1 -1 -1 -1 -1 -1 -1 -1 -1 -1 -1 -1 -1 -1 -1 -1
 MicOpt= -1 -1 -1 -1 -1 -1 -1 -1 -1 -1 -1 -1 -1 -1 -1 -1 -1 -1 -1 -1
 MicOpt= -1 -1 -1 -1 -1 -1 -1 -1 -1 -1 -1 -1 -1 -1 -1 -1 -1 -1 -1 -1
 NAtoms=    100 NQM=      100 NQMF=       0 NMMI=      0 NMMIF=      0
                NMic=       0 NMicF=      0.
                    Isotopes and Nuclear Properties:
 (Nuclear quadrupole moments (NQMom) in fm**2, nuclear magnetic moments (NMagM)
  in nuclear magnetons)

  Atom         1           2           3           4           5           6           7           8           9          10
 IAtWgt=          12          12          12          12          12           1           1           1           1           1
 AtmWgt=  12.0000000  12.0000000  12.0000000  12.0000000  12.0000000   1.0078250   1.0078250   1.0078250   1.0078250   1.0078250
 NucSpn=           0           0           0           0           0           1           1           1           1           1
 AtZEff=   0.0000000   0.0000000   0.0000000   0.0000000   0.0000000   0.0000000   0.0000000   0.0000000   0.0000000   0.0000000
 NQMom=    0.0000000   0.0000000   0.0000000   0.0000000   0.0000000   0.0000000   0.0000000   0.0000000   0.0000000   0.0000000
 NMagM=    0.0000000   0.0000000   0.0000000   0.0000000   0.0000000   2.7928460   2.7928460   2.7928460   2.7928460   2.7928460
 AtZNuc=   6.0000000   6.0000000   6.0000000   6.0000000   6.0000000   1.0000000   1.0000000   1.0000000   1.0000000   1.0000000

  Atom        11          12          13          14          15          16          17          18          19          20
 IAtWgt=          16          16          16          16          16          12           1           1          16          12
 AtmWgt=  15.9949146  15.9949146  15.9949146  15.9949146  15.9949146  12.0000000   1.0078250   1.0078250  15.9949146  12.0000000
 NucSpn=           0           0           0           0           0           0           1           1           0           0
 AtZEff=   0.0000000   0.0000000   0.0000000   0.0000000   0.0000000   0.0000000   0.0000000   0.0000000   0.0000000   0.0000000
 NQMom=    0.0000000   0.0000000   0.0000000   0.0000000   0.0000000   0.0000000   0.0000000   0.0000000   0.0000000   0.0000000
 NMagM=    0.0000000   0.0000000   0.0000000   0.0000000   0.0000000   0.0000000   2.7928460   2.7928460   0.0000000   0.0000000
 AtZNuc=   8.0000000   8.0000000   8.0000000   8.0000000   8.0000000   6.0000000   1.0000000   1.0000000   8.0000000   6.0000000

  Atom        21          22          23          24          25          26          27          28          29          30
 IAtWgt=           1           1           1          12           1           1           1          12           1           1
 AtmWgt=   1.0078250   1.0078250   1.0078250  12.0000000   1.0078250   1.0078250   1.0078250  12.0000000   1.0078250   1.0078250
 NucSpn=           1           1           1           0           1           1           1           0           1           1
 AtZEff=   0.0000000   0.0000000   0.0000000   0.0000000   0.0000000   0.0000000   0.0000000   0.0000000   0.0000000   0.0000000
 NQMom=    0.0000000   0.0000000   0.0000000   0.0000000   0.0000000   0.0000000   0.0000000   0.0000000   0.0000000   0.0000000
 NMagM=    2.7928460   2.7928460   2.7928460   0.0000000   2.7928460   2.7928460   2.7928460   0.0000000   2.7928460   2.7928460
 AtZNuc=   1.0000000   1.0000000   1.0000000   6.0000000   1.0000000   1.0000000   1.0000000   6.0000000   1.0000000   1.0000000

  Atom        31          32          33          34          35          36          37          38          39          40
 IAtWgt=           1          12          12          12          12          12           1           1           1           1
 AtmWgt=   1.0078250  12.0000000  12.0000000  12.0000000  12.0000000  12.0000000   1.0078250   1.0078250   1.0078250   1.0078250
 NucSpn=           1           0           0           0           0           0           1           1           1           1
 AtZEff=   0.0000000   0.0000000   0.0000000   0.0000000   0.0000000   0.0000000   0.0000000   0.0000000   0.0000000   0.0000000
 NQMom=    0.0000000   0.0000000   0.0000000   0.0000000   0.0000000   0.0000000   0.0000000   0.0000000   0.0000000   0.0000000
 NMagM=    2.7928460   0.0000000   0.0000000   0.0000000   0.0000000   0.0000000   2.7928460   2.7928460   2.7928460   2.7928460
 AtZNuc=   1.0000000   6.0000000   6.0000000   6.0000000   6.0000000   6.0000000   1.0000000   1.0000000   1.0000000   1.0000000

  Atom        41          42          43          44          45          46          47          48          49          50
 IAtWgt=           1          16          16          16          16          16          12           1           1          16
 AtmWgt=   1.0078250  15.9949146  15.9949146  15.9949146  15.9949146  15.9949146  12.0000000   1.0078250   1.0078250  15.9949146
 NucSpn=           1           0           0           0           0           0           0           1           1           0
 AtZEff=   0.0000000   0.0000000   0.0000000   0.0000000   0.0000000   0.0000000   0.0000000   0.0000000   0.0000000   0.0000000
 NQMom=    0.0000000   0.0000000   0.0000000   0.0000000   0.0000000   0.0000000   0.0000000   0.0000000   0.0000000   0.0000000
 NMagM=    2.7928460   0.0000000   0.0000000   0.0000000   0.0000000   0.0000000   0.0000000   2.7928460   2.7928460   0.0000000
 AtZNuc=   1.0000000   8.0000000   8.0000000   8.0000000   8.0000000   8.0000000   6.0000000   1.0000000   1.0000000   8.0000000

  Atom        51          52          53          54          55          56          57          58          59          60
 IAtWgt=          32          16          16          12          12          12          12           1          12           1
 AtmWgt=  31.9720718  15.9949146  15.9949146  12.0000000  12.0000000  12.0000000  12.0000000   1.0078250  12.0000000   1.0078250
 NucSpn=           0           0           0           0           0           0           0           1           0           1
 AtZEff=   0.0000000   0.0000000   0.0000000   0.0000000   0.0000000   0.0000000   0.0000000   0.0000000   0.0000000   0.0000000
 NQMom=    0.0000000   0.0000000   0.0000000   0.0000000   0.0000000   0.0000000   0.0000000   0.0000000   0.0000000   0.0000000
 NMagM=    0.0000000   0.0000000   0.0000000   0.0000000   0.0000000   0.0000000   0.0000000   2.7928460   0.0000000   2.7928460
 AtZNuc=  16.0000000   8.0000000   8.0000000   6.0000000   6.0000000   6.0000000   6.0000000   1.0000000   6.0000000   1.0000000

  Atom        61          62          63          64          65          66          67          68          69          70
 IAtWgt=          12           1          12           1           1           1          12           1           1           1
 AtmWgt=  12.0000000   1.0078250  12.0000000   1.0078250   1.0078250   1.0078250  12.0000000   1.0078250   1.0078250   1.0078250
 NucSpn=           0           1           0           1           1           1           0           1           1           1
 AtZEff=   0.0000000   0.0000000   0.0000000   0.0000000   0.0000000   0.0000000   0.0000000   0.0000000   0.0000000   0.0000000
 NQMom=    0.0000000   0.0000000   0.0000000   0.0000000   0.0000000   0.0000000   0.0000000   0.0000000   0.0000000   0.0000000
 NMagM=    0.0000000   2.7928460   0.0000000   2.7928460   2.7928460   2.7928460   0.0000000   2.7928460   2.7928460   2.7928460
 AtZNuc=   6.0000000   1.0000000   6.0000000   1.0000000   1.0000000   1.0000000   6.0000000   1.0000000   1.0000000   1.0000000

  Atom        71          72          73          74          75          76          77          78          79          80
 IAtWgt=          12           1           1           1          12           1           1           1          12           1
 AtmWgt=  12.0000000   1.0078250   1.0078250   1.0078250  12.0000000   1.0078250   1.0078250   1.0078250  12.0000000   1.0078250
 NucSpn=           0           1           1           1           0           1           1           1           0           1
 AtZEff=   0.0000000   0.0000000   0.0000000   0.0000000   0.0000000   0.0000000   0.0000000   0.0000000   0.0000000   0.0000000
 NQMom=    0.0000000   0.0000000   0.0000000   0.0000000   0.0000000   0.0000000   0.0000000   0.0000000   0.0000000   0.0000000
 NMagM=    0.0000000   2.7928460   2.7928460   2.7928460   0.0000000   2.7928460   2.7928460   2.7928460   0.0000000   2.7928460
 AtZNuc=   6.0000000   1.0000000   1.0000000   1.0000000   6.0000000   1.0000000   1.0000000   1.0000000   6.0000000   1.0000000

  Atom        81          82          83          84          85          86          87          88          89          90
 IAtWgt=           1           1          23          16          12           1           1           1          12           1
 AtmWgt=   1.0078250   1.0078250  22.9897697  15.9949146  12.0000000   1.0078250   1.0078250   1.0078250  12.0000000   1.0078250
 NucSpn=           1           1           3           0           0           1           1           1           0           1
 AtZEff=   0.0000000   0.0000000   0.0000000   0.0000000   0.0000000   0.0000000   0.0000000   0.0000000   0.0000000   0.0000000
 NQMom=    0.0000000   0.0000000  10.4000000   0.0000000   0.0000000   0.0000000   0.0000000   0.0000000   0.0000000   0.0000000
 NMagM=    2.7928460   2.7928460   2.2175200   0.0000000   0.0000000   2.7928460   2.7928460   2.7928460   0.0000000   2.7928460
 AtZNuc=   1.0000000   1.0000000  11.0000000   8.0000000   6.0000000   1.0000000   1.0000000   1.0000000   6.0000000   1.0000000

  Atom        91          92          93          94          95          96          97          98          99         100
 IAtWgt=           1           1          12          19          19          19          12          19          19          19
 AtmWgt=   1.0078250   1.0078250  12.0000000  18.9984033  18.9984033  18.9984033  12.0000000  18.9984033  18.9984033  18.9984033
 NucSpn=           1           1           0           1           1           1           0           1           1           1
 AtZEff=   0.0000000   0.0000000   0.0000000   0.0000000   0.0000000   0.0000000   0.0000000   0.0000000   0.0000000   0.0000000
 NQMom=    0.0000000   0.0000000   0.0000000   0.0000000   0.0000000   0.0000000   0.0000000   0.0000000   0.0000000   0.0000000
 NMagM=    2.7928460   2.7928460   0.0000000   2.6288670   2.6288670   2.6288670   0.0000000   2.6288670   2.6288670   2.6288670
 AtZNuc=   1.0000000   1.0000000   6.0000000   9.0000000   9.0000000   9.0000000   6.0000000   9.0000000   9.0000000   9.0000000
 Leave Link  101 at Sat Jun  1 08:10:06 2019, MaxMem=  6442450944 cpu:              18.2 elap:               1.6
 (Enter /home/ekwan/sw/g16/l103.exe)

 GradGradGradGradGradGradGradGradGradGradGradGradGradGradGradGradGradGrad
 Berny optimization.
 Initialization pass.
                           ----------------------------
                           !    Initial Parameters    !
                           ! (Angstroms and Degrees)  !
 --------------------------                            --------------------------
 ! Name  Definition              Value          Derivative Info.                !
 --------------------------------------------------------------------------------
 ! R1    R(1,2)                  1.5306         calculate D2E/DX2 analytically  !
 ! R2    R(1,5)                  1.5287         calculate D2E/DX2 analytically  !
 ! R3    R(1,8)                  1.0976         calculate D2E/DX2 analytically  !
 ! R4    R(1,14)                 1.4239         calculate D2E/DX2 analytically  !
 ! R5    R(2,3)                  1.5391         calculate D2E/DX2 analytically  !
 ! R6    R(2,7)                  1.1021         calculate D2E/DX2 analytically  !
 ! R7    R(2,13)                 1.4159         calculate D2E/DX2 analytically  !
 ! R8    R(3,6)                  1.0995         calculate D2E/DX2 analytically  !
 ! R9    R(3,11)                 1.4133         calculate D2E/DX2 analytically  !
 ! R10   R(3,12)                 1.4008         calculate D2E/DX2 analytically  !
 ! R11   R(4,5)                  1.5298         calculate D2E/DX2 analytically  !
 ! R12   R(4,9)                  1.097          calculate D2E/DX2 analytically  !
 ! R13   R(4,11)                 1.4433         calculate D2E/DX2 analytically  !
 ! R14   R(4,16)                 1.5327         calculate D2E/DX2 analytically  !
 ! R15   R(5,10)                 1.0993         calculate D2E/DX2 analytically  !
 ! R16   R(5,15)                 1.4252         calculate D2E/DX2 analytically  !
 ! R17   R(11,38)                2.0536         calculate D2E/DX2 analytically  !
 ! R18   R(12,79)                1.4255         calculate D2E/DX2 analytically  !
 ! R19   R(13,20)                1.4178         calculate D2E/DX2 analytically  !
 ! R20   R(14,24)                1.4199         calculate D2E/DX2 analytically  !
 ! R21   R(15,28)                1.4193         calculate D2E/DX2 analytically  !
 ! R22   R(16,17)                1.1137         calculate D2E/DX2 analytically  !
 ! R23   R(16,18)                1.109          calculate D2E/DX2 analytically  !
 ! R24   R(16,19)                1.3695         calculate D2E/DX2 analytically  !
 ! R25   R(17,64)                2.105          calculate D2E/DX2 analytically  !
 ! R26   R(18,87)                2.3156         calculate D2E/DX2 analytically  !
 ! R27   R(19,37)                1.9739         calculate D2E/DX2 analytically  !
 ! R28   R(19,83)                2.172          calculate D2E/DX2 analytically  !
 ! R29   R(20,21)                1.0983         calculate D2E/DX2 analytically  !
 ! R30   R(20,22)                1.1002         calculate D2E/DX2 analytically  !
 ! R31   R(20,23)                1.0926         calculate D2E/DX2 analytically  !
 ! R32   R(24,25)                1.0999         calculate D2E/DX2 analytically  !
 ! R33   R(24,26)                1.0954         calculate D2E/DX2 analytically  !
 ! R34   R(24,27)                1.0936         calculate D2E/DX2 analytically  !
 ! R35   R(28,29)                1.0968         calculate D2E/DX2 analytically  !
 ! R36   R(28,30)                1.0994         calculate D2E/DX2 analytically  !
 ! R37   R(28,31)                1.0937         calculate D2E/DX2 analytically  !
 ! R38   R(32,33)                1.5276         calculate D2E/DX2 analytically  !
 ! R39   R(32,36)                1.5263         calculate D2E/DX2 analytically  !
 ! R40   R(32,39)                1.0977         calculate D2E/DX2 analytically  !
 ! R41   R(32,45)                1.4174         calculate D2E/DX2 analytically  !
 ! R42   R(33,34)                1.4949         calculate D2E/DX2 analytically  !
 ! R43   R(33,38)                1.1026         calculate D2E/DX2 analytically  !
 ! R44   R(33,44)                1.4122         calculate D2E/DX2 analytically  !
 ! R45   R(34,37)                1.0744         calculate D2E/DX2 analytically  !
 ! R46   R(34,42)                1.293          calculate D2E/DX2 analytically  !
 ! R47   R(34,53)                2.1971         calculate D2E/DX2 analytically  !
 ! R48   R(35,36)                1.5302         calculate D2E/DX2 analytically  !
 ! R49   R(35,40)                1.0937         calculate D2E/DX2 analytically  !
 ! R50   R(35,42)                1.4633         calculate D2E/DX2 analytically  !
 ! R51   R(35,47)                1.5132         calculate D2E/DX2 analytically  !
 ! R52   R(36,41)                1.0942         calculate D2E/DX2 analytically  !
 ! R53   R(36,46)                1.4159         calculate D2E/DX2 analytically  !
 ! R54   R(43,51)                1.4938         calculate D2E/DX2 analytically  !
 ! R55   R(43,83)                2.3514         calculate D2E/DX2 analytically  !
 ! R56   R(44,63)                1.4259         calculate D2E/DX2 analytically  !
 ! R57   R(45,67)                1.4245         calculate D2E/DX2 analytically  !
 ! R58   R(46,71)                1.4247         calculate D2E/DX2 analytically  !
 ! R59   R(47,48)                1.099          calculate D2E/DX2 analytically  !
 ! R60   R(47,49)                1.1008         calculate D2E/DX2 analytically  !
 ! R61   R(47,50)                1.4126         calculate D2E/DX2 analytically  !
 ! R62   R(50,75)                1.4177         calculate D2E/DX2 analytically  !
 ! R63   R(51,52)                1.4736         calculate D2E/DX2 analytically  !
 ! R64   R(51,53)                1.5117         calculate D2E/DX2 analytically  !
 ! R65   R(51,54)                1.8021         calculate D2E/DX2 analytically  !
 ! R66   R(54,55)                1.3893         calculate D2E/DX2 analytically  !
 ! R67   R(54,56)                1.3968         calculate D2E/DX2 analytically  !
 ! R68   R(55,57)                1.4002         calculate D2E/DX2 analytically  !
 ! R69   R(55,58)                1.0841         calculate D2E/DX2 analytically  !
 ! R70   R(56,59)                1.3904         calculate D2E/DX2 analytically  !
 ! R71   R(56,60)                1.0831         calculate D2E/DX2 analytically  !
 ! R72   R(57,61)                1.3898         calculate D2E/DX2 analytically  !
 ! R73   R(57,97)                1.5035         calculate D2E/DX2 analytically  !
 ! R74   R(58,84)                2.2991         calculate D2E/DX2 analytically  !
 ! R75   R(59,61)                1.3989         calculate D2E/DX2 analytically  !
 ! R76   R(59,93)                1.5038         calculate D2E/DX2 analytically  !
 ! R77   R(61,62)                1.0828         calculate D2E/DX2 analytically  !
 ! R78   R(63,64)                1.0964         calculate D2E/DX2 analytically  !
 ! R79   R(63,65)                1.0961         calculate D2E/DX2 analytically  !
 ! R80   R(63,66)                1.0898         calculate D2E/DX2 analytically  !
 ! R81   R(67,68)                1.0988         calculate D2E/DX2 analytically  !
 ! R82   R(67,69)                1.0945         calculate D2E/DX2 analytically  !
 ! R83   R(67,70)                1.0925         calculate D2E/DX2 analytically  !
 ! R84   R(71,72)                1.0951         calculate D2E/DX2 analytically  !
 ! R85   R(71,73)                1.0987         calculate D2E/DX2 analytically  !
 ! R86   R(71,74)                1.0924         calculate D2E/DX2 analytically  !
 ! R87   R(75,76)                1.0917         calculate D2E/DX2 analytically  !
 ! R88   R(75,77)                1.0999         calculate D2E/DX2 analytically  !
 ! R89   R(75,78)                1.0997         calculate D2E/DX2 analytically  !
 ! R90   R(79,80)                1.092          calculate D2E/DX2 analytically  !
 ! R91   R(79,81)                1.0941         calculate D2E/DX2 analytically  !
 ! R92   R(79,82)                1.1            calculate D2E/DX2 analytically  !
 ! R93   R(83,84)                2.3123         calculate D2E/DX2 analytically  !
 ! R94   R(84,85)                1.4251         calculate D2E/DX2 analytically  !
 ! R95   R(84,89)                1.4247         calculate D2E/DX2 analytically  !
 ! R96   R(85,86)                1.0985         calculate D2E/DX2 analytically  !
 ! R97   R(85,87)                1.0914         calculate D2E/DX2 analytically  !
 ! R98   R(85,88)                1.0954         calculate D2E/DX2 analytically  !
 ! R99   R(89,90)                1.0974         calculate D2E/DX2 analytically  !
 ! R100  R(89,91)                1.0911         calculate D2E/DX2 analytically  !
 ! R101  R(89,92)                1.0984         calculate D2E/DX2 analytically  !
 ! R102  R(93,94)                1.3504         calculate D2E/DX2 analytically  !
 ! R103  R(93,95)                1.3472         calculate D2E/DX2 analytically  !
 ! R104  R(93,96)                1.3584         calculate D2E/DX2 analytically  !
 ! R105  R(97,98)                1.357          calculate D2E/DX2 analytically  !
 ! R106  R(97,99)                1.3462         calculate D2E/DX2 analytically  !
 ! R107  R(97,100)               1.3557         calculate D2E/DX2 analytically  !
 ! A1    A(2,1,5)              111.4868         calculate D2E/DX2 analytically  !
 ! A2    A(2,1,8)              108.7244         calculate D2E/DX2 analytically  !
 ! A3    A(2,1,14)             110.6872         calculate D2E/DX2 analytically  !
 ! A4    A(5,1,8)              108.1396         calculate D2E/DX2 analytically  !
 ! A5    A(5,1,14)             107.5262         calculate D2E/DX2 analytically  !
 ! A6    A(8,1,14)             110.2433         calculate D2E/DX2 analytically  !
 ! A7    A(1,2,3)              111.0803         calculate D2E/DX2 analytically  !
 ! A8    A(1,2,7)              108.0795         calculate D2E/DX2 analytically  !
 ! A9    A(1,2,13)             107.7691         calculate D2E/DX2 analytically  !
 ! A10   A(3,2,7)              106.6287         calculate D2E/DX2 analytically  !
 ! A11   A(3,2,13)             113.3211         calculate D2E/DX2 analytically  !
 ! A12   A(7,2,13)             109.8532         calculate D2E/DX2 analytically  !
 ! A13   A(2,3,6)              111.4028         calculate D2E/DX2 analytically  !
 ! A14   A(2,3,11)             109.7655         calculate D2E/DX2 analytically  !
 ! A15   A(2,3,12)             108.5157         calculate D2E/DX2 analytically  !
 ! A16   A(6,3,11)             103.8472         calculate D2E/DX2 analytically  !
 ! A17   A(6,3,12)             110.1764         calculate D2E/DX2 analytically  !
 ! A18   A(11,3,12)            113.1201         calculate D2E/DX2 analytically  !
 ! A19   A(5,4,9)              109.5532         calculate D2E/DX2 analytically  !
 ! A20   A(5,4,11)             108.4949         calculate D2E/DX2 analytically  !
 ! A21   A(5,4,16)             113.1385         calculate D2E/DX2 analytically  !
 ! A22   A(9,4,11)             108.9499         calculate D2E/DX2 analytically  !
 ! A23   A(9,4,16)             109.0048         calculate D2E/DX2 analytically  !
 ! A24   A(11,4,16)            107.6087         calculate D2E/DX2 analytically  !
 ! A25   A(1,5,4)              111.8509         calculate D2E/DX2 analytically  !
 ! A26   A(1,5,10)             108.3095         calculate D2E/DX2 analytically  !
 ! A27   A(1,5,15)             108.8956         calculate D2E/DX2 analytically  !
 ! A28   A(4,5,10)             108.4084         calculate D2E/DX2 analytically  !
 ! A29   A(4,5,15)             109.115          calculate D2E/DX2 analytically  !
 ! A30   A(10,5,15)            110.2553         calculate D2E/DX2 analytically  !
 ! A31   A(3,11,4)             114.7857         calculate D2E/DX2 analytically  !
 ! A32   A(3,11,38)            112.492          calculate D2E/DX2 analytically  !
 ! A33   A(4,11,38)            130.8429         calculate D2E/DX2 analytically  !
 ! A34   A(3,12,79)            112.8517         calculate D2E/DX2 analytically  !
 ! A35   A(2,13,20)            114.1803         calculate D2E/DX2 analytically  !
 ! A36   A(1,14,24)            114.4929         calculate D2E/DX2 analytically  !
 ! A37   A(5,15,28)            114.04           calculate D2E/DX2 analytically  !
 ! A38   A(4,16,17)            106.2691         calculate D2E/DX2 analytically  !
 ! A39   A(4,16,18)            105.4694         calculate D2E/DX2 analytically  !
 ! A40   A(4,16,19)            113.5114         calculate D2E/DX2 analytically  !
 ! A41   A(17,16,18)           104.624          calculate D2E/DX2 analytically  !
 ! A42   A(17,16,19)           112.8955         calculate D2E/DX2 analytically  !
 ! A43   A(18,16,19)           113.3031         calculate D2E/DX2 analytically  !
 ! A44   A(16,17,64)           142.5798         calculate D2E/DX2 analytically  !
 ! A45   A(16,18,87)           127.1849         calculate D2E/DX2 analytically  !
 ! A46   A(16,19,37)           109.0055         calculate D2E/DX2 analytically  !
 ! A47   A(16,19,83)           140.0452         calculate D2E/DX2 analytically  !
 ! A48   A(37,19,83)            76.3335         calculate D2E/DX2 analytically  !
 ! A49   A(13,20,21)           111.9952         calculate D2E/DX2 analytically  !
 ! A50   A(13,20,22)           111.3895         calculate D2E/DX2 analytically  !
 ! A51   A(13,20,23)           106.8201         calculate D2E/DX2 analytically  !
 ! A52   A(21,20,22)           108.8            calculate D2E/DX2 analytically  !
 ! A53   A(21,20,23)           108.6958         calculate D2E/DX2 analytically  !
 ! A54   A(22,20,23)           109.057          calculate D2E/DX2 analytically  !
 ! A55   A(14,24,25)           111.0964         calculate D2E/DX2 analytically  !
 ! A56   A(14,24,26)           111.6158         calculate D2E/DX2 analytically  !
 ! A57   A(14,24,27)           106.6666         calculate D2E/DX2 analytically  !
 ! A58   A(25,24,26)           109.0776         calculate D2E/DX2 analytically  !
 ! A59   A(25,24,27)           108.8367         calculate D2E/DX2 analytically  !
 ! A60   A(26,24,27)           109.4801         calculate D2E/DX2 analytically  !
 ! A61   A(15,28,29)           111.2231         calculate D2E/DX2 analytically  !
 ! A62   A(15,28,30)           111.4721         calculate D2E/DX2 analytically  !
 ! A63   A(15,28,31)           106.761          calculate D2E/DX2 analytically  !
 ! A64   A(29,28,30)           109.3166         calculate D2E/DX2 analytically  !
 ! A65   A(29,28,31)           109.2063         calculate D2E/DX2 analytically  !
 ! A66   A(30,28,31)           108.7821         calculate D2E/DX2 analytically  !
 ! A67   A(33,32,36)           109.1388         calculate D2E/DX2 analytically  !
 ! A68   A(33,32,39)           109.6061         calculate D2E/DX2 analytically  !
 ! A69   A(33,32,45)           110.2534         calculate D2E/DX2 analytically  !
 ! A70   A(36,32,39)           109.3921         calculate D2E/DX2 analytically  !
 ! A71   A(36,32,45)           107.5205         calculate D2E/DX2 analytically  !
 ! A72   A(39,32,45)           110.8856         calculate D2E/DX2 analytically  !
 ! A73   A(32,33,34)           113.3623         calculate D2E/DX2 analytically  !
 ! A74   A(32,33,38)           107.8744         calculate D2E/DX2 analytically  !
 ! A75   A(32,33,44)           110.4536         calculate D2E/DX2 analytically  !
 ! A76   A(34,33,38)           102.2366         calculate D2E/DX2 analytically  !
 ! A77   A(34,33,44)           112.0378         calculate D2E/DX2 analytically  !
 ! A78   A(38,33,44)           110.5046         calculate D2E/DX2 analytically  !
 ! A79   A(33,34,37)           119.5591         calculate D2E/DX2 analytically  !
 ! A80   A(33,34,42)           123.0889         calculate D2E/DX2 analytically  !
 ! A81   A(33,34,53)           100.1163         calculate D2E/DX2 analytically  !
 ! A82   A(37,34,42)           114.6862         calculate D2E/DX2 analytically  !
 ! A83   A(37,34,53)            90.4756         calculate D2E/DX2 analytically  !
 ! A84   A(42,34,53)            95.2525         calculate D2E/DX2 analytically  !
 ! A85   A(36,35,40)           109.8612         calculate D2E/DX2 analytically  !
 ! A86   A(36,35,42)           111.7691         calculate D2E/DX2 analytically  !
 ! A87   A(36,35,47)           113.2652         calculate D2E/DX2 analytically  !
 ! A88   A(40,35,42)           105.5185         calculate D2E/DX2 analytically  !
 ! A89   A(40,35,47)           109.7697         calculate D2E/DX2 analytically  !
 ! A90   A(42,35,47)           106.3228         calculate D2E/DX2 analytically  !
 ! A91   A(32,36,35)           111.4403         calculate D2E/DX2 analytically  !
 ! A92   A(32,36,41)           108.7991         calculate D2E/DX2 analytically  !
 ! A93   A(32,36,46)           111.0464         calculate D2E/DX2 analytically  !
 ! A94   A(35,36,41)           108.7446         calculate D2E/DX2 analytically  !
 ! A95   A(35,36,46)           106.027          calculate D2E/DX2 analytically  !
 ! A96   A(41,36,46)           110.7516         calculate D2E/DX2 analytically  !
 ! A97   A(19,37,34)           104.1847         calculate D2E/DX2 analytically  !
 ! A98   A(11,38,33)           160.8464         calculate D2E/DX2 analytically  !
 ! A99   A(34,42,35)           120.8707         calculate D2E/DX2 analytically  !
 ! A100  A(51,43,83)           140.2083         calculate D2E/DX2 analytically  !
 ! A101  A(33,44,63)           114.6134         calculate D2E/DX2 analytically  !
 ! A102  A(32,45,67)           114.4405         calculate D2E/DX2 analytically  !
 ! A103  A(36,46,71)           113.7486         calculate D2E/DX2 analytically  !
 ! A104  A(35,47,48)           108.1132         calculate D2E/DX2 analytically  !
 ! A105  A(35,47,49)           109.362          calculate D2E/DX2 analytically  !
 ! A106  A(35,47,50)           108.7534         calculate D2E/DX2 analytically  !
 ! A107  A(48,47,49)           108.2494         calculate D2E/DX2 analytically  !
 ! A108  A(48,47,50)           111.2803         calculate D2E/DX2 analytically  !
 ! A109  A(49,47,50)           111.0225         calculate D2E/DX2 analytically  !
 ! A110  A(47,50,75)           112.6709         calculate D2E/DX2 analytically  !
 ! A111  A(43,51,52)           114.8625         calculate D2E/DX2 analytically  !
 ! A112  A(43,51,53)           112.4846         calculate D2E/DX2 analytically  !
 ! A113  A(43,51,54)           105.0451         calculate D2E/DX2 analytically  !
 ! A114  A(52,51,53)           112.6032         calculate D2E/DX2 analytically  !
 ! A115  A(52,51,54)           106.9967         calculate D2E/DX2 analytically  !
 ! A116  A(53,51,54)           103.7361         calculate D2E/DX2 analytically  !
 ! A117  A(34,53,51)           105.5731         calculate D2E/DX2 analytically  !
 ! A118  A(51,54,55)           120.7096         calculate D2E/DX2 analytically  !
 ! A119  A(51,54,56)           118.2451         calculate D2E/DX2 analytically  !
 ! A120  A(55,54,56)           121.0412         calculate D2E/DX2 analytically  !
 ! A121  A(54,55,57)           118.996          calculate D2E/DX2 analytically  !
 ! A122  A(54,55,58)           120.5482         calculate D2E/DX2 analytically  !
 ! A123  A(57,55,58)           120.4536         calculate D2E/DX2 analytically  !
 ! A124  A(54,56,59)           119.1788         calculate D2E/DX2 analytically  !
 ! A125  A(54,56,60)           120.2592         calculate D2E/DX2 analytically  !
 ! A126  A(59,56,60)           120.5615         calculate D2E/DX2 analytically  !
 ! A127  A(55,57,61)           120.8005         calculate D2E/DX2 analytically  !
 ! A128  A(55,57,97)           118.4298         calculate D2E/DX2 analytically  !
 ! A129  A(61,57,97)           120.7658         calculate D2E/DX2 analytically  !
 ! A130  A(56,59,61)           120.6953         calculate D2E/DX2 analytically  !
 ! A131  A(56,59,93)           120.1544         calculate D2E/DX2 analytically  !
 ! A132  A(61,59,93)           119.0979         calculate D2E/DX2 analytically  !
 ! A133  A(57,61,59)           119.2848         calculate D2E/DX2 analytically  !
 ! A134  A(57,61,62)           120.4026         calculate D2E/DX2 analytically  !
 ! A135  A(59,61,62)           120.3124         calculate D2E/DX2 analytically  !
 ! A136  A(44,63,64)           111.6243         calculate D2E/DX2 analytically  !
 ! A137  A(44,63,65)           111.2186         calculate D2E/DX2 analytically  !
 ! A138  A(44,63,66)           106.1965         calculate D2E/DX2 analytically  !
 ! A139  A(64,63,65)           108.4534         calculate D2E/DX2 analytically  !
 ! A140  A(64,63,66)           109.0004         calculate D2E/DX2 analytically  !
 ! A141  A(65,63,66)           110.3227         calculate D2E/DX2 analytically  !
 ! A142  A(17,64,63)           139.157          calculate D2E/DX2 analytically  !
 ! A143  A(45,67,68)           110.8925         calculate D2E/DX2 analytically  !
 ! A144  A(45,67,69)           111.4695         calculate D2E/DX2 analytically  !
 ! A145  A(45,67,70)           106.443          calculate D2E/DX2 analytically  !
 ! A146  A(68,67,69)           109.1403         calculate D2E/DX2 analytically  !
 ! A147  A(68,67,70)           109.0953         calculate D2E/DX2 analytically  !
 ! A148  A(69,67,70)           109.7446         calculate D2E/DX2 analytically  !
 ! A149  A(46,71,72)           111.0245         calculate D2E/DX2 analytically  !
 ! A150  A(46,71,73)           110.9155         calculate D2E/DX2 analytically  !
 ! A151  A(46,71,74)           106.5402         calculate D2E/DX2 analytically  !
 ! A152  A(72,71,73)           109.4289         calculate D2E/DX2 analytically  !
 ! A153  A(72,71,74)           109.6516         calculate D2E/DX2 analytically  !
 ! A154  A(73,71,74)           109.2242         calculate D2E/DX2 analytically  !
 ! A155  A(50,75,76)           106.9147         calculate D2E/DX2 analytically  !
 ! A156  A(50,75,77)           111.3038         calculate D2E/DX2 analytically  !
 ! A157  A(50,75,78)           111.2931         calculate D2E/DX2 analytically  !
 ! A158  A(76,75,77)           109.2294         calculate D2E/DX2 analytically  !
 ! A159  A(76,75,78)           109.3729         calculate D2E/DX2 analytically  !
 ! A160  A(77,75,78)           108.6855         calculate D2E/DX2 analytically  !
 ! A161  A(12,79,80)           106.7217         calculate D2E/DX2 analytically  !
 ! A162  A(12,79,81)           111.8483         calculate D2E/DX2 analytically  !
 ! A163  A(12,79,82)           110.5469         calculate D2E/DX2 analytically  !
 ! A164  A(80,79,81)           109.6508         calculate D2E/DX2 analytically  !
 ! A165  A(80,79,82)           109.0558         calculate D2E/DX2 analytically  !
 ! A166  A(81,79,82)           108.9638         calculate D2E/DX2 analytically  !
 ! A167  A(19,83,43)           110.5874         calculate D2E/DX2 analytically  !
 ! A168  A(19,83,84)           104.2446         calculate D2E/DX2 analytically  !
 ! A169  A(43,83,84)            87.1409         calculate D2E/DX2 analytically  !
 ! A170  A(58,84,83)            79.0886         calculate D2E/DX2 analytically  !
 ! A171  A(58,84,85)           116.1963         calculate D2E/DX2 analytically  !
 ! A172  A(58,84,89)            90.8957         calculate D2E/DX2 analytically  !
 ! A173  A(83,84,85)           119.2986         calculate D2E/DX2 analytically  !
 ! A174  A(83,84,89)           125.8296         calculate D2E/DX2 analytically  !
 ! A175  A(85,84,89)           112.8968         calculate D2E/DX2 analytically  !
 ! A176  A(84,85,86)           110.762          calculate D2E/DX2 analytically  !
 ! A177  A(84,85,87)           106.8392         calculate D2E/DX2 analytically  !
 ! A178  A(84,85,88)           110.629          calculate D2E/DX2 analytically  !
 ! A179  A(86,85,87)           109.8756         calculate D2E/DX2 analytically  !
 ! A180  A(86,85,88)           109.3673         calculate D2E/DX2 analytically  !
 ! A181  A(87,85,88)           109.3291         calculate D2E/DX2 analytically  !
 ! A182  A(18,87,85)           144.1645         calculate D2E/DX2 analytically  !
 ! A183  A(84,89,90)           110.3624         calculate D2E/DX2 analytically  !
 ! A184  A(84,89,91)           106.6359         calculate D2E/DX2 analytically  !
 ! A185  A(84,89,92)           110.9056         calculate D2E/DX2 analytically  !
 ! A186  A(90,89,91)           109.6191         calculate D2E/DX2 analytically  !
 ! A187  A(90,89,92)           109.2265         calculate D2E/DX2 analytically  !
 ! A188  A(91,89,92)           110.06           calculate D2E/DX2 analytically  !
 ! A189  A(59,93,94)           111.6624         calculate D2E/DX2 analytically  !
 ! A190  A(59,93,95)           112.1543         calculate D2E/DX2 analytically  !
 ! A191  A(59,93,96)           111.4989         calculate D2E/DX2 analytically  !
 ! A192  A(94,93,95)           107.7978         calculate D2E/DX2 analytically  !
 ! A193  A(94,93,96)           106.479          calculate D2E/DX2 analytically  !
 ! A194  A(95,93,96)           106.9406         calculate D2E/DX2 analytically  !
 ! A195  A(57,97,98)           111.3055         calculate D2E/DX2 analytically  !
 ! A196  A(57,97,99)           112.6418         calculate D2E/DX2 analytically  !
 ! A197  A(57,97,100)          111.6725         calculate D2E/DX2 analytically  !
 ! A198  A(98,97,99)           107.3825         calculate D2E/DX2 analytically  !
 ! A199  A(98,97,100)          106.1914         calculate D2E/DX2 analytically  !
 ! A200  A(99,97,100)          107.3052         calculate D2E/DX2 analytically  !
 ! A201  L(55,58,84,1,-1)      178.6101         calculate D2E/DX2 analytically  !
 ! A202  L(55,58,84,1,-2)      173.4663         calculate D2E/DX2 analytically  !
 ! D1    D(5,1,2,3)            -48.6598         calculate D2E/DX2 analytically  !
 ! D2    D(5,1,2,7)             67.9851         calculate D2E/DX2 analytically  !
 ! D3    D(5,1,2,13)          -173.3448         calculate D2E/DX2 analytically  !
 ! D4    D(8,1,2,3)             70.4649         calculate D2E/DX2 analytically  !
 ! D5    D(8,1,2,7)           -172.8901         calculate D2E/DX2 analytically  !
 ! D6    D(8,1,2,13)           -54.2201         calculate D2E/DX2 analytically  !
 ! D7    D(14,1,2,3)          -168.3022         calculate D2E/DX2 analytically  !
 ! D8    D(14,1,2,7)           -51.6572         calculate D2E/DX2 analytically  !
 ! D9    D(14,1,2,13)           67.0129         calculate D2E/DX2 analytically  !
 ! D10   D(2,1,5,4)             49.7484         calculate D2E/DX2 analytically  !
 ! D11   D(2,1,5,10)           -69.6624         calculate D2E/DX2 analytically  !
 ! D12   D(2,1,5,15)           170.4234         calculate D2E/DX2 analytically  !
 ! D13   D(8,1,5,4)            -69.7237         calculate D2E/DX2 analytically  !
 ! D14   D(8,1,5,10)           170.8655         calculate D2E/DX2 analytically  !
 ! D15   D(8,1,5,15)            50.9513         calculate D2E/DX2 analytically  !
 ! D16   D(14,1,5,4)           171.2448         calculate D2E/DX2 analytically  !
 ! D17   D(14,1,5,10)           51.834          calculate D2E/DX2 analytically  !
 ! D18   D(14,1,5,15)          -68.0801         calculate D2E/DX2 analytically  !
 ! D19   D(2,1,14,24)          -98.3858         calculate D2E/DX2 analytically  !
 ! D20   D(5,1,14,24)          139.6194         calculate D2E/DX2 analytically  !
 ! D21   D(8,1,14,24)           21.9449         calculate D2E/DX2 analytically  !
 ! D22   D(1,2,3,6)            167.9718         calculate D2E/DX2 analytically  !
 ! D23   D(1,2,3,11)            53.5155         calculate D2E/DX2 analytically  !
 ! D24   D(1,2,3,12)           -70.5653         calculate D2E/DX2 analytically  !
 ! D25   D(7,2,3,6)             50.4404         calculate D2E/DX2 analytically  !
 ! D26   D(7,2,3,11)           -64.0159         calculate D2E/DX2 analytically  !
 ! D27   D(7,2,3,12)           171.9033         calculate D2E/DX2 analytically  !
 ! D28   D(13,2,3,6)           -70.5384         calculate D2E/DX2 analytically  !
 ! D29   D(13,2,3,11)          175.0053         calculate D2E/DX2 analytically  !
 ! D30   D(13,2,3,12)           50.9245         calculate D2E/DX2 analytically  !
 ! D31   D(1,2,13,20)         -170.3546         calculate D2E/DX2 analytically  !
 ! D32   D(3,2,13,20)           66.3159         calculate D2E/DX2 analytically  !
 ! D33   D(7,2,13,20)          -52.8263         calculate D2E/DX2 analytically  !
 ! D34   D(2,3,11,4)           -62.3586         calculate D2E/DX2 analytically  !
 ! D35   D(2,3,11,38)          131.5116         calculate D2E/DX2 analytically  !
 ! D36   D(6,3,11,4)           178.4354         calculate D2E/DX2 analytically  !
 ! D37   D(6,3,11,38)           12.3055         calculate D2E/DX2 analytically  !
 ! D38   D(12,3,11,4)           58.9962         calculate D2E/DX2 analytically  !
 ! D39   D(12,3,11,38)        -107.1337         calculate D2E/DX2 analytically  !
 ! D40   D(2,3,12,79)         -175.2062         calculate D2E/DX2 analytically  !
 ! D41   D(6,3,12,79)          -52.9935         calculate D2E/DX2 analytically  !
 ! D42   D(11,3,12,79)          62.7368         calculate D2E/DX2 analytically  !
 ! D43   D(9,4,5,1)             64.7793         calculate D2E/DX2 analytically  !
 ! D44   D(9,4,5,10)          -175.8682         calculate D2E/DX2 analytically  !
 ! D45   D(9,4,5,15)           -55.768          calculate D2E/DX2 analytically  !
 ! D46   D(11,4,5,1)           -54.0489         calculate D2E/DX2 analytically  !
 ! D47   D(11,4,5,10)           65.3036         calculate D2E/DX2 analytically  !
 ! D48   D(11,4,5,15)         -174.5962         calculate D2E/DX2 analytically  !
 ! D49   D(16,4,5,1)          -173.3786         calculate D2E/DX2 analytically  !
 ! D50   D(16,4,5,10)          -54.0261         calculate D2E/DX2 analytically  !
 ! D51   D(16,4,5,15)           66.0741         calculate D2E/DX2 analytically  !
 ! D52   D(5,4,11,3)            62.342          calculate D2E/DX2 analytically  !
 ! D53   D(5,4,11,38)         -134.6822         calculate D2E/DX2 analytically  !
 ! D54   D(9,4,11,3)           -56.866          calculate D2E/DX2 analytically  !
 ! D55   D(9,4,11,38)          106.1098         calculate D2E/DX2 analytically  !
 ! D56   D(16,4,11,3)         -174.9138         calculate D2E/DX2 analytically  !
 ! D57   D(16,4,11,38)         -11.9381         calculate D2E/DX2 analytically  !
 ! D58   D(5,4,16,17)           57.5737         calculate D2E/DX2 analytically  !
 ! D59   D(5,4,16,18)          -53.1376         calculate D2E/DX2 analytically  !
 ! D60   D(5,4,16,19)         -177.7503         calculate D2E/DX2 analytically  !
 ! D61   D(9,4,16,17)          179.7228         calculate D2E/DX2 analytically  !
 ! D62   D(9,4,16,18)           69.0116         calculate D2E/DX2 analytically  !
 ! D63   D(9,4,16,19)          -55.6012         calculate D2E/DX2 analytically  !
 ! D64   D(11,4,16,17)         -62.2649         calculate D2E/DX2 analytically  !
 ! D65   D(11,4,16,18)        -172.9761         calculate D2E/DX2 analytically  !
 ! D66   D(11,4,16,19)          62.4112         calculate D2E/DX2 analytically  !
 ! D67   D(1,5,15,28)          111.1599         calculate D2E/DX2 analytically  !
 ! D68   D(4,5,15,28)         -126.4978         calculate D2E/DX2 analytically  !
 ! D69   D(10,5,15,28)          -7.5415         calculate D2E/DX2 analytically  !
 ! D70   D(3,11,38,33)        -175.9048         calculate D2E/DX2 analytically  !
 ! D71   D(4,11,38,33)          20.8149         calculate D2E/DX2 analytically  !
 ! D72   D(3,12,79,80)         177.9677         calculate D2E/DX2 analytically  !
 ! D73   D(3,12,79,81)         -62.114          calculate D2E/DX2 analytically  !
 ! D74   D(3,12,79,82)          59.4995         calculate D2E/DX2 analytically  !
 ! D75   D(2,13,20,21)         -70.854          calculate D2E/DX2 analytically  !
 ! D76   D(2,13,20,22)          51.2519         calculate D2E/DX2 analytically  !
 ! D77   D(2,13,20,23)         170.2473         calculate D2E/DX2 analytically  !
 ! D78   D(1,14,24,25)         -59.4418         calculate D2E/DX2 analytically  !
 ! D79   D(1,14,24,26)          62.5433         calculate D2E/DX2 analytically  !
 ! D80   D(1,14,24,27)        -177.9146         calculate D2E/DX2 analytically  !
 ! D81   D(5,15,28,29)         -58.7718         calculate D2E/DX2 analytically  !
 ! D82   D(5,15,28,30)          63.5092         calculate D2E/DX2 analytically  !
 ! D83   D(5,15,28,31)        -177.8184         calculate D2E/DX2 analytically  !
 ! D84   D(4,16,17,64)          78.9977         calculate D2E/DX2 analytically  !
 ! D85   D(18,16,17,64)       -169.6992         calculate D2E/DX2 analytically  !
 ! D86   D(19,16,17,64)        -46.0572         calculate D2E/DX2 analytically  !
 ! D87   D(4,16,18,87)        -144.8961         calculate D2E/DX2 analytically  !
 ! D88   D(17,16,18,87)        103.2263         calculate D2E/DX2 analytically  !
 ! D89   D(19,16,18,87)        -20.1531         calculate D2E/DX2 analytically  !
 ! D90   D(4,16,19,37)        -112.9536         calculate D2E/DX2 analytically  !
 ! D91   D(4,16,19,83)         155.7851         calculate D2E/DX2 analytically  !
 ! D92   D(17,16,19,37)          8.0688         calculate D2E/DX2 analytically  !
 ! D93   D(17,16,19,83)        -83.1926         calculate D2E/DX2 analytically  !
 ! D94   D(18,16,19,37)        126.775          calculate D2E/DX2 analytically  !
 ! D95   D(18,16,19,83)         35.5137         calculate D2E/DX2 analytically  !
 ! D96   D(16,17,64,63)        -44.3501         calculate D2E/DX2 analytically  !
 ! D97   D(16,18,87,85)        -71.907          calculate D2E/DX2 analytically  !
 ! D98   D(16,19,37,34)        118.2376         calculate D2E/DX2 analytically  !
 ! D99   D(83,19,37,34)       -103.1183         calculate D2E/DX2 analytically  !
 ! D100  D(16,19,83,43)         93.6134         calculate D2E/DX2 analytically  !
 ! D101  D(16,19,83,84)          1.2989         calculate D2E/DX2 analytically  !
 ! D102  D(37,19,83,43)         -9.7805         calculate D2E/DX2 analytically  !
 ! D103  D(37,19,83,84)       -102.095          calculate D2E/DX2 analytically  !
 ! D104  D(36,32,33,34)        -43.1183         calculate D2E/DX2 analytically  !
 ! D105  D(36,32,33,38)         69.3326         calculate D2E/DX2 analytically  !
 ! D106  D(36,32,33,44)       -169.7974         calculate D2E/DX2 analytically  !
 ! D107  D(39,32,33,34)         76.6639         calculate D2E/DX2 analytically  !
 ! D108  D(39,32,33,38)       -170.8852         calculate D2E/DX2 analytically  !
 ! D109  D(39,32,33,44)        -50.0152         calculate D2E/DX2 analytically  !
 ! D110  D(45,32,33,34)       -161.0043         calculate D2E/DX2 analytically  !
 ! D111  D(45,32,33,38)        -48.5534         calculate D2E/DX2 analytically  !
 ! D112  D(45,32,33,44)         72.3165         calculate D2E/DX2 analytically  !
 ! D113  D(33,32,36,35)         55.6224         calculate D2E/DX2 analytically  !
 ! D114  D(33,32,36,41)        -64.2704         calculate D2E/DX2 analytically  !
 ! D115  D(33,32,36,46)        173.5872         calculate D2E/DX2 analytically  !
 ! D116  D(39,32,36,35)        -64.2919         calculate D2E/DX2 analytically  !
 ! D117  D(39,32,36,41)        175.8154         calculate D2E/DX2 analytically  !
 ! D118  D(39,32,36,46)         53.673          calculate D2E/DX2 analytically  !
 ! D119  D(45,32,36,35)        175.2137         calculate D2E/DX2 analytically  !
 ! D120  D(45,32,36,41)         55.3209         calculate D2E/DX2 analytically  !
 ! D121  D(45,32,36,46)        -66.8214         calculate D2E/DX2 analytically  !
 ! D122  D(33,32,45,67)        -95.2162         calculate D2E/DX2 analytically  !
 ! D123  D(36,32,45,67)        145.9054         calculate D2E/DX2 analytically  !
 ! D124  D(39,32,45,67)         26.3588         calculate D2E/DX2 analytically  !
 ! D125  D(32,33,34,37)       -170.3366         calculate D2E/DX2 analytically  !
 ! D126  D(32,33,34,42)         29.165          calculate D2E/DX2 analytically  !
 ! D127  D(32,33,34,53)        -73.9704         calculate D2E/DX2 analytically  !
 ! D128  D(38,33,34,37)         73.8275         calculate D2E/DX2 analytically  !
 ! D129  D(38,33,34,42)        -86.671          calculate D2E/DX2 analytically  !
 ! D130  D(38,33,34,53)        170.1936         calculate D2E/DX2 analytically  !
 ! D131  D(44,33,34,37)        -44.4972         calculate D2E/DX2 analytically  !
 ! D132  D(44,33,34,42)        155.0044         calculate D2E/DX2 analytically  !
 ! D133  D(44,33,34,53)         51.869          calculate D2E/DX2 analytically  !
 ! D134  D(32,33,38,11)       -162.9574         calculate D2E/DX2 analytically  !
 ! D135  D(34,33,38,11)        -43.203          calculate D2E/DX2 analytically  !
 ! D136  D(44,33,38,11)         76.2045         calculate D2E/DX2 analytically  !
 ! D137  D(32,33,44,63)       -141.4188         calculate D2E/DX2 analytically  !
 ! D138  D(34,33,44,63)         91.168          calculate D2E/DX2 analytically  !
 ! D139  D(38,33,44,63)        -22.1295         calculate D2E/DX2 analytically  !
 ! D140  D(33,34,37,19)        -99.4852         calculate D2E/DX2 analytically  !
 ! D141  D(42,34,37,19)         62.5866         calculate D2E/DX2 analytically  !
 ! D142  D(53,34,37,19)        158.5891         calculate D2E/DX2 analytically  !
 ! D143  D(33,34,42,35)        -25.2492         calculate D2E/DX2 analytically  !
 ! D144  D(37,34,42,35)        173.389          calculate D2E/DX2 analytically  !
 ! D145  D(53,34,42,35)         80.4409         calculate D2E/DX2 analytically  !
 ! D146  D(33,34,53,51)       -142.1794         calculate D2E/DX2 analytically  !
 ! D147  D(37,34,53,51)        -22.0065         calculate D2E/DX2 analytically  !
 ! D148  D(42,34,53,51)         92.8398         calculate D2E/DX2 analytically  !
 ! D149  D(40,35,36,32)         65.6279         calculate D2E/DX2 analytically  !
 ! D150  D(40,35,36,41)       -174.4471         calculate D2E/DX2 analytically  !
 ! D151  D(40,35,36,46)        -55.3184         calculate D2E/DX2 analytically  !
 ! D152  D(42,35,36,32)        -51.1523         calculate D2E/DX2 analytically  !
 ! D153  D(42,35,36,41)         68.7727         calculate D2E/DX2 analytically  !
 ! D154  D(42,35,36,46)       -172.0986         calculate D2E/DX2 analytically  !
 ! D155  D(47,35,36,32)       -171.2261         calculate D2E/DX2 analytically  !
 ! D156  D(47,35,36,41)        -51.3011         calculate D2E/DX2 analytically  !
 ! D157  D(47,35,36,46)         67.8276         calculate D2E/DX2 analytically  !
 ! D158  D(36,35,42,34)         35.5125         calculate D2E/DX2 analytically  !
 ! D159  D(40,35,42,34)        -83.8648         calculate D2E/DX2 analytically  !
 ! D160  D(47,35,42,34)        159.5775         calculate D2E/DX2 analytically  !
 ! D161  D(36,35,47,48)        -66.6841         calculate D2E/DX2 analytically  !
 ! D162  D(36,35,47,49)        175.6587         calculate D2E/DX2 analytically  !
 ! D163  D(36,35,47,50)         54.2681         calculate D2E/DX2 analytically  !
 ! D164  D(40,35,47,48)         56.5123         calculate D2E/DX2 analytically  !
 ! D165  D(40,35,47,49)        -61.1449         calculate D2E/DX2 analytically  !
 ! D166  D(40,35,47,50)        177.4645         calculate D2E/DX2 analytically  !
 ! D167  D(42,35,47,48)        170.1846         calculate D2E/DX2 analytically  !
 ! D168  D(42,35,47,49)         52.5274         calculate D2E/DX2 analytically  !
 ! D169  D(42,35,47,50)        -68.8632         calculate D2E/DX2 analytically  !
 ! D170  D(32,36,46,71)        105.4316         calculate D2E/DX2 analytically  !
 ! D171  D(35,36,46,71)       -133.3681         calculate D2E/DX2 analytically  !
 ! D172  D(41,36,46,71)        -15.5684         calculate D2E/DX2 analytically  !
 ! D173  D(83,43,51,52)        178.0915         calculate D2E/DX2 analytically  !
 ! D174  D(83,43,51,53)         47.5308         calculate D2E/DX2 analytically  !
 ! D175  D(83,43,51,54)        -64.6395         calculate D2E/DX2 analytically  !
 ! D176  D(51,43,83,19)         10.4777         calculate D2E/DX2 analytically  !
 ! D177  D(51,43,83,84)        114.625          calculate D2E/DX2 analytically  !
 ! D178  D(33,44,63,64)        -67.3681         calculate D2E/DX2 analytically  !
 ! D179  D(33,44,63,65)         53.9083         calculate D2E/DX2 analytically  !
 ! D180  D(33,44,63,66)        173.9569         calculate D2E/DX2 analytically  !
 ! D181  D(32,45,67,68)        -60.4977         calculate D2E/DX2 analytically  !
 ! D182  D(32,45,67,69)         61.3222         calculate D2E/DX2 analytically  !
 ! D183  D(32,45,67,70)       -179.0363         calculate D2E/DX2 analytically  !
 ! D184  D(36,46,71,72)        -61.4686         calculate D2E/DX2 analytically  !
 ! D185  D(36,46,71,73)         60.428          calculate D2E/DX2 analytically  !
 ! D186  D(36,46,71,74)        179.1921         calculate D2E/DX2 analytically  !
 ! D187  D(35,47,50,75)       -179.5231         calculate D2E/DX2 analytically  !
 ! D188  D(48,47,50,75)        -60.5375         calculate D2E/DX2 analytically  !
 ! D189  D(49,47,50,75)         60.1076         calculate D2E/DX2 analytically  !
 ! D190  D(47,50,75,76)        179.853          calculate D2E/DX2 analytically  !
 ! D191  D(47,50,75,77)        -60.9325         calculate D2E/DX2 analytically  !
 ! D192  D(47,50,75,78)         60.4703         calculate D2E/DX2 analytically  !
 ! D193  D(43,51,53,34)        -42.5004         calculate D2E/DX2 analytically  !
 ! D194  D(52,51,53,34)       -174.1988         calculate D2E/DX2 analytically  !
 ! D195  D(54,51,53,34)         70.4778         calculate D2E/DX2 analytically  !
 ! D196  D(43,51,54,55)         -3.4344         calculate D2E/DX2 analytically  !
 ! D197  D(43,51,54,56)        175.8287         calculate D2E/DX2 analytically  !
 ! D198  D(52,51,54,55)        119.0732         calculate D2E/DX2 analytically  !
 ! D199  D(52,51,54,56)        -61.6637         calculate D2E/DX2 analytically  !
 ! D200  D(53,51,54,55)       -121.6878         calculate D2E/DX2 analytically  !
 ! D201  D(53,51,54,56)         57.5752         calculate D2E/DX2 analytically  !
 ! D202  D(51,54,55,57)        179.8013         calculate D2E/DX2 analytically  !
 ! D203  D(51,54,55,58)          0.34           calculate D2E/DX2 analytically  !
 ! D204  D(56,54,55,57)          0.559          calculate D2E/DX2 analytically  !
 ! D205  D(56,54,55,58)       -178.9024         calculate D2E/DX2 analytically  !
 ! D206  D(51,54,56,59)       -179.9144         calculate D2E/DX2 analytically  !
 ! D207  D(51,54,56,60)         -0.1548         calculate D2E/DX2 analytically  !
 ! D208  D(55,54,56,59)         -0.6539         calculate D2E/DX2 analytically  !
 ! D209  D(55,54,56,60)        179.1057         calculate D2E/DX2 analytically  !
 ! D210  D(54,55,57,61)         -0.0689         calculate D2E/DX2 analytically  !
 ! D211  D(54,55,57,97)        179.2278         calculate D2E/DX2 analytically  !
 ! D212  D(58,55,57,61)        179.393          calculate D2E/DX2 analytically  !
 ! D213  D(58,55,57,97)         -1.3103         calculate D2E/DX2 analytically  !
 ! D214  D(54,55,84,83)         43.8291         calculate D2E/DX2 analytically  !
 ! D215  D(54,55,84,85)        161.9204         calculate D2E/DX2 analytically  !
 ! D216  D(54,55,84,89)        -82.3661         calculate D2E/DX2 analytically  !
 ! D217  D(57,55,84,83)       -136.3423         calculate D2E/DX2 analytically  !
 ! D218  D(57,55,84,85)        -18.251          calculate D2E/DX2 analytically  !
 ! D219  D(57,55,84,89)         97.4625         calculate D2E/DX2 analytically  !
 ! D220  D(54,56,59,61)          0.2586         calculate D2E/DX2 analytically  !
 ! D221  D(54,56,59,93)        177.6019         calculate D2E/DX2 analytically  !
 ! D222  D(60,56,59,61)       -179.5003         calculate D2E/DX2 analytically  !
 ! D223  D(60,56,59,93)         -2.157          calculate D2E/DX2 analytically  !
 ! D224  D(55,57,61,59)         -0.3148         calculate D2E/DX2 analytically  !
 ! D225  D(55,57,61,62)        179.5144         calculate D2E/DX2 analytically  !
 ! D226  D(97,57,61,59)       -179.595          calculate D2E/DX2 analytically  !
 ! D227  D(97,57,61,62)          0.2342         calculate D2E/DX2 analytically  !
 ! D228  D(55,57,97,98)        -57.5073         calculate D2E/DX2 analytically  !
 ! D229  D(55,57,97,99)       -178.1788         calculate D2E/DX2 analytically  !
 ! D230  D(55,57,97,100)        60.9856         calculate D2E/DX2 analytically  !
 ! D231  D(61,57,97,98)        121.7896         calculate D2E/DX2 analytically  !
 ! D232  D(61,57,97,99)          1.1182         calculate D2E/DX2 analytically  !
 ! D233  D(61,57,97,100)      -119.7174         calculate D2E/DX2 analytically  !
 ! D234  D(56,59,61,57)          0.2184         calculate D2E/DX2 analytically  !
 ! D235  D(56,59,61,62)       -179.611          calculate D2E/DX2 analytically  !
 ! D236  D(93,59,61,57)       -177.1526         calculate D2E/DX2 analytically  !
 ! D237  D(93,59,61,62)          3.018          calculate D2E/DX2 analytically  !
 ! D238  D(56,59,93,94)        144.427          calculate D2E/DX2 analytically  !
 ! D239  D(56,59,93,95)         23.3076         calculate D2E/DX2 analytically  !
 ! D240  D(56,59,93,96)        -96.5938         calculate D2E/DX2 analytically  !
 ! D241  D(61,59,93,94)        -38.1874         calculate D2E/DX2 analytically  !
 ! D242  D(61,59,93,95)       -159.3069         calculate D2E/DX2 analytically  !
 ! D243  D(61,59,93,96)         80.7918         calculate D2E/DX2 analytically  !
 ! D244  D(44,63,64,17)         89.8562         calculate D2E/DX2 analytically  !
 ! D245  D(65,63,64,17)        -33.0122         calculate D2E/DX2 analytically  !
 ! D246  D(66,63,64,17)       -153.1534         calculate D2E/DX2 analytically  !
 ! D247  D(19,83,84,58)         65.9197         calculate D2E/DX2 analytically  !
 ! D248  D(19,83,84,85)        -48.1185         calculate D2E/DX2 analytically  !
 ! D249  D(19,83,84,89)        149.0536         calculate D2E/DX2 analytically  !
 ! D250  D(43,83,84,58)        -44.602          calculate D2E/DX2 analytically  !
 ! D251  D(43,83,84,85)       -158.6402         calculate D2E/DX2 analytically  !
 ! D252  D(43,83,84,89)         38.5319         calculate D2E/DX2 analytically  !
 ! D253  D(58,84,85,86)        166.2878         calculate D2E/DX2 analytically  !
 ! D254  D(58,84,85,87)        -74.0675         calculate D2E/DX2 analytically  !
 ! D255  D(58,84,85,88)         44.8437         calculate D2E/DX2 analytically  !
 ! D256  D(83,84,85,86)       -101.7541         calculate D2E/DX2 analytically  !
 ! D257  D(83,84,85,87)         17.8906         calculate D2E/DX2 analytically  !
 ! D258  D(83,84,85,88)        136.8018         calculate D2E/DX2 analytically  !
 ! D259  D(89,84,85,86)         63.185          calculate D2E/DX2 analytically  !
 ! D260  D(89,84,85,87)       -177.1703         calculate D2E/DX2 analytically  !
 ! D261  D(89,84,85,88)        -58.2591         calculate D2E/DX2 analytically  !
 ! D262  D(58,84,89,90)        -59.5936         calculate D2E/DX2 analytically  !
 ! D263  D(58,84,89,91)         59.3985         calculate D2E/DX2 analytically  !
 ! D264  D(58,84,89,92)        179.2232         calculate D2E/DX2 analytically  !
 ! D265  D(83,84,89,90)       -136.7546         calculate D2E/DX2 analytically  !
 ! D266  D(83,84,89,91)        -17.7625         calculate D2E/DX2 analytically  !
 ! D267  D(83,84,89,92)        102.0622         calculate D2E/DX2 analytically  !
 ! D268  D(85,84,89,90)         59.4756         calculate D2E/DX2 analytically  !
 ! D269  D(85,84,89,91)        178.4678         calculate D2E/DX2 analytically  !
 ! D270  D(85,84,89,92)        -61.7075         calculate D2E/DX2 analytically  !
 ! D271  D(84,85,87,18)         64.329          calculate D2E/DX2 analytically  !
 ! D272  D(86,85,87,18)       -175.4561         calculate D2E/DX2 analytically  !
 ! D273  D(88,85,87,18)        -55.4232         calculate D2E/DX2 analytically  !
 --------------------------------------------------------------------------------
 Trust Radius=5.00D-02 FncErr=1.00D-07 GrdErr=1.00D-06 EigMax=2.50D+02 EigMin=1.00D-04
 Number of steps in this run=    592 maximum allowed number of steps=    600.
 Search for a saddle point of order  1.
 Step   0 in ReCalcFC=30 IGetFC= 4 compute analytic Hessian.
 GradGradGradGradGradGradGradGradGradGradGradGradGradGradGradGradGradGrad

 Leave Link  103 at Sat Jun  1 08:10:06 2019, MaxMem=  6442450944 cpu:              16.0 elap:               0.6
 (Enter /home/ekwan/sw/g16/l202.exe)
 Stoichiometry    C30H47F6NaO15S
 Framework group  C1[X(C30H47F6NaO15S)]
 Deg. of freedom   294
 Full point group                 C1      NOp   1
 Largest Abelian subgroup         C1      NOp   1
 Largest concise Abelian subgroup C1      NOp   1
                         Standard orientation:                         
 ---------------------------------------------------------------------
 Center     Atomic      Atomic             Coordinates (Angstroms)
 Number     Number       Type             X           Y           Z
 ---------------------------------------------------------------------
      1          6           0       -3.371017    3.533076    0.059699
      2          6           0       -3.799757    2.512722    1.116997
      3          6           0       -3.608502    1.073251    0.606802
      4          6           0       -1.902914    1.735750   -0.956178
      5          6           0       -1.995267    3.198008   -0.516389
      6          1           0       -3.708938    0.342046    1.421758
      7          1           0       -3.138720    2.627889    1.991351
      8          1           0       -4.098776    3.516244   -0.761726
      9          1           0       -2.596685    1.557746   -1.787145
     10          1           0       -1.241734    3.373927    0.264424
     11          8           0       -2.280195    0.898127    0.157032
     12          8           0       -4.563296    0.823051   -0.387209
     13          8           0       -5.136068    2.804920    1.482661
     14          8           0       -3.293719    4.838632    0.622774
     15          8           0       -1.747750    4.039675   -1.639535
     16          6           0       -0.490914    1.324736   -1.388061
     17          1           0        0.173243    1.528077   -0.517469
     18          1           0       -0.186881    2.068909   -2.151997
     19          8           0       -0.409529    0.030941   -1.829550
     20          6           0       -5.601946    2.079719    2.608366
     21          1           0       -5.752947    1.016282    2.378889
     22          1           0       -4.905869    2.164126    3.456185
     23          1           0       -6.562627    2.516934    2.890642
     24          6           0       -4.434809    5.649980    0.386799
     25          1           0       -4.607715    5.786188   -0.690803
     26          1           0       -5.334690    5.223103    0.842638
     27          1           0       -4.225252    6.624437    0.836721
     28          6           0       -0.724996    5.000724   -1.427639
     29          1           0       -0.964562    5.655356   -0.580824
     30          1           0        0.248290    4.520582   -1.252145
     31          1           0       -0.662224    5.600833   -2.339803
     32          6           0       -1.399676   -2.821799    1.625785
     33          6           0       -0.660789   -1.577830    1.135592
     34          6           0        0.003531   -1.766869   -0.190232
     35          6           0       -1.248939   -3.742768   -0.721018
     36          6           0       -2.170992   -3.437030    0.461306
     37          1           0        0.677968   -1.015285   -0.557093
     38          1           0       -1.413155   -0.803584    0.911711
     39          1           0       -0.676186   -3.552368    2.010261
     40          1           0       -0.534081   -4.522313   -0.442835
     41          1           0       -2.939220   -2.729827    0.134382
     42          8           0       -0.438236   -2.582200   -1.091260
     43          8           0        2.485003   -2.305634   -1.855520
     44          8           0        0.242164   -1.120112    2.120250
     45          8           0       -2.342563   -2.470875    2.624186
     46          8           0       -2.752709   -4.673193    0.833254
     47          6           0       -1.996062   -4.155690   -1.970465
     48          1           0       -2.475780   -5.125295   -1.776961
     49          1           0       -1.281136   -4.283779   -2.797623
     50          8           0       -2.952645   -3.162480   -2.276701
     51         16           0        2.868911   -2.558070   -0.434119
     52          8           0        4.067771   -3.396168   -0.255630
     53          8           0        1.702230   -3.026537    0.405393
     54          6           0        3.256893   -0.932976    0.241333
     55          6           0        3.229606    0.196451   -0.567307
     56          6           0        3.569375   -0.839042    1.599452
     57          6           0        3.533142    1.441988   -0.004107
     58          1           0        2.968767    0.116737   -1.616534
     59          6           0        3.870046    0.405571    2.141328
     60          1           0        3.572836   -1.725817    2.221303
     61          6           0        3.856258    1.554190    1.342988
     62          1           0        4.097562    2.519545    1.770090
     63          6           0        0.323737    0.298601    2.237716
     64          1           0        0.771525    0.752801    1.345884
     65          1           0       -0.666909    0.741473    2.392415
     66          1           0        0.964921    0.496142    3.096455
     67          6           0       -1.867521   -2.613216    3.959558
     68          1           0       -1.587676   -3.655379    4.166927
     69          1           0       -1.005772   -1.965668    4.149354
     70          1           0       -2.694595   -2.328232    4.614046
     71          6           0       -4.161307   -4.606411    1.036441
     72          1           0       -4.408746   -3.914883    1.848777
     73          1           0       -4.675500   -4.290609    0.118280
     74          1           0       -4.485485   -5.615393    1.301360
     75          6           0       -3.711337   -3.472708   -3.433397
     76          1           0       -4.416213   -2.652079   -3.580462
     77          1           0       -3.068206   -3.561321   -4.321224
     78          1           0       -4.267444   -4.412838   -3.305942
     79          6           0       -4.540252   -0.524946   -0.850177
     80          1           0       -5.340040   -0.617493   -1.587937
     81          1           0       -3.582031   -0.780409   -1.312315
     82          1           0       -4.734158   -1.221287   -0.021028
     83         11           0        0.822383   -1.216326   -3.111837
     84          8           0        2.484172    0.205665   -3.862226
     85          6           0        2.126723    1.484982   -4.378511
     86          1           0        2.151915    1.482609   -5.476699
     87          1           0        1.113504    1.694300   -4.031055
     88          1           0        2.806102    2.256946   -4.001253
     89          6           0        3.819180   -0.170268   -4.187993
     90          1           0        4.530947    0.561682   -3.785689
     91          1           0        3.991967   -1.142597   -3.723980
     92          1           0        3.951427   -0.243171   -5.275931
     93          6           0        4.156816    0.540134    3.611433
     94          9           0        5.103540    1.472745    3.851318
     95          9           0        4.573775   -0.619453    4.155936
     96          9           0        3.051938    0.926440    4.300862
     97          6           0        3.516996    2.653282   -0.894612
     98          9           0        4.372104    2.509322   -1.938362
     99          9           0        3.862960    3.779683   -0.243682
    100          9           0        2.291385    2.860513   -1.435814
 ---------------------------------------------------------------------
 Rotational constants (GHZ):           0.0530133           0.0428799           0.0365722
 Leave Link  202 at Sat Jun  1 08:10:07 2019, MaxMem=  6442450944 cpu:               5.3 elap:               0.4
 (Enter /home/ekwan/sw/g16/l301.exe)
 Standard basis: 6-31G(d) (6D, 7F)
 Ernie: Thresh=  0.10000D-02 Tol=  0.10000D-05 Strict=F.
 There are   897 symmetry adapted cartesian basis functions of A   symmetry.
 There are   897 symmetry adapted basis functions of A   symmetry.
   897 basis functions,  1720 primitive gaussians,   897 cartesian basis functions
   214 alpha electrons      214 beta electrons
       nuclear repulsion energy      9583.8725769296 Hartrees.
 IExCor=  402 DFT=T Ex+Corr=B3LYP ExCW=0 ScaHFX=  0.200000
 ScaDFX=  0.800000  0.720000  1.000000  0.810000 ScalE2=  1.000000  1.000000
 IRadAn=      5 IRanWt=     -1 IRanGd=            0 ICorTp=0 IEmpDi=141
[...]
 085815,-0.00033206,-0.00001589,0.00012756,-0.00011415,-0.00000836,0.00
 017591,-0.00016434,-0.00010054,0.00004671,0.00003989,-0.00002470,0.000
 05959,-0.00002733,-0.00000709,-0.00001697,-0.00000106,0.00001456,0.000
 00070,-0.00009020,-0.00000586,-0.00007424,0.00103212,0.00345408,0.0015
 4246,0.00049112,-0.00147645,-0.00027944,-0.00137632,-0.00111784,0.0001
 7382,-0.00058890,-0.00259096,-0.00147352,0.00094135,-0.00383700,0.0084
 9177,-0.00002570,-0.00049888,0.00010030,-0.01404450,-0.04251118,-0.022
 94234,0.00013664,0.00073118,0.00026970,0.00029681,-0.00049760,0.000586
 37,0.00002899,0.00006889,0.00009804,-0.00090799,-0.00111374,-0.0027961
 8,0.00024616,-0.00142453,0.00237464,0.00013118,0.00004009,-0.00020097,
 0.00010621,-0.00012480,0.00007028,-0.00013051,-0.00003716,0.00006275,0
 .00005784,-0.00003759,-0.00003980,-0.00001377,0.00002273,-0.00009151,0
 .00000957,-0.00000814,0.00001095,0.00001294,-0.00001037,-0.00001368,-0
 .00001655,-0.00000227,0.00002025,0.00010841,-0.00000788,-0.00001149,-0
 .00001028,0.00000861,0.00000509,-0.00001366,0.00000694,-0.00000606,-0.
 00001539,-0.00000863,0.00000373,0.00004958,0.00002087,0.00005767,-0.00
 000753,0.00000688,-0.00000611,-0.00000066,-0.00000160,-0.00000830,-0.0
 0000822,-0.00001360,-0.00000602,0.00003312,0.00000587,-0.00000608,-0.0
 0000891,0.00000038,-0.00000498,-0.00000044,-0.00000086,0.00001662,0.00
 000291,-0.00000473,0.00000202,0.00039193,0.00020353,0.00036027,-0.0001
 0400,-0.00009954,-0.00068187,0.00038982,0.00012805,0.00026054,-0.00008
 018,-0.00013681,-0.00022659,0.00003024,-0.00000878,0.00005018,-0.00006
 747,-0.00023668,0.00022080,0.00000723,0.00038670,0.00031274,-0.0002794
 1,0.00003936,0.00021227,-0.00004219,-0.00001616,0.00002056,-0.00003937
 ,-0.00008256,-0.00018280,-0.00050973,-0.00071307,-0.00242518,0.0004445
 8,0.00045110,0.00062115,0.00019893,-0.00017761,0.00070564,-0.00031029,
 0.00029493,0.00084132,-0.04203921,-0.23530385,-0.05753663,0.01323834,-
 0.01458433,-0.03825443,0.06891594,0.29854560,0.00003341,-0.00002853,-0
 .00002583,-0.00000909,-0.00000323,-0.00004679,0.00009467,-0.00002128,-
 0.00002685,0.00009233,-0.00011752,-0.00011280,0.00000826,-0.00002671,-
 0.00011445,-0.00002184,-0.00000573,0.00001448,0.00000247,-0.00000112,0
 .00001345,0.00000503,0.00000079,0.00000502,-0.00005008,0.00000834,0.00
 001437,0.00001616,-0.00000643,0.00000286,-0.00015846,-0.00003753,0.000
 14884,-0.00003925,-0.00001184,0.00001305,-0.00002044,0.00000701,0.0000
 4216,-0.00002736,0.00004636,0.00003985,-0.00010108,-0.00000677,0.00007
 783,-0.00000917,0.00054805,0.00005132,-0.00000310,0.00004280,-0.000266
 17,0.00010174,-0.00022850,0.00029496,-0.00010416,-0.00043498,0.0000980
 7,-0.00000441,0.00000457,-0.00002702,0.00000136,0.00000076,0.00000269,
 0.00000453,-0.00000109,0.00000694,-0.00000231,-0.00000086,0.00000282,0
 .00001291,-0.00001165,-0.00000280,0.00000048,0.00000022,0.00000382,-0.
 00000475,0.00000068,-0.00000055,-0.00000402,0.00000989,0.00000073,0.00
 025840,-0.00006822,0.00005875,-0.00008278,0.00006191,0.00000729,0.0000
 1290,-0.00010173,-0.00010387,-0.00001167,0.00000781,-0.00000235,0.0000
 1338,0.00000825,-0.00000734,-0.00007876,-0.00001571,-0.00007932,-0.000
 17713,0.00030678,-0.00013555,0.00002814,0.00003391,-0.00000908,0.00000
 323,0.00000360,-0.00001552,-0.00000026,0.00003522,-0.00004647,0.000001
 05,0.00001115,0.00000386,-0.00000280,-0.00000760,0.00000435,-0.0000066
 4,-0.00001282,0.00000171,0.00000233,0.00000105,-0.00000064,0.00000097,
 -0.00012137,-0.00001190,0.00010445,0.00000666,0.00035690,0.00009035,0.
 00006206,0.00005519,-0.00000101,0.00000146,0.00003248,-0.00000413,-0.0
 0000301,0.00001231,-0.00000371,0.00000493,-0.00000963,-0.00000228,-0.0
 0000368,-0.00000014,0.00000081,0.00000253,0.00000319,-0.00000399,-0.00
 001235,0.00000973,-0.00028058,-0.00061243,-0.00056626,-0.00001403,0.00
 023855,0.00010081,0.00033294,0.00018201,0.00005706,0.00021099,0.000993
 41,-0.00005112,-0.00051162,0.00056416,-0.00115683,0.00012700,0.0006208
 8,0.00018993,0.00142747,0.00825607,0.00946178,0.00007448,0.00038870,0.
 00007680,0.00032648,0.00015962,0.00146965,0.00003641,0.00013088,0.0000
 9519,-0.00056887,0.00162185,-0.00430086,0.00066845,0.00304707,0.000868
 39,-0.00000149,-0.00005138,-0.00000465,-0.00005130,0.00001047,-0.00004
 400,0.00001144,0.00000950,-0.00001205,-0.00001460,-0.00001222,0.000038
 83,-0.00001207,-0.00000423,-0.00001981,0.00000125,0.00000063,0.0000022
 9,0.00000438,0.00000210,0.00000265,-0.00000017,-0.00000080,0.00000237,
 0.00000332,-0.00000015,-0.00000408,-0.00000168,0.00000097,0.00000070,0
 .00000065,0.00000017,0.00000147,-0.00000075,-0.00000083,0.,0.00000646,
 0.00000359,-0.00000454,0.00000279,0.00000150,0.00000008,-0.00000142,0.
 00000325,0.00000259,-0.00000174,-0.00000404,0.00000174,0.00001524,0.00
 001659,-0.00000500,-0.00000055,-0.00000074,-0.00000147,0.00000039,0.00
 000440,0.00000097,-0.00000264,-0.00000464,0.00000660,0.00009102,0.0001
 9663,-0.00006225,-0.00007186,-0.00034331,-0.00009898,0.00034994,0.0006
 3327,0.00014861,-0.00007773,-0.00021392,-0.00017688,0.00005159,-0.0000
 1337,0.00004395,-0.00013168,-0.00032288,0.00037291,0.00030919,0.000409
 13,0.00018978,-0.00034868,0.00008717,0.00023404,-0.00002127,-0.0000913
 4,-0.00004452,-0.00005772,-0.00010681,-0.00012639,0.00004080,-0.000355
 66,0.00061104,-0.00003040,0.00005416,-0.00014894,-0.00006633,0.0001553
 0,-0.00017172,0.00005263,0.00001085,-0.00014621,-0.01991018,-0.0685371
 4,-0.10457773,0.01145883,-0.04957275,-0.04325988,0.04158896,0.12824550
 ,0.15673926,0.00019219,-0.00015711,-0.00013715,0.00009490,0.00001212,-
 0.00017537,0.00062017,0.00000908,-0.00004485,0.00026975,-0.00050968,-0
 .00078410,0.00033270,-0.00002770,-0.00035016,-0.00011129,-0.00003564,0
 .00006434,-0.00000543,-0.00000047,0.00001757,-0.00002243,0.00001895,0.
 00000771,-0.00039856,0.00001776,0.00006415,0.00001015,-0.00004568,-0.0
 0007089,-0.00078995,-0.00030440,0.00060457,-0.00029532,-0.00018948,-0.
 00005908,-0.00023501,-0.00000919,0.00021452,-0.00027625,0.00025584,0.0
 0013985,-0.00098493,-0.00040904,0.00009180,-0.00068678,0.00248553,0.00
 201731,-0.00141815,-0.00041283,-0.00213230,-0.00023993,-0.00137379,0.0
 0135997,-0.00024786,-0.00247928,-0.00027127,0.00002942,0.00006864,-0.0
 0013014,0.00000442,-0.00001805,0.00001238,0.00000966,-0.00000979,0.000
 01943,-0.00002355,-0.00000125,0.00002209,0.00018910,-0.00013884,0.0000
 4716,-0.00001429,0.00001081,-0.00002014,-0.00004988,0.00000860,-0.0000
 0088,-0.00001688,0.00004028,0.00000272,0.00231267,-0.00016134,0.000727
 53,-0.00044567,0.00032589,-0.00003475,-0.00098952,0.00022236,-0.000387
 84,-0.00025981,0.00019459,-0.00013050,0.00005635,0.00007242,-0.0000596
 5,-0.00015785,-0.00000216,-0.00021317,-0.00069948,0.00138487,-0.000363
 88,0.00014648,0.00019097,-0.00002055,0.00002395,0.00003639,-0.00002801
 ,-0.00003172,0.00015544,-0.00013902,-0.00000950,0.00008825,-0.00000785
 ,-0.00001110,-0.00003607,0.00002233,-0.00003184,-0.00005835,0.00001620
 ,0.00001027,0.00000645,-0.00000051,-0.00006450,-0.00065159,-0.00021614
 ,0.00043439,0.00024633,0.00049364,0.00022781,-0.00010920,0.00014104,-0
 .00001494,-0.00003813,0.00011093,-0.00004854,-0.00006131,0.00003342,-0
 .00002919,0.00002361,0.00000793,-0.00001237,-0.00001324,-0.00000654,0.
 00000774,0.00000637,-0.00000586,-0.00001507,-0.00006512,-0.00001695,-0
 .00126355,-0.00168271,-0.00053866,0.00014056,0.00057197,0.00012753,0.0
 0122438,0.00026234,-0.00008326,0.00072061,0.00080672,-0.00056605,0.000
 32507,-0.00185430,-0.00098220,-0.00017445,0.00028581,0.00001691,-0.014
 25656,0.00718353,-0.01591643,-0.00066859,0.00042688,0.00038746,0.00039
 818,0.00004342,-0.00118634,-0.00008575,0.00004431,0.00005743,-0.000290
 19,0.00354934,0.00063190,-0.00033566,-0.00013894,0.00060986,0.00005838
 ,0.00013839,-0.00009499,-0.00022692,0.00005772,-0.00008713,0.00006615,
 0.00002161,-0.00004194,-0.00005340,-0.00001863,0.00010925,-0.00003026,
 0.00001740,-0.00006954,0.00000452,-0.00001502,0.00000769,0.00000404,0.
 00000696,0.00000145,0.00000198,0.00000149,0.00000695,0.00002868,0.0000
 0380,-0.00000731,-0.00000522,0.00000393,-0.00000214,-0.00000289,0.0000
 0422,0.00000340,-0.00000698,-0.00000723,0.00000217,0.00002125,0.000019
 25,0.00002898,0.00000743,0.00000450,0.00000191,0.00000037,0.00000472,-
 0.00000415,-0.00000684,-0.00001349,0.00000004,0.00007173,0.00017857,0.
 00002216,-0.00002003,-0.00001541,-0.00001666,0.00001061,0.00001901,0.0
 0001609,-0.00000670,-0.00003565,0.00002635,-0.00024043,0.00034949,0.00
 008804,0.00070103,-0.00044547,-0.00014892,-0.00053045,0.00049112,-0.00
 000393,0.00023072,-0.00042663,-0.00015528,0.00068848,0.00015304,0.0002
 4066,-0.00089921,0.00008818,0.00048474,-0.00101163,-0.00015586,0.00000
 831,0.00029981,0.00001596,-0.00024281,0.00010109,-0.00003558,-0.000009
 81,0.00017840,0.00006932,0.00003062,0.00018536,0.00044289,0.00145618,-
 0.00013652,-0.00011158,-0.00034360,-0.00018264,0.00023302,-0.00054336,
 0.00032494,-0.00020232,-0.00053147,-0.19786242,0.04083577,-0.06880731,
 -0.07593800,0.01560635,0.01571537,-0.03400863,-0.02619650,-0.03496848,
 0.32611564,-0.00001230,0.00002090,0.00000962,-0.00000650,-0.00004113,0
 .00001193,0.00001910,-0.00003261,-0.00003064,-0.00017498,-0.00009837,-
 0.00024786,-0.00018750,-0.00023542,0.00021759,0.00000929,0.00000863,-0
 .00000237,0.00000107,-0.00000026,0.00000002,0.00000578,-0.00000187,0.0
 0000076,-0.00007071,0.00004309,0.00002376,0.00000667,0.00000941,0.0000
 1758,0.00002966,0.00014552,-0.00005510,-0.00000758,0.00003586,0.000012
 04,0.00002975,0.00003605,-0.00003494,0.00005597,0.00002547,-0.00001934
 ,0.00055561,0.00043383,-0.00006446,-0.00042327,-0.00071238,0.00105135,
 -0.00097568,-0.00043479,-0.00025628,-0.00029916,0.00013715,-0.00033506
 ,-0.00020732,0.00048627,-0.00018816,-0.00000411,-0.00001877,0.00001945
 ,0.00000246,0.00000735,-0.00000148,-0.00000118,0.00000015,-0.00000320,
 0.00000251,0.00000173,-0.00000379,-0.00003648,0.00002532,0.00000154,-0
 .00000141,-0.00000334,0.00000166,0.00001348,-0.00000156,-0.00000245,-0
 .00000171,-0.00000130,0.00000221,-0.00106763,0.00003554,-0.00026525,0.
 00018230,-0.00011512,0.00002614,0.00080339,-0.00070379,-0.00010365,0.0
 0010502,-0.00006068,0.00003945,0.00006759,0.00002977,-0.00006555,0.000
 07880,0.00003984,0.00006607,0.00055924,-0.00017026,0.00018463,0.000094
 12,0.00010936,-0.00000940,0.00004850,0.00001455,0.00000519,0.00010605,
 0.00005540,0.00004692,0.00001076,-0.00003792,0.00001474,-0.00000391,0.
 00000654,-0.00000441,-0.00000143,0.00000154,0.00000779,-0.00000568,-0.
 00000198,0.00000027,-0.00022936,-0.00011416,-0.00011359,-0.00026424,-0
 .00050523,-0.00053178,-0.00026586,-0.00001714,0.00002297,-0.00006208,-
 0.00000149,0.00006897,-0.00008382,-0.00004681,0.00001609,0.00002633,-0
 .00002073,0.00003625,-0.00001243,-0.00000051,-0.00000874,-0.00000176,0
 .00000655,-0.00000011,-0.00004733,0.00000963,-0.00004316,0.00059372,0.
 00212236,0.00059060,0.00016632,-0.00072655,-0.00011811,-0.00074706,-0.
 00053604,0.00005637,-0.00012821,0.00065394,-0.00012794,-0.00019763,0.0
 0019483,0.00040440,0.00040633,-0.00001381,0.00099358,0.02792771,-0.001
 03276,0.02105922,0.00019741,0.00006844,0.00039177,-0.00091462,-0.00086
 017,0.00196729,0.00007042,0.00002490,0.00001027,0.00068182,-0.00423217
 ,-0.00196236,0.00052752,0.00002844,0.00011980,0.00007730,0.00003064,-0
 .00009554,0.00011338,-0.00009251,0.00006890,-0.00009238,-0.00003315,0.
 00004444,0.00004791,-0.00001775,-0.00005465,0.00000263,0.00001222,-0.0
 0003188,0.00000414,-0.00000239,0.00000422,0.00000503,-0.00000811,-0.00
 000931,-0.00000981,-0.00000136,0.00000948,0.00005549,-0.00000507,-0.00
 000359,-0.00000414,0.00000386,0.00000289,-0.00000749,0.00000326,-0.000
 00461,-0.00000728,-0.00000343,0.00000180,0.00002254,0.00000747,0.00003
 256,-0.00000631,0.00000276,-0.00000361,0.00000040,-0.00000323,-0.00000
 575,-0.00000285,-0.00000401,-0.00000438,0.00000508,-0.00002349,-0.0000
 0176,-0.00000327,0.00000261,0.00000015,-0.00000438,-0.00000534,0.00000
 690,0.00000305,0.00000358,-0.00000485,0.00025395,0.00009241,0.00023958
 ,-0.00012866,0.00010169,-0.00059812,0.00034162,-0.00046576,-0.00021537
 ,-0.00006949,-0.00001758,-0.00004965,-0.00001121,-0.00001410,-0.000022
 64,0.00003129,-0.00022652,-0.00035929,-0.00014039,0.00014016,0.0001246
 2,-0.00004032,-0.00000651,0.00007463,-0.00002264,0.00003022,0.00002860
 ,0.00001591,-0.00001754,-0.00006361,-0.00063962,-0.00075764,-0.0019475
 8,0.00030839,0.00028913,0.00045722,0.00025247,-0.00022754,0.00064277,-
 0.00029221,0.00029318,0.00071898,0.03685151,-0.08641611,0.02111978,0.0
 1418381,0.01071407,-0.00393342,-0.03888665,0.00331905,-0.02572625,-0.0
 3914857,0.07926360,0.00005513,-0.00003595,-0.00003479,-0.00000115,0.00
 001213,-0.00006450,0.00013067,-0.00001235,-0.00000782,0.00024064,-0.00
 023057,0.00001798,0.00010829,0.00004143,-0.00026203,-0.00004062,-0.000
 01238,0.00002356,0.00000121,-0.00000027,0.00001577,0.00000251,0.000001
 91,0.00000492,-0.00004262,-0.00000018,0.00000529,0.00002335,-0.0000115
 1,-0.00000420,-0.00029421,-0.00012668,0.00026244,-0.00005333,-0.000042
 18,0.00000465,-0.00004779,-0.00000916,0.00007153,-0.00007045,0.0000475
 0,0.00005720,-0.00034684,-0.00017592,0.00014029,-0.00024950,0.00113965
 ,-0.00087291,0.00068554,0.00041854,-0.00014223,-0.00010192,-0.00073898
 ,0.00077009,-0.00003942,-0.00071119,0.00039876,-0.00000028,0.00001806,
 -0.00004509,0.00000044,-0.00000390,0.00000384,0.00000565,-0.00000143,0
 .00000984,-0.00000464,-0.00000159,0.00000587,0.00003947,-0.00002904,-0
 .00000116,0.00000049,0.00000220,0.00000195,-0.00001365,0.00000166,0.00
 000064,-0.00000392,0.00001214,-0.00000027,0.00079342,-0.00002164,0.000
 34232,-0.00019062,0.00012568,-0.00000460,0.00006035,-0.00044321,-0.000
 40951,-0.00004912,0.00002780,-0.00002466,-0.00002489,-0.00000469,0.000
 03467,-0.00016378,-0.00005884,-0.00016493,-0.00059845,0.00054270,-0.00
 030095,-0.00001645,-0.00001834,-0.00000630,-0.00002521,-0.00000381,-0.
 00002529,-0.00006662,0.00003054,-0.00010703,-0.00000279,0.00004138,-0.
 00000126,-0.00000141,-0.00001565,0.00000895,-0.00000804,-0.00001921,-0
 .00000163,0.00000686,0.00000292,-0.00000128,0.00014110,-0.00010755,0.0
 0004914,0.00033968,0.00032845,0.00076706,0.00032388,0.00009059,0.00005
 909,0.00003815,0.00000035,-0.00000240,0.00004706,0.00002420,0.00000641
 ,-0.00002485,0.00002109,-0.00003249,0.00000444,-0.00000478,0.00000506,
 0.00000226,-0.00000072,0.00000407,0.00002434,-0.00002569,0.00003798,-0
 .00079898,-0.00207140,-0.00104630,-0.00007791,0.00070873,0.00020038,0.
 00091032,0.00053640,0.00005181,0.00117146,0.00058053,-0.00070398,-0.00
 055004,-0.00115339,-0.00167336,-0.00034659,0.00041763,-0.00040925,-0.0
 2954552,0.01247116,-0.01023531,-0.00075546,0.00071486,0.00019641,0.001
 45869,0.00066989,-0.00101273,-0.00016364,0.00002117,0.00007990,-0.0001
 1629,0.00247506,0.00172100,-0.00077028,-0.00011534,0.00056589,-0.00005
 806,-0.00007510,0.00008395,-0.00015044,0.00007159,-0.00012756,0.000078
 36,0.00003117,-0.00004579,-0.00004939,0.00000031,0.00008776,-0.0000174
 5,-0.00001184,-0.00000477,-0.00000108,0.00000127,0.00000016,0.00000153
 ,0.00000831,0.00001048,0.00000708,0.00000033,-0.00000320,-0.00003083,0
 .00000346,-0.00000240,0.00000034,-0.00000130,-0.00000118,0.00000549,-0
 .00000169,0.00000478,0.00000343,0.00000089,-0.00000099,-0.00000605,0.0
 0000105,-0.00002302,0.00000809,0.00000033,0.00000243,-0.00000231,0.000
 00587,0.00000627,-0.00000071,-0.00000312,0.00000508,0.00001683,0.00004
 262,-0.00000316,0.00000060,-0.00000323,-0.00000257,-0.00000047,0.00000
 679,-0.00000290,-0.00000567,-0.00000897,0.00001236,0.00002111,0.000327
 90,-0.00021723,0.00032649,-0.00091445,-0.00005120,0.00120055,0.0015966
 7,-0.00112465,-0.00021811,-0.00085680,-0.00036173,0.00048298,0.0000895
 4,0.00011949,-0.00146292,-0.00113155,-0.00042320,-0.00051856,0.0003166
 2,0.00024056,-0.00002747,0.00008511,0.00000576,0.00007930,-0.00011331,
 -0.00005468,0.00007981,-0.00003955,-0.00007483,0.00048401,0.00047209,0
 .00184487,-0.00026390,-0.00020272,-0.00044654,-0.00022581,0.00024323,-
 0.00060168,0.00024314,-0.00021222,-0.00060498,-0.06845276,0.02281828,-
 0.10641406,0.03076545,-0.00683784,0.01570360,-0.03816001,-0.01768777,-
 0.01606927,0.10483925,-0.01334079,0.12020753\\0.00000090,0.00000134,0.
 00000060,0.00000126,0.00000120,-0.00000087,-0.00000067,0.00000143,-0.0
 0000063,0.00000235,0.00000028,-0.00000010,0.00000171,0.00000047,-0.000
 00012,-0.00000073,0.00000100,-0.00000173,0.00000022,0.00000056,-0.0000
 0086,0.00000143,0.00000165,-0.00000136,0.00000201,0.00000187,-0.000000
 69,0.00000080,0.00000043,0.00000031,-0.00000087,-0.00000147,-0.0000020
 8,0.00000180,0.00000233,-0.00000221,-0.00000011,0.00000143,-0.00000168
 ,0.00000183,0.00000089,-0.00000014,0.00000255,0.00000165,0.00000034,0.
 00000064,-0.00000004,0.00000110,0.00000119,0.00000018,0.00000095,0.000
 00203,0.00000040,0.00000008,0.00000122,-0.00000105,0.,-0.00000086,0.00
 000111,-0.00000209,-0.00000085,0.00000196,-0.00000219,-0.00000071,0.00
 000113,-0.00000146,-0.00000008,0.00000180,-0.00000225,0.00000284,0.000
 00113,-0.00000061,0.00000212,0.00000198,0.00000022,0.00000155,0.000001
 84,-0.00000072,0.00000259,0.00000187,0.00000016,0.00000352,-0.00000043
 ,0.00000088,0.00000287,0.00000040,0.00000090,0.00000223,0.00000017,0.0
 0000137,0.00000338,0.00000068,0.00000135,-0.00000174,-0.00000028,-0.00
 000116,-0.00000097,-0.00000032,-0.00000025,0.00000005,-0.00000218,0.00
 000173,-0.00000190,0.00000011,-0.00000161,-0.00000262,0.00000102,-0.00
 000122,0.00000064,0.00000206,0.00000071,-0.00000064,0.00000077,-0.0000
 0035,-0.00000268,-0.00000039,-0.00000087,-0.00000186,0.00000011,-0.000
 00111,-0.00000101,0.00000079,-0.00000110,-0.00000065,0.00000120,-0.000
 00130,0.00000007,-0.00000093,0.00000157,-0.00000261,-0.00000088,0.0000
 0056,-0.00000304,-0.00000031,-0.00000066,-0.00000189,0.00000054,-0.000
 00253,-0.00000061,0.00000022,-0.00000117,-0.00000138,0.00000136,-0.000
 00220,-0.00000046,0.00000101,-0.00000146,-0.00000088,0.00000186,-0.000
 00218,-0.00000373,0.00000012,0.00000066,-0.00000089,-0.00000298,0.0000
 0129,0.00000013,-0.00000100,-0.00000105,-0.00000090,0.00000016,0.00000
 074,0.00000030,-0.00000424,0.00000363,-0.00000237,-0.00000269,0.000001
 32,0.00000036,-0.00000276,0.00000111,0.00000084,0.00000027,0.00000233,
 -0.00000164,-0.00000254,0.00000375,-0.00000182,-0.00000260,0.00000168,
 0.00000038,-0.00000127,0.00000292,-0.00000001,-0.00000277,0.00000280,-
 0.00000026,-0.00000124,-0.00000021,-0.00000045,-0.00000089,0.00000127,
 -0.00000125,-0.00000051,0.00000034,-0.00000085,-0.00000141,0.00000130,
 -0.00000340,-0.00000034,-0.00000143,-0.00000361,-0.00000056,-0.0000013
 0,-0.00000279,-0.00000074,-0.00000051,-0.00000348,-0.00000029,-0.00000
 158,-0.00000268,0.00000111,-0.00000320,-0.00000284,0.00000149,-0.00000
 237,-0.00000220,0.00000168,-0.00000287,-0.00000314,0.00000159,-0.00000
 311,-0.00000020,0.00000229,-0.00000225,0.00000063,0.00000245,-0.000002
 60,0.00000044,0.00000199,-0.00000187,-0.00000054,0.00000224,-0.0000027
 4,0.00000065,0.00000341,-0.00000103,-0.00000009,0.00000241,-0.00000228
 ,0.00000082,0.00000068,-0.00000236,-0.00000056,0.00000083,-0.00000285,
 0.00000096,-0.00000264,-0.00000111,0.00000286,-0.00000128,0.00000376,0
 .00000120,0.00000456,0.00000327,0.00000374,-0.00000005,0.00000154,0.00
 000268,0.00000048,0.00000104,0.00000248,-0.00000369,0.00000164,0.00000
 204,-0.00000160,0.00000108,0.00000221,-0.00000088,0.00000335,0.0000011
 1,-0.00000162,0.00000205,0.00000254,-0.00000053,0.00000246,-0.00000188
 ,-0.00000285,0.00000203,-0.00000097,-0.00000340,0.00000347,-0.00000207
 ,-0.00000337,0.00000274,-0.00000204,-0.00000316,0.00000131,0.00000399,
 -0.00000312,0.00000164,0.00000048,-0.00000240,0.00000260,0.00000198,-0
 .00000158,0.00000319,-0.00000011,-0.00000073,0.00000257\\\@


 Experience is what you get when you don't get what you want.
 -- Dan Stanford
 Job cpu time:       5 days  1 hours 45 minutes 17.9 seconds.
 Elapsed time:       0 days  3 hours 59 minutes 10.1 seconds.
 File lengths (MBytes):  RWF=   9781 Int=      0 D2E=      0 Chk=     86 Scr=      1
 Normal termination of Gaussian 16 at Sat Jun  1 16:03:56 2019.
