 Entering Gaussian System, Link 0=g16
 Input=clay_new-glu_gluC6-EDDL-Na2_1Me2O-bisCF3-ts-b3lyp_d3bj-631gd-pcm_thf.gjf
 Output=clay_new-glu_gluC6-EDDL-Na2_1Me2O-bisCF3-ts-b3lyp_d3bj-631gd-pcm_thf.out
 Initial command:
 /home/ekwan/sw/g16/l1.exe "/scratch/users/ekwan/clay_new-glu_gluC6-EDDL-Na2_1Me2O-bisCF3-ts-b3lyp_d3bj-631gd-pcm_thf/Gau-9987.inp" -scrdir="/scratch/users/ekwan/clay_new-glu_gluC6-EDDL-Na2_1Me2O-bisCF3-ts-b3lyp_d3bj-631gd-pcm_thf/"
 Entering Link 1 = /home/ekwan/sw/g16/l1.exe PID=      9988.
  
 Copyright (c) 1988,1990,1992,1993,1995,1998,2003,2009,2016,
            Gaussian, Inc.  All Rights Reserved.
  
 This is part of the Gaussian(R) 16 program.  It is based on
 the Gaussian(R) 09 system (copyright 2009, Gaussian, Inc.),
 the Gaussian(R) 03 system (copyright 2003, Gaussian, Inc.),
 the Gaussian(R) 98 system (copyright 1998, Gaussian, Inc.),
 the Gaussian(R) 94 system (copyright 1995, Gaussian, Inc.),
 the Gaussian 92(TM) system (copyright 1992, Gaussian, Inc.),
 the Gaussian 90(TM) system (copyright 1990, Gaussian, Inc.),
 the Gaussian 88(TM) system (copyright 1988, Gaussian, Inc.),
 the Gaussian 86(TM) system (copyright 1986, Carnegie Mellon
 University), and the Gaussian 82(TM) system (copyright 1983,
 Carnegie Mellon University). Gaussian is a federally registered
 trademark of Gaussian, Inc.
  
 This software contains proprietary and confidential information,
 including trade secrets, belonging to Gaussian, Inc.
  
 This software is provided under written license and may be
 used, copied, transmitted, or stored only in accord with that
 written license.
  
 The following legend is applicable only to US Government
 contracts under FAR:
  
                    RESTRICTED RIGHTS LEGEND
  
 Use, reproduction and disclosure by the US Government is
 subject to restrictions as set forth in subparagraphs (a)
 and (c) of the Commercial Computer Software - Restricted
 Rights clause in FAR 52.227-19.
  
 Gaussian, Inc.
 340 Quinnipiac St., Bldg. 40, Wallingford CT 06492
  
  
 ---------------------------------------------------------------
 Warning -- This program may not be used in any manner that
 competes with the business of Gaussian, Inc. or will provide
 assistance to any competitor of Gaussian, Inc.  The licensee
 of this program is prohibited from giving any competitor of
 Gaussian, Inc. access to this program.  By using this program,
 the user acknowledges that Gaussian, Inc. is engaged in the
 business of creating and licensing software in the field of
 computational chemistry and represents and warrants to the
 licensee that it is not a competitor of Gaussian, Inc. and that
 it will not use this program in any manner prohibited above.
 ---------------------------------------------------------------
  

 Cite this work as:
 Gaussian 16, Revision A.03,
 M. J. Frisch, G. W. Trucks, H. B. Schlegel, G. E. Scuseria, 
 M. A. Robb, J. R. Cheeseman, G. Scalmani, V. Barone, 
 G. A. Petersson, H. Nakatsuji, X. Li, M. Caricato, A. V. Marenich, 
 J. Bloino, B. G. Janesko, R. Gomperts, B. Mennucci, H. P. Hratchian, 
 J. V. Ortiz, A. F. Izmaylov, J. L. Sonnenberg, D. Williams-Young, 
 F. Ding, F. Lipparini, F. Egidi, J. Goings, B. Peng, A. Petrone, 
 T. Henderson, D. Ranasinghe, V. G. Zakrzewski, J. Gao, N. Rega, 
 G. Zheng, W. Liang, M. Hada, M. Ehara, K. Toyota, R. Fukuda, 
 J. Hasegawa, M. Ishida, T. Nakajima, Y. Honda, O. Kitao, H. Nakai, 
 T. Vreven, K. Throssell, J. A. Montgomery, Jr., J. E. Peralta, 
 F. Ogliaro, M. J. Bearpark, J. J. Heyd, E. N. Brothers, K. N. Kudin, 
 V. N. Staroverov, T. A. Keith, R. Kobayashi, J. Normand, 
 K. Raghavachari, A. P. Rendell, J. C. Burant, S. S. Iyengar, 
 J. Tomasi, M. Cossi, J. M. Millam, M. Klene, C. Adamo, R. Cammi, 
 J. W. Ochterski, R. L. Martin, K. Morokuma, O. Farkas, 
 J. B. Foresman, and D. J. Fox, Gaussian, Inc., Wallingford CT, 2016.
 
 ******************************************
 Gaussian 16:  AS64L-G16RevA.03 25-Dec-2016
                30-May-2019 
 ******************************************
 %mem=48GB
 %nprocshared=32
 Will use up to   32 processors via shared memory.
 ----------------------------------------------------------------------
 #p opt=(ts,noeigentest,calcfc,maxstep=5,modredundant,recalc=30) freq=n
 oraman b3lyp 6-31g* pop=none scrf=(solvent=tetrahydrofuran,pcm) empiri
 caldispersion=gd3bj
 ----------------------------------------------------------------------
 1/5=1,8=5,10=4,11=1,18=120,26=3,38=1,71=30/1,3;
 2/9=110,12=2,17=6,18=5,40=1/2;
 3/5=1,6=6,7=1,11=2,25=1,30=1,70=2201,71=2,72=20,74=-5,124=41,140=1/1,2,3;
 4//1;
 5/5=2,38=5,53=20/2;
 8/6=4,10=90,11=11/1;
 11/6=1,8=1,9=11,15=111,16=1/1,2,10;
 10/6=1,13=1/2;
 7/10=1,18=20,25=1/1,2,3,16;
 1/5=1,8=5,10=4,11=1,18=20,26=3,71=30/3(2);
 2/9=110/2;
 99//99;
 2/9=110/2;
 3/5=1,6=6,7=1,11=2,25=1,30=1,70=2205,71=1,72=20,74=-5,124=41/1,2,3;
 4/5=5,16=3,69=1/1;
 5/5=2,38=5,53=20/2;
 7//1,2,3,16;
 1/5=1,8=5,11=1,18=20,26=3,71=30/3(-5);
 2/9=110/2;
 99/9=1/99;
 Leave Link    1 at Thu May 30 18:50:08 2019, MaxMem=  6442450944 cpu:               4.1 elap:               0.2
 (Enter /home/ekwan/sw/g16/l101.exe)
 -----
 title
 -----
 Symbolic Z-matrix:
 Charge =  0 Multiplicity = 1
 C                     5.34419   0.0371   -0.01725 
 C                     5.7863   -0.56521  -1.3488 
 C                     4.59733  -1.22179  -2.06881 
 C                     2.99537   0.21463  -0.96161 
 C                     4.11627   0.93485  -0.19635 
 H                     4.85693  -1.47159  -3.10633 
 H                     6.14157   0.25344  -1.99499 
 H                     5.07646  -0.77676   0.66929 
 H                     2.61128  -0.61579  -0.35546 
 H                     4.40652   1.82171  -0.77599 
 O                     3.53534  -0.29852  -2.19627 
 O                     4.24625  -2.38263  -1.36793 
 O                     6.84732  -1.46404  -1.08403 
 O                     6.38871   0.82562   0.54376 
 O                     3.6672    1.3488    1.10082 
 C                     1.82165   1.12492  -1.38282 
 H                     1.20369   0.49554  -2.05972 
 H                     2.26579   1.91226  -2.03302 
 O                     1.09726   1.63857  -0.33695 
 C                     7.51088  -1.9391   -2.24313 
 H                     6.88638  -2.63501  -2.81948 
 H                     7.81594  -1.11018  -2.89898 
 H                     8.40244  -2.47018  -1.90132 
 C                     7.16172   0.16197   1.53375 
 H                     6.53205  -0.16405   2.37473 
 H                     7.68485  -0.70603   1.11946 
 H                     7.89144   0.88917   1.89991 
 C                     4.09946   2.66358   1.46223 
 H                     5.189     2.73304   1.42959 
 H                     3.65869   3.4097    0.78631 
 H                     3.74127   2.84013   2.4786 
 C                    -3.14465   2.97641  -1.70833 
 C                    -1.75849   3.01916  -1.05648 
 C                    -1.37991   1.68638  -0.48752 
 C                    -2.83433   0.47483  -1.95805 
 C                    -3.19535   1.78276  -2.67081 
 H                    -0.67047   1.61476   0.30656 
 H                    -1.03205   3.19261  -1.86865 
 H                    -3.90813   2.84136  -0.93247 
 H                    -3.63768   0.23896  -1.2557 
 H                    -2.49279   1.96651  -3.49737 
 O                    -1.64153   0.58884  -1.11523 
 O                    -3.1009    0.81579   3.48469 
 O                    -1.66441   4.03484  -0.09166 
 O                    -3.38243   4.15122  -2.45634 
 O                    -4.50529   1.57575  -3.16517 
 C                    -2.57851  -0.6876   -2.90697 
 H                    -1.59919  -0.5535   -3.37612 
 H                    -3.35366  -0.66408  -3.68521 
 O                    -2.54661  -1.94231  -2.25784 
 S                    -2.25027   0.82155   2.28203 
 O                    -0.84184   1.27313   2.50078 
 O                    -2.89312   1.53681   1.11333 
 C                    -2.09254  -0.88928   1.74426 
 C                    -3.095    -1.80835   2.04938 
 C                    -1.0084   -1.25563   0.95453 
 C                    -2.99711  -3.10816   1.55414 
 H                    -3.93071  -1.50942   2.67042 
 C                    -0.93411  -2.55362   0.45529 
 H                    -0.2434   -0.53855   0.68312 
 C                    -1.91578  -3.49043   0.75678 
 H                    -1.84887  -4.49904   0.36781 
 C                    -0.3533    4.60773  -0.01035 
 H                     0.41276   3.82521   0.04398 
 H                    -0.16104   5.24272  -0.88708 
 H                    -0.34037   5.22306   0.89119 
 C                    -4.08982   5.16569  -1.74643 
 H                    -5.07615   4.80314  -1.42584 
 H                    -3.52683   5.50394  -0.87158 
 H                    -4.22246   5.99495  -2.44501 
 C                    -4.76406   2.17171  -4.43487 
 H                    -4.65682   3.25892  -4.39111 
 H                    -4.088     1.76949  -5.20235 
 H                    -5.79264   1.909    -4.69163 
 C                    -3.83247  -2.44369  -1.92304 
 H                    -3.68917  -3.45066  -1.52976 
 H                    -4.32806  -1.84253  -1.14887 
 H                    -4.48332  -2.48645  -2.8082 
 C                     3.37641  -3.23469  -2.1084 
 H                     3.1105   -4.06464  -1.45239 
 H                     2.46742  -2.70815  -2.4099 
 H                     3.88546  -3.62203  -3.00244 
 Na                    1.42183   1.30883   1.8018 
 O                     1.68374   2.57277   3.76098 
 C                     0.98687   3.81116   3.64017 
 H                     1.18415   4.45213   4.50966 
 H                     1.3619    4.30082   2.73834 
 H                    -0.09196   3.63924   3.54335 
 C                     1.30648   1.8611    4.9378 
 H                     0.23775   1.6167    4.91509 
 H                     1.89384   0.93985   4.95671 
 H                     1.53172   2.45287   5.83496 
 C                    -4.10462  -4.09406   1.79912 
 F                    -4.8342   -3.78246   2.8888 
 F                    -3.63238  -5.34879   1.96508 
 F                    -4.96211  -4.13815   0.74734 
 C                     0.23673  -2.89005  -0.42063 
 F                     0.35642  -2.01084  -1.44179 
 F                     0.15938  -4.12574  -0.94981 
 F                     1.40215  -2.82351   0.27833 
 
 Add virtual bond connecting atoms H37        and O19        Dist= 3.56D+00.
 Add virtual bond connecting atoms O52        and H37        Dist= 4.21D+00.
 Add virtual bond connecting atoms O53        and C34        Dist= 4.17D+00.
 Add virtual bond connecting atoms O53        and H37        Dist= 4.47D+00.
 Add virtual bond connecting atoms H60        and H37        Dist= 4.21D+00.
 Add virtual bond connecting atoms O84        and H31        Dist= 4.61D+00.
 Add virtual bond connecting atoms O84        and Na83       Dist= 4.43D+00.
 The following ModRedundant input section has been read:
 
 ITRead=  0  0  0  0  0  0  0  0  0  0  0  0  0  0  0  0  0  0  0  0
 ITRead=  0  0  0  0  0  0  0  0  0  0  0  0  0  0  0  0  0  0  0  0
 ITRead=  0  0  0  0  0  0  0  0  0  0  0  0  0  0  0  0  0  0  0  0
 ITRead=  0  0  0  0  0  0  0  0  0  0  0  0  0  0  0  0  0  0  0  0
 ITRead=  0  0  0  0  0  0  0  0  0  0  0  0  0  0  0  0  0  0  0  0
 MicOpt= -1 -1 -1 -1 -1 -1 -1 -1 -1 -1 -1 -1 -1 -1 -1 -1 -1 -1 -1 -1
 MicOpt= -1 -1 -1 -1 -1 -1 -1 -1 -1 -1 -1 -1 -1 -1 -1 -1 -1 -1 -1 -1
 MicOpt= -1 -1 -1 -1 -1 -1 -1 -1 -1 -1 -1 -1 -1 -1 -1 -1 -1 -1 -1 -1
 MicOpt= -1 -1 -1 -1 -1 -1 -1 -1 -1 -1 -1 -1 -1 -1 -1 -1 -1 -1 -1 -1
 MicOpt= -1 -1 -1 -1 -1 -1 -1 -1 -1 -1 -1 -1 -1 -1 -1 -1 -1 -1 -1 -1
 NAtoms=    100 NQM=      100 NQMF=       0 NMMI=      0 NMMIF=      0
                NMic=       0 NMicF=      0.
                    Isotopes and Nuclear Properties:
 (Nuclear quadrupole moments (NQMom) in fm**2, nuclear magnetic moments (NMagM)
  in nuclear magnetons)

  Atom         1           2           3           4           5           6           7           8           9          10
 IAtWgt=          12          12          12          12          12           1           1           1           1           1
 AtmWgt=  12.0000000  12.0000000  12.0000000  12.0000000  12.0000000   1.0078250   1.0078250   1.0078250   1.0078250   1.0078250
 NucSpn=           0           0           0           0           0           1           1           1           1           1
 AtZEff=   0.0000000   0.0000000   0.0000000   0.0000000   0.0000000   0.0000000   0.0000000   0.0000000   0.0000000   0.0000000
 NQMom=    0.0000000   0.0000000   0.0000000   0.0000000   0.0000000   0.0000000   0.0000000   0.0000000   0.0000000   0.0000000
 NMagM=    0.0000000   0.0000000   0.0000000   0.0000000   0.0000000   2.7928460   2.7928460   2.7928460   2.7928460   2.7928460
 AtZNuc=   6.0000000   6.0000000   6.0000000   6.0000000   6.0000000   1.0000000   1.0000000   1.0000000   1.0000000   1.0000000

  Atom        11          12          13          14          15          16          17          18          19          20
 IAtWgt=          16          16          16          16          16          12           1           1          16          12
 AtmWgt=  15.9949146  15.9949146  15.9949146  15.9949146  15.9949146  12.0000000   1.0078250   1.0078250  15.9949146  12.0000000
 NucSpn=           0           0           0           0           0           0           1           1           0           0
 AtZEff=   0.0000000   0.0000000   0.0000000   0.0000000   0.0000000   0.0000000   0.0000000   0.0000000   0.0000000   0.0000000
 NQMom=    0.0000000   0.0000000   0.0000000   0.0000000   0.0000000   0.0000000   0.0000000   0.0000000   0.0000000   0.0000000
 NMagM=    0.0000000   0.0000000   0.0000000   0.0000000   0.0000000   0.0000000   2.7928460   2.7928460   0.0000000   0.0000000
 AtZNuc=   8.0000000   8.0000000   8.0000000   8.0000000   8.0000000   6.0000000   1.0000000   1.0000000   8.0000000   6.0000000

  Atom        21          22          23          24          25          26          27          28          29          30
 IAtWgt=           1           1           1          12           1           1           1          12           1           1
 AtmWgt=   1.0078250   1.0078250   1.0078250  12.0000000   1.0078250   1.0078250   1.0078250  12.0000000   1.0078250   1.0078250
 NucSpn=           1           1           1           0           1           1           1           0           1           1
 AtZEff=   0.0000000   0.0000000   0.0000000   0.0000000   0.0000000   0.0000000   0.0000000   0.0000000   0.0000000   0.0000000
 NQMom=    0.0000000   0.0000000   0.0000000   0.0000000   0.0000000   0.0000000   0.0000000   0.0000000   0.0000000   0.0000000
 NMagM=    2.7928460   2.7928460   2.7928460   0.0000000   2.7928460   2.7928460   2.7928460   0.0000000   2.7928460   2.7928460
 AtZNuc=   1.0000000   1.0000000   1.0000000   6.0000000   1.0000000   1.0000000   1.0000000   6.0000000   1.0000000   1.0000000

  Atom        31          32          33          34          35          36          37          38          39          40
 IAtWgt=           1          12          12          12          12          12           1           1           1           1
 AtmWgt=   1.0078250  12.0000000  12.0000000  12.0000000  12.0000000  12.0000000   1.0078250   1.0078250   1.0078250   1.0078250
 NucSpn=           1           0           0           0           0           0           1           1           1           1
 AtZEff=   0.0000000   0.0000000   0.0000000   0.0000000   0.0000000   0.0000000   0.0000000   0.0000000   0.0000000   0.0000000
 NQMom=    0.0000000   0.0000000   0.0000000   0.0000000   0.0000000   0.0000000   0.0000000   0.0000000   0.0000000   0.0000000
 NMagM=    2.7928460   0.0000000   0.0000000   0.0000000   0.0000000   0.0000000   2.7928460   2.7928460   2.7928460   2.7928460
 AtZNuc=   1.0000000   6.0000000   6.0000000   6.0000000   6.0000000   6.0000000   1.0000000   1.0000000   1.0000000   1.0000000

  Atom        41          42          43          44          45          46          47          48          49          50
 IAtWgt=           1          16          16          16          16          16          12           1           1          16
 AtmWgt=   1.0078250  15.9949146  15.9949146  15.9949146  15.9949146  15.9949146  12.0000000   1.0078250   1.0078250  15.9949146
 NucSpn=           1           0           0           0           0           0           0           1           1           0
 AtZEff=   0.0000000   0.0000000   0.0000000   0.0000000   0.0000000   0.0000000   0.0000000   0.0000000   0.0000000   0.0000000
 NQMom=    0.0000000   0.0000000   0.0000000   0.0000000   0.0000000   0.0000000   0.0000000   0.0000000   0.0000000   0.0000000
 NMagM=    2.7928460   0.0000000   0.0000000   0.0000000   0.0000000   0.0000000   0.0000000   2.7928460   2.7928460   0.0000000
 AtZNuc=   1.0000000   8.0000000   8.0000000   8.0000000   8.0000000   8.0000000   6.0000000   1.0000000   1.0000000   8.0000000

  Atom        51          52          53          54          55          56          57          58          59          60
 IAtWgt=          32          16          16          12          12          12          12           1          12           1
 AtmWgt=  31.9720718  15.9949146  15.9949146  12.0000000  12.0000000  12.0000000  12.0000000   1.0078250  12.0000000   1.0078250
 NucSpn=           0           0           0           0           0           0           0           1           0           1
 AtZEff=   0.0000000   0.0000000   0.0000000   0.0000000   0.0000000   0.0000000   0.0000000   0.0000000   0.0000000   0.0000000
 NQMom=    0.0000000   0.0000000   0.0000000   0.0000000   0.0000000   0.0000000   0.0000000   0.0000000   0.0000000   0.0000000
 NMagM=    0.0000000   0.0000000   0.0000000   0.0000000   0.0000000   0.0000000   0.0000000   2.7928460   0.0000000   2.7928460
 AtZNuc=  16.0000000   8.0000000   8.0000000   6.0000000   6.0000000   6.0000000   6.0000000   1.0000000   6.0000000   1.0000000

  Atom        61          62          63          64          65          66          67          68          69          70
 IAtWgt=          12           1          12           1           1           1          12           1           1           1
 AtmWgt=  12.0000000   1.0078250  12.0000000   1.0078250   1.0078250   1.0078250  12.0000000   1.0078250   1.0078250   1.0078250
 NucSpn=           0           1           0           1           1           1           0           1           1           1
 AtZEff=   0.0000000   0.0000000   0.0000000   0.0000000   0.0000000   0.0000000   0.0000000   0.0000000   0.0000000   0.0000000
 NQMom=    0.0000000   0.0000000   0.0000000   0.0000000   0.0000000   0.0000000   0.0000000   0.0000000   0.0000000   0.0000000
 NMagM=    0.0000000   2.7928460   0.0000000   2.7928460   2.7928460   2.7928460   0.0000000   2.7928460   2.7928460   2.7928460
 AtZNuc=   6.0000000   1.0000000   6.0000000   1.0000000   1.0000000   1.0000000   6.0000000   1.0000000   1.0000000   1.0000000

  Atom        71          72          73          74          75          76          77          78          79          80
 IAtWgt=          12           1           1           1          12           1           1           1          12           1
 AtmWgt=  12.0000000   1.0078250   1.0078250   1.0078250  12.0000000   1.0078250   1.0078250   1.0078250  12.0000000   1.0078250
 NucSpn=           0           1           1           1           0           1           1           1           0           1
 AtZEff=   0.0000000   0.0000000   0.0000000   0.0000000   0.0000000   0.0000000   0.0000000   0.0000000   0.0000000   0.0000000
 NQMom=    0.0000000   0.0000000   0.0000000   0.0000000   0.0000000   0.0000000   0.0000000   0.0000000   0.0000000   0.0000000
 NMagM=    0.0000000   2.7928460   2.7928460   2.7928460   0.0000000   2.7928460   2.7928460   2.7928460   0.0000000   2.7928460
 AtZNuc=   6.0000000   1.0000000   1.0000000   1.0000000   6.0000000   1.0000000   1.0000000   1.0000000   6.0000000   1.0000000

  Atom        81          82          83          84          85          86          87          88          89          90
 IAtWgt=           1           1          23          16          12           1           1           1          12           1
 AtmWgt=   1.0078250   1.0078250  22.9897697  15.9949146  12.0000000   1.0078250   1.0078250   1.0078250  12.0000000   1.0078250
 NucSpn=           1           1           3           0           0           1           1           1           0           1
 AtZEff=   0.0000000   0.0000000   0.0000000   0.0000000   0.0000000   0.0000000   0.0000000   0.0000000   0.0000000   0.0000000
 NQMom=    0.0000000   0.0000000  10.4000000   0.0000000   0.0000000   0.0000000   0.0000000   0.0000000   0.0000000   0.0000000
 NMagM=    2.7928460   2.7928460   2.2175200   0.0000000   0.0000000   2.7928460   2.7928460   2.7928460   0.0000000   2.7928460
 AtZNuc=   1.0000000   1.0000000  11.0000000   8.0000000   6.0000000   1.0000000   1.0000000   1.0000000   6.0000000   1.0000000

  Atom        91          92          93          94          95          96          97          98          99         100
 IAtWgt=           1           1          12          19          19          19          12          19          19          19
 AtmWgt=   1.0078250   1.0078250  12.0000000  18.9984033  18.9984033  18.9984033  12.0000000  18.9984033  18.9984033  18.9984033
 NucSpn=           1           1           0           1           1           1           0           1           1           1
 AtZEff=   0.0000000   0.0000000   0.0000000   0.0000000   0.0000000   0.0000000   0.0000000   0.0000000   0.0000000   0.0000000
 NQMom=    0.0000000   0.0000000   0.0000000   0.0000000   0.0000000   0.0000000   0.0000000   0.0000000   0.0000000   0.0000000
 NMagM=    2.7928460   2.7928460   0.0000000   2.6288670   2.6288670   2.6288670   0.0000000   2.6288670   2.6288670   2.6288670
 AtZNuc=   1.0000000   1.0000000   6.0000000   9.0000000   9.0000000   9.0000000   6.0000000   9.0000000   9.0000000   9.0000000
 Leave Link  101 at Thu May 30 18:50:09 2019, MaxMem=  6442450944 cpu:              17.3 elap:               0.6
 (Enter /home/ekwan/sw/g16/l103.exe)

 GradGradGradGradGradGradGradGradGradGradGradGradGradGradGradGradGradGrad
 Berny optimization.
 Initialization pass.
                           ----------------------------
                           !    Initial Parameters    !
                           ! (Angstroms and Degrees)  !
 --------------------------                            --------------------------
 ! Name  Definition              Value          Derivative Info.                !
 --------------------------------------------------------------------------------
 ! R1    R(1,2)                  1.5268         calculate D2E/DX2 analytically  !
 ! R2    R(1,5)                  1.5316         calculate D2E/DX2 analytically  !
 ! R3    R(1,8)                  1.0979         calculate D2E/DX2 analytically  !
 ! R4    R(1,14)                 1.4239         calculate D2E/DX2 analytically  !
 ! R5    R(2,3)                  1.5373         calculate D2E/DX2 analytically  !
 ! R6    R(2,7)                  1.1018         calculate D2E/DX2 analytically  !
 ! R7    R(2,13)                 1.4155         calculate D2E/DX2 analytically  !
 ! R8    R(3,6)                  1.0983         calculate D2E/DX2 analytically  !
 ! R9    R(3,11)                 1.413          calculate D2E/DX2 analytically  !
 ! R10   R(3,12)                 1.4007         calculate D2E/DX2 analytically  !
 ! R11   R(4,5)                  1.5365         calculate D2E/DX2 analytically  !
 ! R12   R(4,9)                  1.0975         calculate D2E/DX2 analytically  !
 ! R13   R(4,11)                 1.442          calculate D2E/DX2 analytically  !
 ! R14   R(4,16)                 1.5439         calculate D2E/DX2 analytically  !
 ! R15   R(5,10)                 1.0985         calculate D2E/DX2 analytically  !
 ! R16   R(5,15)                 1.4338         calculate D2E/DX2 analytically  !
 ! R17   R(12,79)                1.4251         calculate D2E/DX2 analytically  !
 ! R18   R(13,20)                1.4176         calculate D2E/DX2 analytically  !
 ! R19   R(14,24)                1.4206         calculate D2E/DX2 analytically  !
 ! R20   R(15,28)                1.4304         calculate D2E/DX2 analytically  !
 ! R21   R(16,17)                1.1118         calculate D2E/DX2 analytically  !
 ! R22   R(16,18)                1.1135         calculate D2E/DX2 analytically  !
 ! R23   R(16,19)                1.372          calculate D2E/DX2 analytically  !
 ! R24   R(19,37)                1.8814         calculate D2E/DX2 analytically  !
 ! R25   R(19,83)                2.1882         calculate D2E/DX2 analytically  !
 ! R26   R(20,21)                1.0984         calculate D2E/DX2 analytically  !
 ! R27   R(20,22)                1.1001         calculate D2E/DX2 analytically  !
 ! R28   R(20,23)                1.0926         calculate D2E/DX2 analytically  !
 ! R29   R(24,25)                1.1            calculate D2E/DX2 analytically  !
 ! R30   R(24,26)                1.0949         calculate D2E/DX2 analytically  !
 ! R31   R(24,27)                1.0933         calculate D2E/DX2 analytically  !
 ! R32   R(28,29)                1.0922         calculate D2E/DX2 analytically  !
 ! R33   R(28,30)                1.099          calculate D2E/DX2 analytically  !
 ! R34   R(28,31)                1.092          calculate D2E/DX2 analytically  !
 ! R35   R(31,84)                2.4391         calculate D2E/DX2 analytically  !
 ! R36   R(32,33)                1.5324         calculate D2E/DX2 analytically  !
 ! R37   R(32,36)                1.5342         calculate D2E/DX2 analytically  !
 ! R38   R(32,39)                1.0969         calculate D2E/DX2 analytically  !
 ! R39   R(32,45)                1.4129         calculate D2E/DX2 analytically  !
 ! R40   R(33,34)                1.4978         calculate D2E/DX2 analytically  !
 ! R41   R(33,38)                1.1034         calculate D2E/DX2 analytically  !
 ! R42   R(33,44)                1.404          calculate D2E/DX2 analytically  !
 ! R43   R(34,37)                1.0672         calculate D2E/DX2 analytically  !
 ! R44   R(34,42)                1.2912         calculate D2E/DX2 analytically  !
 ! R45   R(34,53)                2.2079         calculate D2E/DX2 analytically  !
 ! R46   R(35,36)                1.5327         calculate D2E/DX2 analytically  !
 ! R47   R(35,40)                1.0928         calculate D2E/DX2 analytically  !
 ! R48   R(35,42)                1.465          calculate D2E/DX2 analytically  !
 ! R49   R(35,47)                1.5222         calculate D2E/DX2 analytically  !
 ! R50   R(36,41)                1.1003         calculate D2E/DX2 analytically  !
 ! R51   R(36,46)                1.4153         calculate D2E/DX2 analytically  !
 ! R52   R(37,52)                2.2273         calculate D2E/DX2 analytically  !
 ! R53   R(37,53)                2.3658         calculate D2E/DX2 analytically  !
 ! R54   R(37,60)                2.2273         calculate D2E/DX2 analytically  !
 ! R55   R(43,51)                1.4731         calculate D2E/DX2 analytically  !
 ! R56   R(44,63)                1.4331         calculate D2E/DX2 analytically  !
 ! R57   R(45,67)                1.426          calculate D2E/DX2 analytically  !
 ! R58   R(46,71)                1.4263         calculate D2E/DX2 analytically  !
 ! R59   R(47,48)                1.0941         calculate D2E/DX2 analytically  !
 ! R60   R(47,49)                1.0987         calculate D2E/DX2 analytically  !
 ! R61   R(47,50)                1.413          calculate D2E/DX2 analytically  !
 ! R62   R(50,75)                1.4202         calculate D2E/DX2 analytically  !
 ! R63   R(51,52)                1.4951         calculate D2E/DX2 analytically  !
 ! R64   R(51,53)                1.5135         calculate D2E/DX2 analytically  !
 ! R65   R(51,54)                1.8003         calculate D2E/DX2 analytically  !
 ! R66   R(54,55)                1.3938         calculate D2E/DX2 analytically  !
 ! R67   R(54,56)                1.3904         calculate D2E/DX2 analytically  !
 ! R68   R(55,57)                1.3944         calculate D2E/DX2 analytically  !
 ! R69   R(55,58)                1.0833         calculate D2E/DX2 analytically  !
 ! R70   R(56,59)                1.3927         calculate D2E/DX2 analytically  !
 ! R71   R(56,60)                1.0831         calculate D2E/DX2 analytically  !
 ! R72   R(57,61)                1.3968         calculate D2E/DX2 analytically  !
 ! R73   R(57,93)                1.5029         calculate D2E/DX2 analytically  !
 ! R74   R(59,61)                1.39           calculate D2E/DX2 analytically  !
 ! R75   R(59,97)                1.5004         calculate D2E/DX2 analytically  !
 ! R76   R(61,62)                1.0831         calculate D2E/DX2 analytically  !
 ! R77   R(63,64)                1.0964         calculate D2E/DX2 analytically  !
 ! R78   R(63,65)                1.0995         calculate D2E/DX2 analytically  !
 ! R79   R(63,66)                1.0916         calculate D2E/DX2 analytically  !
 ! R80   R(67,68)                1.0987         calculate D2E/DX2 analytically  !
 ! R81   R(67,69)                1.094          calculate D2E/DX2 analytically  !
 ! R82   R(67,70)                1.0924         calculate D2E/DX2 analytically  !
 ! R83   R(71,72)                1.0934         calculate D2E/DX2 analytically  !
 ! R84   R(71,73)                1.099          calculate D2E/DX2 analytically  !
 ! R85   R(71,74)                1.0922         calculate D2E/DX2 analytically  !
 ! R86   R(75,76)                1.0905         calculate D2E/DX2 analytically  !
 ! R87   R(75,77)                1.0983         calculate D2E/DX2 analytically  !
 ! R88   R(75,78)                1.0995         calculate D2E/DX2 analytically  !
 ! R89   R(79,80)                1.0908         calculate D2E/DX2 analytically  !
 ! R90   R(79,81)                1.0929         calculate D2E/DX2 analytically  !
 ! R91   R(79,82)                1.0993         calculate D2E/DX2 analytically  !
 ! R92   R(83,84)                2.3462         calculate D2E/DX2 analytically  !
 ! R93   R(84,85)                1.4261         calculate D2E/DX2 analytically  !
 ! R94   R(84,89)                1.4261         calculate D2E/DX2 analytically  !
 ! R95   R(85,86)                1.0981         calculate D2E/DX2 analytically  !
 ! R96   R(85,87)                1.0926         calculate D2E/DX2 analytically  !
 ! R97   R(85,88)                1.0967         calculate D2E/DX2 analytically  !
 ! R98   R(89,90)                1.0966         calculate D2E/DX2 analytically  !
 ! R99   R(89,91)                1.0927         calculate D2E/DX2 analytically  !
 ! R100  R(89,92)                1.0981         calculate D2E/DX2 analytically  !
 ! R101  R(93,94)                1.3479         calculate D2E/DX2 analytically  !
 ! R102  R(93,95)                1.3509         calculate D2E/DX2 analytically  !
 ! R103  R(93,96)                1.3577         calculate D2E/DX2 analytically  !
 ! R104  R(97,98)                1.3528         calculate D2E/DX2 analytically  !
 ! R105  R(97,99)                1.3465         calculate D2E/DX2 analytically  !
 ! R106  R(97,100)               1.3606         calculate D2E/DX2 analytically  !
 ! A1    A(2,1,5)              111.1855         calculate D2E/DX2 analytically  !
 ! A2    A(2,1,8)              108.876          calculate D2E/DX2 analytically  !
 ! A3    A(2,1,14)             110.4656         calculate D2E/DX2 analytically  !
 ! A4    A(5,1,8)              108.1869         calculate D2E/DX2 analytically  !
 ! A5    A(5,1,14)             108.0348         calculate D2E/DX2 analytically  !
 ! A6    A(8,1,14)             110.0606         calculate D2E/DX2 analytically  !
 ! A7    A(1,2,3)              110.6709         calculate D2E/DX2 analytically  !
 ! A8    A(1,2,7)              108.1633         calculate D2E/DX2 analytically  !
 ! A9    A(1,2,13)             107.7216         calculate D2E/DX2 analytically  !
 ! A10   A(3,2,7)              106.9808         calculate D2E/DX2 analytically  !
 ! A11   A(3,2,13)             113.3369         calculate D2E/DX2 analytically  !
 ! A12   A(7,2,13)             109.8647         calculate D2E/DX2 analytically  !
 ! A13   A(2,3,6)              110.9027         calculate D2E/DX2 analytically  !
 ! A14   A(2,3,11)             110.1499         calculate D2E/DX2 analytically  !
 ! A15   A(2,3,12)             108.2676         calculate D2E/DX2 analytically  !
 ! A16   A(6,3,11)             103.9491         calculate D2E/DX2 analytically  !
 ! A17   A(6,3,12)             110.0865         calculate D2E/DX2 analytically  !
 ! A18   A(11,3,12)            113.4703         calculate D2E/DX2 analytically  !
 ! A19   A(5,4,9)              109.5668         calculate D2E/DX2 analytically  !
 ! A20   A(5,4,11)             108.6684         calculate D2E/DX2 analytically  !
 ! A21   A(5,4,16)             114.4634         calculate D2E/DX2 analytically  !
 ! A22   A(9,4,11)             109.5532         calculate D2E/DX2 analytically  !
 ! A23   A(9,4,16)             109.3133         calculate D2E/DX2 analytically  !
 ! A24   A(11,4,16)            105.123          calculate D2E/DX2 analytically  !
 ! A25   A(1,5,4)              111.6147         calculate D2E/DX2 analytically  !
 ! A26   A(1,5,10)             108.8489         calculate D2E/DX2 analytically  !
 ! A27   A(1,5,15)             108.3334         calculate D2E/DX2 analytically  !
 ! A28   A(4,5,10)             107.962          calculate D2E/DX2 analytically  !
 ! A29   A(4,5,15)             110.944          calculate D2E/DX2 analytically  !
 ! A30   A(10,5,15)            109.09           calculate D2E/DX2 analytically  !
 ! A31   A(3,11,4)             115.8961         calculate D2E/DX2 analytically  !
 ! A32   A(3,12,79)            112.8605         calculate D2E/DX2 analytically  !
 ! A33   A(2,13,20)            114.2492         calculate D2E/DX2 analytically  !
 ! A34   A(1,14,24)            114.5213         calculate D2E/DX2 analytically  !
 ! A35   A(5,15,28)            113.5354         calculate D2E/DX2 analytically  !
 ! A36   A(4,16,17)            104.7663         calculate D2E/DX2 analytically  !
 ! A37   A(4,16,18)            105.8413         calculate D2E/DX2 analytically  !
 ! A38   A(4,16,19)            114.4652         calculate D2E/DX2 analytically  !
 ! A39   A(17,16,18)           105.4528         calculate D2E/DX2 analytically  !
 ! A40   A(17,16,19)           112.4924         calculate D2E/DX2 analytically  !
 ! A41   A(18,16,19)           113.0162         calculate D2E/DX2 analytically  !
 ! A42   A(16,19,37)           138.7714         calculate D2E/DX2 analytically  !
 ! A43   A(16,19,83)           127.6133         calculate D2E/DX2 analytically  !
 ! A44   A(37,19,83)            78.6471         calculate D2E/DX2 analytically  !
 ! A45   A(13,20,21)           112.0385         calculate D2E/DX2 analytically  !
 ! A46   A(13,20,22)           111.3921         calculate D2E/DX2 analytically  !
 ! A47   A(13,20,23)           106.8016         calculate D2E/DX2 analytically  !
 ! A48   A(21,20,22)           108.7973         calculate D2E/DX2 analytically  !
 ! A49   A(21,20,23)           108.6715         calculate D2E/DX2 analytically  !
 ! A50   A(22,20,23)           109.0545         calculate D2E/DX2 analytically  !
 ! A51   A(14,24,25)           111.0858         calculate D2E/DX2 analytically  !
 ! A52   A(14,24,26)           111.5103         calculate D2E/DX2 analytically  !
 ! A53   A(14,24,27)           106.6092         calculate D2E/DX2 analytically  !
 ! A54   A(25,24,26)           109.137          calculate D2E/DX2 analytically  !
 ! A55   A(25,24,27)           108.852          calculate D2E/DX2 analytically  !
 ! A56   A(26,24,27)           109.5809         calculate D2E/DX2 analytically  !
 ! A57   A(15,28,29)           110.6311         calculate D2E/DX2 analytically  !
 ! A58   A(15,28,30)           110.3298         calculate D2E/DX2 analytically  !
 ! A59   A(15,28,31)           106.5371         calculate D2E/DX2 analytically  !
 ! A60   A(29,28,30)           109.7867         calculate D2E/DX2 analytically  !
 ! A61   A(29,28,31)           110.165          calculate D2E/DX2 analytically  !
 ! A62   A(30,28,31)           109.3364         calculate D2E/DX2 analytically  !
 ! A63   A(28,31,84)           138.4438         calculate D2E/DX2 analytically  !
 ! A64   A(33,32,36)           108.5699         calculate D2E/DX2 analytically  !
 ! A65   A(33,32,39)           109.4015         calculate D2E/DX2 analytically  !
 ! A66   A(33,32,45)           110.7472         calculate D2E/DX2 analytically  !
 ! A67   A(36,32,39)           108.9631         calculate D2E/DX2 analytically  !
 ! A68   A(36,32,45)           108.0137         calculate D2E/DX2 analytically  !
 ! A69   A(39,32,45)           111.0829         calculate D2E/DX2 analytically  !
 ! A70   A(32,33,34)           111.4328         calculate D2E/DX2 analytically  !
 ! A71   A(32,33,38)           106.6684         calculate D2E/DX2 analytically  !
 ! A72   A(32,33,44)           111.9072         calculate D2E/DX2 analytically  !
 ! A73   A(34,33,38)           104.6604         calculate D2E/DX2 analytically  !
 ! A74   A(34,33,44)           111.4523         calculate D2E/DX2 analytically  !
 ! A75   A(38,33,44)           110.3641         calculate D2E/DX2 analytically  !
 ! A76   A(33,34,37)           120.6895         calculate D2E/DX2 analytically  !
 ! A77   A(33,34,42)           121.3663         calculate D2E/DX2 analytically  !
 ! A78   A(33,34,53)            99.3506         calculate D2E/DX2 analytically  !
 ! A79   A(37,34,42)           116.0642         calculate D2E/DX2 analytically  !
 ! A80   A(42,34,53)            98.9769         calculate D2E/DX2 analytically  !
 ! A81   A(36,35,40)           108.0533         calculate D2E/DX2 analytically  !
 ! A82   A(36,35,42)           113.1367         calculate D2E/DX2 analytically  !
 ! A83   A(36,35,47)           113.6631         calculate D2E/DX2 analytically  !
 ! A84   A(40,35,42)           104.2167         calculate D2E/DX2 analytically  !
 ! A85   A(40,35,47)           111.0608         calculate D2E/DX2 analytically  !
 ! A86   A(42,35,47)           106.3341         calculate D2E/DX2 analytically  !
 ! A87   A(32,36,35)           111.3722         calculate D2E/DX2 analytically  !
 ! A88   A(32,36,41)           108.6785         calculate D2E/DX2 analytically  !
 ! A89   A(32,36,46)           111.3155         calculate D2E/DX2 analytically  !
 ! A90   A(35,36,41)           109.9668         calculate D2E/DX2 analytically  !
 ! A91   A(35,36,46)           104.8112         calculate D2E/DX2 analytically  !
 ! A92   A(41,36,46)           110.6716         calculate D2E/DX2 analytically  !
 ! A93   A(19,37,34)           111.6692         calculate D2E/DX2 analytically  !
 ! A94   A(19,37,52)           114.2806         calculate D2E/DX2 analytically  !
 ! A95   A(19,37,60)            83.6791         calculate D2E/DX2 analytically  !
 ! A96   A(34,37,52)           133.8013         calculate D2E/DX2 analytically  !
 ! A97   A(34,37,60)           108.5502         calculate D2E/DX2 analytically  !
 ! A98   A(52,37,53)            65.5881         calculate D2E/DX2 analytically  !
 ! A99   A(52,37,60)            72.5367         calculate D2E/DX2 analytically  !
 ! A100  A(53,37,60)            95.1998         calculate D2E/DX2 analytically  !
 ! A101  A(34,42,35)           120.7196         calculate D2E/DX2 analytically  !
 ! A102  A(33,44,63)           112.9211         calculate D2E/DX2 analytically  !
 ! A103  A(32,45,67)           114.2961         calculate D2E/DX2 analytically  !
 ! A104  A(36,46,71)           114.6929         calculate D2E/DX2 analytically  !
 ! A105  A(35,47,48)           108.9123         calculate D2E/DX2 analytically  !
 ! A106  A(35,47,49)           107.8578         calculate D2E/DX2 analytically  !
 ! A107  A(35,47,50)           113.2966         calculate D2E/DX2 analytically  !
 ! A108  A(48,47,49)           108.9744         calculate D2E/DX2 analytically  !
 ! A109  A(48,47,50)           106.595          calculate D2E/DX2 analytically  !
 ! A110  A(49,47,50)           111.1213         calculate D2E/DX2 analytically  !
 ! A111  A(47,50,75)           113.6622         calculate D2E/DX2 analytically  !
 ! A112  A(43,51,52)           115.1942         calculate D2E/DX2 analytically  !
 ! A113  A(43,51,53)           112.768          calculate D2E/DX2 analytically  !
 ! A114  A(43,51,54)           106.9035         calculate D2E/DX2 analytically  !
 ! A115  A(52,51,53)           111.7368         calculate D2E/DX2 analytically  !
 ! A116  A(52,51,54)           104.3706         calculate D2E/DX2 analytically  !
 ! A117  A(53,51,54)           104.8127         calculate D2E/DX2 analytically  !
 ! A118  A(37,52,51)            88.5487         calculate D2E/DX2 analytically  !
 ! A119  A(34,53,51)           107.5045         calculate D2E/DX2 analytically  !
 ! A120  A(37,53,51)            83.0996         calculate D2E/DX2 analytically  !
 ! A121  A(51,54,55)           119.8822         calculate D2E/DX2 analytically  !
 ! A122  A(51,54,56)           119.234          calculate D2E/DX2 analytically  !
 ! A123  A(55,54,56)           120.7566         calculate D2E/DX2 analytically  !
 ! A124  A(54,55,57)           119.1054         calculate D2E/DX2 analytically  !
 ! A125  A(54,55,58)           119.8943         calculate D2E/DX2 analytically  !
 ! A126  A(57,55,58)           120.9983         calculate D2E/DX2 analytically  !
 ! A127  A(54,56,59)           119.3918         calculate D2E/DX2 analytically  !
 ! A128  A(54,56,60)           121.2391         calculate D2E/DX2 analytically  !
 ! A129  A(59,56,60)           119.3107         calculate D2E/DX2 analytically  !
 ! A130  A(55,57,61)           120.8097         calculate D2E/DX2 analytically  !
 ! A131  A(55,57,93)           120.1246         calculate D2E/DX2 analytically  !
 ! A132  A(61,57,93)           118.9466         calculate D2E/DX2 analytically  !
 ! A133  A(56,59,61)           120.8439         calculate D2E/DX2 analytically  !
 ! A134  A(56,59,97)           117.3792         calculate D2E/DX2 analytically  !
 ! A135  A(61,59,97)           121.7758         calculate D2E/DX2 analytically  !
 ! A136  A(37,60,56)           123.1619         calculate D2E/DX2 analytically  !
 ! A137  A(57,61,59)           119.0827         calculate D2E/DX2 analytically  !
 ! A138  A(57,61,62)           120.5093         calculate D2E/DX2 analytically  !
 ! A139  A(59,61,62)           120.4033         calculate D2E/DX2 analytically  !
 ! A140  A(44,63,64)           110.8985         calculate D2E/DX2 analytically  !
 ! A141  A(44,63,65)           110.2191         calculate D2E/DX2 analytically  !
 ! A142  A(44,63,66)           106.4412         calculate D2E/DX2 analytically  !
 ! A143  A(64,63,65)           109.2404         calculate D2E/DX2 analytically  !
 ! A144  A(64,63,66)           110.6779         calculate D2E/DX2 analytically  !
 ! A145  A(65,63,66)           109.3264         calculate D2E/DX2 analytically  !
 ! A146  A(45,67,68)           110.8452         calculate D2E/DX2 analytically  !
 ! A147  A(45,67,69)           111.2722         calculate D2E/DX2 analytically  !
 ! A148  A(45,67,70)           106.3747         calculate D2E/DX2 analytically  !
 ! A149  A(68,67,69)           109.3109         calculate D2E/DX2 analytically  !
 ! A150  A(68,67,70)           109.1535         calculate D2E/DX2 analytically  !
 ! A151  A(69,67,70)           109.8278         calculate D2E/DX2 analytically  !
 ! A152  A(46,71,72)           111.2267         calculate D2E/DX2 analytically  !
 ! A153  A(46,71,73)           110.9247         calculate D2E/DX2 analytically  !
 ! A154  A(46,71,74)           106.2384         calculate D2E/DX2 analytically  !
 ! A155  A(72,71,73)           109.362          calculate D2E/DX2 analytically  !
 ! A156  A(72,71,74)           109.9351         calculate D2E/DX2 analytically  !
 ! A157  A(73,71,74)           109.0938         calculate D2E/DX2 analytically  !
 ! A158  A(50,75,76)           106.9799         calculate D2E/DX2 analytically  !
 ! A159  A(50,75,77)           112.4245         calculate D2E/DX2 analytically  !
 ! A160  A(50,75,78)           111.0945         calculate D2E/DX2 analytically  !
 ! A161  A(76,75,77)           108.0894         calculate D2E/DX2 analytically  !
 ! A162  A(76,75,78)           109.4035         calculate D2E/DX2 analytically  !
 ! A163  A(77,75,78)           108.7616         calculate D2E/DX2 analytically  !
 ! A164  A(12,79,80)           106.9312         calculate D2E/DX2 analytically  !
 ! A165  A(12,79,81)           111.2812         calculate D2E/DX2 analytically  !
 ! A166  A(12,79,82)           110.5243         calculate D2E/DX2 analytically  !
 ! A167  A(80,79,81)           109.2515         calculate D2E/DX2 analytically  !
 ! A168  A(80,79,82)           109.5058         calculate D2E/DX2 analytically  !
 ! A169  A(81,79,82)           109.3014         calculate D2E/DX2 analytically  !
 ! A170  A(19,83,84)           138.7249         calculate D2E/DX2 analytically  !
 ! A171  A(31,84,83)            73.3928         calculate D2E/DX2 analytically  !
 ! A172  A(31,84,85)           105.8119         calculate D2E/DX2 analytically  !
 ! A173  A(31,84,89)           135.3744         calculate D2E/DX2 analytically  !
 ! A174  A(83,84,85)           110.0306         calculate D2E/DX2 analytically  !
 ! A175  A(83,84,89)           112.9988         calculate D2E/DX2 analytically  !
 ! A176  A(85,84,89)           111.9614         calculate D2E/DX2 analytically  !
 ! A177  A(84,85,86)           110.6107         calculate D2E/DX2 analytically  !
 ! A178  A(84,85,87)           106.9396         calculate D2E/DX2 analytically  !
 ! A179  A(84,85,88)           110.6118         calculate D2E/DX2 analytically  !
 ! A180  A(86,85,87)           109.2878         calculate D2E/DX2 analytically  !
 ! A181  A(86,85,88)           109.7632         calculate D2E/DX2 analytically  !
 ! A182  A(87,85,88)           109.5749         calculate D2E/DX2 analytically  !
 ! A183  A(84,89,90)           110.6078         calculate D2E/DX2 analytically  !
 ! A184  A(84,89,91)           107.0266         calculate D2E/DX2 analytically  !
 ! A185  A(84,89,92)           110.5488         calculate D2E/DX2 analytically  !
 ! A186  A(90,89,91)           109.654          calculate D2E/DX2 analytically  !
 ! A187  A(90,89,92)           109.6907         calculate D2E/DX2 analytically  !
 ! A188  A(91,89,92)           109.2652         calculate D2E/DX2 analytically  !
 ! A189  A(57,93,94)           112.2726         calculate D2E/DX2 analytically  !
 ! A190  A(57,93,95)           111.822          calculate D2E/DX2 analytically  !
 ! A191  A(57,93,96)           111.1272         calculate D2E/DX2 analytically  !
 ! A192  A(94,93,95)           107.7356         calculate D2E/DX2 analytically  !
 ! A193  A(94,93,96)           106.9727         calculate D2E/DX2 analytically  !
 ! A194  A(95,93,96)           106.6062         calculate D2E/DX2 analytically  !
 ! A195  A(59,97,98)           111.3448         calculate D2E/DX2 analytically  !
 ! A196  A(59,97,99)           112.9783         calculate D2E/DX2 analytically  !
 ! A197  A(59,97,100)          110.9496         calculate D2E/DX2 analytically  !
 ! A198  A(98,97,99)           107.7496         calculate D2E/DX2 analytically  !
 ! A199  A(98,97,100)          106.2728         calculate D2E/DX2 analytically  !
 ! A200  A(99,97,100)          107.2168         calculate D2E/DX2 analytically  !
 ! A201  L(19,37,53,52,-1)     179.8687         calculate D2E/DX2 analytically  !
 ! A202  L(19,37,53,52,-2)     181.2698         calculate D2E/DX2 analytically  !
 ! D1    D(5,1,2,3)            -50.741          calculate D2E/DX2 analytically  !
 ! D2    D(5,1,2,7)             66.1499         calculate D2E/DX2 analytically  !
 ! D3    D(5,1,2,13)          -175.1468         calculate D2E/DX2 analytically  !
 ! D4    D(8,1,2,3)             68.3557         calculate D2E/DX2 analytically  !
 ! D5    D(8,1,2,7)           -174.7535         calculate D2E/DX2 analytically  !
 ! D6    D(8,1,2,13)           -56.0502         calculate D2E/DX2 analytically  !
 ! D7    D(14,1,2,3)          -170.6782         calculate D2E/DX2 analytically  !
 ! D8    D(14,1,2,7)           -53.7873         calculate D2E/DX2 analytically  !
 ! D9    D(14,1,2,13)           64.916          calculate D2E/DX2 analytically  !
 ! D10   D(2,1,5,4)             51.3708         calculate D2E/DX2 analytically  !
 ! D11   D(2,1,5,10)           -67.6921         calculate D2E/DX2 analytically  !
 ! D12   D(2,1,5,15)           173.8061         calculate D2E/DX2 analytically  !
 ! D13   D(8,1,5,4)            -68.1374         calculate D2E/DX2 analytically  !
 ! D14   D(8,1,5,10)           172.7997         calculate D2E/DX2 analytically  !
 ! D15   D(8,1,5,15)            54.2979         calculate D2E/DX2 analytically  !
 ! D16   D(14,1,5,4)           172.7405         calculate D2E/DX2 analytically  !
 ! D17   D(14,1,5,10)           53.6775         calculate D2E/DX2 analytically  !
 ! D18   D(14,1,5,15)          -64.8242         calculate D2E/DX2 analytically  !
 ! D19   D(2,1,14,24)          -98.1466         calculate D2E/DX2 analytically  !
 ! D20   D(5,1,14,24)          140.0385         calculate D2E/DX2 analytically  !
 ! D21   D(8,1,14,24)           22.1118         calculate D2E/DX2 analytically  !
 ! D22   D(1,2,3,6)            168.355          calculate D2E/DX2 analytically  !
 ! D23   D(1,2,3,11)            53.8354         calculate D2E/DX2 analytically  !
 ! D24   D(1,2,3,12)           -70.7669         calculate D2E/DX2 analytically  !
 ! D25   D(7,2,3,6)             50.7372         calculate D2E/DX2 analytically  !
 ! D26   D(7,2,3,11)           -63.7824         calculate D2E/DX2 analytically  !
 ! D27   D(7,2,3,12)           171.6152         calculate D2E/DX2 analytically  !
 ! D28   D(13,2,3,6)           -70.5072         calculate D2E/DX2 analytically  !
 ! D29   D(13,2,3,11)          174.9732         calculate D2E/DX2 analytically  !
 ! D30   D(13,2,3,12)           50.3708         calculate D2E/DX2 analytically  !
 ! D31   D(1,2,13,20)         -170.1902         calculate D2E/DX2 analytically  !
 ! D32   D(3,2,13,20)           67.026          calculate D2E/DX2 analytically  !
 ! D33   D(7,2,13,20)          -52.5826         calculate D2E/DX2 analytically  !
 ! D34   D(2,3,11,4)           -60.6566         calculate D2E/DX2 analytically  !
 ! D35   D(6,3,11,4)          -179.5206         calculate D2E/DX2 analytically  !
 ! D36   D(12,3,11,4)           60.8993         calculate D2E/DX2 analytically  !
 ! D37   D(2,3,12,79)         -166.0031         calculate D2E/DX2 analytically  !
 ! D38   D(6,3,12,79)          -44.6199         calculate D2E/DX2 analytically  !
 ! D39   D(11,3,12,79)          71.3947         calculate D2E/DX2 analytically  !
 ! D40   D(9,4,5,1)             66.3883         calculate D2E/DX2 analytically  !
 ! D41   D(9,4,5,10)          -174.0234         calculate D2E/DX2 analytically  !
 ! D42   D(9,4,5,15)           -54.5373         calculate D2E/DX2 analytically  !
 ! D43   D(11,4,5,1)           -53.282          calculate D2E/DX2 analytically  !
 ! D44   D(11,4,5,10)           66.3063         calculate D2E/DX2 analytically  !
 ! D45   D(11,4,5,15)         -174.2076         calculate D2E/DX2 analytically  !
 ! D46   D(16,4,5,1)          -170.4278         calculate D2E/DX2 analytically  !
 ! D47   D(16,4,5,10)          -50.8395         calculate D2E/DX2 analytically  !
 ! D48   D(16,4,5,15)           68.6465         calculate D2E/DX2 analytically  !
 ! D49   D(5,4,11,3)            59.9525         calculate D2E/DX2 analytically  !
 ! D50   D(9,4,11,3)           -59.7264         calculate D2E/DX2 analytically  !
 ! D51   D(16,4,11,3)         -177.0843         calculate D2E/DX2 analytically  !
 ! D52   D(5,4,16,17)          170.6593         calculate D2E/DX2 analytically  !
 ! D53   D(5,4,16,18)           59.4845         calculate D2E/DX2 analytically  !
 ! D54   D(5,4,16,19)          -65.6587         calculate D2E/DX2 analytically  !
 ! D55   D(9,4,16,17)          -66.0203         calculate D2E/DX2 analytically  !
 ! D56   D(9,4,16,18)         -177.1951         calculate D2E/DX2 analytically  !
 ! D57   D(9,4,16,19)           57.6616         calculate D2E/DX2 analytically  !
 ! D58   D(11,4,16,17)          51.5007         calculate D2E/DX2 analytically  !
 ! D59   D(11,4,16,18)         -59.6741         calculate D2E/DX2 analytically  !
 ! D60   D(11,4,16,19)         175.1826         calculate D2E/DX2 analytically  !
 ! D61   D(1,5,15,28)           99.3464         calculate D2E/DX2 analytically  !
 ! D62   D(4,5,15,28)         -137.8105         calculate D2E/DX2 analytically  !
 ! D63   D(10,5,15,28)         -19.0022         calculate D2E/DX2 analytically  !
 ! D64   D(3,12,79,80)        -176.0629         calculate D2E/DX2 analytically  !
 ! D65   D(3,12,79,81)         -56.8242         calculate D2E/DX2 analytically  !
 ! D66   D(3,12,79,82)          64.8163         calculate D2E/DX2 analytically  !
 ! D67   D(2,13,20,21)         -70.9302         calculate D2E/DX2 analytically  !
 ! D68   D(2,13,20,22)          51.2051         calculate D2E/DX2 analytically  !
 ! D69   D(2,13,20,23)         170.1876         calculate D2E/DX2 analytically  !
 ! D70   D(1,14,24,25)         -59.3998         calculate D2E/DX2 analytically  !
 ! D71   D(1,14,24,26)          62.5802         calculate D2E/DX2 analytically  !
 ! D72   D(1,14,24,27)        -177.8508         calculate D2E/DX2 analytically  !
 ! D73   D(5,15,28,29)         -57.4372         calculate D2E/DX2 analytically  !
 ! D74   D(5,15,28,30)          64.2471         calculate D2E/DX2 analytically  !
 ! D75   D(5,15,28,31)        -177.1749         calculate D2E/DX2 analytically  !
 ! D76   D(4,16,19,37)        -120.2334         calculate D2E/DX2 analytically  !
 ! D77   D(4,16,19,83)          -0.09           calculate D2E/DX2 analytically  !
 ! D78   D(17,16,19,37)         -0.7962         calculate D2E/DX2 analytically  !
 ! D79   D(17,16,19,83)        119.3471         calculate D2E/DX2 analytically  !
 ! D80   D(18,16,19,37)        118.493          calculate D2E/DX2 analytically  !
 ! D81   D(18,16,19,83)       -121.3636         calculate D2E/DX2 analytically  !
 ! D82   D(16,19,37,34)        -40.0587         calculate D2E/DX2 analytically  !
 ! D83   D(16,19,37,52)        135.0155         calculate D2E/DX2 analytically  !
 ! D84   D(16,19,37,60)         67.4235         calculate D2E/DX2 analytically  !
 ! D85   D(83,19,37,34)       -175.736          calculate D2E/DX2 analytically  !
 ! D86   D(83,19,37,52)         -0.6619         calculate D2E/DX2 analytically  !
 ! D87   D(83,19,37,60)        -68.2538         calculate D2E/DX2 analytically  !
 ! D88   D(16,19,53,51)        115.1513         calculate D2E/DX2 analytically  !
 ! D89   D(83,19,53,51)        -20.0811         calculate D2E/DX2 analytically  !
 ! D90   D(16,19,83,84)        127.8446         calculate D2E/DX2 analytically  !
 ! D91   D(37,19,83,84)        -87.6985         calculate D2E/DX2 analytically  !
 ! D92   D(15,28,31,84)        -46.7368         calculate D2E/DX2 analytically  !
 ! D93   D(29,28,31,84)       -166.7761         calculate D2E/DX2 analytically  !
 ! D94   D(30,28,31,84)         72.4902         calculate D2E/DX2 analytically  !
 ! D95   D(28,31,84,83)         15.0702         calculate D2E/DX2 analytically  !
 ! D96   D(28,31,84,85)        -91.6097         calculate D2E/DX2 analytically  !
 ! D97   D(28,31,84,89)        121.2249         calculate D2E/DX2 analytically  !
 ! D98   D(36,32,33,34)        -50.4357         calculate D2E/DX2 analytically  !
 ! D99   D(36,32,33,38)         63.2271         calculate D2E/DX2 analytically  !
 ! D100  D(36,32,33,44)       -175.9806         calculate D2E/DX2 analytically  !
 ! D101  D(39,32,33,34)         68.3649         calculate D2E/DX2 analytically  !
 ! D102  D(39,32,33,38)       -177.9722         calculate D2E/DX2 analytically  !
 ! D103  D(39,32,33,44)        -57.18           calculate D2E/DX2 analytically  !
 ! D104  D(45,32,33,34)       -168.8675         calculate D2E/DX2 analytically  !
 ! D105  D(45,32,33,38)        -55.2047         calculate D2E/DX2 analytically  !
 ! D106  D(45,32,33,44)         65.5876         calculate D2E/DX2 analytically  !
 ! D107  D(33,32,36,35)         55.2513         calculate D2E/DX2 analytically  !
 ! D108  D(33,32,36,41)        -66.0391         calculate D2E/DX2 analytically  !
 ! D109  D(33,32,36,46)        171.8263         calculate D2E/DX2 analytically  !
 ! D110  D(39,32,36,35)        -63.8252         calculate D2E/DX2 analytically  !
 ! D111  D(39,32,36,41)        174.8845         calculate D2E/DX2 analytically  !
 ! D112  D(39,32,36,46)         52.7498         calculate D2E/DX2 analytically  !
 ! D113  D(45,32,36,35)        175.3976         calculate D2E/DX2 analytically  !
 ! D114  D(45,32,36,41)         54.1072         calculate D2E/DX2 analytically  !
 ! D115  D(45,32,36,46)        -68.0275         calculate D2E/DX2 analytically  !
 ! D116  D(33,32,45,67)        -94.8021         calculate D2E/DX2 analytically  !
 ! D117  D(36,32,45,67)        146.4288         calculate D2E/DX2 analytically  !
 ! D118  D(39,32,45,67)         26.9837         calculate D2E/DX2 analytically  !
 ! D119  D(32,33,34,37)       -155.6815         calculate D2E/DX2 analytically  !
 ! D120  D(32,33,34,42)         40.5404         calculate D2E/DX2 analytically  !
 ! D121  D(32,33,34,53)        -66.0532         calculate D2E/DX2 analytically  !
 ! D122  D(38,33,34,37)         89.4078         calculate D2E/DX2 analytically  !
 ! D123  D(38,33,34,42)        -74.3703         calculate D2E/DX2 analytically  !
 ! D124  D(38,33,34,53)        179.036          calculate D2E/DX2 analytically  !
 ! D125  D(44,33,34,37)        -29.8847         calculate D2E/DX2 analytically  !
 ! D126  D(44,33,34,42)        166.3372         calculate D2E/DX2 analytically  !
 ! D127  D(44,33,34,53)         59.7436         calculate D2E/DX2 analytically  !
 ! D128  D(32,33,44,63)       -147.1081         calculate D2E/DX2 analytically  !
 ! D129  D(34,33,44,63)         87.3577         calculate D2E/DX2 analytically  !
 ! D130  D(38,33,44,63)        -28.4857         calculate D2E/DX2 analytically  !
 ! D131  D(33,34,37,19)        -83.3782         calculate D2E/DX2 analytically  !
 ! D132  D(33,34,37,52)        102.8476         calculate D2E/DX2 analytically  !
 ! D133  D(33,34,37,60)       -173.8577         calculate D2E/DX2 analytically  !
 ! D134  D(42,34,37,19)         81.2229         calculate D2E/DX2 analytically  !
 ! D135  D(42,34,37,52)        -92.5513         calculate D2E/DX2 analytically  !
 ! D136  D(42,34,37,60)         -9.2566         calculate D2E/DX2 analytically  !
 ! D137  D(33,34,42,35)        -32.2216         calculate D2E/DX2 analytically  !
 ! D138  D(37,34,42,35)        163.2898         calculate D2E/DX2 analytically  !
 ! D139  D(53,34,42,35)         74.5731         calculate D2E/DX2 analytically  !
 ! D140  D(33,34,53,51)       -145.1599         calculate D2E/DX2 analytically  !
 ! D141  D(42,34,53,51)         90.7795         calculate D2E/DX2 analytically  !
 ! D142  D(40,35,36,32)         68.5408         calculate D2E/DX2 analytically  !
 ! D143  D(40,35,36,41)       -170.9233         calculate D2E/DX2 analytically  !
 ! D144  D(40,35,36,46)        -51.9394         calculate D2E/DX2 analytically  !
 ! D145  D(42,35,36,32)        -46.3049         calculate D2E/DX2 analytically  !
 ! D146  D(42,35,36,41)         74.231          calculate D2E/DX2 analytically  !
 ! D147  D(42,35,36,46)       -166.7851         calculate D2E/DX2 analytically  !
 ! D148  D(47,35,36,32)       -167.7145         calculate D2E/DX2 analytically  !
 ! D149  D(47,35,36,41)        -47.1786         calculate D2E/DX2 analytically  !
 ! D150  D(47,35,36,46)         71.8053         calculate D2E/DX2 analytically  !
 ! D151  D(36,35,42,34)         34.3958         calculate D2E/DX2 analytically  !
 ! D152  D(40,35,42,34)        -82.7277         calculate D2E/DX2 analytically  !
 ! D153  D(47,35,42,34)        159.8495         calculate D2E/DX2 analytically  !
 ! D154  D(36,35,47,48)         75.0692         calculate D2E/DX2 analytically  !
 ! D155  D(36,35,47,49)        -43.0612         calculate D2E/DX2 analytically  !
 ! D156  D(36,35,47,50)       -166.4912         calculate D2E/DX2 analytically  !
 ! D157  D(40,35,47,48)       -162.8366         calculate D2E/DX2 analytically  !
 ! D158  D(40,35,47,49)         79.033          calculate D2E/DX2 analytically  !
 ! D159  D(40,35,47,50)        -44.3971         calculate D2E/DX2 analytically  !
 ! D160  D(42,35,47,48)        -50.0628         calculate D2E/DX2 analytically  !
 ! D161  D(42,35,47,49)       -168.1932         calculate D2E/DX2 analytically  !
 ! D162  D(42,35,47,50)         68.3768         calculate D2E/DX2 analytically  !
 ! D163  D(32,36,46,71)         95.9356         calculate D2E/DX2 analytically  !
 ! D164  D(35,36,46,71)       -143.5466         calculate D2E/DX2 analytically  !
 ! D165  D(41,36,46,71)        -25.0385         calculate D2E/DX2 analytically  !
 ! D166  D(19,37,52,51)       -158.7512         calculate D2E/DX2 analytically  !
 ! D167  D(34,37,52,51)         14.9011         calculate D2E/DX2 analytically  !
 ! D168  D(53,37,52,51)         19.979          calculate D2E/DX2 analytically  !
 ! D169  D(60,37,52,51)        -84.3282         calculate D2E/DX2 analytically  !
 ! D170  D(52,37,53,51)        -19.8698         calculate D2E/DX2 analytically  !
 ! D171  D(60,37,53,51)         48.2773         calculate D2E/DX2 analytically  !
 ! D172  D(19,37,60,56)       -169.4453         calculate D2E/DX2 analytically  !
 ! D173  D(34,37,60,56)        -58.6706         calculate D2E/DX2 analytically  !
 ! D174  D(52,37,60,56)         72.6139         calculate D2E/DX2 analytically  !
 ! D175  D(53,37,60,56)         10.2389         calculate D2E/DX2 analytically  !
 ! D176  D(33,44,63,64)        -48.1254         calculate D2E/DX2 analytically  !
 ! D177  D(33,44,63,65)         72.9746         calculate D2E/DX2 analytically  !
 ! D178  D(33,44,63,66)       -168.5746         calculate D2E/DX2 analytically  !
 ! D179  D(32,45,67,68)        -60.1311         calculate D2E/DX2 analytically  !
 ! D180  D(32,45,67,69)         61.7374         calculate D2E/DX2 analytically  !
 ! D181  D(32,45,67,70)       -178.6732         calculate D2E/DX2 analytically  !
 ! D182  D(36,46,71,72)        -61.7053         calculate D2E/DX2 analytically  !
 ! D183  D(36,46,71,73)         60.252          calculate D2E/DX2 analytically  !
 ! D184  D(36,46,71,74)        178.6846         calculate D2E/DX2 analytically  !
 ! D185  D(35,47,50,75)         77.0695         calculate D2E/DX2 analytically  !
 ! D186  D(48,47,50,75)       -163.1581         calculate D2E/DX2 analytically  !
 ! D187  D(49,47,50,75)        -44.5489         calculate D2E/DX2 analytically  !
 ! D188  D(47,50,75,76)        174.1046         calculate D2E/DX2 analytically  !
 ! D189  D(47,50,75,77)        -67.3915         calculate D2E/DX2 analytically  !
 ! D190  D(47,50,75,78)         54.7575         calculate D2E/DX2 analytically  !
 ! D191  D(43,51,52,37)       -161.9619         calculate D2E/DX2 analytically  !
 ! D192  D(53,51,52,37)        -31.5719         calculate D2E/DX2 analytically  !
 ! D193  D(54,51,52,37)         81.1507         calculate D2E/DX2 analytically  !
 ! D194  D(43,51,53,34)        172.3542         calculate D2E/DX2 analytically  !
 ! D195  D(43,51,53,37)        161.3892         calculate D2E/DX2 analytically  !
 ! D196  D(52,51,53,34)         40.723          calculate D2E/DX2 analytically  !
 ! D197  D(52,51,53,37)         29.758          calculate D2E/DX2 analytically  !
 ! D198  D(54,51,53,34)        -71.7229         calculate D2E/DX2 analytically  !
 ! D199  D(54,51,53,37)        -82.6879         calculate D2E/DX2 analytically  !
 ! D200  D(43,51,54,55)         26.6481         calculate D2E/DX2 analytically  !
 ! D201  D(43,51,54,56)       -157.4205         calculate D2E/DX2 analytically  !
 ! D202  D(52,51,54,55)        149.1372         calculate D2E/DX2 analytically  !
 ! D203  D(52,51,54,56)        -34.9314         calculate D2E/DX2 analytically  !
 ! D204  D(53,51,54,55)        -93.2688         calculate D2E/DX2 analytically  !
 ! D205  D(53,51,54,56)         82.6625         calculate D2E/DX2 analytically  !
 ! D206  D(51,54,55,57)        176.0303         calculate D2E/DX2 analytically  !
 ! D207  D(51,54,55,58)         -4.466          calculate D2E/DX2 analytically  !
 ! D208  D(56,54,55,57)          0.1619         calculate D2E/DX2 analytically  !
 ! D209  D(56,54,55,58)        179.6656         calculate D2E/DX2 analytically  !
 ! D210  D(51,54,56,59)       -175.3184         calculate D2E/DX2 analytically  !
 ! D211  D(51,54,56,60)          1.8816         calculate D2E/DX2 analytically  !
 ! D212  D(55,54,56,59)          0.5764         calculate D2E/DX2 analytically  !
 ! D213  D(55,54,56,60)        177.7764         calculate D2E/DX2 analytically  !
 ! D214  D(54,55,57,61)         -0.3188         calculate D2E/DX2 analytically  !
 ! D215  D(54,55,57,93)       -176.3098         calculate D2E/DX2 analytically  !
 ! D216  D(58,55,57,61)       -179.8169         calculate D2E/DX2 analytically  !
 ! D217  D(58,55,57,93)          4.1921         calculate D2E/DX2 analytically  !
 ! D218  D(54,56,59,61)         -1.1778         calculate D2E/DX2 analytically  !
 ! D219  D(54,56,59,97)        178.4615         calculate D2E/DX2 analytically  !
 ! D220  D(60,56,59,61)       -178.4323         calculate D2E/DX2 analytically  !
 ! D221  D(60,56,59,97)          1.207          calculate D2E/DX2 analytically  !
 ! D222  D(54,56,60,37)        -34.2135         calculate D2E/DX2 analytically  !
 ! D223  D(59,56,60,37)        142.9887         calculate D2E/DX2 analytically  !
 ! D224  D(55,57,61,59)         -0.2657         calculate D2E/DX2 analytically  !
 ! D225  D(55,57,61,62)       -179.4837         calculate D2E/DX2 analytically  !
 ! D226  D(93,57,61,59)        175.7719         calculate D2E/DX2 analytically  !
 ! D227  D(93,57,61,62)         -3.4462         calculate D2E/DX2 analytically  !
 ! D228  D(55,57,93,94)        -24.0636         calculate D2E/DX2 analytically  !
 ! D229  D(55,57,93,95)       -145.3015         calculate D2E/DX2 analytically  !
 ! D230  D(55,57,93,96)         95.7017         calculate D2E/DX2 analytically  !
 ! D231  D(61,57,93,94)        159.871          calculate D2E/DX2 analytically  !
 ! D232  D(61,57,93,95)         38.6332         calculate D2E/DX2 analytically  !
 ! D233  D(61,57,93,96)        -80.3637         calculate D2E/DX2 analytically  !
 ! D234  D(56,59,61,57)          1.0212         calculate D2E/DX2 analytically  !
 ! D235  D(56,59,61,62)       -179.7599         calculate D2E/DX2 analytically  !
 ! D236  D(97,59,61,57)       -178.602          calculate D2E/DX2 analytically  !
 ! D237  D(97,59,61,62)          0.6169         calculate D2E/DX2 analytically  !
 ! D238  D(56,59,97,98)        -52.9957         calculate D2E/DX2 analytically  !
 ! D239  D(56,59,97,99)       -174.4099         calculate D2E/DX2 analytically  !
 ! D240  D(56,59,97,100)        65.1527         calculate D2E/DX2 analytically  !
 ! D241  D(61,59,97,98)        126.64           calculate D2E/DX2 analytically  !
 ! D242  D(61,59,97,99)          5.2258         calculate D2E/DX2 analytically  !
 ! D243  D(61,59,97,100)      -115.2116         calculate D2E/DX2 analytically  !
 ! D244  D(19,83,84,31)        -72.4651         calculate D2E/DX2 analytically  !
 ! D245  D(19,83,84,85)         28.7162         calculate D2E/DX2 analytically  !
 ! D246  D(19,83,84,89)        154.6731         calculate D2E/DX2 analytically  !
 ! D247  D(31,84,85,86)        -96.6861         calculate D2E/DX2 analytically  !
 ! D248  D(31,84,85,87)         22.2252         calculate D2E/DX2 analytically  !
 ! D249  D(31,84,85,88)        141.4831         calculate D2E/DX2 analytically  !
 ! D250  D(83,84,85,86)       -174.392          calculate D2E/DX2 analytically  !
 ! D251  D(83,84,85,87)        -55.4807         calculate D2E/DX2 analytically  !
 ! D252  D(83,84,85,88)         63.7772         calculate D2E/DX2 analytically  !
 ! D253  D(89,84,85,86)         59.0656         calculate D2E/DX2 analytically  !
 ! D254  D(89,84,85,87)        177.9769         calculate D2E/DX2 analytically  !
 ! D255  D(89,84,85,88)        -62.7652         calculate D2E/DX2 analytically  !
 ! D256  D(31,84,89,90)       -152.8715         calculate D2E/DX2 analytically  !
 ! D257  D(31,84,89,91)        -33.4679         calculate D2E/DX2 analytically  !
 ! D258  D(31,84,89,92)         85.4337         calculate D2E/DX2 analytically  !
 ! D259  D(83,84,89,90)        -63.5569         calculate D2E/DX2 analytically  !
 ! D260  D(83,84,89,91)         55.8467         calculate D2E/DX2 analytically  !
 ! D261  D(83,84,89,92)        174.7483         calculate D2E/DX2 analytically  !
 ! D262  D(85,84,89,90)         61.3586         calculate D2E/DX2 analytically  !
 ! D263  D(85,84,89,91)       -179.2378         calculate D2E/DX2 analytically  !
 ! D264  D(85,84,89,92)        -60.3362         calculate D2E/DX2 analytically  !
 --------------------------------------------------------------------------------
 Trust Radius=5.00D-02 FncErr=1.00D-07 GrdErr=1.00D-06 EigMax=2.50D+02 EigMin=1.00D-04
 Number of steps in this run=    582 maximum allowed number of steps=    600.
 Search for a saddle point of order  1.
 Step   0 in ReCalcFC=30 IGetFC= 4 compute analytic Hessian.
 GradGradGradGradGradGradGradGradGradGradGradGradGradGradGradGradGradGrad

 Leave Link  103 at Thu May 30 18:50:09 2019, MaxMem=  6442450944 cpu:               3.8 elap:               0.2
 (Enter /home/ekwan/sw/g16/l202.exe)
 Stoichiometry    C30H47F6NaO15S
 Framework group  C1[X(C30H47F6NaO15S)]
 Deg. of freedom   294
 Full point group                 C1      NOp   1
 Largest Abelian subgroup         C1      NOp   1
 Largest concise Abelian subgroup C1      NOp   1
                         Standard orientation:                         
 ---------------------------------------------------------------------
 Center     Atomic      Atomic             Coordinates (Angstroms)
 Number     Number       Type             X           Y           Z
 ---------------------------------------------------------------------
      1          6           0       -5.344193   -0.037102   -0.017252
      2          6           0       -5.786298    0.565213   -1.348804
      3          6           0       -4.597326    1.221792   -2.068814
      4          6           0       -2.995373   -0.214632   -0.961608
      5          6           0       -4.116265   -0.934849   -0.196350
      6          1           0       -4.856929    1.471590   -3.106326
      7          1           0       -6.141573   -0.253439   -1.994989
      8          1           0       -5.076460    0.776764    0.669291
      9          1           0       -2.611276    0.615785   -0.355459
     10          1           0       -4.406523   -1.821711   -0.775989
     11          8           0       -3.535336    0.298516   -2.196272
     12          8           0       -4.246246    2.382629   -1.367927
     13          8           0       -6.847315    1.464037   -1.084025
     14          8           0       -6.388714   -0.825617    0.543759
     15          8           0       -3.667196   -1.348804    1.100819
     16          6           0       -1.821654   -1.124921   -1.382823
     17          1           0       -1.203693   -0.495544   -2.059723
     18          1           0       -2.265790   -1.912261   -2.033023
     19          8           0       -1.097263   -1.638565   -0.336954
     20          6           0       -7.510876    1.939099   -2.243134
     21          1           0       -6.886376    2.635005   -2.819481
     22          1           0       -7.815939    1.110178   -2.898981
     23          1           0       -8.402444    2.470182   -1.901320
     24          6           0       -7.161719   -0.161967    1.533747
     25          1           0       -6.532054    0.164046    2.374730
     26          1           0       -7.684845    0.706033    1.119464
     27          1           0       -7.891437   -0.889174    1.899913
     28          6           0       -4.099460   -2.663583    1.462226
     29          1           0       -5.189001   -2.733043    1.429594
     30          1           0       -3.658693   -3.409695    0.786313
     31          1           0       -3.741269   -2.840131    2.478604
     32          6           0        3.144653   -2.976408   -1.708334
     33          6           0        1.758486   -3.019160   -1.056483
     34          6           0        1.379905   -1.686384   -0.487518
     35          6           0        2.834326   -0.474828   -1.958050
     36          6           0        3.195348   -1.782757   -2.670805
     37          1           0        0.670468   -1.614759    0.306555
     38          1           0        1.032048   -3.192614   -1.868650
     39          1           0        3.908134   -2.841358   -0.932473
     40          1           0        3.637681   -0.238961   -1.255702
     41          1           0        2.492792   -1.966509   -3.497367
     42          8           0        1.641527   -0.588838   -1.115235
     43          8           0        3.100899   -0.815794    3.484690
     44          8           0        1.664414   -4.034835   -0.091659
     45          8           0        3.382433   -4.151220   -2.456343
     46          8           0        4.505285   -1.575754   -3.165169
     47          6           0        2.578509    0.687600   -2.906973
     48          1           0        1.599185    0.553498   -3.376124
     49          1           0        3.353657    0.664080   -3.685209
     50          8           0        2.546614    1.942307   -2.257835
     51         16           0        2.250272   -0.821545    2.282028
     52          8           0        0.841838   -1.273131    2.500775
     53          8           0        2.893122   -1.536809    1.113333
     54          6           0        2.092535    0.889275    1.744262
     55          6           0        3.095003    1.808347    2.049382
     56          6           0        1.008404    1.255628    0.954531
     57          6           0        2.997107    3.108161    1.554142
     58          1           0        3.930705    1.509419    2.670424
     59          6           0        0.934107    2.553620    0.455288
     60          1           0        0.243403    0.538546    0.683121
     61          6           0        1.915783    3.490431    0.756775
     62          1           0        1.848868    4.499039    0.367809
     63          6           0        0.353298   -4.607730   -0.010349
     64          1           0       -0.412757   -3.825212    0.043983
     65          1           0        0.161038   -5.242720   -0.887080
     66          1           0        0.340372   -5.223055    0.891187
     67          6           0        4.089816   -5.165690   -1.746429
     68          1           0        5.076145   -4.803140   -1.425841
     69          1           0        3.526826   -5.503941   -0.871576
     70          1           0        4.222464   -5.994946   -2.445012
     71          6           0        4.764057   -2.171707   -4.434872
     72          1           0        4.656817   -3.258916   -4.391108
     73          1           0        4.088005   -1.769492   -5.202345
     74          1           0        5.792639   -1.908998   -4.691630
     75          6           0        3.832472    2.443692   -1.923043
     76          1           0        3.689167    3.450660   -1.529755
     77          1           0        4.328057    1.842526   -1.148866
     78          1           0        4.483323    2.486446   -2.808196
     79          6           0       -3.376413    3.234690   -2.108402
     80          1           0       -3.110496    4.064641   -1.452393
     81          1           0       -2.467419    2.708152   -2.409899
     82          1           0       -3.885457    3.622025   -3.002443
     83         11           0       -1.421832   -1.308827    1.801802
     84          8           0       -1.683743   -2.572774    3.760978
     85          6           0       -0.986870   -3.811158    3.640171
     86          1           0       -1.184147   -4.452130    4.509657
     87          1           0       -1.361901   -4.300817    2.738343
     88          1           0        0.091960   -3.639239    3.543348
     89          6           0       -1.306476   -1.861095    4.937797
     90          1           0       -0.237749   -1.616700    4.915087
     91          1           0       -1.893839   -0.939846    4.956712
     92          1           0       -1.531716   -2.452871    5.834962
     93          6           0        4.104622    4.094064    1.799121
     94          9           0        4.834202    3.782464    2.888802
     95          9           0        3.632376    5.348790    1.965080
     96          9           0        4.962114    4.138146    0.747341
     97          6           0       -0.236732    2.890047   -0.420629
     98          9           0       -0.356422    2.010843   -1.441792
     99          9           0       -0.159380    4.125742   -0.949814
    100          9           0       -1.402154    2.823511    0.278325
 ---------------------------------------------------------------------
 Rotational constants (GHZ):           0.0571406           0.0373777           0.0326275
 Leave Link  202 at Thu May 30 18:50:09 2019, MaxMem=  6442450944 cpu:               3.8 elap:               0.2
 (Enter /home/ekwan/sw/g16/l301.exe)
 Standard basis: 6-31G(d) (6D, 7F)
 Ernie: Thresh=  0.10000D-02 Tol=  0.10000D-05 Strict=F.
 There are   897 symmetry adapted cartesian basis functions of A   symmetry.
 There are   897 symmetry adapted basis functions of A   symmetry.
   897 basis functions,  1720 primitive gaussians,   897 cartesian basis functions
   214 alpha electrons      214 beta electrons
       nuclear repulsion energy      9473.3965900044 Hartrees.
 IExCor=  402 DFT=T Ex+Corr=B3LYP ExCW=0 ScaHFX=  0.200000
 ScaDFX=  0.800000  0.720000  1.000000  0.810000 ScalE2=  1.000000  1.000000
 IRadAn=      5 IRanWt=     -1 IRanGd=            0 ICorTp=0 IEmpDi=141
 NAtoms=  100 NActive=  100 NUniq=  100 SFac= 1.00D+00 NAtFMM=   60 NAOKFM=T Big=T
 Integral buffers will be    131072 words long.
 Raffenetti 2 integral format.
 Two-electron integral symmetry is turned on.
 R6Disp:  Grimme-D3(BJ) Dispersion energy=       -0.2271684850 Hartrees.
 Nuclear repulsion after empirical dispersion term =     9473.1694215194 Hartrees.
 Force inversion solution in PCM.
 ------------------------------------------------------------------------------
 Polarizable Continuum Model (PCM)
 =================================
 Model                : PCM.
 Atomic radii         : UFF (Universal Force Field).
 Polarization charges : Total charges.
 Charge compensation  : None.
 Solution method      : Matrix inversion.
 Cavity type          : Scaled VdW (van der Waals Surface) (Alpha=1.100).
 Cavity algorithm     : GePol (No added spheres)
                        Default sphere list used, NSphG=  100.
[...]
 021607,-0.00004150,0.00011772,-0.00020283,0.00007792,0.00017781,-0.000
 07287,0.00020341,-0.00029328,0.00009720,-0.00012204,-0.00000054,0.0000
 6907,-0.00018718,0.00008926,0.00001703,0.00002375,0.00054597,0.0003067
 7,0.00023861,-0.00007222,0.00226131,0.00072061,-0.00024764,-0.00066713
 ,-0.00032655,0.00031260,-0.00076976,0.00022225,-0.00029005,-0.00174107
 ,-0.00002216,0.00027494,0.00016430,-0.00006137,0.00483478,0.00155475,-
 0.00340766,0.00120999,0.00063570,-0.00054698,0.00002880,0.00018156,0.0
 0001308,-0.00068260,-0.02534341,-0.01557654,-0.00023967,0.00075116,0.0
 0025112,-0.00342937,-0.00282775,0.00150433,0.00126807,0.00194786,-0.00
 024389,0.00008265,0.00008564,-0.00001319,-0.00000292,0.00006231,0.0000
 2784,-0.00001155,-0.00002684,0.00002363,-0.00000221,-0.00002322,-0.000
 01748,-0.00007018,0.00007876,0.00005059,0.00001446,-0.00000361,-0.0000
 1396,0.00000087,0.00000427,-0.00001068,0.00000956,-0.00002123,0.000004
 13,-0.00001605,0.00004718,-0.00014484,-0.00000292,-0.00001339,0.000015
 07,-0.00001362,-0.00000277,0.00001979,0.00001935,-0.00000567,0.0000206
 3,-0.00019332,-0.00028152,0.00012530,0.00005234,-0.00002623,-0.0001089
 4,-0.00001388,0.00009076,-0.00002932,0.00011238,0.00000917,0.00005790,
 0.00032396,-0.00070627,0.00053767,-0.00068577,-0.00000697,-0.00027274,
 0.00018257,-0.00003607,-0.00053998,-0.00024173,0.00013612,0.00000121,0
 .00026430,0.00037694,0.00025099,-0.00002012,-0.00007011,-0.00008375,0.
 00000843,0.00007628,0.00000977,-0.00001174,-0.00001832,-0.00002066,0.0
 0000487,0.00000484,0.00000831,-0.00001435,0.00001907,0.00002062,0.0000
 2731,-0.00001424,0.00005528,-0.00001575,0.00001354,0.00002540,0.000007
 43,0.00000091,0.00001375,-0.00001286,-0.00002113,-0.00002201,-0.000850
 06,-0.00146543,-0.00002472,0.00034822,0.00024686,-0.00016263,0.0000676
 0,0.00063007,-0.00004618,0.00044421,0.00032971,0.00021931,0.01324249,-
 0.23013050,-0.08312639,-0.00732995,-0.07357618,0.01523451,0.02091728,0
 .34468952,0.00006172,0.00002529,-0.00004408,0.00000711,0.00001052,-0.0
 0004630,0.00014342,-0.00021823,0.00007641,0.00020758,0.00019151,-0.000
 46536,0.00004915,-0.00005895,0.00004697,-0.00002911,0.00000870,0.00002
 279,0.00000563,0.00000853,0.00001555,0.00001749,-0.00001512,0.00001081
 ,-0.00002951,0.00003099,0.00005038,-0.00003654,-0.00003608,0.00000105,
 -0.00020638,0.00014969,0.00024232,0.00026387,0.00036984,0.00015907,-0.
 00003458,0.00003111,0.00003996,-0.00005097,-0.00000865,0.00002109,-0.0
 0006997,-0.00005017,0.00001927,-0.00002476,-0.00020304,-0.00037854,0.0
 0008288,0.00006501,0.00013955,-0.00001106,-0.00002557,0.00011228,-0.00
 024107,-0.00014135,0.00031276,0.00000665,-0.00001964,-0.00004089,0.000
 00327,0.00000675,0.00000894,-0.00000136,-0.00000083,0.00000573,-0.0000
 0117,0.00000223,0.00000295,0.00002378,0.00000094,-0.00001064,-0.000003
 59,-0.00000077,0.00000959,-0.00000453,0.00000482,-0.00000226,-0.000005
 96,-0.00000399,-0.00000151,0.00001686,0.00007212,0.00001889,-0.0000103
 7,-0.00001089,-0.00000187,0.00000370,-0.00001296,0.00000479,0.00000633
 ,0.00000216,-0.00000165,-0.00005941,0.00002908,-0.00007573,0.00002394,
 0.00006117,0.00003040,0.00027339,0.00010085,-0.00045179,-0.00018496,-0
 .00007856,-0.00024863,-0.00000201,0.00002531,-0.00003171,-0.00000895,0
 .00008376,-0.00000958,-0.00000014,-0.00002632,0.00000220,-0.00001742,0
 .00001378,-0.00000044,-0.00000945,0.00000576,0.00000513,-0.00000176,-0
 .00001222,0.00001568,0.00006920,0.00001725,0.00038622,0.00040004,-0.00
 072967,-0.00057959,-0.00002664,-0.00007346,0.00002458,0.00003350,-0.00
 005714,0.00005694,0.00004891,-0.00000308,0.00009576,0.00002185,-0.0001
 7034,-0.00000904,-0.00002612,-0.00002995,0.00001933,-0.00000243,0.0000
 2898,0.00000676,-0.00024031,0.00022462,0.00012306,-0.00014674,0.002432
 51,0.00013246,-0.00031028,-0.00067530,-0.00015777,0.00020388,-0.000846
 16,0.00058127,-0.00025667,-0.00187287,-0.00065395,0.00031966,-0.000199
 70,-0.00017976,0.00561033,0.00109946,-0.00220911,0.00023621,-0.0002422
 4,-0.00017084,0.00000181,0.00003857,-0.00001993,0.00088431,-0.03142180
 ,-0.00621411,-0.00013004,0.00022778,0.00005876,-0.00058723,-0.00100741
 ,-0.00030429,0.00122481,-0.00028665,-0.00118807,0.00004059,0.00004146,
 -0.00000787,0.00000282,0.00001645,0.00000103,-0.00000522,-0.00001539,0
 .00001256,-0.00000229,-0.00000331,-0.00000454,-0.00001387,0.00002194,0
 .00000705,0.00000120,-0.00000197,-0.00000484,0.00000087,0.00000534,-0.
 00000211,0.00000284,-0.00000734,0.00000321,0.00000652,0.00000796,-0.00
 005851,-0.00000213,-0.00000147,0.00000411,-0.00000902,0.00000006,0.000
 01378,0.00000477,-0.00000338,0.00000625,0.00017897,0.00005181,-0.00010
 924,0.00004157,-0.00005798,-0.00009589,-0.00010030,0.00007768,0.000011
 95,-0.00002783,-0.00002695,0.00004865,-0.00043822,-0.00010525,-0.00026
 544,-0.00015011,0.00007020,-0.00027573,0.00003188,-0.00034999,0.000216
 57,0.00010547,-0.00000005,0.00000152,0.00020305,0.00028447,0.00000750,
 -0.00002438,-0.00007462,-0.00002576,0.00000832,0.00006352,-0.00000344,
 -0.00000813,-0.00001427,-0.00001235,-0.00000125,-0.00000345,0.00000817
 ,-0.00001083,0.00001452,0.00001252,0.00002712,0.00001431,0.00001621,-0
 .00001765,0.00001201,0.00002243,0.00001174,-0.00000314,0.00001103,-0.0
 0001164,-0.00001925,-0.00001194,-0.00109678,-0.00107444,0.00005969,0.0
 0037643,0.00018294,-0.00020449,0.00016196,0.00044879,-0.00005367,0.000
 46601,0.00027155,0.00024188,0.01180361,-0.07762280,-0.11328127,0.00074
 460,0.02972363,0.01667636,0.00648958,0.11460464,0.12497008,0.00033898,
 0.00028802,0.00005198,0.00037169,-0.00004202,0.00001638,0.00086204,0.0
 0129090,-0.00084182,0.00088283,0.00151114,-0.00217094,0.00004227,-0.00
 016051,0.00074342,-0.00009560,-0.00013654,0.00023993,-0.00010676,-0.00
 006958,0.00000502,0.00002957,-0.00004760,0.00009557,-0.00030865,-0.000
 26909,0.00087069,-0.00021072,-0.00021492,-0.00008684,-0.00033451,-0.00
 055968,0.00078059,-0.00108230,-0.00031868,0.00163634,-0.00037494,0.000
 04518,0.00010679,-0.00035314,-0.00019130,-0.00018075,0.00005410,-0.000
 41019,-0.00025516,-0.00118500,0.00008433,0.00023574,0.00018648,0.00001
 899,0.00016555,0.00030599,-0.00020166,0.00011979,0.00110351,-0.0001333
 3,-0.00027700,0.00018512,-0.00002422,-0.00020599,0.00000607,-0.0000030
 5,0.00000275,-0.00001933,-0.00003565,0.00004424,-0.00003662,0.00001687
 ,0.00000296,0.00013549,-0.00005590,0.00009451,-0.00000366,0.00002598,0
 .00000633,0.00000087,0.00002729,-0.00001073,-0.00004442,-0.00002182,-0
 .00002555,0.00006483,0.00034281,0.00005938,-0.00002213,-0.00003095,0.0
 0000437,-0.00001079,-0.00007326,0.00003072,-0.00001301,-0.00003067,-0.
 00003331,0.00004844,-0.00010339,0.00003099,-0.00010965,-0.00009827,-0.
 00003912,-0.00098115,-0.00093480,0.00010492,0.00021446,0.00005000,0.00
 012399,0.00006550,-0.00009659,0.00014703,-0.00002901,-0.00010322,-0.00
 004588,0.00001162,0.00002024,0.00000473,0.00002878,-0.00001555,0.00000
 117,0.00005275,-0.00002657,0.00002915,-0.00000418,0.00000739,-0.000027
 25,-0.00003062,0.00093009,-0.00002197,-0.00035803,0.00098970,0.0007637
 2,0.00012660,0.00020031,0.00004069,-0.00006055,0.00019365,-0.00004553,
 -0.00011252,0.00011184,-0.00015605,0.00008013,-0.00054949,0.00032189,0
 .00001717,-0.00001822,0.00007452,-0.00008105,0.00006643,-0.00006843,-0
 .00059939,0.00026034,-0.00054896,-0.00006559,-0.00371383,-0.00100996,0
 .00087388,0.00109097,0.00042875,-0.00015643,0.00134854,-0.00058740,0.0
 0034563,-0.00009213,0.00154685,-0.00123445,-0.00011487,0.00017805,-0.0
 0054610,-0.00302081,0.00053339,-0.00078959,-0.00075318,0.00283550,-0.0
 0005182,0.00003733,-0.00017535,-0.04827672,-0.00223494,-0.01711985,-0.
 00087372,0.00075099,-0.00080413,-0.00123172,0.00581225,0.00065928,-0.0
 0019019,0.00027513,-0.00112512,-0.00014905,-0.00008032,-0.00000912,0.0
 0000438,0.00000333,0.00000249,0.00002060,0.00001782,-0.00001636,0.0000
 1178,0.00001050,0.00000841,0.00004417,-0.00006755,-0.00004343,-0.00000
 392,0.00000525,0.00001013,-0.00000290,0.00000162,0.00001344,-0.0000093
 0,0.00001939,-0.00000406,0.00001827,-0.00005550,0.00013688,-0.00000150
 ,0.00002032,-0.00001468,0.00000873,-0.00000332,-0.00001503,-0.00001035
 ,0.00000201,-0.00001640,0.00025990,0.00003169,0.00000474,0.00007301,0.
 00016204,0.00010912,0.00003539,-0.00006187,0.00006942,-0.00010591,0.00
 005899,-0.00014800,-0.00053738,0.00113454,-0.00026818,0.00010352,-0.00
 142379,0.00047409,-0.00042528,0.00038833,-0.00029089,-0.00069249,-0.00
 047801,0.00042494,-0.00060260,0.00046411,-0.00003501,0.00012265,-0.000
 06198,0.00002219,-0.00010808,0.00006021,-0.00001138,0.00002090,-0.0000
 0959,0.00000580,-0.00000388,-0.00000916,-0.00000242,0.00004509,-0.0000
 3785,-0.00002066,-0.00010111,0.00005232,-0.00000304,0.00002763,-0.0000
 0382,-0.00003084,0.00002273,-0.00002259,0.00002313,0.00001745,-0.00001
 242,0.00000180,0.00217807,0.00236357,-0.00010620,-0.00109007,-0.000452
 39,0.00067867,-0.00027898,-0.00091443,0.00019561,-0.00080036,-0.000468
 34,-0.00030835,-0.21284107,0.00089408,-0.05797601,-0.00293333,0.016523
 39,-0.03330951,-0.01267487,-0.03028934,-0.02627005,0.28390743,0.000171
 33,-0.00005415,0.00004888,0.00010888,0.00000919,-0.00004646,0.00054947
 ,-0.00042502,0.00007454,0.00050020,0.00077614,-0.00160451,0.00005082,-
 0.00017287,0.00058624,-0.00006114,0.00002905,0.00004055,0.00000044,0.0
 0000877,0.00000442,-0.00001540,-0.00000066,0.00000130,-0.00043612,-0.0
 0175535,0.00105449,-0.00015848,-0.00011489,-0.00008575,-0.00059401,0.0
 0024969,0.00058464,-0.00010553,0.00053153,-0.00001440,-0.00014457,0.00
 007626,0.00002338,-0.00017477,0.00001068,-0.00010893,-0.00002244,-0.00
 012245,-0.00016428,-0.00032736,0.00019520,0.00018627,-0.00001296,0.000
 01612,-0.00010616,0.00003673,-0.00018871,0.00010249,0.00020348,-0.0003
 0586,-0.00011997,0.00003280,-0.00002360,-0.00006593,0.00000357,0.00000
 054,0.00001342,-0.00000085,0.00000047,0.00001006,-0.00001483,0.0000060
 8,0.00000474,0.00004389,-0.00005136,0.00007514,0.00000439,0.00000845,-
 0.00001025,-0.00001110,0.00001461,-0.00000596,-0.00001496,0.00000060,-
 0.00001421,0.00003736,0.00015068,0.00003088,-0.00001402,-0.00001939,0.
 00000233,-0.00000088,-0.00001352,0.00000600,0.00000084,-0.00001881,-0.
 00001466,-0.00005014,0.00003300,-0.00003280,-0.00001111,0.00005272,0.0
 0005824,-0.00020833,0.00007271,0.00004046,-0.00014553,-0.00000474,-0.0
 0008881,-0.00003035,0.00002271,-0.00003962,-0.00002137,0.00003557,0.00
 000312,0.00001257,-0.00001560,-0.00000647,0.00000496,0.00000224,0.0000
 0209,0.00001301,-0.00000424,0.00000101,0.00000476,0.00000199,-0.000000
 45,0.00014069,-0.00001031,0.00004199,0.00005762,0.00000143,-0.00011869
 ,0.00000190,-0.00006171,-0.00001897,0.00004120,-0.00006420,0.00002018,
 0.00005646,-0.00002125,0.00005622,-0.00011913,0.00005120,-0.00002182,-
 0.00001147,0.00004602,-0.00009110,0.00002822,0.00000142,0.00000568,0.0
 0015625,0.00009032,0.00001514,-0.00017502,0.00016017,0.00032421,0.0000
 3575,-0.00009702,-0.00010304,0.00010221,-0.00006006,-0.00010320,-0.000
 46272,0.00026474,0.00112523,0.00031308,0.00060975,-0.00001388,-0.00054
 917,-0.00071894,-0.00044672,0.00085935,0.00031516,-0.00048850,-0.00001
 549,0.00005329,-0.00004969,0.00639954,0.01186053,0.00123961,-0.0001825
 1,0.00061994,-0.00026200,0.00078341,-0.00182981,-0.00006449,0.00020323
 ,0.00019799,-0.00021045,0.00001103,0.00002398,-0.00000632,-0.00000120,
 0.00002939,0.00001409,-0.00000170,-0.00000789,0.00000694,0.00000164,-0
 .00000993,-0.00000643,-0.00002488,0.00002605,0.00001772,0.00000582,-0.
 00000082,-0.00000446,-0.00000018,0.00000107,-0.00000328,0.00000293,-0.
 00000655,0.00000103,-0.00000749,0.00001543,-0.00004149,-0.00000107,-0.
 00000416,0.00000444,-0.00000342,-0.00000139,0.00000488,0.00000637,-0.0
 0000134,0.00000618,-0.00008334,-0.00011378,0.00005820,0.00001574,0.000
 00494,-0.00003343,0.00001100,0.00002193,-0.00001164,0.00004190,0.00000
 777,0.00001325,0.00033684,-0.00129756,-0.00017126,-0.00011522,0.000567
 03,-0.00045152,0.00006932,-0.00010935,-0.00020999,0.00008180,0.0002864
 3,-0.00013118,0.00002769,0.00027752,0.00018271,0.00000777,-0.00000758,
 -0.00003172,-0.00000444,0.00002262,0.00000638,-0.00000207,-0.00000574,
 -0.00000682,0.00000291,0.00000440,0.00000121,-0.00000148,0.00000565,0.
 00000681,0.00000232,-0.00001254,0.00002698,-0.00000061,0.00000432,0.00
 000635,0.00000146,0.00000198,0.00000617,-0.00000223,-0.00000462,-0.000
 00848,-0.00026156,-0.00045704,-0.00013421,0.00017509,0.00008783,-0.000
 09125,0.00000871,0.00018524,-0.00000723,0.00010669,0.00008296,0.000061
 93,-0.00050331,-0.07071324,-0.00262719,0.02464953,0.00119561,0.0298183
 3,-0.04276757,-0.01644188,-0.03335822,0.01134859,0.07592084,0.00005135
 ,0.00011822,-0.00012219,-0.00006864,0.00001750,-0.00006282,-0.00013968
 ,-0.00017676,0.00013119,0.00018033,0.00021714,-0.00043277,0.00004582,-
 0.00006483,-0.00012263,-0.00001668,-0.00000074,0.00002309,0.00001303,0
 .00001129,0.00003093,0.00001736,-0.00003524,0.00002002,-0.00003955,0.0
 0055450,-0.00027287,-0.00000930,-0.00003062,0.00003220,-0.00002748,0.0
 0009523,0.00029428,0.00036111,0.00026300,0.00035822,0.00004084,-0.0000
 0602,0.00005529,0.00001045,-0.00004215,0.00011010,-0.00003032,-0.00004
 613,0.00010305,-0.00021690,-0.00043285,-0.00054378,0.00018042,0.000057
 75,0.00036033,0.00009553,0.00006632,0.00010086,-0.00002661,0.00008647,
 0.00038296,-0.00000972,-0.00001649,-0.00002611,-0.00000092,0.00001240,
 0.00000629,-0.00000161,-0.00000332,0.00000510,0.00001004,0.00000164,0.
 00000232,0.00001829,0.00003877,-0.00006805,-0.00000638,-0.00000372,0.0
 0002649,0.00000153,-0.00000088,-0.00000200,-0.00000395,-0.00001017,0.0
 0000659,0.00000250,0.00006072,0.00002127,-0.00000580,-0.00000832,-0.00
 000430,0.00000163,-0.00002581,0.00000865,0.00000146,0.00001156,0.00000
 245,0.00001317,-0.00004292,-0.00002827,0.00000470,-0.00002246,-0.00003
 994,0.00003924,-0.00033187,-0.00046193,0.00008917,-0.00007882,-0.00008
 916,0.00005275,-0.00003540,0.00005910,-0.00000714,0.00002822,-0.000032
 67,-0.00000614,-0.00000339,0.00000935,-0.00001028,0.00000609,-0.000001
 15,-0.00000585,0.00000657,0.00001644,-0.00000857,-0.00001266,0.0000073
 4,-0.00009030,0.00038357,0.00040556,0.00007184,-0.00010295,0.00005558,
 0.00001938,0.00006583,0.00005868,-0.00003168,0.00007600,0.00001805,-0.
 00005432,0.00005714,-0.00002093,0.00025686,-0.00038842,0.00011145,-0.0
 0001405,-0.00009862,0.00017938,-0.00006938,0.00004370,-0.00001888,-0.0
 0069992,0.00007830,-0.00004911,-0.00042531,0.00042058,-0.00024108,0.00
 013655,-0.00014656,0.00007332,0.00005470,-0.00018443,0.00032473,-0.000
 54597,0.00041538,0.00047857,0.00047139,0.00041381,-0.00015245,0.000852
 69,-0.00076156,-0.00023032,-0.00003263,-0.00031244,-0.00086506,-0.0000
 0011,0.00004337,0.00002298,0.00690454,-0.00051963,0.01002016,0.0000513
 2,0.00021025,-0.00031630,-0.00058497,-0.00048750,0.00054555,0.00035777
 ,0.00015610,0.00002268,-0.00003007,-0.00001060,-0.00000659,0.00000521,
 -0.00000784,-0.00001495,0.00000540,-0.00000147,-0.00000015,0.00000126,
 0.00001001,0.00000484,0.00002828,-0.00002856,-0.00002675,-0.00000657,0
 .00000062,0.00000350,-0.00000011,0.00000463,0.00000588,-0.00000346,0.0
 0000616,0.00000084,0.00001983,-0.00002628,0.00003367,-0.00000123,0.000
 00929,-0.00000601,-0.00000184,0.00000073,0.00000290,-0.00000624,-0.000
 00074,-0.00000638,0.00034992,0.00024639,-0.00022548,0.00001655,-0.0000
 4406,-0.00001531,-0.00010817,0.00003330,0.00004327,-0.00013014,-0.0000
 3472,-0.00000059,-0.00011417,-0.00069700,-0.00217222,0.00026897,0.0001
 1808,-0.00103920,0.00035384,-0.00048419,0.00036143,0.00062425,0.000085
 51,0.00001302,-0.00002854,0.00049581,-0.00014353,0.00001670,-0.0000864
 5,0.00002543,-0.00002949,0.00006612,-0.00001225,0.00000276,-0.00001319
 ,-0.00000433,-0.00000459,-0.00001047,0.00000676,0.00000840,-0.00000148
 ,0.00000081,-0.00000974,0.00005254,-0.00001167,-0.00000744,0.00001400,
 0.00001120,0.00002619,-0.00000940,0.00001937,-0.00000372,-0.00002223,-
 0.00000418,-0.00030826,-0.00019398,-0.00017091,0.00007102,0.00003863,0
 .00004934,0.00003742,0.00007127,0.00003133,0.00011059,0.00004875,0.000
 09207,-0.06019832,-0.00189827,-0.09749161,-0.04450374,0.02542548,-0.04
 718560,-0.03311252,-0.02857190,-0.01729778,0.12944417,0.00583171,0.154
 84399\\0.,0.00000153,0.00000113,0.00000047,0.00000122,0.00000137,0.000
 00082,0.00000060,0.00000138,0.00000024,0.00000051,0.00000068,-0.000000
 17,0.00000109,0.00000065,0.00000109,0.00000047,0.00000143,0.00000040,0
 .00000115,0.00000120,0.00000018,0.00000152,0.00000134,0.00000035,0.000
 00064,0.00000064,-0.00000029,0.00000100,0.00000044,0.00000060,0.000000
 21,0.00000082,0.00000087,0.00000085,0.00000149,0.00000085,0.00000159,0
 .00000186,-0.00000032,0.00000185,0.00000113,-0.00000049,0.00000157,0.0
 0000030,-0.00000007,0.00000020,0.00000010,0.00000037,-0.00000017,0.000
 00012,-0.00000006,0.,-0.00000006,-0.00000034,0.00000007,-0.00000025,0.
 00000109,0.00000148,0.00000214,0.00000139,0.00000116,0.00000218,0.0000
 0097,0.00000136,0.00000195,0.00000115,0.00000182,0.00000245,-0.0000003
 2,0.00000243,0.00000141,-0.00000037,0.00000250,0.00000143,0.00000005,0
 .00000247,0.00000180,-0.00000058,0.00000274,0.00000140,-0.00000098,0.0
 0000151,0.00000029,-0.00000099,0.00000186,0.00000031,-0.00000110,0.000
 00124,-0.00000014,-0.00000126,0.00000174,0.,-0.00000042,-0.00000148,-0
 .00000139,-0.00000060,-0.00000089,-0.00000117,-0.00000034,-0.00000065,
 -0.00000079,0.00000029,-0.00000135,-0.00000066,0.00000012,-0.00000178,
 -0.00000112,-0.00000044,-0.00000006,-0.00000055,-0.00000049,-0.0000008
 3,-0.00000107,-0.00000053,-0.00000140,-0.00000157,0.00000023,-0.000001
 43,-0.00000083,0.00000029,-0.00000175,-0.00000104,0.00000022,-0.000000
 81,-0.00000040,-0.00000070,0.00000007,-0.00000096,-0.00000111,-0.00000
 056,-0.00000153,-0.00000065,-0.00000163,-0.00000186,0.00000027,-0.0000
 0220,-0.00000134,0.00000087,-0.00000156,-0.00000026,0.00000094,-0.0000
 0143,-0.00000010,0.00000100,-0.00000206,-0.00000046,0.00000107,-0.0000
 0139,0.00000005,-0.00000106,-0.00000010,-0.00000048,-0.00000027,0.0000
 0032,-0.00000051,-0.00000058,-0.00000053,-0.00000095,0.00000013,-0.000
 00013,-0.00000029,0.00000024,-0.00000006,-0.00000003,0.00000006,-0.000
 00018,0.00000017,0.00000061,-0.00000044,0.00000030,-0.00000008,-0.0000
 0039,-0.00000032,0.00000078,0.,0.00000059,-0.00000002,-0.00000011,0.00
 000025,0.00000108,-0.00000034,0.00000053,0.00000126,-0.00000051,0.0000
 0094,-0.00000112,-0.00000013,-0.00000134,-0.00000108,0.00000002,-0.000
 00097,-0.00000126,-0.00000033,-0.00000147,-0.00000162,0.00000010,-0.00
 000150,-0.00000104,-0.00000166,-0.00000225,-0.00000102,-0.00000188,-0.
 00000235,-0.00000132,-0.00000128,-0.00000221,-0.00000114,-0.00000192,-
 0.00000252,0.00000035,-0.00000263,-0.00000155,0.00000003,-0.00000259,-
 0.00000184,0.00000062,-0.00000266,-0.00000130,0.00000048,-0.00000300,-
 0.00000169,0.00000119,-0.00000161,-0.00000006,0.00000133,-0.00000155,0
 .00000025,0.00000081,-0.00000160,-0.00000033,0.00000133,-0.00000211,-0
 .00000017,0.00000144,0.00000038,0.00000170,0.00000150,0.00000044,0.000
 00181,0.00000133,-0.00000007,0.00000132,0.00000171,0.00000021,0.000001
 84,-0.00000101,0.00000104,-0.00000022,-0.00000155,0.00000154,-0.000000
 29,-0.00000175,0.00000127,-0.00000081,-0.00000212,0.00000157,-0.000000
 97,-0.00000169,0.00000108,-0.00000091,-0.00000173,0.00000099,-0.000001
 04,-0.00000144,0.00000177,-0.00000024,-0.00000145,0.00000141,-0.000000
 39,-0.00000121,0.00000189,0.00000015,-0.00000184,0.00000204,-0.0000003
 3,0.00000072,-0.00000083,0.00000042,0.00000052,-0.00000055,0.00000018,
 0.00000123,-0.00000055,0.00000080,0.00000103,-0.00000121,0.00000010,0.
 00000089,-0.00000004,0.00000091,0.00000085,-0.00000023,0.00000078,0.00
 000145,-0.00000025,0.00000124,0.00000083,0.00000043,0.00000112\\\@


 HAPPINESS IS NOT HAVING WHAT YOU WANT --
 HAPPINESS IS WANTING WHAT YOU HAVE!

              -- FROM MRS. SEVERN'S DESK
 Job cpu time:       4 days  1 hours 50 minutes 50.0 seconds.
 Elapsed time:       0 days  3 hours 22 minutes 41.8 seconds.
 File lengths (MBytes):  RWF=   9769 Int=      0 D2E=      0 Chk=    107 Scr=      1
 Normal termination of Gaussian 16 at Fri May 31 02:02:54 2019.
