 Entering Gaussian System, Link 0=g16
 Input=clay_new-glu_gluC6-DADL-Na2_1Me2O-bisCF3-ts-b3lyp_d3bj-631gd-pcm_thf.gjf
 Output=clay_new-glu_gluC6-DADL-Na2_1Me2O-bisCF3-ts-b3lyp_d3bj-631gd-pcm_thf.out
 Initial command:
 /home/ekwan/sw/g16/l1.exe "/scratch/users/ekwan/clay_new-glu_gluC6-DADL-Na2_1Me2O-bisCF3-ts-b3lyp_d3bj-631gd-pcm_thf/Gau-53503.inp" -scrdir="/scratch/users/ekwan/clay_new-glu_gluC6-DADL-Na2_1Me2O-bisCF3-ts-b3lyp_d3bj-631gd-pcm_thf/"
 Entering Link 1 = /home/ekwan/sw/g16/l1.exe PID=     53504.
  
 Copyright (c) 1988,1990,1992,1993,1995,1998,2003,2009,2016,
            Gaussian, Inc.  All Rights Reserved.
  
 This is part of the Gaussian(R) 16 program.  It is based on
 the Gaussian(R) 09 system (copyright 2009, Gaussian, Inc.),
 the Gaussian(R) 03 system (copyright 2003, Gaussian, Inc.),
 the Gaussian(R) 98 system (copyright 1998, Gaussian, Inc.),
 the Gaussian(R) 94 system (copyright 1995, Gaussian, Inc.),
 the Gaussian 92(TM) system (copyright 1992, Gaussian, Inc.),
 the Gaussian 90(TM) system (copyright 1990, Gaussian, Inc.),
 the Gaussian 88(TM) system (copyright 1988, Gaussian, Inc.),
 the Gaussian 86(TM) system (copyright 1986, Carnegie Mellon
 University), and the Gaussian 82(TM) system (copyright 1983,
 Carnegie Mellon University). Gaussian is a federally registered
 trademark of Gaussian, Inc.
  
 This software contains proprietary and confidential information,
 including trade secrets, belonging to Gaussian, Inc.
  
 This software is provided under written license and may be
 used, copied, transmitted, or stored only in accord with that
 written license.
  
 The following legend is applicable only to US Government
 contracts under FAR:
  
                    RESTRICTED RIGHTS LEGEND
  
 Use, reproduction and disclosure by the US Government is
 subject to restrictions as set forth in subparagraphs (a)
 and (c) of the Commercial Computer Software - Restricted
 Rights clause in FAR 52.227-19.
  
 Gaussian, Inc.
 340 Quinnipiac St., Bldg. 40, Wallingford CT 06492
  
  
 ---------------------------------------------------------------
 Warning -- This program may not be used in any manner that
 competes with the business of Gaussian, Inc. or will provide
 assistance to any competitor of Gaussian, Inc.  The licensee
 of this program is prohibited from giving any competitor of
 Gaussian, Inc. access to this program.  By using this program,
 the user acknowledges that Gaussian, Inc. is engaged in the
 business of creating and licensing software in the field of
 computational chemistry and represents and warrants to the
 licensee that it is not a competitor of Gaussian, Inc. and that
 it will not use this program in any manner prohibited above.
 ---------------------------------------------------------------
  

 Cite this work as:
 Gaussian 16, Revision A.03,
 M. J. Frisch, G. W. Trucks, H. B. Schlegel, G. E. Scuseria, 
 M. A. Robb, J. R. Cheeseman, G. Scalmani, V. Barone, 
 G. A. Petersson, H. Nakatsuji, X. Li, M. Caricato, A. V. Marenich, 
 J. Bloino, B. G. Janesko, R. Gomperts, B. Mennucci, H. P. Hratchian, 
 J. V. Ortiz, A. F. Izmaylov, J. L. Sonnenberg, D. Williams-Young, 
 F. Ding, F. Lipparini, F. Egidi, J. Goings, B. Peng, A. Petrone, 
 T. Henderson, D. Ranasinghe, V. G. Zakrzewski, J. Gao, N. Rega, 
 G. Zheng, W. Liang, M. Hada, M. Ehara, K. Toyota, R. Fukuda, 
 J. Hasegawa, M. Ishida, T. Nakajima, Y. Honda, O. Kitao, H. Nakai, 
 T. Vreven, K. Throssell, J. A. Montgomery, Jr., J. E. Peralta, 
 F. Ogliaro, M. J. Bearpark, J. J. Heyd, E. N. Brothers, K. N. Kudin, 
 V. N. Staroverov, T. A. Keith, R. Kobayashi, J. Normand, 
 K. Raghavachari, A. P. Rendell, J. C. Burant, S. S. Iyengar, 
 J. Tomasi, M. Cossi, J. M. Millam, M. Klene, C. Adamo, R. Cammi, 
 J. W. Ochterski, R. L. Martin, K. Morokuma, O. Farkas, 
 J. B. Foresman, and D. J. Fox, Gaussian, Inc., Wallingford CT, 2016.
 
 ******************************************
 Gaussian 16:  AS64L-G16RevA.03 25-Dec-2016
                 5-Jun-2019 
 ******************************************
 %mem=48GB
 %nprocshared=32
 Will use up to   32 processors via shared memory.
 ----------------------------------------------------------------------
 #p opt=(ts,noeigentest,calcfc,maxstep=10) freq=noraman b3lyp 6-31g* po
 p=none scrf=(solvent=tetrahydrofuran,pcm) empiricaldispersion=gd3bj
 ----------------------------------------------------------------------
 1/5=1,8=10,10=4,11=1,18=20,26=3,38=1/1,3;
 2/9=110,12=2,17=6,18=5,40=1/2;
 3/5=1,6=6,7=1,11=2,25=1,30=1,70=2201,71=2,72=20,74=-5,124=41,140=1/1,2,3;
 4//1;
 5/5=2,38=5,53=20/2;
 8/6=4,10=90,11=11/1;
 11/6=1,8=1,9=11,15=111,16=1/1,2,10;
 10/6=1,13=1/2;
 7/10=1,18=20,25=1/1,2,3,16;
 1/5=1,8=10,10=4,11=1,18=20,26=3/3(2);
 2/9=110/2;
 99//99;
 2/9=110/2;
 3/5=1,6=6,7=1,11=2,25=1,30=1,70=2205,71=1,72=20,74=-5,124=41/1,2,3;
 4/5=5,16=3,69=1/1;
 5/5=2,38=5,53=20/2;
 7//1,2,3,16;
 1/5=1,8=10,11=1,18=20,26=3/3(-5);
 2/9=110/2;
 99/9=1/99;
 Leave Link    1 at Wed Jun  5 05:37:20 2019, MaxMem=  6442450944 cpu:              96.5 elap:               3.5
 (Enter /home/ekwan/sw/g16/l101.exe)
 -----
 title
 -----
 Symbolic Z-matrix:
 Charge =  0 Multiplicity = 1
 C                    -3.06764  -0.12509  -1.55866 
 C                    -3.52951  -1.02153  -0.40975 
 C                    -3.37529  -2.50086  -0.79528 
 C                    -1.55229  -1.99913  -2.30586 
 C                    -1.64505  -0.50408  -1.97932 
 H                    -3.54827  -3.16206   0.06538 
 H                    -2.87205  -0.83483   0.44935 
 H                    -3.73112  -0.26832  -2.42101 
 H                    -2.19785  -2.20239  -3.17049 
 H                    -0.96628  -0.27365  -1.14821 
 O                    -2.03159  -2.76678  -1.17386 
 O                    -4.28388  -2.7895   -1.81877 
 O                    -4.87272  -0.70627  -0.07954 
 O                    -3.07805   1.24193  -1.1635 
 O                    -1.26147   0.216    -3.14306 
 C                    -0.12672  -2.49862  -2.60498 
 H                     0.22131  -1.88663  -3.46316 
 H                    -0.25761  -3.52791  -3.01262 
 O                     0.72108  -2.47419  -1.52521 
 C                    -5.16934  -0.86375   1.29826 
 H                    -5.00983  -1.89575   1.64164 
 H                    -4.56207  -0.18773   1.91541 
 H                    -6.22442  -0.61006   1.42637 
 C                    -4.21987   1.96168  -1.60528 
 H                    -4.29617   1.94317  -2.702 
 H                    -5.13994   1.55701  -1.17193 
 H                    -4.08906   2.99415  -1.27696 
 C                    -0.50261   1.38702  -2.87141 
 H                    -1.07086   2.10122  -2.26943 
 H                     0.42996   1.14222  -2.34593 
 H                    -0.25644   1.83522  -3.83812 
 C                     4.1319   -1.29047   0.69468 
 C                     2.81292  -1.84795   0.15982 
 C                     1.87202  -0.73878  -0.19632 
 C                     3.66272   0.84868  -0.59437 
 C                     4.67966  -0.25635  -0.29619 
 H                     0.81616  -0.91131  -0.27614 
 H                     2.98751  -2.34373  -0.80595 
 H                     3.94483  -0.81206   1.66156 
 H                     3.6117    1.50722   0.27662 
 H                     4.94493  -0.77902  -1.22421 
 O                     2.28642   0.34929  -0.7528 
 O                    -0.02625   0.02978   3.73965 
 O                     2.1804   -2.75644   1.04085 
 O                     5.06411  -2.34968   0.82651 
 O                     5.8205    0.36572   0.27275 
 C                     3.8917    1.6446   -1.88609 
 H                     3.06679   2.36456  -1.98888 
 H                     3.85568   0.95323  -2.73376 
 O                     5.1399    2.29087  -1.94493 
 S                     0.14538   0.00065   2.27683 
 O                    -0.67969  -1.03275   1.57807 
 O                     1.59373  -0.03825   1.84752 
 C                    -0.47377   1.55889   1.62851 
 C                     0.36253   2.37856   0.88123 
 C                    -1.80189   1.91175   1.85665 
 C                    -0.14353   3.5575    0.334 
 H                     1.39345   2.0961    0.72897 
 C                    -2.28955   3.09989   1.31852 
 H                    -2.44653   1.26727   2.44315 
 C                    -1.46918   3.92656   0.54938 
 H                    -1.85934   4.84302   0.12565 
 C                     2.49841  -4.12705   0.75056 
 H                     2.11792  -4.39483  -0.24255 
 H                     3.57713  -4.28985   0.79955 
 H                     1.99814  -4.72322   1.51613 
 C                     5.78459  -2.3378    2.05603 
 H                     6.35017  -1.40762   2.17535 
 H                     5.10657  -2.4627    2.91078 
 H                     6.47494  -3.1835    2.01835 
 C                     7.02806   0.16553  -0.45933 
 H                     7.26066  -0.90266  -0.54474 
 H                     6.95777   0.61791  -1.45406 
 H                     7.81655   0.66237   0.11026 
 C                     5.28367   3.35623  -1.00909 
 H                     6.13836   3.95057  -1.33961 
 H                     4.38591   3.98878  -0.98985 
 H                     5.48114   2.97462  -0.00062 
 C                    -4.31834  -4.16739  -2.17223 
 H                    -5.14413  -4.29115  -2.87552 
 H                    -3.38317  -4.48447  -2.64811 
 H                    -4.49639  -4.79431  -1.2868 
 Na                   -0.29556  -2.96532   0.42482 
 O                    -1.05132  -5.04482   0.99284 
 C                    -0.79903  -5.75641   2.1967 
 H                     0.07289  -6.41679   2.08847 
 H                    -0.60079  -5.01581   2.97448 
 H                    -1.67002  -6.36133   2.48241 
 C                    -1.31944  -5.90396  -0.11067 
 H                    -2.20598  -6.52193   0.08556 
 H                    -1.50451  -5.26026  -0.97153 
 H                    -0.46118  -6.56053  -0.31105 
 C                    -3.70857   3.50031   1.61315 
 F                    -4.5513    2.44554   1.54294 
 F                    -4.16148   4.43884   0.75133 
 F                    -3.83144   4.01478   2.85786 
 C                     0.76368   4.39076  -0.52724 
 F                     0.9394    3.83417  -1.7555 
 F                     2.00009   4.49852   0.01608 
 F                     0.29116   5.63528  -0.72259 
 
 Add virtual bond connecting atoms H37        and H10        Dist= 3.94D+00.
 Add virtual bond connecting atoms H37        and O19        Dist= 3.79D+00.
 ITRead=  0  0  0  0  0  0  0  0  0  0  0  0  0  0  0  0  0  0  0  0
 ITRead=  0  0  0  0  0  0  0  0  0  0  0  0  0  0  0  0  0  0  0  0
 ITRead=  0  0  0  0  0  0  0  0  0  0  0  0  0  0  0  0  0  0  0  0
 ITRead=  0  0  0  0  0  0  0  0  0  0  0  0  0  0  0  0  0  0  0  0
 ITRead=  0  0  0  0  0  0  0  0  0  0  0  0  0  0  0  0  0  0  0  0
 MicOpt= -1 -1 -1 -1 -1 -1 -1 -1 -1 -1 -1 -1 -1 -1 -1 -1 -1 -1 -1 -1
 MicOpt= -1 -1 -1 -1 -1 -1 -1 -1 -1 -1 -1 -1 -1 -1 -1 -1 -1 -1 -1 -1
 MicOpt= -1 -1 -1 -1 -1 -1 -1 -1 -1 -1 -1 -1 -1 -1 -1 -1 -1 -1 -1 -1
 MicOpt= -1 -1 -1 -1 -1 -1 -1 -1 -1 -1 -1 -1 -1 -1 -1 -1 -1 -1 -1 -1
 MicOpt= -1 -1 -1 -1 -1 -1 -1 -1 -1 -1 -1 -1 -1 -1 -1 -1 -1 -1 -1 -1
 NAtoms=    100 NQM=      100 NQMF=       0 NMMI=      0 NMMIF=      0
                NMic=       0 NMicF=      0.
                    Isotopes and Nuclear Properties:
 (Nuclear quadrupole moments (NQMom) in fm**2, nuclear magnetic moments (NMagM)
  in nuclear magnetons)

  Atom         1           2           3           4           5           6           7           8           9          10
 IAtWgt=          12          12          12          12          12           1           1           1           1           1
 AtmWgt=  12.0000000  12.0000000  12.0000000  12.0000000  12.0000000   1.0078250   1.0078250   1.0078250   1.0078250   1.0078250
 NucSpn=           0           0           0           0           0           1           1           1           1           1
 AtZEff=   0.0000000   0.0000000   0.0000000   0.0000000   0.0000000   0.0000000   0.0000000   0.0000000   0.0000000   0.0000000
 NQMom=    0.0000000   0.0000000   0.0000000   0.0000000   0.0000000   0.0000000   0.0000000   0.0000000   0.0000000   0.0000000
 NMagM=    0.0000000   0.0000000   0.0000000   0.0000000   0.0000000   2.7928460   2.7928460   2.7928460   2.7928460   2.7928460
 AtZNuc=   6.0000000   6.0000000   6.0000000   6.0000000   6.0000000   1.0000000   1.0000000   1.0000000   1.0000000   1.0000000

  Atom        11          12          13          14          15          16          17          18          19          20
 IAtWgt=          16          16          16          16          16          12           1           1          16          12
 AtmWgt=  15.9949146  15.9949146  15.9949146  15.9949146  15.9949146  12.0000000   1.0078250   1.0078250  15.9949146  12.0000000
 NucSpn=           0           0           0           0           0           0           1           1           0           0
 AtZEff=   0.0000000   0.0000000   0.0000000   0.0000000   0.0000000   0.0000000   0.0000000   0.0000000   0.0000000   0.0000000
 NQMom=    0.0000000   0.0000000   0.0000000   0.0000000   0.0000000   0.0000000   0.0000000   0.0000000   0.0000000   0.0000000
 NMagM=    0.0000000   0.0000000   0.0000000   0.0000000   0.0000000   0.0000000   2.7928460   2.7928460   0.0000000   0.0000000
 AtZNuc=   8.0000000   8.0000000   8.0000000   8.0000000   8.0000000   6.0000000   1.0000000   1.0000000   8.0000000   6.0000000

  Atom        21          22          23          24          25          26          27          28          29          30
 IAtWgt=           1           1           1          12           1           1           1          12           1           1
 AtmWgt=   1.0078250   1.0078250   1.0078250  12.0000000   1.0078250   1.0078250   1.0078250  12.0000000   1.0078250   1.0078250
 NucSpn=           1           1           1           0           1           1           1           0           1           1
 AtZEff=   0.0000000   0.0000000   0.0000000   0.0000000   0.0000000   0.0000000   0.0000000   0.0000000   0.0000000   0.0000000
 NQMom=    0.0000000   0.0000000   0.0000000   0.0000000   0.0000000   0.0000000   0.0000000   0.0000000   0.0000000   0.0000000
 NMagM=    2.7928460   2.7928460   2.7928460   0.0000000   2.7928460   2.7928460   2.7928460   0.0000000   2.7928460   2.7928460
 AtZNuc=   1.0000000   1.0000000   1.0000000   6.0000000   1.0000000   1.0000000   1.0000000   6.0000000   1.0000000   1.0000000

  Atom        31          32          33          34          35          36          37          38          39          40
 IAtWgt=           1          12          12          12          12          12           1           1           1           1
 AtmWgt=   1.0078250  12.0000000  12.0000000  12.0000000  12.0000000  12.0000000   1.0078250   1.0078250   1.0078250   1.0078250
 NucSpn=           1           0           0           0           0           0           1           1           1           1
 AtZEff=   0.0000000   0.0000000   0.0000000   0.0000000   0.0000000   0.0000000   0.0000000   0.0000000   0.0000000   0.0000000
 NQMom=    0.0000000   0.0000000   0.0000000   0.0000000   0.0000000   0.0000000   0.0000000   0.0000000   0.0000000   0.0000000
 NMagM=    2.7928460   0.0000000   0.0000000   0.0000000   0.0000000   0.0000000   2.7928460   2.7928460   2.7928460   2.7928460
 AtZNuc=   1.0000000   6.0000000   6.0000000   6.0000000   6.0000000   6.0000000   1.0000000   1.0000000   1.0000000   1.0000000

  Atom        41          42          43          44          45          46          47          48          49          50
 IAtWgt=           1          16          16          16          16          16          12           1           1          16
 AtmWgt=   1.0078250  15.9949146  15.9949146  15.9949146  15.9949146  15.9949146  12.0000000   1.0078250   1.0078250  15.9949146
 NucSpn=           1           0           0           0           0           0           0           1           1           0
 AtZEff=   0.0000000   0.0000000   0.0000000   0.0000000   0.0000000   0.0000000   0.0000000   0.0000000   0.0000000   0.0000000
 NQMom=    0.0000000   0.0000000   0.0000000   0.0000000   0.0000000   0.0000000   0.0000000   0.0000000   0.0000000   0.0000000
 NMagM=    2.7928460   0.0000000   0.0000000   0.0000000   0.0000000   0.0000000   0.0000000   2.7928460   2.7928460   0.0000000
 AtZNuc=   1.0000000   8.0000000   8.0000000   8.0000000   8.0000000   8.0000000   6.0000000   1.0000000   1.0000000   8.0000000

  Atom        51          52          53          54          55          56          57          58          59          60
 IAtWgt=          32          16          16          12          12          12          12           1          12           1
 AtmWgt=  31.9720718  15.9949146  15.9949146  12.0000000  12.0000000  12.0000000  12.0000000   1.0078250  12.0000000   1.0078250
 NucSpn=           0           0           0           0           0           0           0           1           0           1
 AtZEff=   0.0000000   0.0000000   0.0000000   0.0000000   0.0000000   0.0000000   0.0000000   0.0000000   0.0000000   0.0000000
 NQMom=    0.0000000   0.0000000   0.0000000   0.0000000   0.0000000   0.0000000   0.0000000   0.0000000   0.0000000   0.0000000
 NMagM=    0.0000000   0.0000000   0.0000000   0.0000000   0.0000000   0.0000000   0.0000000   2.7928460   0.0000000   2.7928460
 AtZNuc=  16.0000000   8.0000000   8.0000000   6.0000000   6.0000000   6.0000000   6.0000000   1.0000000   6.0000000   1.0000000

  Atom        61          62          63          64          65          66          67          68          69          70
 IAtWgt=          12           1          12           1           1           1          12           1           1           1
 AtmWgt=  12.0000000   1.0078250  12.0000000   1.0078250   1.0078250   1.0078250  12.0000000   1.0078250   1.0078250   1.0078250
 NucSpn=           0           1           0           1           1           1           0           1           1           1
 AtZEff=   0.0000000   0.0000000   0.0000000   0.0000000   0.0000000   0.0000000   0.0000000   0.0000000   0.0000000   0.0000000
 NQMom=    0.0000000   0.0000000   0.0000000   0.0000000   0.0000000   0.0000000   0.0000000   0.0000000   0.0000000   0.0000000
 NMagM=    0.0000000   2.7928460   0.0000000   2.7928460   2.7928460   2.7928460   0.0000000   2.7928460   2.7928460   2.7928460
 AtZNuc=   6.0000000   1.0000000   6.0000000   1.0000000   1.0000000   1.0000000   6.0000000   1.0000000   1.0000000   1.0000000

  Atom        71          72          73          74          75          76          77          78          79          80
 IAtWgt=          12           1           1           1          12           1           1           1          12           1
 AtmWgt=  12.0000000   1.0078250   1.0078250   1.0078250  12.0000000   1.0078250   1.0078250   1.0078250  12.0000000   1.0078250
 NucSpn=           0           1           1           1           0           1           1           1           0           1
 AtZEff=   0.0000000   0.0000000   0.0000000   0.0000000   0.0000000   0.0000000   0.0000000   0.0000000   0.0000000   0.0000000
 NQMom=    0.0000000   0.0000000   0.0000000   0.0000000   0.0000000   0.0000000   0.0000000   0.0000000   0.0000000   0.0000000
 NMagM=    0.0000000   2.7928460   2.7928460   2.7928460   0.0000000   2.7928460   2.7928460   2.7928460   0.0000000   2.7928460
 AtZNuc=   6.0000000   1.0000000   1.0000000   1.0000000   6.0000000   1.0000000   1.0000000   1.0000000   6.0000000   1.0000000

  Atom        81          82          83          84          85          86          87          88          89          90
 IAtWgt=           1           1          23          16          12           1           1           1          12           1
 AtmWgt=   1.0078250   1.0078250  22.9897697  15.9949146  12.0000000   1.0078250   1.0078250   1.0078250  12.0000000   1.0078250
 NucSpn=           1           1           3           0           0           1           1           1           0           1
 AtZEff=   0.0000000   0.0000000   0.0000000   0.0000000   0.0000000   0.0000000   0.0000000   0.0000000   0.0000000   0.0000000
 NQMom=    0.0000000   0.0000000  10.4000000   0.0000000   0.0000000   0.0000000   0.0000000   0.0000000   0.0000000   0.0000000
 NMagM=    2.7928460   2.7928460   2.2175200   0.0000000   0.0000000   2.7928460   2.7928460   2.7928460   0.0000000   2.7928460
 AtZNuc=   1.0000000   1.0000000  11.0000000   8.0000000   6.0000000   1.0000000   1.0000000   1.0000000   6.0000000   1.0000000

  Atom        91          92          93          94          95          96          97          98          99         100
 IAtWgt=           1           1          12          19          19          19          12          19          19          19
 AtmWgt=   1.0078250   1.0078250  12.0000000  18.9984033  18.9984033  18.9984033  12.0000000  18.9984033  18.9984033  18.9984033
 NucSpn=           1           1           0           1           1           1           0           1           1           1
 AtZEff=   0.0000000   0.0000000   0.0000000   0.0000000   0.0000000   0.0000000   0.0000000   0.0000000   0.0000000   0.0000000
 NQMom=    0.0000000   0.0000000   0.0000000   0.0000000   0.0000000   0.0000000   0.0000000   0.0000000   0.0000000   0.0000000
 NMagM=    2.7928460   2.7928460   0.0000000   2.6288670   2.6288670   2.6288670   0.0000000   2.6288670   2.6288670   2.6288670
 AtZNuc=   1.0000000   1.0000000   6.0000000   9.0000000   9.0000000   9.0000000   6.0000000   9.0000000   9.0000000   9.0000000
 Leave Link  101 at Wed Jun  5 05:37:21 2019, MaxMem=  6442450944 cpu:              20.7 elap:               0.8
 (Enter /home/ekwan/sw/g16/l103.exe)

 GradGradGradGradGradGradGradGradGradGradGradGradGradGradGradGradGradGrad
 Berny optimization.
 Initialization pass.
                           ----------------------------
                           !    Initial Parameters    !
                           ! (Angstroms and Degrees)  !
 --------------------------                            --------------------------
 ! Name  Definition              Value          Derivative Info.                !
 --------------------------------------------------------------------------------
 ! R1    R(1,2)                  1.5287         calculate D2E/DX2 analytically  !
 ! R2    R(1,5)                  1.5311         calculate D2E/DX2 analytically  !
 ! R3    R(1,8)                  1.0974         calculate D2E/DX2 analytically  !
 ! R4    R(1,14)                 1.423          calculate D2E/DX2 analytically  !
 ! R5    R(2,3)                  1.5365         calculate D2E/DX2 analytically  !
 ! R6    R(2,7)                  1.0978         calculate D2E/DX2 analytically  !
 ! R7    R(2,13)                 1.4187         calculate D2E/DX2 analytically  !
 ! R8    R(3,6)                  1.099          calculate D2E/DX2 analytically  !
 ! R9    R(3,11)                 1.4211         calculate D2E/DX2 analytically  !
 ! R10   R(3,12)                 1.3987         calculate D2E/DX2 analytically  !
 ! R11   R(4,5)                  1.5331         calculate D2E/DX2 analytically  !
 ! R12   R(4,9)                  1.098          calculate D2E/DX2 analytically  !
 ! R13   R(4,11)                 1.4493         calculate D2E/DX2 analytically  !
 ! R14   R(4,16)                 1.5399         calculate D2E/DX2 analytically  !
 ! R15   R(5,10)                 1.0975         calculate D2E/DX2 analytically  !
 ! R16   R(5,15)                 1.4212         calculate D2E/DX2 analytically  !
 ! R17   R(10,37)                2.0843         calculate D2E/DX2 analytically  !
 ! R18   R(12,79)                1.4229         calculate D2E/DX2 analytically  !
 ! R19   R(13,20)                1.4181         calculate D2E/DX2 analytically  !
 ! R20   R(14,24)                1.4202         calculate D2E/DX2 analytically  !
 ! R21   R(15,28)                1.4216         calculate D2E/DX2 analytically  !
 ! R22   R(16,17)                1.11           calculate D2E/DX2 analytically  !
 ! R23   R(16,18)                1.1148         calculate D2E/DX2 analytically  !
 ! R24   R(16,19)                1.373          calculate D2E/DX2 analytically  !
 ! R25   R(19,37)                2.003          calculate D2E/DX2 analytically  !
 ! R26   R(19,83)                2.2533         calculate D2E/DX2 analytically  !
 ! R27   R(20,21)                1.0993         calculate D2E/DX2 analytically  !
 ! R28   R(20,22)                1.0985         calculate D2E/DX2 analytically  !
 ! R29   R(20,23)                1.0927         calculate D2E/DX2 analytically  !
 ! R30   R(24,25)                1.0995         calculate D2E/DX2 analytically  !
 ! R31   R(24,26)                1.0946         calculate D2E/DX2 analytically  !
 ! R32   R(24,27)                1.0913         calculate D2E/DX2 analytically  !
 ! R33   R(28,29)                1.0933         calculate D2E/DX2 analytically  !
 ! R34   R(28,30)                1.0981         calculate D2E/DX2 analytically  !
 ! R35   R(28,31)                1.0936         calculate D2E/DX2 analytically  !
 ! R36   R(32,33)                1.5286         calculate D2E/DX2 analytically  !
 ! R37   R(32,36)                1.5334         calculate D2E/DX2 analytically  !
 ! R38   R(32,39)                1.0949         calculate D2E/DX2 analytically  !
 ! R39   R(32,45)                1.4172         calculate D2E/DX2 analytically  !
 ! R40   R(33,34)                1.4975         calculate D2E/DX2 analytically  !
 ! R41   R(33,38)                1.0995         calculate D2E/DX2 analytically  !
 ! R42   R(33,44)                1.4148         calculate D2E/DX2 analytically  !
 ! R43   R(34,37)                1.0728         calculate D2E/DX2 analytically  !
 ! R44   R(34,42)                1.2905         calculate D2E/DX2 analytically  !
 ! R45   R(35,36)                1.5311         calculate D2E/DX2 analytically  !
 ! R46   R(35,40)                1.0931         calculate D2E/DX2 analytically  !
 ! R47   R(35,42)                1.4727         calculate D2E/DX2 analytically  !
 ! R48   R(35,47)                1.5344         calculate D2E/DX2 analytically  !
 ! R49   R(36,41)                1.0976         calculate D2E/DX2 analytically  !
 ! R50   R(36,46)                1.4185         calculate D2E/DX2 analytically  !
 ! R51   R(43,51)                1.4731         calculate D2E/DX2 analytically  !
 ! R52   R(44,63)                1.4366         calculate D2E/DX2 analytically  !
 ! R53   R(45,67)                1.4251         calculate D2E/DX2 analytically  !
 ! R54   R(46,71)                1.4263         calculate D2E/DX2 analytically  !
 ! R55   R(47,48)                1.0997         calculate D2E/DX2 analytically  !
 ! R56   R(47,49)                1.0945         calculate D2E/DX2 analytically  !
 ! R57   R(47,50)                1.4068         calculate D2E/DX2 analytically  !
 ! R58   R(50,75)                1.4253         calculate D2E/DX2 analytically  !
 ! R59   R(51,52)                1.4956         calculate D2E/DX2 analytically  !
 ! R60   R(51,53)                1.5111         calculate D2E/DX2 analytically  !
 ! R61   R(51,54)                1.7977         calculate D2E/DX2 analytically  !
 ! R62   R(52,83)                2.2831         calculate D2E/DX2 analytically  !
 ! R63   R(54,55)                1.3891         calculate D2E/DX2 analytically  !
 ! R64   R(54,56)                1.393          calculate D2E/DX2 analytically  !
 ! R65   R(55,57)                1.3948         calculate D2E/DX2 analytically  !
 ! R66   R(55,58)                1.0797         calculate D2E/DX2 analytically  !
 ! R67   R(56,59)                1.3925         calculate D2E/DX2 analytically  !
 ! R68   R(56,60)                1.0839         calculate D2E/DX2 analytically  !
 ! R69   R(57,61)                1.3928         calculate D2E/DX2 analytically  !
 ! R70   R(57,97)                1.503          calculate D2E/DX2 analytically  !
 ! R71   R(59,61)                1.3957         calculate D2E/DX2 analytically  !
 ! R72   R(59,93)                1.5036         calculate D2E/DX2 analytically  !
 ! R73   R(61,62)                1.0824         calculate D2E/DX2 analytically  !
 ! R74   R(63,64)                1.0967         calculate D2E/DX2 analytically  !
 ! R75   R(63,65)                1.092          calculate D2E/DX2 analytically  !
 ! R76   R(63,66)                1.0917         calculate D2E/DX2 analytically  !
 ! R77   R(67,68)                1.0951         calculate D2E/DX2 analytically  !
 ! R78   R(67,69)                1.0981         calculate D2E/DX2 analytically  !
 ! R79   R(67,70)                1.0923         calculate D2E/DX2 analytically  !
 ! R80   R(71,72)                1.0966         calculate D2E/DX2 analytically  !
 ! R81   R(71,73)                1.095          calculate D2E/DX2 analytically  !
 ! R82   R(71,74)                1.0922         calculate D2E/DX2 analytically  !
 ! R83   R(75,76)                1.0922         calculate D2E/DX2 analytically  !
 ! R84   R(75,77)                1.0984         calculate D2E/DX2 analytically  !
 ! R85   R(75,78)                1.0962         calculate D2E/DX2 analytically  !
 ! R86   R(79,80)                1.0917         calculate D2E/DX2 analytically  !
 ! R87   R(79,81)                1.0962         calculate D2E/DX2 analytically  !
 ! R88   R(79,82)                1.0994         calculate D2E/DX2 analytically  !
 ! R89   R(83,84)                2.2843         calculate D2E/DX2 analytically  !
 ! R90   R(84,85)                1.421          calculate D2E/DX2 analytically  !
 ! R91   R(84,89)                1.424          calculate D2E/DX2 analytically  !
 ! R92   R(85,86)                1.0991         calculate D2E/DX2 analytically  !
 ! R93   R(85,87)                1.0921         calculate D2E/DX2 analytically  !
 ! R94   R(85,88)                1.0983         calculate D2E/DX2 analytically  !
 ! R95   R(89,90)                1.0983         calculate D2E/DX2 analytically  !
 ! R96   R(89,91)                1.0907         calculate D2E/DX2 analytically  !
 ! R97   R(89,92)                1.099          calculate D2E/DX2 analytically  !
 ! R98   R(93,94)                1.3519         calculate D2E/DX2 analytically  !
 ! R99   R(93,95)                1.3523         calculate D2E/DX2 analytically  !
 ! R100  R(93,96)                1.3524         calculate D2E/DX2 analytically  !
 ! R101  R(97,98)                1.3599         calculate D2E/DX2 analytically  !
 ! R102  R(97,99)                1.3548         calculate D2E/DX2 analytically  !
 ! R103  R(97,100)               1.3455         calculate D2E/DX2 analytically  !
 ! A1    A(2,1,5)              110.0021         calculate D2E/DX2 analytically  !
 ! A2    A(2,1,8)              109.352          calculate D2E/DX2 analytically  !
 ! A3    A(2,1,14)             110.635          calculate D2E/DX2 analytically  !
 ! A4    A(5,1,8)              108.272          calculate D2E/DX2 analytically  !
 ! A5    A(5,1,14)             108.7153         calculate D2E/DX2 analytically  !
 ! A6    A(8,1,14)             109.8256         calculate D2E/DX2 analytically  !
 ! A7    A(1,2,3)              110.2237         calculate D2E/DX2 analytically  !
 ! A8    A(1,2,7)              107.9073         calculate D2E/DX2 analytically  !
 ! A9    A(1,2,13)             109.3104         calculate D2E/DX2 analytically  !
 ! A10   A(3,2,7)              107.4563         calculate D2E/DX2 analytically  !
 ! A11   A(3,2,13)             111.5543         calculate D2E/DX2 analytically  !
 ! A12   A(7,2,13)             110.3095         calculate D2E/DX2 analytically  !
 ! A13   A(2,3,6)              111.528          calculate D2E/DX2 analytically  !
 ! A14   A(2,3,11)             109.9928         calculate D2E/DX2 analytically  !
 ! A15   A(2,3,12)             108.4866         calculate D2E/DX2 analytically  !
 ! A16   A(6,3,11)             104.1737         calculate D2E/DX2 analytically  !
 ! A17   A(6,3,12)             110.2823         calculate D2E/DX2 analytically  !
 ! A18   A(11,3,12)            112.3742         calculate D2E/DX2 analytically  !
 ! A19   A(5,4,9)              108.2204         calculate D2E/DX2 analytically  !
 ! A20   A(5,4,11)             109.2784         calculate D2E/DX2 analytically  !
 ! A21   A(5,4,16)             114.4378         calculate D2E/DX2 analytically  !
 ! A22   A(9,4,11)             108.8177         calculate D2E/DX2 analytically  !
 ! A23   A(9,4,16)             109.3465         calculate D2E/DX2 analytically  !
 ! A24   A(11,4,16)            106.6232         calculate D2E/DX2 analytically  !
 ! A25   A(1,5,4)              110.8613         calculate D2E/DX2 analytically  !
 ! A26   A(1,5,10)             108.3364         calculate D2E/DX2 analytically  !
 ! A27   A(1,5,15)             110.5066         calculate D2E/DX2 analytically  !
 ! A28   A(4,5,10)             109.1847         calculate D2E/DX2 analytically  !
 ! A29   A(4,5,15)             107.6586         calculate D2E/DX2 analytically  !
 ! A30   A(10,5,15)            110.2897         calculate D2E/DX2 analytically  !
 ! A31   A(5,10,37)            141.3978         calculate D2E/DX2 analytically  !
 ! A32   A(3,11,4)             114.9395         calculate D2E/DX2 analytically  !
 ! A33   A(3,12,79)            113.4115         calculate D2E/DX2 analytically  !
 ! A34   A(2,13,20)            113.5463         calculate D2E/DX2 analytically  !
 ! A35   A(1,14,24)            113.9759         calculate D2E/DX2 analytically  !
 ! A36   A(5,15,28)            113.8879         calculate D2E/DX2 analytically  !
 ! A37   A(4,16,17)            105.1654         calculate D2E/DX2 analytically  !
 ! A38   A(4,16,18)            105.1786         calculate D2E/DX2 analytically  !
 ! A39   A(4,16,19)            114.3996         calculate D2E/DX2 analytically  !
 ! A40   A(17,16,18)           105.2572         calculate D2E/DX2 analytically  !
 ! A41   A(17,16,19)           113.8653         calculate D2E/DX2 analytically  !
 ! A42   A(18,16,19)           112.1161         calculate D2E/DX2 analytically  !
 ! A43   A(16,19,37)           122.2491         calculate D2E/DX2 analytically  !
 ! A44   A(16,19,83)           113.4592         calculate D2E/DX2 analytically  !
 ! A45   A(37,19,83)            69.6235         calculate D2E/DX2 analytically  !
 ! A46   A(13,20,21)           112.1722         calculate D2E/DX2 analytically  !
 ! A47   A(13,20,22)           111.2153         calculate D2E/DX2 analytically  !
 ! A48   A(13,20,23)           106.8625         calculate D2E/DX2 analytically  !
 ! A49   A(21,20,22)           108.7868         calculate D2E/DX2 analytically  !
 ! A50   A(21,20,23)           108.7509         calculate D2E/DX2 analytically  !
 ! A51   A(22,20,23)           108.9688         calculate D2E/DX2 analytically  !
 ! A52   A(14,24,25)           110.9485         calculate D2E/DX2 analytically  !
 ! A53   A(14,24,26)           111.4256         calculate D2E/DX2 analytically  !
 ! A54   A(14,24,27)           106.8294         calculate D2E/DX2 analytically  !
 ! A55   A(25,24,26)           109.2893         calculate D2E/DX2 analytically  !
 ! A56   A(25,24,27)           108.9258         calculate D2E/DX2 analytically  !
 ! A57   A(26,24,27)           109.3555         calculate D2E/DX2 analytically  !
 ! A58   A(15,28,29)           111.461          calculate D2E/DX2 analytically  !
 ! A59   A(15,28,30)           111.1707         calculate D2E/DX2 analytically  !
 ! A60   A(15,28,31)           106.7881         calculate D2E/DX2 analytically  !
 ! A61   A(29,28,30)           108.8782         calculate D2E/DX2 analytically  !
 ! A62   A(29,28,31)           109.6323         calculate D2E/DX2 analytically  !
 ! A63   A(30,28,31)           108.857          calculate D2E/DX2 analytically  !
 ! A64   A(33,32,36)           109.1532         calculate D2E/DX2 analytically  !
 ! A65   A(33,32,39)           108.7187         calculate D2E/DX2 analytically  !
 ! A66   A(33,32,45)           109.1214         calculate D2E/DX2 analytically  !
 ! A67   A(36,32,39)           109.6952         calculate D2E/DX2 analytically  !
 ! A68   A(36,32,45)           109.2197         calculate D2E/DX2 analytically  !
 ! A69   A(39,32,45)           110.9057         calculate D2E/DX2 analytically  !
 ! A70   A(32,33,34)           110.809          calculate D2E/DX2 analytically  !
 ! A71   A(32,33,38)           109.558          calculate D2E/DX2 analytically  !
 ! A72   A(32,33,44)           113.7077         calculate D2E/DX2 analytically  !
 ! A73   A(34,33,38)           102.9942         calculate D2E/DX2 analytically  !
 ! A74   A(34,33,44)           110.049          calculate D2E/DX2 analytically  !
 ! A75   A(38,33,44)           109.1726         calculate D2E/DX2 analytically  !
 ! A76   A(33,34,37)           121.1289         calculate D2E/DX2 analytically  !
 ! A77   A(33,34,42)           121.6897         calculate D2E/DX2 analytically  !
 ! A78   A(37,34,42)           114.8063         calculate D2E/DX2 analytically  !
 ! A79   A(36,35,40)           108.0977         calculate D2E/DX2 analytically  !
 ! A80   A(36,35,42)           113.388          calculate D2E/DX2 analytically  !
 ! A81   A(36,35,47)           116.0532         calculate D2E/DX2 analytically  !
 ! A82   A(40,35,42)           104.2637         calculate D2E/DX2 analytically  !
 ! A83   A(40,35,47)           111.4217         calculate D2E/DX2 analytically  !
 ! A84   A(42,35,47)           102.9908         calculate D2E/DX2 analytically  !
 ! A85   A(32,36,35)           112.0441         calculate D2E/DX2 analytically  !
 ! A86   A(32,36,41)           108.1524         calculate D2E/DX2 analytically  !
 ! A87   A(32,36,46)           108.8973         calculate D2E/DX2 analytically  !
 ! A88   A(35,36,41)           109.8486         calculate D2E/DX2 analytically  !
 ! A89   A(35,36,46)           107.2047         calculate D2E/DX2 analytically  !
 ! A90   A(41,36,46)           110.7056         calculate D2E/DX2 analytically  !
 ! A91   A(10,37,19)            86.3995         calculate D2E/DX2 analytically  !
 ! A92   A(10,37,34)           145.4452         calculate D2E/DX2 analytically  !
 ! A93   A(19,37,34)           102.6271         calculate D2E/DX2 analytically  !
 ! A94   A(34,42,35)           122.6594         calculate D2E/DX2 analytically  !
 ! A95   A(33,44,63)           112.8196         calculate D2E/DX2 analytically  !
 ! A96   A(32,45,67)           113.9907         calculate D2E/DX2 analytically  !
 ! A97   A(36,46,71)           114.4254         calculate D2E/DX2 analytically  !
 ! A98   A(35,47,48)           107.8387         calculate D2E/DX2 analytically  !
 ! A99   A(35,47,49)           108.6282         calculate D2E/DX2 analytically  !
 ! A100  A(35,47,50)           113.9473         calculate D2E/DX2 analytically  !
 ! A101  A(48,47,49)           108.4501         calculate D2E/DX2 analytically  !
 ! A102  A(48,47,50)           111.1542         calculate D2E/DX2 analytically  !
 ! A103  A(49,47,50)           106.6783         calculate D2E/DX2 analytically  !
 ! A104  A(47,50,75)           113.917          calculate D2E/DX2 analytically  !
 ! A105  A(43,51,52)           114.4138         calculate D2E/DX2 analytically  !
 ! A106  A(43,51,53)           113.2211         calculate D2E/DX2 analytically  !
 ! A107  A(43,51,54)           107.5081         calculate D2E/DX2 analytically  !
 ! A108  A(52,51,53)           112.223          calculate D2E/DX2 analytically  !
 ! A109  A(52,51,54)           103.9115         calculate D2E/DX2 analytically  !
 ! A110  A(53,51,54)           104.4746         calculate D2E/DX2 analytically  !
 ! A111  A(51,52,83)           136.7238         calculate D2E/DX2 analytically  !
 ! A112  A(51,54,55)           119.8757         calculate D2E/DX2 analytically  !
 ! A113  A(51,54,56)           119.266          calculate D2E/DX2 analytically  !
 ! A114  A(55,54,56)           120.8389         calculate D2E/DX2 analytically  !
 ! A115  A(54,55,57)           119.4311         calculate D2E/DX2 analytically  !
 ! A116  A(54,55,58)           119.7572         calculate D2E/DX2 analytically  !
 ! A117  A(57,55,58)           120.8116         calculate D2E/DX2 analytically  !
 ! A118  A(54,56,59)           119.126          calculate D2E/DX2 analytically  !
 ! A119  A(54,56,60)           120.3334         calculate D2E/DX2 analytically  !
 ! A120  A(59,56,60)           120.5404         calculate D2E/DX2 analytically  !
 ! A121  A(55,57,61)           120.5721         calculate D2E/DX2 analytically  !
 ! A122  A(55,57,97)           118.3211         calculate D2E/DX2 analytically  !
 ! A123  A(61,57,97)           121.0767         calculate D2E/DX2 analytically  !
 ! A124  A(56,59,61)           120.8299         calculate D2E/DX2 analytically  !
 ! A125  A(56,59,93)           118.8168         calculate D2E/DX2 analytically  !
 ! A126  A(61,59,93)           120.3298         calculate D2E/DX2 analytically  !
 ! A127  A(57,61,59)           119.1901         calculate D2E/DX2 analytically  !
 ! A128  A(57,61,62)           120.4563         calculate D2E/DX2 analytically  !
 ! A129  A(59,61,62)           120.3536         calculate D2E/DX2 analytically  !
 ! A130  A(44,63,64)           109.8234         calculate D2E/DX2 analytically  !
 ! A131  A(44,63,65)           110.5986         calculate D2E/DX2 analytically  !
 ! A132  A(44,63,66)           106.1327         calculate D2E/DX2 analytically  !
 ! A133  A(64,63,65)           110.2997         calculate D2E/DX2 analytically  !
 ! A134  A(64,63,66)           110.042          calculate D2E/DX2 analytically  !
 ! A135  A(65,63,66)           109.8641         calculate D2E/DX2 analytically  !
 ! A136  A(45,67,68)           111.2335         calculate D2E/DX2 analytically  !
 ! A137  A(45,67,69)           111.0042         calculate D2E/DX2 analytically  !
 ! A138  A(45,67,70)           106.457          calculate D2E/DX2 analytically  !
 ! A139  A(68,67,69)           109.3091         calculate D2E/DX2 analytically  !
 ! A140  A(68,67,70)           109.5705         calculate D2E/DX2 analytically  !
 ! A141  A(69,67,70)           109.2077         calculate D2E/DX2 analytically  !
 ! A142  A(46,71,72)           110.8734         calculate D2E/DX2 analytically  !
 ! A143  A(46,71,73)           110.7284         calculate D2E/DX2 analytically  !
 ! A144  A(46,71,74)           106.2416         calculate D2E/DX2 analytically  !
 ! A145  A(72,71,73)           110.1997         calculate D2E/DX2 analytically  !
 ! A146  A(72,71,74)           109.3059         calculate D2E/DX2 analytically  !
 ! A147  A(73,71,74)           109.3986         calculate D2E/DX2 analytically  !
 ! A148  A(50,75,76)           106.6771         calculate D2E/DX2 analytically  !
 ! A149  A(50,75,77)           111.07           calculate D2E/DX2 analytically  !
 ! A150  A(50,75,78)           111.2244         calculate D2E/DX2 analytically  !
 ! A151  A(76,75,77)           109.3605         calculate D2E/DX2 analytically  !
 ! A152  A(76,75,78)           109.0786         calculate D2E/DX2 analytically  !
 ! A153  A(77,75,78)           109.3657         calculate D2E/DX2 analytically  !
 ! A154  A(12,79,80)           106.7452         calculate D2E/DX2 analytically  !
 ! A155  A(12,79,81)           111.5484         calculate D2E/DX2 analytically  !
 ! A156  A(12,79,82)           110.8578         calculate D2E/DX2 analytically  !
 ! A157  A(80,79,81)           109.4428         calculate D2E/DX2 analytically  !
 ! A158  A(80,79,82)           109.3705         calculate D2E/DX2 analytically  !
 ! A159  A(81,79,82)           108.8357         calculate D2E/DX2 analytically  !
 ! A160  A(19,83,52)           109.1812         calculate D2E/DX2 analytically  !
 ! A161  A(19,83,84)           124.2553         calculate D2E/DX2 analytically  !
 ! A162  A(52,83,84)           126.1081         calculate D2E/DX2 analytically  !
 ! A163  A(83,84,85)           127.4293         calculate D2E/DX2 analytically  !
 ! A164  A(83,84,89)           114.7608         calculate D2E/DX2 analytically  !
 ! A165  A(85,84,89)           112.819          calculate D2E/DX2 analytically  !
 ! A166  A(84,85,86)           110.9952         calculate D2E/DX2 analytically  !
 ! A167  A(84,85,87)           107.2168         calculate D2E/DX2 analytically  !
 ! A168  A(84,85,88)           110.8183         calculate D2E/DX2 analytically  !
 ! A169  A(86,85,87)           109.4858         calculate D2E/DX2 analytically  !
 ! A170  A(86,85,88)           108.8932         calculate D2E/DX2 analytically  !
 ! A171  A(87,85,88)           109.4025         calculate D2E/DX2 analytically  !
 ! A172  A(84,89,90)           110.67           calculate D2E/DX2 analytically  !
 ! A173  A(84,89,91)           106.7087         calculate D2E/DX2 analytically  !
 ! A174  A(84,89,92)           110.7746         calculate D2E/DX2 analytically  !
 ! A175  A(90,89,91)           109.6392         calculate D2E/DX2 analytically  !
 ! A176  A(90,89,92)           109.0737         calculate D2E/DX2 analytically  !
 ! A177  A(91,89,92)           109.9493         calculate D2E/DX2 analytically  !
 ! A178  A(59,93,94)           111.7375         calculate D2E/DX2 analytically  !
 ! A179  A(59,93,95)           112.0883         calculate D2E/DX2 analytically  !
 ! A180  A(59,93,96)           111.5546         calculate D2E/DX2 analytically  !
 ! A181  A(94,93,95)           107.4342         calculate D2E/DX2 analytically  !
 ! A182  A(94,93,96)           106.7359         calculate D2E/DX2 analytically  !
 ! A183  A(95,93,96)           106.9833         calculate D2E/DX2 analytically  !
 ! A184  A(57,97,98)           111.6311         calculate D2E/DX2 analytically  !
 ! A185  A(57,97,99)           111.4163         calculate D2E/DX2 analytically  !
 ! A186  A(57,97,100)          112.5824         calculate D2E/DX2 analytically  !
 ! A187  A(98,97,99)           106.0722         calculate D2E/DX2 analytically  !
 ! A188  A(98,97,100)          107.0275         calculate D2E/DX2 analytically  !
 ! A189  A(99,97,100)          107.7673         calculate D2E/DX2 analytically  !
 ! D1    D(5,1,2,3)            -53.9628         calculate D2E/DX2 analytically  !
 ! D2    D(5,1,2,7)             63.1024         calculate D2E/DX2 analytically  !
 ! D3    D(5,1,2,13)          -176.9154         calculate D2E/DX2 analytically  !
 ! D4    D(8,1,2,3)             64.8193         calculate D2E/DX2 analytically  !
 ! D5    D(8,1,2,7)           -178.1156         calculate D2E/DX2 analytically  !
 ! D6    D(8,1,2,13)           -58.1334         calculate D2E/DX2 analytically  !
 ! D7    D(14,1,2,3)          -174.0918         calculate D2E/DX2 analytically  !
 ! D8    D(14,1,2,7)           -57.0267         calculate D2E/DX2 analytically  !
 ! D9    D(14,1,2,13)           62.9556         calculate D2E/DX2 analytically  !
 ! D10   D(2,1,5,4)             54.0663         calculate D2E/DX2 analytically  !
 ! D11   D(2,1,5,10)           -65.7209         calculate D2E/DX2 analytically  !
 ! D12   D(2,1,5,15)           173.3492         calculate D2E/DX2 analytically  !
 ! D13   D(8,1,5,4)            -65.3764         calculate D2E/DX2 analytically  !
 ! D14   D(8,1,5,10)           174.8363         calculate D2E/DX2 analytically  !
 ! D15   D(8,1,5,15)            53.9064         calculate D2E/DX2 analytically  !
 ! D16   D(14,1,5,4)           175.3512         calculate D2E/DX2 analytically  !
 ! D17   D(14,1,5,10)           55.5639         calculate D2E/DX2 analytically  !
 ! D18   D(14,1,5,15)          -65.366          calculate D2E/DX2 analytically  !
 ! D19   D(2,1,14,24)          -99.753          calculate D2E/DX2 analytically  !
 ! D20   D(5,1,14,24)          139.3508         calculate D2E/DX2 analytically  !
 ! D21   D(8,1,14,24)           21.0548         calculate D2E/DX2 analytically  !
 ! D22   D(1,2,3,6)            170.9652         calculate D2E/DX2 analytically  !
 ! D23   D(1,2,3,11)            55.9014         calculate D2E/DX2 analytically  !
 ! D24   D(1,2,3,12)           -67.3796         calculate D2E/DX2 analytically  !
 ! D25   D(7,2,3,6)             53.6204         calculate D2E/DX2 analytically  !
 ! D26   D(7,2,3,11)           -61.4434         calculate D2E/DX2 analytically  !
 ! D27   D(7,2,3,12)           175.2756         calculate D2E/DX2 analytically  !
 ! D28   D(13,2,3,6)           -67.405          calculate D2E/DX2 analytically  !
 ! D29   D(13,2,3,11)          177.5311         calculate D2E/DX2 analytically  !
 ! D30   D(13,2,3,12)           54.2501         calculate D2E/DX2 analytically  !
 ! D31   D(1,2,13,20)         -147.098          calculate D2E/DX2 analytically  !
 ! D32   D(3,2,13,20)           90.7448         calculate D2E/DX2 analytically  !
 ! D33   D(7,2,13,20)          -28.6027         calculate D2E/DX2 analytically  !
 ! D34   D(2,3,11,4)           -60.0845         calculate D2E/DX2 analytically  !
 ! D35   D(6,3,11,4)          -179.7302         calculate D2E/DX2 analytically  !
 ! D36   D(12,3,11,4)           60.8899         calculate D2E/DX2 analytically  !
 ! D37   D(2,3,12,79)         -174.4445         calculate D2E/DX2 analytically  !
 ! D38   D(6,3,12,79)          -52.0289         calculate D2E/DX2 analytically  !
 ! D39   D(11,3,12,79)          63.72           calculate D2E/DX2 analytically  !
 ! D40   D(9,4,5,1)             63.5436         calculate D2E/DX2 analytically  !
 ! D41   D(9,4,5,10)          -177.1777         calculate D2E/DX2 analytically  !
 ! D42   D(9,4,5,15)           -57.4369         calculate D2E/DX2 analytically  !
 ! D43   D(11,4,5,1)           -54.8089         calculate D2E/DX2 analytically  !
 ! D44   D(11,4,5,10)           64.4698         calculate D2E/DX2 analytically  !
 ! D45   D(11,4,5,15)         -175.7895         calculate D2E/DX2 analytically  !
 ! D46   D(16,4,5,1)          -174.2703         calculate D2E/DX2 analytically  !
 ! D47   D(16,4,5,10)          -54.9916         calculate D2E/DX2 analytically  !
 ! D48   D(16,4,5,15)           64.7492         calculate D2E/DX2 analytically  !
 ! D49   D(5,4,11,3)            59.404          calculate D2E/DX2 analytically  !
 ! D50   D(9,4,11,3)           -58.5749         calculate D2E/DX2 analytically  !
 ! D51   D(16,4,11,3)         -176.414          calculate D2E/DX2 analytically  !
 ! D52   D(5,4,16,17)          -58.2617         calculate D2E/DX2 analytically  !
 ! D53   D(5,4,16,18)         -169.1185         calculate D2E/DX2 analytically  !
 ! D54   D(5,4,16,19)           67.4175         calculate D2E/DX2 analytically  !
 ! D55   D(9,4,16,17)           63.3087         calculate D2E/DX2 analytically  !
 ! D56   D(9,4,16,18)          -47.5482         calculate D2E/DX2 analytically  !
 ! D57   D(9,4,16,19)         -171.0122         calculate D2E/DX2 analytically  !
 ! D58   D(11,4,16,17)        -179.2012         calculate D2E/DX2 analytically  !
 ! D59   D(11,4,16,18)          69.942          calculate D2E/DX2 analytically  !
 ! D60   D(11,4,16,19)         -53.522          calculate D2E/DX2 analytically  !
 ! D61   D(1,5,10,37)          149.3476         calculate D2E/DX2 analytically  !
 ! D62   D(4,5,10,37)           28.5151         calculate D2E/DX2 analytically  !
 ! D63   D(15,5,10,37)         -89.5882         calculate D2E/DX2 analytically  !
 ! D64   D(1,5,15,28)           96.5514         calculate D2E/DX2 analytically  !
 ! D65   D(4,5,15,28)         -142.2459         calculate D2E/DX2 analytically  !
 ! D66   D(10,5,15,28)         -23.2091         calculate D2E/DX2 analytically  !
 ! D67   D(5,10,37,19)          -8.1812         calculate D2E/DX2 analytically  !
 ! D68   D(5,10,37,34)          98.965          calculate D2E/DX2 analytically  !
 ! D69   D(3,12,79,80)         172.7113         calculate D2E/DX2 analytically  !
 ! D70   D(3,12,79,81)         -67.7812         calculate D2E/DX2 analytically  !
 ! D71   D(3,12,79,82)          53.6798         calculate D2E/DX2 analytically  !
 ! D72   D(2,13,20,21)         -60.0317         calculate D2E/DX2 analytically  !
 ! D73   D(2,13,20,22)          62.0575         calculate D2E/DX2 analytically  !
 ! D74   D(2,13,20,23)        -179.1257         calculate D2E/DX2 analytically  !
 ! D75   D(1,14,24,25)         -59.1222         calculate D2E/DX2 analytically  !
 ! D76   D(1,14,24,26)          62.8972         calculate D2E/DX2 analytically  !
 ! D77   D(1,14,24,27)        -177.7188         calculate D2E/DX2 analytically  !
 ! D78   D(5,15,28,29)         -61.3258         calculate D2E/DX2 analytically  !
 ! D79   D(5,15,28,30)          60.3475         calculate D2E/DX2 analytically  !
 ! D80   D(5,15,28,31)         178.9592         calculate D2E/DX2 analytically  !
 ! D81   D(4,16,19,37)         -44.3539         calculate D2E/DX2 analytically  !
 ! D82   D(4,16,19,83)          35.568          calculate D2E/DX2 analytically  !
 ! D83   D(17,16,19,37)         76.6305         calculate D2E/DX2 analytically  !
 ! D84   D(17,16,19,83)        156.5524         calculate D2E/DX2 analytically  !
 ! D85   D(18,16,19,37)       -164.0027         calculate D2E/DX2 analytically  !
 ! D86   D(18,16,19,83)        -84.0808         calculate D2E/DX2 analytically  !
 ! D87   D(16,19,37,10)         14.2424         calculate D2E/DX2 analytically  !
 ! D88   D(16,19,37,34)       -132.018          calculate D2E/DX2 analytically  !
 ! D89   D(83,19,37,10)        -91.2901         calculate D2E/DX2 analytically  !
 ! D90   D(83,19,37,34)        122.4495         calculate D2E/DX2 analytically  !
 ! D91   D(16,19,83,52)       -101.8292         calculate D2E/DX2 analytically  !
 ! D92   D(16,19,83,84)         70.8276         calculate D2E/DX2 analytically  !
 ! D93   D(37,19,83,52)         15.5141         calculate D2E/DX2 analytically  !
 ! D94   D(37,19,83,84)       -171.8291         calculate D2E/DX2 analytically  !
 ! D95   D(36,32,33,34)        -51.8622         calculate D2E/DX2 analytically  !
 ! D96   D(36,32,33,38)         61.1101         calculate D2E/DX2 analytically  !
 ! D97   D(36,32,33,44)       -176.4339         calculate D2E/DX2 analytically  !
 ! D98   D(39,32,33,34)         67.7666         calculate D2E/DX2 analytically  !
 ! D99   D(39,32,33,38)       -179.2612         calculate D2E/DX2 analytically  !
 ! D100  D(39,32,33,44)        -56.8051         calculate D2E/DX2 analytically  !
 ! D101  D(45,32,33,34)       -171.1532         calculate D2E/DX2 analytically  !
 ! D102  D(45,32,33,38)        -58.181          calculate D2E/DX2 analytically  !
 ! D103  D(45,32,33,44)         64.275          calculate D2E/DX2 analytically  !
 ! D104  D(33,32,36,35)         55.0818         calculate D2E/DX2 analytically  !
 ! D105  D(33,32,36,41)        -66.1339         calculate D2E/DX2 analytically  !
 ! D106  D(33,32,36,46)        173.5004         calculate D2E/DX2 analytically  !
 ! D107  D(39,32,36,35)        -63.9414         calculate D2E/DX2 analytically  !
 ! D108  D(39,32,36,41)        174.8429         calculate D2E/DX2 analytically  !
 ! D109  D(39,32,36,46)         54.4772         calculate D2E/DX2 analytically  !
 ! D110  D(45,32,36,35)        174.3119         calculate D2E/DX2 analytically  !
 ! D111  D(45,32,36,41)         53.0962         calculate D2E/DX2 analytically  !
 ! D112  D(45,32,36,46)        -67.2696         calculate D2E/DX2 analytically  !
 ! D113  D(33,32,45,67)       -134.7742         calculate D2E/DX2 analytically  !
 ! D114  D(36,32,45,67)        105.976          calculate D2E/DX2 analytically  !
 ! D115  D(39,32,45,67)        -15.0366         calculate D2E/DX2 analytically  !
 ! D116  D(32,33,34,37)       -159.656          calculate D2E/DX2 analytically  !
 ! D117  D(32,33,34,42)         38.7488         calculate D2E/DX2 analytically  !
 ! D118  D(38,33,34,37)         83.2641         calculate D2E/DX2 analytically  !
 ! D119  D(38,33,34,42)        -78.331          calculate D2E/DX2 analytically  !
 ! D120  D(44,33,34,37)        -33.0315         calculate D2E/DX2 analytically  !
 ! D121  D(44,33,34,42)        165.3733         calculate D2E/DX2 analytically  !
 ! D122  D(32,33,44,63)        -94.8737         calculate D2E/DX2 analytically  !
 ! D123  D(34,33,44,63)        140.1469         calculate D2E/DX2 analytically  !
 ! D124  D(38,33,44,63)         27.7945         calculate D2E/DX2 analytically  !
 ! D125  D(33,34,37,10)       -154.3538         calculate D2E/DX2 analytically  !
 ! D126  D(33,34,37,19)        -52.1244         calculate D2E/DX2 analytically  !
 ! D127  D(42,34,37,10)          8.4308         calculate D2E/DX2 analytically  !
 ! D128  D(42,34,37,19)        110.6602         calculate D2E/DX2 analytically  !
 ! D129  D(33,34,42,35)        -25.7714         calculate D2E/DX2 analytically  !
 ! D130  D(37,34,42,35)        171.5504         calculate D2E/DX2 analytically  !
 ! D131  D(40,35,36,32)         74.067          calculate D2E/DX2 analytically  !
 ! D132  D(40,35,36,41)       -165.7001         calculate D2E/DX2 analytically  !
 ! D133  D(40,35,36,46)        -45.3502         calculate D2E/DX2 analytically  !
 ! D134  D(42,35,36,32)        -41.0048         calculate D2E/DX2 analytically  !
 ! D135  D(42,35,36,41)         79.2281         calculate D2E/DX2 analytically  !
 ! D136  D(42,35,36,46)       -160.422          calculate D2E/DX2 analytically  !
 ! D137  D(47,35,36,32)       -159.9554         calculate D2E/DX2 analytically  !
 ! D138  D(47,35,36,41)        -39.7225         calculate D2E/DX2 analytically  !
 ! D139  D(47,35,36,46)         80.6274         calculate D2E/DX2 analytically  !
 ! D140  D(36,35,42,34)         26.1802         calculate D2E/DX2 analytically  !
 ! D141  D(40,35,42,34)        -91.1528         calculate D2E/DX2 analytically  !
 ! D142  D(47,35,42,34)        152.3987         calculate D2E/DX2 analytically  !
 ! D143  D(36,35,47,48)        177.5096         calculate D2E/DX2 analytically  !
 ! D144  D(36,35,47,49)         60.1664         calculate D2E/DX2 analytically  !
 ! D145  D(36,35,47,50)        -58.5909         calculate D2E/DX2 analytically  !
 ! D146  D(40,35,47,48)        -58.2103         calculate D2E/DX2 analytically  !
 ! D147  D(40,35,47,49)       -175.5536         calculate D2E/DX2 analytically  !
 ! D148  D(40,35,47,50)         65.6892         calculate D2E/DX2 analytically  !
 ! D149  D(42,35,47,48)         53.0208         calculate D2E/DX2 analytically  !
 ! D150  D(42,35,47,49)        -64.3224         calculate D2E/DX2 analytically  !
 ! D151  D(42,35,47,50)        176.9203         calculate D2E/DX2 analytically  !
 ! D152  D(32,36,46,71)        118.0855         calculate D2E/DX2 analytically  !
 ! D153  D(35,36,46,71)       -120.4962         calculate D2E/DX2 analytically  !
 ! D154  D(41,36,46,71)         -0.693          calculate D2E/DX2 analytically  !
 ! D155  D(33,44,63,64)        -63.7488         calculate D2E/DX2 analytically  !
 ! D156  D(33,44,63,65)         58.22           calculate D2E/DX2 analytically  !
 ! D157  D(33,44,63,66)        177.337          calculate D2E/DX2 analytically  !
 ! D158  D(32,45,67,68)        -59.4982         calculate D2E/DX2 analytically  !
 ! D159  D(32,45,67,69)         62.4518         calculate D2E/DX2 analytically  !
 ! D160  D(32,45,67,70)       -178.8053         calculate D2E/DX2 analytically  !
 ! D161  D(36,46,71,72)        -59.2346         calculate D2E/DX2 analytically  !
 ! D162  D(36,46,71,73)         63.4104         calculate D2E/DX2 analytically  !
 ! D163  D(36,46,71,74)       -177.8957         calculate D2E/DX2 analytically  !
 ! D164  D(35,47,50,75)        -67.8845         calculate D2E/DX2 analytically  !
 ! D165  D(48,47,50,75)         54.2067         calculate D2E/DX2 analytically  !
 ! D166  D(49,47,50,75)        172.2528         calculate D2E/DX2 analytically  !
 ! D167  D(47,50,75,76)       -163.7205         calculate D2E/DX2 analytically  !
 ! D168  D(47,50,75,77)        -44.6242         calculate D2E/DX2 analytically  !
 ! D169  D(47,50,75,78)         77.4378         calculate D2E/DX2 analytically  !
 ! D170  D(43,51,52,83)       -112.3149         calculate D2E/DX2 analytically  !
 ! D171  D(53,51,52,83)         18.4678         calculate D2E/DX2 analytically  !
 ! D172  D(54,51,52,83)        130.762          calculate D2E/DX2 analytically  !
 ! D173  D(43,51,54,55)        122.3751         calculate D2E/DX2 analytically  !
 ! D174  D(43,51,54,56)        -59.2167         calculate D2E/DX2 analytically  !
 ! D175  D(52,51,54,55)       -115.9814         calculate D2E/DX2 analytically  !
 ! D176  D(52,51,54,56)         62.4268         calculate D2E/DX2 analytically  !
 ! D177  D(53,51,54,55)          1.8165         calculate D2E/DX2 analytically  !
 ! D178  D(53,51,54,56)       -179.7753         calculate D2E/DX2 analytically  !
 ! D179  D(51,52,83,19)        -68.7768         calculate D2E/DX2 analytically  !
 ! D180  D(51,52,83,84)        118.7367         calculate D2E/DX2 analytically  !
 ! D181  D(51,54,55,57)        177.243          calculate D2E/DX2 analytically  !
 ! D182  D(51,54,55,58)         -2.6288         calculate D2E/DX2 analytically  !
 ! D183  D(56,54,55,57)         -1.1396         calculate D2E/DX2 analytically  !
 ! D184  D(56,54,55,58)        178.9885         calculate D2E/DX2 analytically  !
 ! D185  D(51,54,56,59)       -178.0557         calculate D2E/DX2 analytically  !
 ! D186  D(51,54,56,60)          1.7684         calculate D2E/DX2 analytically  !
 ! D187  D(55,54,56,59)          0.3366         calculate D2E/DX2 analytically  !
 ! D188  D(55,54,56,60)       -179.8392         calculate D2E/DX2 analytically  !
 ! D189  D(54,55,57,61)          1.0445         calculate D2E/DX2 analytically  !
 ! D190  D(54,55,57,97)       -176.9806         calculate D2E/DX2 analytically  !
 ! D191  D(58,55,57,61)       -179.0851         calculate D2E/DX2 analytically  !
 ! D192  D(58,55,57,97)          2.8898         calculate D2E/DX2 analytically  !
 ! D193  D(54,56,59,61)          0.576          calculate D2E/DX2 analytically  !
 ! D194  D(54,56,59,93)       -177.6671         calculate D2E/DX2 analytically  !
 ! D195  D(60,56,59,61)       -179.2478         calculate D2E/DX2 analytically  !
 ! D196  D(60,56,59,93)          2.5091         calculate D2E/DX2 analytically  !
 ! D197  D(55,57,61,59)         -0.1515         calculate D2E/DX2 analytically  !
 ! D198  D(55,57,61,62)        179.8619         calculate D2E/DX2 analytically  !
 ! D199  D(97,57,61,59)        177.8186         calculate D2E/DX2 analytically  !
 ! D200  D(97,57,61,62)         -2.168          calculate D2E/DX2 analytically  !
 ! D201  D(55,57,97,98)         74.8872         calculate D2E/DX2 analytically  !
 ! D202  D(55,57,97,99)        -43.5015         calculate D2E/DX2 analytically  !
 ! D203  D(55,57,97,100)      -164.7084         calculate D2E/DX2 analytically  !
 ! D204  D(61,57,97,98)       -103.1275         calculate D2E/DX2 analytically  !
 ! D205  D(61,57,97,99)        138.4838         calculate D2E/DX2 analytically  !
 ! D206  D(61,57,97,100)        17.277          calculate D2E/DX2 analytically  !
 ! D207  D(56,59,61,57)         -0.6664         calculate D2E/DX2 analytically  !
 ! D208  D(56,59,61,62)        179.3203         calculate D2E/DX2 analytically  !
 ! D209  D(93,59,61,57)        177.5503         calculate D2E/DX2 analytically  !
 ! D210  D(93,59,61,62)         -2.4631         calculate D2E/DX2 analytically  !
 ! D211  D(56,59,93,94)        -41.8921         calculate D2E/DX2 analytically  !
 ! D212  D(56,59,93,95)       -162.5491         calculate D2E/DX2 analytically  !
 ! D213  D(56,59,93,96)         77.5016         calculate D2E/DX2 analytically  !
 ! D214  D(61,59,93,94)        139.8557         calculate D2E/DX2 analytically  !
 ! D215  D(61,59,93,95)         19.1987         calculate D2E/DX2 analytically  !
 ! D216  D(61,59,93,96)       -100.7506         calculate D2E/DX2 analytically  !
 ! D217  D(19,83,84,85)        129.7946         calculate D2E/DX2 analytically  !
 ! D218  D(19,83,84,89)        -23.1839         calculate D2E/DX2 analytically  !
 ! D219  D(52,83,84,85)        -58.7987         calculate D2E/DX2 analytically  !
 ! D220  D(52,83,84,89)        148.2229         calculate D2E/DX2 analytically  !
 ! D221  D(83,84,85,86)        -93.2672         calculate D2E/DX2 analytically  !
 ! D222  D(83,84,85,87)         26.269          calculate D2E/DX2 analytically  !
 ! D223  D(83,84,85,88)        145.6031         calculate D2E/DX2 analytically  !
 ! D224  D(89,84,85,86)         60.1438         calculate D2E/DX2 analytically  !
 ! D225  D(89,84,85,87)        179.68           calculate D2E/DX2 analytically  !
 ! D226  D(89,84,85,88)        -60.9859         calculate D2E/DX2 analytically  !
 ! D227  D(83,84,89,90)       -142.6976         calculate D2E/DX2 analytically  !
 ! D228  D(83,84,89,91)        -23.4685         calculate D2E/DX2 analytically  !
 ! D229  D(83,84,89,92)         96.193          calculate D2E/DX2 analytically  !
 ! D230  D(85,84,89,90)         60.345          calculate D2E/DX2 analytically  !
 ! D231  D(85,84,89,91)        179.5741         calculate D2E/DX2 analytically  !
 ! D232  D(85,84,89,92)        -60.7644         calculate D2E/DX2 analytically  !
 --------------------------------------------------------------------------------
 Trust Radius=1.00D-01 FncErr=1.00D-07 GrdErr=1.00D-06 EigMax=2.50D+02 EigMin=1.00D-04
 Number of steps in this run=    534 maximum allowed number of steps=    600.
 Search for a saddle point of order  1.
 GradGradGradGradGradGradGradGradGradGradGradGradGradGradGradGradGradGrad

 Leave Link  103 at Wed Jun  5 05:37:21 2019, MaxMem=  6442450944 cpu:               4.9 elap:               0.2
 (Enter /home/ekwan/sw/g16/l202.exe)
 Stoichiometry    C30H47F6NaO15S
 Framework group  C1[X(C30H47F6NaO15S)]
 Deg. of freedom   294
 Full point group                 C1      NOp   1
 Largest Abelian subgroup         C1      NOp   1
 Largest concise Abelian subgroup C1      NOp   1
                         Standard orientation:                         
 ---------------------------------------------------------------------
 Center     Atomic      Atomic             Coordinates (Angstroms)
 Number     Number       Type             X           Y           Z
 ---------------------------------------------------------------------
      1          6           0        3.067638    0.125093   -1.558663
      2          6           0        3.529511    1.021526   -0.409752
      3          6           0        3.375294    2.500861   -0.795275
      4          6           0        1.552289    1.999126   -2.305860
      5          6           0        1.645047    0.504077   -1.979322
      6          1           0        3.548271    3.162059    0.065379
      7          1           0        2.872052    0.834832    0.449348
      8          1           0        3.731115    0.268322   -2.421007
      9          1           0        2.197845    2.202392   -3.170486
     10          1           0        0.966281    0.273647   -1.148213
     11          8           0        2.031591    2.766783   -1.173861
     12          8           0        4.283880    2.789496   -1.818767
     13          8           0        4.872724    0.706268   -0.079542
     14          8           0        3.078047   -1.241931   -1.163504
     15          8           0        1.261465   -0.215996   -3.143061
     16          6           0        0.126723    2.498615   -2.604978
     17          1           0       -0.221307    1.886629   -3.463162
     18          1           0        0.257614    3.527909   -3.012624
     19          8           0       -0.721079    2.474193   -1.525210
     20          6           0        5.169335    0.863750    1.298264
     21          1           0        5.009825    1.895745    1.641642
     22          1           0        4.562071    0.187728    1.915408
     23          1           0        6.224418    0.610062    1.426367
     24          6           0        4.219872   -1.961683   -1.605279
     25          1           0        4.296174   -1.943167   -2.702001
     26          1           0        5.139944   -1.557007   -1.171930
     27          1           0        4.089065   -2.994147   -1.276955
     28          6           0        0.502613   -1.387024   -2.871408
     29          1           0        1.070860   -2.101222   -2.269427
     30          1           0       -0.429957   -1.142219   -2.345933
     31          1           0        0.256438   -1.835219   -3.838121
     32          6           0       -4.131902    1.290467    0.694675
     33          6           0       -2.812917    1.847947    0.159822
     34          6           0       -1.872019    0.738776   -0.196318
     35          6           0       -3.662724   -0.848676   -0.594367
     36          6           0       -4.679663    0.256354   -0.296188
     37          1           0       -0.816164    0.911305   -0.276143
     38          1           0       -2.987510    2.343725   -0.805954
     39          1           0       -3.944828    0.812062    1.661562
     40          1           0       -3.611696   -1.507221    0.276617
     41          1           0       -4.944929    0.779020   -1.224214
     42          8           0       -2.286418   -0.349294   -0.752797
     43          8           0        0.026246   -0.029782    3.739654
     44          8           0       -2.180396    2.756442    1.040847
     45          8           0       -5.064112    2.349675    0.826507
     46          8           0       -5.820497   -0.365717    0.272748
     47          6           0       -3.891699   -1.644601   -1.886088
     48          1           0       -3.066788   -2.364563   -1.988879
     49          1           0       -3.855680   -0.953231   -2.733764
     50          8           0       -5.139899   -2.290868   -1.944928
     51         16           0       -0.145380   -0.000647    2.276829
     52          8           0        0.679685    1.032751    1.578069
     53          8           0       -1.593731    0.038249    1.847515
     54          6           0        0.473767   -1.558891    1.628509
     55          6           0       -0.362526   -2.378559    0.881232
     56          6           0        1.801893   -1.911746    1.856648
     57          6           0        0.143529   -3.557495    0.334000
     58          1           0       -1.393452   -2.096101    0.728973
     59          6           0        2.289554   -3.099888    1.318520
     60          1           0        2.446527   -1.267270    2.443152
     61          6           0        1.469179   -3.926562    0.549378
     62          1           0        1.859344   -4.843021    0.125648
     63          6           0       -2.498405    4.127048    0.750559
     64          1           0       -2.117921    4.394827   -0.242554
     65          1           0       -3.577131    4.289850    0.799551
     66          1           0       -1.998136    4.723221    1.516127
     67          6           0       -5.784593    2.337796    2.056028
     68          1           0       -6.350166    1.407619    2.175349
     69          1           0       -5.106568    2.462699    2.910779
     70          1           0       -6.474939    3.183503    2.018352
     71          6           0       -7.028064   -0.165528   -0.459329
     72          1           0       -7.260663    0.902661   -0.544744
     73          1           0       -6.957774   -0.617908   -1.454062
     74          1           0       -7.816549   -0.662372    0.110258
     75          6           0       -5.283674   -3.356225   -1.009087
     76          1           0       -6.138363   -3.950568   -1.339610
     77          1           0       -4.385905   -3.988780   -0.989848
     78          1           0       -5.481139   -2.974624   -0.000616
     79          6           0        4.318344    4.167392   -2.172232
     80          1           0        5.144130    4.291149   -2.875515
     81          1           0        3.383166    4.484468   -2.648113
     82          1           0        4.496391    4.794313   -1.286802
     83         11           0        0.295564    2.965324    0.424815
     84          8           0        1.051319    5.044820    0.992839
     85          6           0        0.799030    5.756407    2.196700
     86          1           0       -0.072888    6.416791    2.088469
     87          1           0        0.600789    5.015805    2.974481
     88          1           0        1.670017    6.361328    2.482405
     89          6           0        1.319436    5.903964   -0.110674
     90          1           0        2.205976    6.521932    0.085556
     91          1           0        1.504514    5.260256   -0.971531
     92          1           0        0.461182    6.560534   -0.311047
     93          6           0        3.708568   -3.500306    1.613145
     94          9           0        4.551299   -2.445544    1.542936
     95          9           0        4.161483   -4.438844    0.751326
     96          9           0        3.831437   -4.014785    2.857857
     97          6           0       -0.763678   -4.390755   -0.527242
     98          9           0       -0.939395   -3.834165   -1.755501
     99          9           0       -2.000093   -4.498522    0.016083
    100          9           0       -0.291156   -5.635275   -0.722585
 ---------------------------------------------------------------------
 Rotational constants (GHZ):           0.0576113           0.0486724           0.0338273
 Leave Link  202 at Wed Jun  5 05:37:21 2019, MaxMem=  6442450944 cpu:               5.6 elap:               0.2
 (Enter /home/ekwan/sw/g16/l301.exe)
 Standard basis: 6-31G(d) (6D, 7F)
 Ernie: Thresh=  0.10000D-02 Tol=  0.10000D-05 Strict=F.
 There are   897 symmetry adapted cartesian basis functions of A   symmetry.
 There are   897 symmetry adapted basis functions of A   symmetry.
   897 basis functions,  1720 primitive gaussians,   897 cartesian basis functions
   214 alpha electrons      214 beta electrons
       nuclear repulsion energy      9743.8288915042 Hartrees.
 IExCor=  402 DFT=T Ex+Corr=B3LYP ExCW=0 ScaHFX=  0.200000
 ScaDFX=  0.800000  0.720000  1.000000  0.810000 ScalE2=  1.000000  1.000000
 IRadAn=      5 IRanWt=     -1 IRanGd=            0 ICorTp=0 IEmpDi=141
 NAtoms=  100 NActive=  100 NUniq=  100 SFac= 1.00D+00 NAtFMM=   60 NAOKFM=T Big=T
 Integral buffers will be    131072 words long.
 Raffenetti 2 integral format.
 Two-electron integral symmetry is turned on.
 R6Disp:  Grimme-D3(BJ) Dispersion energy=       -0.2360191860 Hartrees.
 Nuclear repulsion after empirical dispersion term =     9743.5928723182 Hartrees.
 Force inversion solution in PCM.
 ------------------------------------------------------------------------------
 Polarizable Continuum Model (PCM)
 =================================
 Model                : PCM.
 Atomic radii         : UFF (Universal Force Field).
 Polarization charges : Total charges.
 Charge compensation  : None.
 Solution method      : Matrix inversion.
 Cavity type          : Scaled VdW (van der Waals Surface) (Alpha=1.100).
 Cavity algorithm     : GePol (No added spheres)
                        Default sphere list used, NSphG=  100.
                        Lebedev-Laikov grids with approx.  5.0 points / Ang**2.
                        Smoothing algorithm: York/Karplus (Gamma=1.0000).
                        Polarization charges: spherical gaussians, with
                                              point-specific exponents (IZeta= 3).
                        Self-potential: point-specific (ISelfS= 7).
                        Self-field    : sphere-specific E.n sum rule (ISelfD= 2).
 1st derivatives      : Analytical E(r).r(x)/FMM algorithm (CHGder, D1EAlg=3).
                        Cavity 1st derivative terms included.
 2nd derivatives      : Analytical E(r).r(xy)/FMM algorithm (CHGder, D2EAlg=3).
                        Cavity 2nd derivative terms included.
 Solvent              : TetraHydroFuran, Eps=   7.425700 Eps(inf)=   1.974025
 ------------------------------------------------------------------------------
 GePol: Number of generator spheres                  =     100
 GePol: Total number of spheres                      =     100
 GePol: Number of exposed spheres                    =     100 (100.00%)
 GePol: Number of points                             =    6116
 GePol: Average weight of points                     =       0.12
 GePol: Minimum weight of points                     =   0.62D-11
 GePol: Maximum weight of points                     =    0.20977
 GePol: Number of points with low weight             =     500
 GePol: Fraction of low-weight points (<1% of avg)   =       8.18%
 GePol: Cavity surface area                          =    740.253 Ang**2
 GePol: Cavity volume                                =    973.505 Ang**3
 Leave Link  301 at Wed Jun  5 05:37:21 2019, MaxMem=  6442450944 cpu:               7.4 elap:               0.3
 (Enter /home/ekwan/sw/g16/l302.exe)
 NPDir=0 NMtPBC=     1 NCelOv=     1 NCel=       1 NClECP=     1 NCelD=      1
         NCelK=      1 NCelE2=     1 NClLst=     1 CellRange=     0.0.
 One-electron integrals computed using PRISM.
 One-electron integral symmetry used in STVInt
 NBasis=   897 RedAO= T EigKep=  3.76D-04  NBF=   897
 NBsUse=   897 1.00D-06 EigRej= -1.00D+00 NBFU=   897
 Precomputing XC quadrature grid using
 IXCGrd= 4 IRadAn=           5 IRanWt=          -1 IRanGd=           0 AccXCQ= 0.00D+00.
 Generated NRdTot=       0 NPtTot=           0 NUsed=           0 NTot=          32
 NSgBfM=   845   844   844   845   845 MxSgAt=   100 MxSgA2=   100.
 Leave Link  302 at Wed Jun  5 05:37:39 2019, MaxMem=  6442450944 cpu:             505.0 elap:              17.5
 (Enter /home/ekwan/sw/g16/l303.exe)
 DipDrv:  MaxL=1.
 Leave Link  303 at Wed Jun  5 05:37:40 2019, MaxMem=  6442450944 cpu:              14.3 elap:               0.6
 (Enter /home/ekwan/sw/g16/l401.exe)
 ExpMin= 2.60D-02 ExpMax= 2.19D+04 ExpMxC= 3.30D+03 IAcc=3 IRadAn=         5 AccDes= 0.00D+00
 Harris functional with IExCor=  402 and IRadAn=       5 diagonalized for initial guess.
 HarFok:  IExCor=  402 AccDes= 0.00D+00 IRadAn=         5 IDoV= 1 UseB2=F ITyADJ=14
 ICtDFT=  3500011 ScaDFX=  1.000000  1.000000  1.000000  1.000000
 FoFCou: FMM=F IPFlag=           0 FMFlag=      100000 FMFlg1=        2001
         NFxFlg=           0 DoJE=T BraDBF=F KetDBF=T FulRan=T
         wScrn=  0.000000 ICntrl=       500 IOpCl=  0 I1Cent=   200000004 NGrid=           0
         NMat0=    1 NMatS0=      1 NMatT0=    0 NMatD0=    1 NMtDS0=    0 NMtDT0=    0
 Petite list used in FoFCou.
 Harris En= -3459.38636916938    
 JPrj=0 DoOrth=F DoCkMO=F.
 Leave Link  401 at Wed Jun  5 05:38:00 2019, MaxMem=  6442450944 cpu:             598.1 elap:              20.8
 (Enter /home/ekwan/sw/g16/l502.exe)
 Integral symmetry usage will be decided dynamically.
 Closed shell SCF:
 Using DIIS extrapolation, IDIIS=  1040.
 NGot=  6442450944 LenX=  6440803163 LenY=  6439997657
 Requested convergence on RMS density matrix=1.00D-08 within 128 cycles.
 Requested convergence on MAX density matrix=1.00D-06.
 Requested convergence on             energy=1.00D-06.
 No special actions if energy rises.
 Fock matrices will be formed incrementally for  20 cycles.

 Cycle   1  Pass 1  IDiag  1:
 FoFJK:  IHMeth= 1 ICntrl=       0 DoSepK=F KAlg= 0 I1Cent=           0 FoldK=F
 IRaf= 870000000 NMat=       1 IRICut=       1 DoRegI=T DoRafI=F ISym2E= 0 IDoP0=0 IntGTp=1.
 FoFCou: FMM=T IPFlag=           0 FMFlag=      100000 FMFlg1=        2001
         NFxFlg=           0 DoJE=F BraDBF=F KetDBF=F FulRan=T
         wScrn=  0.000000 ICntrl=         0 IOpCl=  0 I1Cent=           0 NGrid=           0
[...]
 6223,0.00005389,0.00011550,0.00000814,0.00001276,-0.00045664,-0.000240
 63,-0.00027317,0.00009666,-0.00011455,0.00015296,0.00008157,-0.0000604
 9,0.00000970,0.00033152,0.00011643,0.00004597,-0.00041035,0.00113792,-
 0.00066390,-0.00005027,-0.00051511,-0.00000255,0.00035008,-0.00037062,
 0.00002770,-0.00015416,0.00054879,-0.00044159,-0.00050060,-0.00143929,
 0.00009503,-0.00047143,0.00000915,0.00017213,-0.02263588,0.00695459,-0
 .00392355,-0.00150040,0.00008618,0.00030106,-0.00137032,0.00048832,0.0
 0063771,-0.00006553,0.00002128,0.00001995,-0.00015916,-0.00372835,0.00
 122498,-0.00030971,0.00005965,-0.00000676,-0.00000803,0.00006437,0.000
 00918,0.00000027,-0.00000095,-0.00000658,0.00000701,-0.00000811,-0.000
 00156,-0.00000379,-0.00000853,0.00000359,-0.00003254,-0.00000241,-0.00
 005166,0.00000308,0.00000568,0.00000378,0.00000012,0.00000158,0.000007
 18,0.00000746,-0.00000498,0.00000616,-0.00006629,0.00000584,0.00003201
 ,0.00000785,-0.00000613,-0.00000381,-0.00000631,0.00000421,-0.00000486
 ,0.00001456,0.00000143,0.00000206,-0.00012114,0.00006627,-0.00006844,0
 .00006231,-0.00002400,0.00000185,0.00046620,-0.00007043,-0.00026028,-0
 .00002876,0.00000123,0.00002287,0.00000585,0.00004001,0.00000659,-0.00
 000445,-0.00000523,-0.00000414,0.00000299,-0.00000316,-0.00000008,0.00
 000032,-0.00000612,0.00000301,0.00000963,0.00010405,0.00001119,-0.0000
 0395,-0.00002904,0.00000330,-0.00000151,0.00001312,-0.00001297,0.00000
 315,-0.00000264,0.00000022,-0.00000030,0.00000135,-0.00000242,-0.00000
 239,-0.00000287,0.00000163,0.00000344,0.00001400,0.00000983,-0.0000029
 5,-0.00000406,0.00000079,0.00000041,0.00000538,0.00000333,0.00000191,-
 0.00000353,-0.00000083,0.00111195,-0.00067286,-0.00004434,-0.00046086,
 -0.00007280,0.00004629,-0.00028755,0.00021172,-0.00006561,-0.00034540,
 0.00028747,0.00036936,-0.02544632,-0.07866970,-0.00396886,-0.01784072,
 0.00431252,-0.02286263,0.02009788,0.07847959,0.00002500,-0.00003184,0.
 00000446,-0.00001686,0.00001857,-0.00006436,0.00004042,-0.00000758,-0.
 00001982,0.00001084,0.00006011,0.00000267,0.00009142,0.00015442,-0.000
 34433,-0.00000772,-0.00000781,0.00000574,-0.00000557,-0.00001048,0.000
 00847,0.00000679,0.00000679,0.00001091,0.00000712,-0.00000180,0.000004
 43,0.00001489,0.00000408,0.00001311,-0.00003646,-0.00006712,0.00006977
 ,-0.00000892,-0.00000182,0.00001584,-0.00002041,0.00000401,0.00007421,
 -0.00003592,-0.00000690,0.00014068,-0.00026101,-0.00052338,0.00005279,
 -0.00006305,0.00005533,-0.00008703,-0.00000614,-0.00000950,0.00003838,
 0.00001908,-0.00000936,0.00002033,0.00007597,-0.00000346,0.00010916,-0
 .00001806,-0.00002090,-0.00006201,0.00000332,0.00000169,0.00000771,0.0
 0000181,0.00000449,0.00001678,0.00000216,0.00000260,0.00000676,-0.0000
 0706,0.00000304,-0.00002638,0.00001680,0.00001407,0.00002520,-0.000011
 60,-0.00000788,0.00000303,0.00000302,0.00000958,-0.00003350,0.00009689
 ,0.00043089,0.00032128,0.00032222,-0.00001777,-0.00017185,-0.00010428,
 0.00018637,-0.00002692,0.00001036,0.00004184,0.00010360,0.00003658,-0.
 00001831,-0.00003742,-0.00000541,0.00000157,-0.00000096,0.00007320,-0.
 00009597,-0.00033664,0.00008866,-0.00010739,-0.00039161,-0.00003485,-0
 .00001073,0.00006976,-0.00002388,-0.00000398,-0.00001380,-0.00000605,0
 .00000754,-0.00000536,0.00001118,-0.00000700,0.00001778,0.00002826,-0.
 00001433,0.00001032,-0.00002051,0.00002814,0.00000373,-0.00002188,-0.0
 0000895,0.00015227,-0.00003691,0.00016898,-0.00010054,-0.00000815,0.00
 002390,0.00002555,-0.00000098,0.00000184,0.00003884,-0.00001440,0.0000
 1469,0.00004017,-0.00067619,0.00016077,-0.00011824,-0.00003739,-0.0000
 7037,-0.00002159,0.00004809,-0.00003963,0.00004304,0.00033655,0.000101
 51,0.00017018,0.00013363,-0.00074947,0.00014284,0.00007609,0.00029386,
 0.00009672,-0.00019119,0.00028910,0.00012933,-0.00015604,-0.00060129,0
 .00043559,0.00049342,0.00196256,-0.00044043,0.00074612,-0.00023613,-0.
 00010498,0.01069675,0.00318834,0.01009449,0.00069052,-0.00035544,0.000
 02318,0.00028554,0.00032681,-0.00117754,0.00005918,-0.00002559,0.00001
 793,-0.00060945,0.00094251,0.00055169,0.00026722,0.00004022,0.00021632
 ,-0.00000113,-0.00002617,-0.00000750,0.00000175,0.00000495,0.00000469,
 -0.00000170,0.00000260,-0.00000056,-0.00000035,-0.00000080,-0.00000028
 ,-0.00000620,-0.00001022,-0.00002346,0.00000697,0.00000260,-0.00000086
 ,-0.00000338,-0.00000479,0.00000570,-0.00000134,0.00000470,0.00000283,
 0.00002471,-0.00000209,-0.00003182,-0.00000289,0.00000417,0.00000451,-
 0.00001076,0.00000436,0.00001000,0.00000499,-0.00000036,0.00000238,-0.
 00002119,-0.00013924,0.00001941,-0.00001487,0.00002273,0.00005545,0.00
 096440,-0.00002446,-0.00095573,0.00009250,-0.00005043,0.00004537,0.000
 00520,0.00000727,-0.00000348,0.00000103,0.00000118,-0.00000004,-0.0000
 0148,0.00000175,0.00000011,-0.00000089,-0.00000234,0.00000363,-0.00001
 079,-0.00003827,-0.00005516,0.00000451,0.00001101,0.00002055,-0.000002
 28,-0.00000354,-0.00001063,-0.00000080,-0.00000031,0.00000124,0.000000
 70,0.00000130,0.00000378,0.00000098,-0.00000034,0.00000118,-0.00000275
 ,-0.00000825,-0.00001724,0.00000076,0.00000172,0.00000167,0.00000002,0
 .00000119,0.00000241,-0.00000090,0.00000249,0.00000166,-0.00066752,0.0
 0027442,-0.00012917,0.00016070,0.00001869,-0.00001080,0.00015959,-0.00
 014562,0.00008795,0.00020800,-0.00012658,-0.00010439,-0.05169411,-0.00
 622882,-0.08739616,-0.05000397,-0.02329980,-0.04988410,0.11232884,0.00
 978039,0.12690418,-0.00002198,0.00009844,0.00001921,0.00001866,-0.0000
 0472,0.00002819,-0.00002494,0.00002914,0.00001983,0.00000140,-0.000004
 85,0.00000440,-0.00003820,-0.00004628,0.00011749,0.00000264,-0.0000049
 5,-0.00000241,0.00000403,0.00000917,-0.00000457,-0.00000251,-0.0000110
 1,-0.00001073,0.00000041,-0.00000135,-0.00000282,-0.00001122,0.0000053
 1,0.00000349,0.00002496,0.00000186,-0.00003079,0.00000136,-0.00002562,
 -0.00001353,-0.00000398,-0.00002833,-0.00001555,0.00000416,-0.00010719
 ,-0.00008040,0.00013383,0.00012294,-0.00001334,-0.00002239,-0.00000688
 ,0.00000252,0.00000315,0.00000028,-0.00000846,0.00000633,0.00000123,-0
 .00000015,0.00003628,0.00000874,-0.00001054,0.00001980,0.00002209,0.00
 001467,-0.00000219,-0.00000937,-0.00000098,-0.00000072,0.00000152,-0.0
 0001170,-0.00000367,-0.00000074,-0.00000263,0.00000312,0.00006494,0.00
 001798,0.00000182,-0.00000644,-0.00001118,-0.00000130,-0.00001099,0.00
 000042,0.00002803,-0.00002220,0.00000946,-0.00014370,-0.00002810,-0.00
 011644,-0.00010016,0.00000651,0.00003515,0.00007880,-0.00010884,0.0000
 2510,-0.00001546,-0.00000934,-0.00003136,-0.00003121,-0.00003571,0.000
 02785,-0.00002815,-0.00001926,-0.00000966,-0.00015056,-0.00015014,0.00
 032786,-0.00017422,-0.00012572,-0.00000804,0.00006868,-0.00000639,0.00
 000721,-0.00000779,0.00001421,0.00000111,0.00000629,-0.00000894,0.0000
 0071,-0.00000770,-0.00000224,-0.00000433,0.00003824,-0.00009693,0.0000
 7000,-0.00000818,0.00000888,-0.00000054,0.00018099,0.00026553,-0.00017
 602,0.00014994,-0.00022189,0.00027571,0.00003371,0.00002791,-0.0000208
 9,-0.00000965,0.00004893,-0.00003267,-0.00003333,0.00005398,-0.0000043
 3,0.00031179,-0.00027365,0.00007905,0.00001696,-0.00000501,-0.00016060
 ,-0.00005183,0.00008119,0.00000558,-0.00021180,0.00023144,0.00009254,-
 0.00080763,0.00078285,-0.00025465,0.00004926,-0.00043004,-0.00003910,0
 .00044345,-0.00018704,-0.00014565,0.00026361,-0.00097570,0.00062687,-0
 .00209039,-0.00036961,0.00099382,0.00010336,-0.00047311,0.00027218,0.0
 1083553,-0.01160934,0.00434516,0.00014553,-0.00038553,0.00011950,0.001
 12923,-0.00033454,-0.00020598,0.00006446,-0.00011508,0.00004336,-0.003
 34769,-0.00085143,0.00045339,0.00051262,-0.00230082,0.00104200,0.00000
 252,-0.00000365,-0.00000515,-0.00000121,-0.00000042,0.00000118,0.00000
 040,-0.00000455,0.00000055,-0.00000037,0.00000411,-0.00000113,0.000005
 60,-0.00000567,0.00001983,0.00000448,-0.00000057,0.00000163,0.00000062
 ,-0.00000071,-0.00000594,-0.00000290,0.00000372,-0.00000173,0.00004627
 ,-0.00001461,-0.00000791,-0.00000741,0.00001254,0.00000003,0.00001469,
 -0.00001366,-0.00000630,-0.00000229,-0.00000296,-0.00000205,0.00030743
 ,-0.00043507,0.00000662,-0.00010089,0.00004968,0.00002310,0.00009921,0
 .00019860,-0.00021261,-0.00001944,0.00001649,-0.00001478,-0.00000320,0
 .00001432,0.00000359,-0.00000063,-0.00000161,-0.00000108,0.00000218,-0
 .00000252,-0.00000136,0.00000029,-0.00000183,0.00000065,-0.00002614,0.
 00004107,0.00003376,0.00000473,-0.00000930,-0.00000324,-0.00000311,0.0
 0000461,-0.00000174,0.00000183,-0.00000240,-0.00000067,-0.00000159,0.0
 0000078,-0.00000115,0.00000045,0.00000020,0.00000021,-0.00000158,0.000
 00436,0.00000597,0.00000020,-0.00000023,-0.00000092,-0.00000154,0.0000
 0124,0.00000030,0.00000179,-0.00000261,-0.00000043,0.00068155,0.000073
 05,-0.00040205,-0.00023440,-0.00010653,0.00004793,-0.00018356,-0.00000
 434,0.00006992,-0.00014637,0.00007605,0.00020287,-0.08876631,0.0486769
 1,-0.00811601,0.00414583,0.02322639,0.01145042,-0.04100200,0.04949769,
 -0.02388913,0.11781492,0.00001695,0.00009503,0.00006050,0.00015079,0.0
 0002346,0.00005165,0.00016221,0.00012440,0.00004278,0.00002069,0.00011
 925,0.00002433,0.00018397,0.00013371,-0.00008976,-0.00001408,-0.000022
 47,0.00000304,0.00001495,0.00003266,-0.00002597,-0.00002730,-0.0000205
 2,-0.00004019,-0.00002530,-0.00002576,-0.00002512,-0.00004125,0.000019
 73,-0.00000179,-0.00012256,-0.00012849,0.00000521,-0.00010691,-0.00013
 368,-0.00008838,-0.00016582,-0.00005196,0.00002553,-0.00033288,-0.0000
 2954,-0.00028335,-0.00038590,-0.00048546,-0.00019076,0.00011994,-0.000
 04240,0.00020256,-0.00002079,0.00003444,-0.00003251,-0.00005345,-0.000
 07763,-0.00008072,-0.00014421,-0.00018836,-0.00023633,0.00007428,0.000
 06927,0.00000234,-0.00000587,-0.00002221,0.00000342,0.00001415,-0.0000
 0703,-0.00002911,-0.00003197,-0.00000802,0.00000262,0.00026345,-0.0001
 6112,0.00012525,-0.00004063,-0.00001854,-0.00007727,-0.00004703,0.0000
 1847,-0.00001041,0.00001770,-0.00001462,0.00006282,0.00030950,0.000325
 90,0.00044162,0.00039897,-0.00005880,0.00002429,-0.00023415,0.00030586
 ,0.00000652,0.00003498,-0.00000007,-0.00003718,-0.00009100,0.00010226,
 -0.00006441,0.00005690,0.00007085,-0.00005525,-0.00000591,0.00082811,0
 .00041882,-0.00014899,0.00002259,0.00002069,-0.00025050,-0.00000159,-0
 .00000955,0.00003385,0.00006798,0.00002716,0.00000780,-0.00001353,0.00
 002685,-0.00003346,0.00000055,-0.00002372,-0.00010567,0.00006565,-0.00
 007766,0.00003217,-0.00001890,-0.00000267,0.00015794,-0.00049622,-0.00
 002826,0.00029795,-0.00072691,0.00116291,0.00004483,-0.00024543,0.0000
 2757,0.00017878,-0.00015495,0.00011345,0.00026420,-0.00002205,0.000006
 70,-0.00083667,0.00031243,-0.00002311,-0.00017902,-0.00002480,0.000140
 12,0.00011034,-0.00012390,-0.00001452,0.00058849,0.00004969,-0.0000238
 8,-0.00161082,0.00276169,-0.00114933,-0.00014038,-0.00143286,-0.000139
 38,0.00085820,-0.00083292,-0.00003735,0.00142357,-0.00184021,0.0011014
 7,-0.00754137,-0.00148690,0.00310583,-0.00023803,-0.00017795,0.0002370
 8,0.01454577,-0.03910711,0.01062077,0.00000179,0.00059665,-0.00048892,
 -0.00078984,-0.00008049,0.00072213,-0.00013855,0.00003626,-0.00006348,
 0.00371364,-0.00088028,-0.00020279,-0.00225099,-0.00029991,0.00021824,
 -0.00001859,0.00015992,0.00002329,0.00000095,-0.00000351,-0.00001756,0
 .00001681,-0.00001870,-0.00000386,-0.00000898,-0.00002013,0.00000951,-
 0.00006914,0.00000192,-0.00011106,0.00000248,0.00001092,0.00000816,0.0
 0000052,0.00000557,0.00001566,0.00001818,-0.00001427,0.00001253,-0.000
 15790,0.00002246,0.00007435,0.00001918,-0.00002066,-0.00000806,-0.0000
 1369,0.00001521,-0.00000817,0.00002789,0.00000435,0.00000384,-0.000286
 37,0.00018016,-0.00014292,0.00013340,-0.00002381,-0.00001656,-0.000101
 21,-0.00015055,0.00019102,0.00000166,-0.00000224,0.00003131,0.00001606
 ,0.00008848,0.00001455,-0.00001092,-0.00001219,-0.00000974,0.00000604,
 -0.00000635,0.00000095,0.00000093,-0.00001350,0.00000641,0.00003160,0.
 00025736,0.00003903,-0.00001410,-0.00007178,0.00000397,-0.00000077,0.0
 0003178,-0.00002833,0.00000692,-0.00000533,0.00000073,0.,0.00000267,-0
 .00000669,-0.00000675,-0.00000753,0.00000359,0.00001078,0.00003505,0.0
 0002656,-0.00000788,-0.00001079,0.00000189,0.00000170,0.00001239,0.000
 00738,0.00000381,-0.00000833,-0.00000238,0.00191238,-0.00109848,-0.000
 35943,-0.00066565,-0.00000748,0.00012759,-0.00055984,0.00048587,-0.000
 17261,-0.00052654,0.00039992,0.00052510,0.03903608,-0.25358518,0.04375
 698,0.02153633,-0.04976411,-0.03388842,0.03548749,-0.00604564,0.014486
 90,-0.10376032,0.35242319,0.00001757,-0.00007133,-0.00002101,-0.000061
 57,0.00000796,-0.00007329,-0.00000727,-0.00005039,-0.00003229,0.000003
 79,0.00001154,-0.00000999,0.00002062,0.00008805,-0.00025656,-0.0000025
 0,0.00000161,0.00000424,-0.00000953,-0.00002068,0.00001555,0.00001394,
 0.00001330,0.00002263,0.00001174,0.00000674,0.00001133,0.00002843,-0.0
 0000506,0.00000737,-0.00000159,-0.00001139,0.00005988,0.00002256,0.000
 04414,0.00004124,0.00003305,0.00002553,0.00005471,0.00007109,0.0000205
 1,0.00020489,-0.00014951,-0.00026276,0.00009372,-0.00006693,0.00005199
 ,-0.00011544,-0.00000006,-0.00001576,0.00003853,0.00002487,0.00001362,
 0.00003529,0.00007609,0.00004382,0.00014364,-0.00004005,-0.00004261,-0
 .00005338,0.00000485,0.00001049,0.00000538,-0.00000246,0.00000481,0.00
 002461,0.00001153,0.00000448,0.00000515,-0.00007993,0.00003761,-0.0000
 5991,0.00002599,0.00001976,0.00004625,0.00000456,-0.00001116,0.0000057
 7,-0.00000480,0.00001693,-0.00005046,0.00014500,0.00015030,0.00016489,
 0.00009725,0.00002429,-0.00010447,-0.00005492,0.00010248,-0.00003948,0
 .00000587,0.00002836,0.00008417,0.00005892,-0.00002316,-0.00001679,-0.
 00000664,-0.00000955,0.00001788,0.00012210,-0.00021943,-0.00048518,0.0
 0016301,-0.00003230,-0.00014837,0.00000911,-0.00001183,0.00003824,-0.0
 0002145,-0.00002671,-0.00001757,-0.00000942,0.00001221,-0.00001082,0.0
 0002008,-0.00000231,0.00001927,0.00004362,-0.00003839,0.00004595,-0.00
 001645,0.00001710,0.00000346,-0.00013629,-0.00000424,0.00018862,-0.000
 22134,0.00050748,-0.00057887,-0.00003132,0.00006902,0.00001851,-0.0000
 4411,0.00002207,0.00000703,-0.00006205,0.00000153,0.00002208,-0.000258
 18,0.00018662,-0.00009472,-0.00015046,0.00001581,0.00003680,0.00001364
 ,-0.00001509,0.00001855,0.00012787,0.00006920,0.00012007,0.00098635,-0
 .00170786,0.00032032,0.00006727,0.00074330,0.00013588,-0.00059490,0.00
 049012,0.00018423,-0.00032909,0.00084959,-0.00127194,0.00399692,0.0011
 2749,-0.00017573,-0.00009707,0.00050323,-0.00024197,-0.00586721,0.0263
 8926,0.00249018,-0.00004240,-0.00023535,0.00033897,-0.00011923,0.00008
 520,-0.00008933,0.00003561,0.00002718,0.00001875,-0.00010147,0.0006849
 8,-0.00062400,0.00065030,0.00077355,-0.00063574,0.00000310,-0.00005836
 ,-0.00000894,0.00000137,0.00000457,0.00000730,-0.00000577,0.00000862,0
 .00000052,0.00000235,0.00000300,-0.00000224,0.00001244,-0.00000433,0.0
 0000718,0.00000143,-0.00000105,-0.00000302,-0.00000227,-0.00000386,0.0
 0000180,-0.00000451,0.00000496,-0.00000099,0.00003749,-0.00000378,-0.0
 0003290,-0.00000394,0.00000388,0.00000383,-0.00000513,0.00000094,0.000
 00887,-0.00000303,-0.00000028,0.00000121,0.00003505,-0.00017379,-0.000
 06884,-0.00003589,0.00002668,0.00001377,0.00003943,0.00008737,-0.00012
 007,0.00001709,-0.00000695,0.00001983,0.00000059,-0.00002359,-0.000007
 78,0.00000406,0.00000488,0.00000298,-0.00000352,0.00000391,0.00000026,
 -0.00000101,0.00000251,0.00000083,-0.00000477,-0.00011113,-0.00006321,
 0.00000490,0.00003043,0.00001487,-0.00000011,-0.00001267,0.00000066,-0
 .00000312,0.00000221,0.00000100,0.00000125,-0.00000016,0.00000491,0.00
 000224,0.00000163,-0.00000022,-0.00000417,-0.00001677,-0.00002168,0.00
 000253,0.00000414,0.00000103,0.00000014,-0.00000297,-0.00000038,-0.000
 00234,0.00000502,0.00000200,-0.00119076,0.00040967,0.00021840,0.000404
 78,0.00006212,-0.00006201,0.00034033,-0.00021408,0.00008871,0.00029215
 ,-0.00017711,-0.00025046,-0.00526379,0.03934308,-0.08054251,0.01583218
 ,-0.04876321,-0.00245091,-0.02197927,0.01905522,0.00170293,0.01315504,
 -0.03997662,0.08164652\\-0.00000064,-0.00000032,0.00000128,-0.00000007
 ,-0.00000045,0.00000131,-0.00000022,-0.00000024,0.00000104,-0.00000046
 ,0.00000032,0.00000031,-0.00000108,-0.00000036,0.00000100,0.00000057,-
 0.00000054,0.00000084,0.00000007,-0.00000025,0.00000096,-0.00000068,0.
 00000017,0.00000135,-0.00000079,0.00000022,0.00000047,0.00000033,0.000
 00076,-0.00000053,-0.00000032,-0.00000023,0.00000038,-0.00000037,-0.00
 000012,0.00000096,0.00000023,-0.00000031,0.00000158,0.00000005,-0.0000
 0027,0.00000131,-0.00000092,0.00000037,0.00000050,-0.00000041,0.000000
 52,0.00000024,-0.00000115,0.00000023,-0.00000033,-0.00000079,0.0000004
 5,-0.00000033,0.00000010,0.00000067,-0.00000096,0.00000063,-0.00000095
 ,0.00000166,0.00000070,-0.00000082,0.00000152,0.00000061,-0.00000075,0
 .00000160,0.00000058,-0.00000082,0.00000206,-0.00000079,-0.00000018,0.
 00000200,-0.00000108,-0.00000001,0.00000188,-0.00000057,-0.00000033,0.
 00000194,-0.00000068,-0.00000026,0.00000201,-0.00000113,0.00000061,0.0
 0000042,-0.00000093,0.00000015,0.00000078,-0.00000075,0.00000027,0.000
 00019,-0.00000139,0.00000049,0.00000054,0.00000042,0.00000021,-0.00000
 136,0.00000021,0.00000013,-0.00000108,0.00000011,-0.00000052,-0.000001
 39,-0.00000024,0.00000067,-0.00000085,-0.00000020,0.00000060,-0.000001
 56,-0.00000081,0.00000045,0.00000117,0.00000005,0.00000023,-0.00000091
 ,0.00000060,-0.00000002,-0.00000118,0.00000012,0.00000013,-0.00000094,
 -0.00000026,0.00000061,-0.00000155,-0.00000010,0.00000052,-0.00000077,
 0.00000121,-0.00000071,0.00000008,0.00000027,-0.00000009,-0.00000143,0
 .00000042,0.00000028,-0.00000187,0.00000005,0.00000038,-0.00000173,-0.
 00000090,0.00000085,-0.00000086,-0.00000114,0.00000049,-0.00000047,-0.
 00000093,0.00000069,-0.00000107,-0.00000082,0.00000073,-0.00000114,0.0
 0000064,-0.00000022,0.00000032,0.00000033,-0.00000042,-0.00000002,0.00
 000081,-0.00000006,-0.00000026,0.00000043,-0.00000040,0.00000041,0.000
 00022,-0.00000062,0.00000007,0.00000043,-0.00000043,0.00000122,-0.0000
 0012,-0.00000014,0.00000060,0.00000033,-0.00000068,0.00000019,0.000000
 17,-0.00000040,0.00000139,0.00000076,-0.00000057,0.00000118,-0.0000001
 2,-0.00000016,0.00000148,-0.00000031,-0.00000030,0.00000151,0.00000068
 ,-0.00000021,-0.00000085,0.00000025,0.00000016,-0.00000146,0.00000065,
 0.00000011,-0.00000162,0.00000057,0.00000006,-0.00000125,0.00000098,0.
 00000025,-0.00000213,0.00000087,0.00000019,-0.00000215,0.00000119,-0.0
 0000003,-0.00000187,0.00000097,0.00000023,-0.00000246,-0.00000016,0.00
 000072,-0.00000215,-0.00000004,0.00000067,-0.00000242,-0.00000055,0.00
 000076,-0.00000204,0.,0.00000064,-0.00000231,-0.00000062,0.00000053,-0
 .00000105,-0.00000082,0.00000076,-0.00000132,-0.00000064,0.00000057,-0
 .00000071,-0.00000024,0.00000046,-0.00000121,-0.00000030,-0.00000011,0
 .00000094,-0.00000053,-0.00000010,0.00000122,-0.00000036,0.00000008,0.
 00000054,-0.00000004,-0.00000024,0.00000090,0.00000044,-0.00000050,0.0
 0000054,0.00000102,-0.00000025,-0.00000066,0.00000182,-0.00000049,-0.0
 0000042,0.00000135,-0.00000027,-0.00000073,0.00000138,-0.00000050,-0.0
 0000037,0.00000148,-0.00000063,-0.00000032,0.00000067,-0.00000012,-0.0
 0000080,0.00000066,-0.00000031,-0.00000012,0.00000036,0.00000005,-0.00
 000013,0.00000051,0.,-0.00000071,0.,-0.00000067,0.00000190,0.00000019,
 -0.00000079,0.00000197,-0.00000016,-0.00000055,0.00000221,0.00000063,-
 0.00000084,0.00000206,-0.00000050,0.00000019,0.00000052,-0.00000064,0.
 00000068,0.00000047,-0.00000046,0.00000021,0.00000016,-0.00000088,0.00
 000003,0.00000071\\\@


 ONE OF THE BENEFITS OF A COLLEGE EDUCATION
 IS TO SHOW THE BOY ITS LITTLE AVAIL 
                                    EMERSON IN 'CULTURE'
 Job cpu time:       4 days 13 hours 58 minutes 17.9 seconds.
 Elapsed time:       0 days  3 hours 41 minutes  2.8 seconds.
 File lengths (MBytes):  RWF=   9752 Int=      0 D2E=      0 Chk=    108 Scr=      1
 Normal termination of Gaussian 16 at Wed Jun  5 13:54:57 2019.
