 Entering Gaussian System, Link 0=g16
 Input=clay_new-glu_gluC6-ADDR-Na2_1Me2O-bisCF3-ts-b3lyp_d3bj-631gd-pcm_thf.gjf
 Output=clay_new-glu_gluC6-ADDR-Na2_1Me2O-bisCF3-ts-b3lyp_d3bj-631gd-pcm_thf.out
 Initial command:
 /home/ekwan/sw/g16/l1.exe "/scratch/users/ekwan/clay_new-glu_gluC6-ADDR-Na2_1Me2O-bisCF3-ts-b3lyp_d3bj-631gd-pcm_thf/Gau-56969.inp" -scrdir="/scratch/users/ekwan/clay_new-glu_gluC6-ADDR-Na2_1Me2O-bisCF3-ts-b3lyp_d3bj-631gd-pcm_thf/"
 Entering Link 1 = /home/ekwan/sw/g16/l1.exe PID=     56970.
  
 Copyright (c) 1988,1990,1992,1993,1995,1998,2003,2009,2016,
            Gaussian, Inc.  All Rights Reserved.
  
 This is part of the Gaussian(R) 16 program.  It is based on
 the Gaussian(R) 09 system (copyright 2009, Gaussian, Inc.),
 the Gaussian(R) 03 system (copyright 2003, Gaussian, Inc.),
 the Gaussian(R) 98 system (copyright 1998, Gaussian, Inc.),
 the Gaussian(R) 94 system (copyright 1995, Gaussian, Inc.),
 the Gaussian 92(TM) system (copyright 1992, Gaussian, Inc.),
 the Gaussian 90(TM) system (copyright 1990, Gaussian, Inc.),
 the Gaussian 88(TM) system (copyright 1988, Gaussian, Inc.),
 the Gaussian 86(TM) system (copyright 1986, Carnegie Mellon
 University), and the Gaussian 82(TM) system (copyright 1983,
 Carnegie Mellon University). Gaussian is a federally registered
 trademark of Gaussian, Inc.
  
 This software contains proprietary and confidential information,
 including trade secrets, belonging to Gaussian, Inc.
  
 This software is provided under written license and may be
 used, copied, transmitted, or stored only in accord with that
 written license.
  
 The following legend is applicable only to US Government
 contracts under FAR:
  
                    RESTRICTED RIGHTS LEGEND
  
 Use, reproduction and disclosure by the US Government is
 subject to restrictions as set forth in subparagraphs (a)
 and (c) of the Commercial Computer Software - Restricted
 Rights clause in FAR 52.227-19.
  
 Gaussian, Inc.
 340 Quinnipiac St., Bldg. 40, Wallingford CT 06492
  
  
 ---------------------------------------------------------------
 Warning -- This program may not be used in any manner that
 competes with the business of Gaussian, Inc. or will provide
 assistance to any competitor of Gaussian, Inc.  The licensee
 of this program is prohibited from giving any competitor of
 Gaussian, Inc. access to this program.  By using this program,
 the user acknowledges that Gaussian, Inc. is engaged in the
 business of creating and licensing software in the field of
 computational chemistry and represents and warrants to the
 licensee that it is not a competitor of Gaussian, Inc. and that
 it will not use this program in any manner prohibited above.
 ---------------------------------------------------------------
  

 Cite this work as:
 Gaussian 16, Revision A.03,
 M. J. Frisch, G. W. Trucks, H. B. Schlegel, G. E. Scuseria, 
 M. A. Robb, J. R. Cheeseman, G. Scalmani, V. Barone, 
 G. A. Petersson, H. Nakatsuji, X. Li, M. Caricato, A. V. Marenich, 
 J. Bloino, B. G. Janesko, R. Gomperts, B. Mennucci, H. P. Hratchian, 
 J. V. Ortiz, A. F. Izmaylov, J. L. Sonnenberg, D. Williams-Young, 
 F. Ding, F. Lipparini, F. Egidi, J. Goings, B. Peng, A. Petrone, 
 T. Henderson, D. Ranasinghe, V. G. Zakrzewski, J. Gao, N. Rega, 
 G. Zheng, W. Liang, M. Hada, M. Ehara, K. Toyota, R. Fukuda, 
 J. Hasegawa, M. Ishida, T. Nakajima, Y. Honda, O. Kitao, H. Nakai, 
 T. Vreven, K. Throssell, J. A. Montgomery, Jr., J. E. Peralta, 
 F. Ogliaro, M. J. Bearpark, J. J. Heyd, E. N. Brothers, K. N. Kudin, 
 V. N. Staroverov, T. A. Keith, R. Kobayashi, J. Normand, 
 K. Raghavachari, A. P. Rendell, J. C. Burant, S. S. Iyengar, 
 J. Tomasi, M. Cossi, J. M. Millam, M. Klene, C. Adamo, R. Cammi, 
 J. W. Ochterski, R. L. Martin, K. Morokuma, O. Farkas, 
 J. B. Foresman, and D. J. Fox, Gaussian, Inc., Wallingford CT, 2016.
 
 ******************************************
 Gaussian 16:  AS64L-G16RevA.03 25-Dec-2016
                 6-Jun-2019 
 ******************************************
 %mem=48GB
 %nprocshared=32
 Will use up to   32 processors via shared memory.
 ----------------------------------------------------------------------
 #p opt=(calcfc,ts,noeigentest,maxstep=10) freq=noraman b3lyp/6-31g(d) 
 scrf=(solvent=tetrahydrofuran,pcm) pop=none empiricaldispersion=gd3bj
 ----------------------------------------------------------------------
 1/5=1,8=10,10=4,11=1,18=20,26=3,38=1/1,3;
 2/9=110,12=2,17=6,18=5,40=1/2;
 3/5=1,6=6,7=1,11=2,25=1,30=1,70=2201,71=2,72=20,74=-5,124=41,140=1/1,2,3;
 4//1;
 5/5=2,38=5,53=20/2;
 8/6=4,10=90,11=11/1;
 11/6=1,8=1,9=11,15=111,16=1/1,2,10;
 10/6=1,13=1/2;
 7/10=1,18=20,25=1/1,2,3,16;
 1/5=1,8=10,10=4,11=1,18=20,26=3/3(2);
 2/9=110/2;
 99//99;
 2/9=110/2;
 3/5=1,6=6,7=1,11=2,25=1,30=1,70=2205,71=1,72=20,74=-5,124=41/1,2,3;
 4/5=5,16=3,69=1/1;
 5/5=2,38=5,53=20/2;
 7//1,2,3,16;
 1/5=1,8=10,11=1,18=20,26=3/3(-5);
 2/9=110/2;
 99/9=1/99;
 Leave Link    1 at Thu Jun  6 06:52:22 2019, MaxMem=  6442450944 cpu:               5.6 elap:               0.2
 (Enter /home/ekwan/sw/g16/l101.exe)
 -----
 title
 -----
 Symbolic Z-matrix:
 Charge =  0 Multiplicity = 1
 C                    -3.22742  -2.04784   1.10795 
 C                    -3.84859  -3.44991   1.03767 
 C                    -3.00481  -4.40816   0.18395 
 C                    -0.99916  -3.15874   0.49358 
 C                    -1.7112   -2.10963   1.3528 
 H                    -3.34465  -5.44674   0.29872 
 H                    -3.86465  -3.86457   2.05807 
 H                    -3.41873  -1.53567   0.15599 
 H                    -1.04791  -2.86251  -0.55838 
 H                    -1.55958  -2.37199   2.41061 
 O                    -1.67424  -4.42363   0.64656 
 O                    -3.127    -4.01254  -1.15884 
 O                    -5.17225  -3.30827   0.54915 
 O                    -3.76863  -1.28878   2.18367 
 O                    -1.07946  -0.8588    1.08423 
 C                     0.49533  -3.37362   0.86242 
 H                     0.61604  -4.47713   0.91827 
 H                     0.62896  -3.02186   1.91397 
 O                     1.38296  -2.78256   0.00124 
 C                    -5.96339  -4.47916   0.66075 
 H                    -5.64776  -5.25869  -0.04561 
 H                    -5.9308   -4.89037   1.68058 
 H                    -6.99056  -4.18977   0.42586 
 C                    -5.09303  -0.79828   2.01189 
 H                    -5.25009  -0.42374   0.99463 
 H                    -5.84208  -1.56883   2.21968 
 H                    -5.21032   0.02949   2.71626 
 C                    -1.13717   0.10091   2.14119 
 H                    -2.10785   0.59975   2.17373 
 H                    -0.95569  -0.38311   3.10808 
 H                    -0.33802   0.81796   1.95292 
 C                     4.23311  -0.07053   1.76979 
 C                     2.80282  -0.61282   1.77659 
 C                     2.13618  -0.51309   0.43333 
 C                     4.21557  -0.20545  -0.72746 
 C                     4.97543  -0.59487   0.54115 
 H                     1.08224  -0.71409   0.37178 
 H                     2.84553  -1.70099   1.9366 
 H                     4.18646   1.02514   1.73006 
 H                     4.16229   0.88516  -0.80441 
 H                     5.03918  -1.68637   0.60412 
 O                     2.84282  -0.68756  -0.66282 
 O                     0.67609   0.64414  -1.77454 
 O                     2.00686   0.00721   2.75857 
 O                     4.86671  -0.50173   2.96283 
 O                     6.27106  -0.01938   0.46943 
 C                     4.7983   -0.75329  -2.00992 
 H                     5.78564  -0.29375  -2.16164 
 H                     4.15273  -0.45869  -2.85192 
 O                     4.89583  -2.15978  -1.91854 
 S                     1.2428    1.81586  -1.0534 
 O                     2.19142   2.64591  -1.81844 
 O                     1.80941   1.4316    0.32106 
 C                    -0.17792   2.83858  -0.66837 
 C                    -1.39518   2.20879  -0.42253 
 C                    -0.05603   4.22332  -0.63997 
 C                    -2.51366   2.99198  -0.14977 
 H                    -1.46194   1.12879  -0.44605 
 C                    -1.18636   4.99215  -0.35581 
 H                     0.90001   4.68921  -0.84703 
 C                    -2.41733   4.38365  -0.11434 
 H                    -3.29255   4.987     0.09432 
 C                     1.83738  -0.76818   3.94221 
 H                     1.30933  -1.70712   3.726 
 H                     2.80205  -0.99106   4.40908 
 H                     1.2299   -0.16412   4.61952 
 C                     5.69935   0.48261   3.56704 
 H                     6.50507   0.79268   2.89363 
 H                     5.11453   1.36521   3.86106 
 H                     6.1256    0.0223    4.46158 
 C                     7.32314  -0.97916   0.42648 
 H                     7.35216  -1.57164   1.34972 
 H                     7.21035  -1.65517  -0.43055 
 H                     8.25461  -0.41753   0.32716 
 C                     5.41319  -2.7414   -3.10408 
 H                     5.45491  -3.81986  -2.9397 
 H                     4.76403  -2.53046  -3.96713 
 H                     6.42352  -2.3674   -3.32491 
 C                    -2.44327  -4.87054  -2.06443 
 H                    -2.74297  -4.5678   -3.06933 
 H                    -1.3564   -4.77617  -1.96569 
 H                    -2.72831  -5.91945  -1.90052 
 Na                    1.08073  -1.74051  -1.91924 
 O                    -0.96747  -1.87636  -2.98466 
 C                    -1.12603  -2.21798  -4.35368 
 H                    -1.11907  -1.32013  -4.98739 
 H                    -0.28795  -2.86352  -4.62711 
 H                    -2.06751  -2.75962  -4.51575 
 C                    -2.03013  -1.05862  -2.50171 
 H                    -2.9844   -1.59464  -2.56856 
 H                    -1.81155  -0.8408   -1.45736 
 H                    -2.08669  -0.11918  -3.06714 
 C                    -3.82693   2.32461   0.14809 
 F                    -3.92339   1.11982  -0.46172 
 F                    -4.87684   3.06984  -0.25205 
 F                    -3.98365   2.10843   1.47749 
 C                    -1.08871   6.49349  -0.38455 
 F                     0.13103   6.92192   0.00314 
 F                    -2.00262   7.07078   0.4246 
 F                    -1.3005    6.97976  -1.62953 
 
 Add virtual bond connecting atoms O53        and C34        Dist= 3.73D+00.
 Add virtual bond connecting atoms H37        and O15        Dist= 4.31D+00.
 Add virtual bond connecting atoms H37        and O19        Dist= 4.01D+00.
 Add virtual bond connecting atoms O84        and Na83       Dist= 4.37D+00.
 Add virtual bond connecting atoms H91        and H8         Dist= 4.50D+00.
 Add virtual bond connecting atoms H91        and H9         Dist= 4.42D+00.
 Add virtual bond connecting atoms H91        and H58        Dist= 4.24D+00.
 ITRead=  0  0  0  0  0  0  0  0  0  0  0  0  0  0  0  0  0  0  0  0
 ITRead=  0  0  0  0  0  0  0  0  0  0  0  0  0  0  0  0  0  0  0  0
 ITRead=  0  0  0  0  0  0  0  0  0  0  0  0  0  0  0  0  0  0  0  0
 ITRead=  0  0  0  0  0  0  0  0  0  0  0  0  0  0  0  0  0  0  0  0
 ITRead=  0  0  0  0  0  0  0  0  0  0  0  0  0  0  0  0  0  0  0  0
 MicOpt= -1 -1 -1 -1 -1 -1 -1 -1 -1 -1 -1 -1 -1 -1 -1 -1 -1 -1 -1 -1
 MicOpt= -1 -1 -1 -1 -1 -1 -1 -1 -1 -1 -1 -1 -1 -1 -1 -1 -1 -1 -1 -1
 MicOpt= -1 -1 -1 -1 -1 -1 -1 -1 -1 -1 -1 -1 -1 -1 -1 -1 -1 -1 -1 -1
 MicOpt= -1 -1 -1 -1 -1 -1 -1 -1 -1 -1 -1 -1 -1 -1 -1 -1 -1 -1 -1 -1
 MicOpt= -1 -1 -1 -1 -1 -1 -1 -1 -1 -1 -1 -1 -1 -1 -1 -1 -1 -1 -1 -1
 NAtoms=    100 NQM=      100 NQMF=       0 NMMI=      0 NMMIF=      0
                NMic=       0 NMicF=      0.
                    Isotopes and Nuclear Properties:
 (Nuclear quadrupole moments (NQMom) in fm**2, nuclear magnetic moments (NMagM)
  in nuclear magnetons)

  Atom         1           2           3           4           5           6           7           8           9          10
 IAtWgt=          12          12          12          12          12           1           1           1           1           1
 AtmWgt=  12.0000000  12.0000000  12.0000000  12.0000000  12.0000000   1.0078250   1.0078250   1.0078250   1.0078250   1.0078250
 NucSpn=           0           0           0           0           0           1           1           1           1           1
 AtZEff=   0.0000000   0.0000000   0.0000000   0.0000000   0.0000000   0.0000000   0.0000000   0.0000000   0.0000000   0.0000000
 NQMom=    0.0000000   0.0000000   0.0000000   0.0000000   0.0000000   0.0000000   0.0000000   0.0000000   0.0000000   0.0000000
 NMagM=    0.0000000   0.0000000   0.0000000   0.0000000   0.0000000   2.7928460   2.7928460   2.7928460   2.7928460   2.7928460
 AtZNuc=   6.0000000   6.0000000   6.0000000   6.0000000   6.0000000   1.0000000   1.0000000   1.0000000   1.0000000   1.0000000

  Atom        11          12          13          14          15          16          17          18          19          20
 IAtWgt=          16          16          16          16          16          12           1           1          16          12
 AtmWgt=  15.9949146  15.9949146  15.9949146  15.9949146  15.9949146  12.0000000   1.0078250   1.0078250  15.9949146  12.0000000
 NucSpn=           0           0           0           0           0           0           1           1           0           0
 AtZEff=   0.0000000   0.0000000   0.0000000   0.0000000   0.0000000   0.0000000   0.0000000   0.0000000   0.0000000   0.0000000
 NQMom=    0.0000000   0.0000000   0.0000000   0.0000000   0.0000000   0.0000000   0.0000000   0.0000000   0.0000000   0.0000000
 NMagM=    0.0000000   0.0000000   0.0000000   0.0000000   0.0000000   0.0000000   2.7928460   2.7928460   0.0000000   0.0000000
 AtZNuc=   8.0000000   8.0000000   8.0000000   8.0000000   8.0000000   6.0000000   1.0000000   1.0000000   8.0000000   6.0000000

  Atom        21          22          23          24          25          26          27          28          29          30
 IAtWgt=           1           1           1          12           1           1           1          12           1           1
 AtmWgt=   1.0078250   1.0078250   1.0078250  12.0000000   1.0078250   1.0078250   1.0078250  12.0000000   1.0078250   1.0078250
 NucSpn=           1           1           1           0           1           1           1           0           1           1
 AtZEff=   0.0000000   0.0000000   0.0000000   0.0000000   0.0000000   0.0000000   0.0000000   0.0000000   0.0000000   0.0000000
 NQMom=    0.0000000   0.0000000   0.0000000   0.0000000   0.0000000   0.0000000   0.0000000   0.0000000   0.0000000   0.0000000
 NMagM=    2.7928460   2.7928460   2.7928460   0.0000000   2.7928460   2.7928460   2.7928460   0.0000000   2.7928460   2.7928460
 AtZNuc=   1.0000000   1.0000000   1.0000000   6.0000000   1.0000000   1.0000000   1.0000000   6.0000000   1.0000000   1.0000000

  Atom        31          32          33          34          35          36          37          38          39          40
 IAtWgt=           1          12          12          12          12          12           1           1           1           1
 AtmWgt=   1.0078250  12.0000000  12.0000000  12.0000000  12.0000000  12.0000000   1.0078250   1.0078250   1.0078250   1.0078250
 NucSpn=           1           0           0           0           0           0           1           1           1           1
 AtZEff=   0.0000000   0.0000000   0.0000000   0.0000000   0.0000000   0.0000000   0.0000000   0.0000000   0.0000000   0.0000000
 NQMom=    0.0000000   0.0000000   0.0000000   0.0000000   0.0000000   0.0000000   0.0000000   0.0000000   0.0000000   0.0000000
 NMagM=    2.7928460   0.0000000   0.0000000   0.0000000   0.0000000   0.0000000   2.7928460   2.7928460   2.7928460   2.7928460
 AtZNuc=   1.0000000   6.0000000   6.0000000   6.0000000   6.0000000   6.0000000   1.0000000   1.0000000   1.0000000   1.0000000

  Atom        41          42          43          44          45          46          47          48          49          50
 IAtWgt=           1          16          16          16          16          16          12           1           1          16
 AtmWgt=   1.0078250  15.9949146  15.9949146  15.9949146  15.9949146  15.9949146  12.0000000   1.0078250   1.0078250  15.9949146
 NucSpn=           1           0           0           0           0           0           0           1           1           0
 AtZEff=   0.0000000   0.0000000   0.0000000   0.0000000   0.0000000   0.0000000   0.0000000   0.0000000   0.0000000   0.0000000
 NQMom=    0.0000000   0.0000000   0.0000000   0.0000000   0.0000000   0.0000000   0.0000000   0.0000000   0.0000000   0.0000000
 NMagM=    2.7928460   0.0000000   0.0000000   0.0000000   0.0000000   0.0000000   0.0000000   2.7928460   2.7928460   0.0000000
 AtZNuc=   1.0000000   8.0000000   8.0000000   8.0000000   8.0000000   8.0000000   6.0000000   1.0000000   1.0000000   8.0000000

  Atom        51          52          53          54          55          56          57          58          59          60
 IAtWgt=          32          16          16          12          12          12          12           1          12           1
 AtmWgt=  31.9720718  15.9949146  15.9949146  12.0000000  12.0000000  12.0000000  12.0000000   1.0078250  12.0000000   1.0078250
 NucSpn=           0           0           0           0           0           0           0           1           0           1
 AtZEff=   0.0000000   0.0000000   0.0000000   0.0000000   0.0000000   0.0000000   0.0000000   0.0000000   0.0000000   0.0000000
 NQMom=    0.0000000   0.0000000   0.0000000   0.0000000   0.0000000   0.0000000   0.0000000   0.0000000   0.0000000   0.0000000
 NMagM=    0.0000000   0.0000000   0.0000000   0.0000000   0.0000000   0.0000000   0.0000000   2.7928460   0.0000000   2.7928460
 AtZNuc=  16.0000000   8.0000000   8.0000000   6.0000000   6.0000000   6.0000000   6.0000000   1.0000000   6.0000000   1.0000000

  Atom        61          62          63          64          65          66          67          68          69          70
 IAtWgt=          12           1          12           1           1           1          12           1           1           1
 AtmWgt=  12.0000000   1.0078250  12.0000000   1.0078250   1.0078250   1.0078250  12.0000000   1.0078250   1.0078250   1.0078250
 NucSpn=           0           1           0           1           1           1           0           1           1           1
 AtZEff=   0.0000000   0.0000000   0.0000000   0.0000000   0.0000000   0.0000000   0.0000000   0.0000000   0.0000000   0.0000000
 NQMom=    0.0000000   0.0000000   0.0000000   0.0000000   0.0000000   0.0000000   0.0000000   0.0000000   0.0000000   0.0000000
 NMagM=    0.0000000   2.7928460   0.0000000   2.7928460   2.7928460   2.7928460   0.0000000   2.7928460   2.7928460   2.7928460
 AtZNuc=   6.0000000   1.0000000   6.0000000   1.0000000   1.0000000   1.0000000   6.0000000   1.0000000   1.0000000   1.0000000

  Atom        71          72          73          74          75          76          77          78          79          80
 IAtWgt=          12           1           1           1          12           1           1           1          12           1
 AtmWgt=  12.0000000   1.0078250   1.0078250   1.0078250  12.0000000   1.0078250   1.0078250   1.0078250  12.0000000   1.0078250
 NucSpn=           0           1           1           1           0           1           1           1           0           1
 AtZEff=   0.0000000   0.0000000   0.0000000   0.0000000   0.0000000   0.0000000   0.0000000   0.0000000   0.0000000   0.0000000
 NQMom=    0.0000000   0.0000000   0.0000000   0.0000000   0.0000000   0.0000000   0.0000000   0.0000000   0.0000000   0.0000000
 NMagM=    0.0000000   2.7928460   2.7928460   2.7928460   0.0000000   2.7928460   2.7928460   2.7928460   0.0000000   2.7928460
 AtZNuc=   6.0000000   1.0000000   1.0000000   1.0000000   6.0000000   1.0000000   1.0000000   1.0000000   6.0000000   1.0000000

  Atom        81          82          83          84          85          86          87          88          89          90
 IAtWgt=           1           1          23          16          12           1           1           1          12           1
 AtmWgt=   1.0078250   1.0078250  22.9897697  15.9949146  12.0000000   1.0078250   1.0078250   1.0078250  12.0000000   1.0078250
 NucSpn=           1           1           3           0           0           1           1           1           0           1
 AtZEff=   0.0000000   0.0000000   0.0000000   0.0000000   0.0000000   0.0000000   0.0000000   0.0000000   0.0000000   0.0000000
 NQMom=    0.0000000   0.0000000  10.4000000   0.0000000   0.0000000   0.0000000   0.0000000   0.0000000   0.0000000   0.0000000
 NMagM=    2.7928460   2.7928460   2.2175200   0.0000000   0.0000000   2.7928460   2.7928460   2.7928460   0.0000000   2.7928460
 AtZNuc=   1.0000000   1.0000000  11.0000000   8.0000000   6.0000000   1.0000000   1.0000000   1.0000000   6.0000000   1.0000000

  Atom        91          92          93          94          95          96          97          98          99         100
 IAtWgt=           1           1          12          19          19          19          12          19          19          19
 AtmWgt=   1.0078250   1.0078250  12.0000000  18.9984033  18.9984033  18.9984033  12.0000000  18.9984033  18.9984033  18.9984033
 NucSpn=           1           1           0           1           1           1           0           1           1           1
 AtZEff=   0.0000000   0.0000000   0.0000000   0.0000000   0.0000000   0.0000000   0.0000000   0.0000000   0.0000000   0.0000000
 NQMom=    0.0000000   0.0000000   0.0000000   0.0000000   0.0000000   0.0000000   0.0000000   0.0000000   0.0000000   0.0000000
 NMagM=    2.7928460   2.7928460   0.0000000   2.6288670   2.6288670   2.6288670   0.0000000   2.6288670   2.6288670   2.6288670
 AtZNuc=   1.0000000   1.0000000   6.0000000   9.0000000   9.0000000   9.0000000   6.0000000   9.0000000   9.0000000   9.0000000
 Leave Link  101 at Thu Jun  6 06:52:22 2019, MaxMem=  6442450944 cpu:              18.1 elap:               0.7
 (Enter /home/ekwan/sw/g16/l103.exe)

 GradGradGradGradGradGradGradGradGradGradGradGradGradGradGradGradGradGrad
 Berny optimization.
 Initialization pass.
                           ----------------------------
                           !    Initial Parameters    !
                           ! (Angstroms and Degrees)  !
 --------------------------                            --------------------------
 ! Name  Definition              Value          Derivative Info.                !
 --------------------------------------------------------------------------------
 ! R1    R(1,2)                  1.5351         calculate D2E/DX2 analytically  !
 ! R2    R(1,5)                  1.5371         calculate D2E/DX2 analytically  !
 ! R3    R(1,8)                  1.0978         calculate D2E/DX2 analytically  !
 ! R4    R(1,14)                 1.4235         calculate D2E/DX2 analytically  !
 ! R5    R(2,3)                  1.5359         calculate D2E/DX2 analytically  !
 ! R6    R(2,7)                  1.1016         calculate D2E/DX2 analytically  !
 ! R7    R(2,13)                 1.418          calculate D2E/DX2 analytically  !
 ! R8    R(3,6)                  1.0988         calculate D2E/DX2 analytically  !
 ! R9    R(3,11)                 1.4088         calculate D2E/DX2 analytically  !
 ! R10   R(3,12)                 1.4052         calculate D2E/DX2 analytically  !
 ! R11   R(4,5)                  1.5316         calculate D2E/DX2 analytically  !
 ! R12   R(4,9)                  1.094          calculate D2E/DX2 analytically  !
 ! R13   R(4,11)                 1.4419         calculate D2E/DX2 analytically  !
 ! R14   R(4,16)                 1.5543         calculate D2E/DX2 analytically  !
 ! R15   R(5,10)                 1.1004         calculate D2E/DX2 analytically  !
 ! R16   R(5,15)                 1.4268         calculate D2E/DX2 analytically  !
 ! R17   R(8,91)                 2.3809         calculate D2E/DX2 analytically  !
 ! R18   R(9,91)                 2.3406         calculate D2E/DX2 analytically  !
 ! R19   R(12,79)                1.4226         calculate D2E/DX2 analytically  !
 ! R20   R(13,20)                1.4175         calculate D2E/DX2 analytically  !
 ! R21   R(14,24)                1.4227         calculate D2E/DX2 analytically  !
 ! R22   R(15,28)                1.4288         calculate D2E/DX2 analytically  !
 ! R23   R(15,37)                2.2807         calculate D2E/DX2 analytically  !
 ! R24   R(16,17)                1.1115         calculate D2E/DX2 analytically  !
 ! R25   R(16,18)                1.1169         calculate D2E/DX2 analytically  !
 ! R26   R(16,19)                1.3707         calculate D2E/DX2 analytically  !
 ! R27   R(19,37)                2.1228         calculate D2E/DX2 analytically  !
 ! R28   R(19,83)                2.2058         calculate D2E/DX2 analytically  !
 ! R29   R(20,21)                1.0983         calculate D2E/DX2 analytically  !
 ! R30   R(20,22)                1.1001         calculate D2E/DX2 analytically  !
 ! R31   R(20,23)                1.0927         calculate D2E/DX2 analytically  !
 ! R32   R(24,25)                1.0953         calculate D2E/DX2 analytically  !
 ! R33   R(24,26)                1.0945         calculate D2E/DX2 analytically  !
 ! R34   R(24,27)                1.0932         calculate D2E/DX2 analytically  !
 ! R35   R(28,29)                1.0918         calculate D2E/DX2 analytically  !
 ! R36   R(28,30)                1.0964         calculate D2E/DX2 analytically  !
 ! R37   R(28,31)                1.0901         calculate D2E/DX2 analytically  !
 ! R38   R(32,33)                1.5297         calculate D2E/DX2 analytically  !
 ! R39   R(32,36)                1.5282         calculate D2E/DX2 analytically  !
 ! R40   R(32,39)                1.0974         calculate D2E/DX2 analytically  !
 ! R41   R(32,45)                1.418          calculate D2E/DX2 analytically  !
 ! R42   R(33,34)                1.5029         calculate D2E/DX2 analytically  !
 ! R43   R(33,38)                1.1007         calculate D2E/DX2 analytically  !
 ! R44   R(33,44)                1.4079         calculate D2E/DX2 analytically  !
 ! R45   R(34,37)                1.0747         calculate D2E/DX2 analytically  !
 ! R46   R(34,42)                1.3158         calculate D2E/DX2 analytically  !
 ! R47   R(34,53)                1.9751         calculate D2E/DX2 analytically  !
 ! R48   R(35,36)                1.5292         calculate D2E/DX2 analytically  !
 ! R49   R(35,40)                1.0946         calculate D2E/DX2 analytically  !
 ! R50   R(35,42)                1.4564         calculate D2E/DX2 analytically  !
 ! R51   R(35,47)                1.5114         calculate D2E/DX2 analytically  !
 ! R52   R(36,41)                1.0952         calculate D2E/DX2 analytically  !
 ! R53   R(36,46)                1.4195         calculate D2E/DX2 analytically  !
 ! R54   R(43,51)                1.488          calculate D2E/DX2 analytically  !
 ! R55   R(44,63)                1.4251         calculate D2E/DX2 analytically  !
 ! R56   R(45,67)                1.4238         calculate D2E/DX2 analytically  !
 ! R57   R(46,71)                1.4247         calculate D2E/DX2 analytically  !
 ! R58   R(47,48)                1.0996         calculate D2E/DX2 analytically  !
 ! R59   R(47,49)                1.1011         calculate D2E/DX2 analytically  !
 ! R60   R(47,50)                1.4128         calculate D2E/DX2 analytically  !
 ! R61   R(50,75)                1.4183         calculate D2E/DX2 analytically  !
 ! R62   R(51,52)                1.4745         calculate D2E/DX2 analytically  !
 ! R63   R(51,53)                1.5355         calculate D2E/DX2 analytically  !
 ! R64   R(51,54)                1.7924         calculate D2E/DX2 analytically  !
 ! R65   R(54,55)                1.3924         calculate D2E/DX2 analytically  !
 ! R66   R(54,56)                1.3904         calculate D2E/DX2 analytically  !
 ! R67   R(55,57)                1.3924         calculate D2E/DX2 analytically  !
 ! R68   R(55,58)                1.0823         calculate D2E/DX2 analytically  !
 ! R69   R(56,59)                1.3962         calculate D2E/DX2 analytically  !
 ! R70   R(56,60)                1.0835         calculate D2E/DX2 analytically  !
 ! R71   R(57,61)                1.3954         calculate D2E/DX2 analytically  !
 ! R72   R(57,93)                1.5029         calculate D2E/DX2 analytically  !
 ! R73   R(58,91)                2.2415         calculate D2E/DX2 analytically  !
 ! R74   R(59,61)                1.3942         calculate D2E/DX2 analytically  !
 ! R75   R(59,97)                1.5048         calculate D2E/DX2 analytically  !
 ! R76   R(61,62)                1.0833         calculate D2E/DX2 analytically  !
 ! R77   R(63,64)                1.0987         calculate D2E/DX2 analytically  !
 ! R78   R(63,65)                1.0946         calculate D2E/DX2 analytically  !
 ! R79   R(63,66)                1.0921         calculate D2E/DX2 analytically  !
 ! R80   R(67,68)                1.0949         calculate D2E/DX2 analytically  !
 ! R81   R(67,69)                1.0988         calculate D2E/DX2 analytically  !
 ! R82   R(67,70)                1.0926         calculate D2E/DX2 analytically  !
 ! R83   R(71,72)                1.0974         calculate D2E/DX2 analytically  !
 ! R84   R(71,73)                1.0974         calculate D2E/DX2 analytically  !
 ! R85   R(71,74)                1.0922         calculate D2E/DX2 analytically  !
 ! R86   R(75,76)                1.0917         calculate D2E/DX2 analytically  !
 ! R87   R(75,77)                1.1003         calculate D2E/DX2 analytically  !
 ! R88   R(75,78)                1.0997         calculate D2E/DX2 analytically  !
 ! R89   R(79,80)                1.0915         calculate D2E/DX2 analytically  !
 ! R90   R(79,81)                1.0954         calculate D2E/DX2 analytically  !
 ! R91   R(79,82)                1.0992         calculate D2E/DX2 analytically  !
 ! R92   R(83,84)                2.3127         calculate D2E/DX2 analytically  !
 ! R93   R(84,85)                1.4199         calculate D2E/DX2 analytically  !
 ! R94   R(84,89)                1.4252         calculate D2E/DX2 analytically  !
 ! R95   R(85,86)                1.099          calculate D2E/DX2 analytically  !
 ! R96   R(85,87)                1.0926         calculate D2E/DX2 analytically  !
 ! R97   R(85,88)                1.0982         calculate D2E/DX2 analytically  !
 ! R98   R(89,90)                1.0966         calculate D2E/DX2 analytically  !
 ! R99   R(89,91)                1.089          calculate D2E/DX2 analytically  !
 ! R100  R(89,92)                1.0979         calculate D2E/DX2 analytically  !
 ! R101  R(93,94)                1.3538         calculate D2E/DX2 analytically  !
 ! R102  R(93,95)                1.3483         calculate D2E/DX2 analytically  !
 ! R103  R(93,96)                1.3559         calculate D2E/DX2 analytically  !
 ! R104  R(97,98)                1.3497         calculate D2E/DX2 analytically  !
 ! R105  R(97,99)                1.3503         calculate D2E/DX2 analytically  !
 ! R106  R(97,100)               1.3532         calculate D2E/DX2 analytically  !
 ! A1    A(2,1,5)              111.6985         calculate D2E/DX2 analytically  !
 ! A2    A(2,1,8)              108.4143         calculate D2E/DX2 analytically  !
 ! A3    A(2,1,14)             111.579          calculate D2E/DX2 analytically  !
 ! A4    A(5,1,8)              109.1952         calculate D2E/DX2 analytically  !
 ! A5    A(5,1,14)             106.0278         calculate D2E/DX2 analytically  !
 ! A6    A(8,1,14)             109.8935         calculate D2E/DX2 analytically  !
 ! A7    A(1,2,3)              111.8991         calculate D2E/DX2 analytically  !
 ! A8    A(1,2,7)              107.8959         calculate D2E/DX2 analytically  !
 ! A9    A(1,2,13)             107.5936         calculate D2E/DX2 analytically  !
 ! A10   A(3,2,7)              106.7407         calculate D2E/DX2 analytically  !
 ! A11   A(3,2,13)             112.5591         calculate D2E/DX2 analytically  !
 ! A12   A(7,2,13)             110.0671         calculate D2E/DX2 analytically  !
 ! A13   A(2,3,6)              111.2076         calculate D2E/DX2 analytically  !
 ! A14   A(2,3,11)             110.0719         calculate D2E/DX2 analytically  !
 ! A15   A(2,3,12)             107.9226         calculate D2E/DX2 analytically  !
 ! A16   A(6,3,11)             104.3259         calculate D2E/DX2 analytically  !
 ! A17   A(6,3,12)             109.818          calculate D2E/DX2 analytically  !
 ! A18   A(11,3,12)            113.5166         calculate D2E/DX2 analytically  !
 ! A19   A(5,4,9)              109.4659         calculate D2E/DX2 analytically  !
 ! A20   A(5,4,11)             108.8868         calculate D2E/DX2 analytically  !
 ! A21   A(5,4,16)             114.116          calculate D2E/DX2 analytically  !
 ! A22   A(9,4,11)             108.5851         calculate D2E/DX2 analytically  !
 ! A23   A(9,4,16)             107.9675         calculate D2E/DX2 analytically  !
 ! A24   A(11,4,16)            107.6817         calculate D2E/DX2 analytically  !
 ! A25   A(1,5,4)              113.3754         calculate D2E/DX2 analytically  !
 ! A26   A(1,5,10)             107.3759         calculate D2E/DX2 analytically  !
 ! A27   A(1,5,15)             111.8094         calculate D2E/DX2 analytically  !
 ! A28   A(4,5,10)             108.1746         calculate D2E/DX2 analytically  !
 ! A29   A(4,5,15)             106.801          calculate D2E/DX2 analytically  !
 ! A30   A(10,5,15)            109.2059         calculate D2E/DX2 analytically  !
 ! A31   A(1,8,91)             127.3098         calculate D2E/DX2 analytically  !
 ! A32   A(4,9,91)             128.1528         calculate D2E/DX2 analytically  !
 ! A33   A(3,11,4)             113.4355         calculate D2E/DX2 analytically  !
 ! A34   A(3,12,79)            113.3734         calculate D2E/DX2 analytically  !
 ! A35   A(2,13,20)            114.2896         calculate D2E/DX2 analytically  !
 ! A36   A(1,14,24)            116.5213         calculate D2E/DX2 analytically  !
 ! A37   A(5,15,28)            115.5761         calculate D2E/DX2 analytically  !
 ! A38   A(5,15,37)            122.2822         calculate D2E/DX2 analytically  !
 ! A39   A(28,15,37)           103.1056         calculate D2E/DX2 analytically  !
 ! A40   A(4,16,17)            104.6908         calculate D2E/DX2 analytically  !
 ! A41   A(4,16,18)            107.1538         calculate D2E/DX2 analytically  !
 ! A42   A(4,16,19)            114.4539         calculate D2E/DX2 analytically  !
 ! A43   A(17,16,18)           104.6184         calculate D2E/DX2 analytically  !
 ! A44   A(17,16,19)           112.9141         calculate D2E/DX2 analytically  !
 ! A45   A(18,16,19)           112.2254         calculate D2E/DX2 analytically  !
 ! A46   A(16,19,37)           102.6364         calculate D2E/DX2 analytically  !
 ! A47   A(16,19,83)           131.4517         calculate D2E/DX2 analytically  !
 ! A48   A(37,19,83)            70.8671         calculate D2E/DX2 analytically  !
 ! A49   A(13,20,21)           112.0398         calculate D2E/DX2 analytically  !
 ! A50   A(13,20,22)           111.4205         calculate D2E/DX2 analytically  !
 ! A51   A(13,20,23)           106.7956         calculate D2E/DX2 analytically  !
 ! A52   A(21,20,22)           108.8087         calculate D2E/DX2 analytically  !
 ! A53   A(21,20,23)           108.6549         calculate D2E/DX2 analytically  !
 ! A54   A(22,20,23)           109.0336         calculate D2E/DX2 analytically  !
 ! A55   A(14,24,25)           111.3155         calculate D2E/DX2 analytically  !
 ! A56   A(14,24,26)           111.8036         calculate D2E/DX2 analytically  !
 ! A57   A(14,24,27)           106.4472         calculate D2E/DX2 analytically  !
 ! A58   A(25,24,26)           108.597          calculate D2E/DX2 analytically  !
 ! A59   A(25,24,27)           108.91           calculate D2E/DX2 analytically  !
 ! A60   A(26,24,27)           109.714          calculate D2E/DX2 analytically  !
 ! A61   A(15,28,29)           111.3967         calculate D2E/DX2 analytically  !
 ! A62   A(15,28,30)           110.4358         calculate D2E/DX2 analytically  !
 ! A63   A(15,28,31)           106.5263         calculate D2E/DX2 analytically  !
 ! A64   A(29,28,30)           108.8183         calculate D2E/DX2 analytically  !
 ! A65   A(29,28,31)           110.8782         calculate D2E/DX2 analytically  !
 ! A66   A(30,28,31)           108.7452         calculate D2E/DX2 analytically  !
 ! A67   A(33,32,36)           109.6403         calculate D2E/DX2 analytically  !
 ! A68   A(33,32,39)           108.3235         calculate D2E/DX2 analytically  !
 ! A69   A(33,32,45)           107.8336         calculate D2E/DX2 analytically  !
 ! A70   A(36,32,39)           109.518          calculate D2E/DX2 analytically  !
 ! A71   A(36,32,45)           110.7956         calculate D2E/DX2 analytically  !
 ! A72   A(39,32,45)           110.6758         calculate D2E/DX2 analytically  !
 ! A73   A(32,33,34)           112.7838         calculate D2E/DX2 analytically  !
 ! A74   A(32,33,38)           108.3516         calculate D2E/DX2 analytically  !
 ! A75   A(32,33,44)           112.0606         calculate D2E/DX2 analytically  !
 ! A76   A(34,33,38)           102.2836         calculate D2E/DX2 analytically  !
 ! A77   A(34,33,44)           110.0832         calculate D2E/DX2 analytically  !
 ! A78   A(38,33,44)           110.8496         calculate D2E/DX2 analytically  !
 ! A79   A(33,34,37)           118.2798         calculate D2E/DX2 analytically  !
 ! A80   A(33,34,42)           119.8395         calculate D2E/DX2 analytically  !
 ! A81   A(33,34,53)           100.9254         calculate D2E/DX2 analytically  !
 ! A82   A(37,34,42)           117.0103         calculate D2E/DX2 analytically  !
 ! A83   A(37,34,53)            91.0682         calculate D2E/DX2 analytically  !
 ! A84   A(42,34,53)            99.9068         calculate D2E/DX2 analytically  !
 ! A85   A(36,35,40)           109.6475         calculate D2E/DX2 analytically  !
 ! A86   A(36,35,42)           110.3196         calculate D2E/DX2 analytically  !
 ! A87   A(36,35,47)           114.8364         calculate D2E/DX2 analytically  !
 ! A88   A(40,35,42)           106.6823         calculate D2E/DX2 analytically  !
 ! A89   A(40,35,47)           108.6782         calculate D2E/DX2 analytically  !
 ! A90   A(42,35,47)           106.3248         calculate D2E/DX2 analytically  !
 ! A91   A(32,36,35)           109.7684         calculate D2E/DX2 analytically  !
 ! A92   A(32,36,41)           108.9046         calculate D2E/DX2 analytically  !
 ! A93   A(32,36,46)           110.1737         calculate D2E/DX2 analytically  !
 ! A94   A(35,36,41)           109.2949         calculate D2E/DX2 analytically  !
 ! A95   A(35,36,46)           107.9621         calculate D2E/DX2 analytically  !
 ! A96   A(41,36,46)           110.7222         calculate D2E/DX2 analytically  !
 ! A97   A(15,37,19)            97.2949         calculate D2E/DX2 analytically  !
 ! A98   A(15,37,34)           157.4433         calculate D2E/DX2 analytically  !
 ! A99   A(19,37,34)            93.0561         calculate D2E/DX2 analytically  !
 ! A100  A(34,42,35)           119.9521         calculate D2E/DX2 analytically  !
 ! A101  A(33,44,63)           114.0106         calculate D2E/DX2 analytically  !
 ! A102  A(32,45,67)           114.0857         calculate D2E/DX2 analytically  !
 ! A103  A(36,46,71)           113.729          calculate D2E/DX2 analytically  !
 ! A104  A(35,47,48)           108.1678         calculate D2E/DX2 analytically  !
 ! A105  A(35,47,49)           109.0146         calculate D2E/DX2 analytically  !
 ! A106  A(35,47,50)           109.425          calculate D2E/DX2 analytically  !
 ! A107  A(48,47,49)           108.0056         calculate D2E/DX2 analytically  !
 ! A108  A(48,47,50)           111.2847         calculate D2E/DX2 analytically  !
 ! A109  A(49,47,50)           110.8708         calculate D2E/DX2 analytically  !
 ! A110  A(47,50,75)           112.2945         calculate D2E/DX2 analytically  !
 ! A111  A(43,51,52)           115.9029         calculate D2E/DX2 analytically  !
 ! A112  A(43,51,53)           112.1652         calculate D2E/DX2 analytically  !
 ! A113  A(43,51,54)           104.5685         calculate D2E/DX2 analytically  !
 ! A114  A(52,51,53)           111.5862         calculate D2E/DX2 analytically  !
 ! A115  A(52,51,54)           107.4696         calculate D2E/DX2 analytically  !
 ! A116  A(53,51,54)           104.0635         calculate D2E/DX2 analytically  !
 ! A117  A(34,53,51)           110.9971         calculate D2E/DX2 analytically  !
 ! A118  A(51,54,55)           118.2153         calculate D2E/DX2 analytically  !
 ! A119  A(51,54,56)           120.2102         calculate D2E/DX2 analytically  !
 ! A120  A(55,54,56)           121.5672         calculate D2E/DX2 analytically  !
 ! A121  A(54,55,57)           118.8427         calculate D2E/DX2 analytically  !
 ! A122  A(54,55,58)           120.0942         calculate D2E/DX2 analytically  !
 ! A123  A(57,55,58)           121.0631         calculate D2E/DX2 analytically  !
 ! A124  A(54,56,59)           118.7897         calculate D2E/DX2 analytically  !
 ! A125  A(54,56,60)           120.1119         calculate D2E/DX2 analytically  !
 ! A126  A(59,56,60)           121.0947         calculate D2E/DX2 analytically  !
 ! A127  A(55,57,61)           120.6957         calculate D2E/DX2 analytically  !
 ! A128  A(55,57,93)           119.4038         calculate D2E/DX2 analytically  !
 ! A129  A(61,57,93)           119.8766         calculate D2E/DX2 analytically  !
 ! A130  A(55,58,91)           153.6684         calculate D2E/DX2 analytically  !
 ! A131  A(56,59,61)           120.6424         calculate D2E/DX2 analytically  !
 ! A132  A(56,59,97)           119.5354         calculate D2E/DX2 analytically  !
 ! A133  A(61,59,97)           119.7388         calculate D2E/DX2 analytically  !
 ! A134  A(57,61,59)           119.4598         calculate D2E/DX2 analytically  !
 ! A135  A(57,61,62)           120.3021         calculate D2E/DX2 analytically  !
 ! A136  A(59,61,62)           120.2375         calculate D2E/DX2 analytically  !
 ! A137  A(44,63,64)           111.0189         calculate D2E/DX2 analytically  !
 ! A138  A(44,63,65)           111.1134         calculate D2E/DX2 analytically  !
 ! A139  A(44,63,66)           106.2785         calculate D2E/DX2 analytically  !
 ! A140  A(64,63,65)           109.4798         calculate D2E/DX2 analytically  !
 ! A141  A(64,63,66)           109.1104         calculate D2E/DX2 analytically  !
 ! A142  A(65,63,66)           109.7744         calculate D2E/DX2 analytically  !
 ! A143  A(45,67,68)           111.4153         calculate D2E/DX2 analytically  !
 ! A144  A(45,67,69)           110.9531         calculate D2E/DX2 analytically  !
 ! A145  A(45,67,70)           106.5182         calculate D2E/DX2 analytically  !
 ! A146  A(68,67,69)           109.1925         calculate D2E/DX2 analytically  !
 ! A147  A(68,67,70)           109.6196         calculate D2E/DX2 analytically  !
 ! A148  A(69,67,70)           109.0838         calculate D2E/DX2 analytically  !
 ! A149  A(46,71,72)           110.9698         calculate D2E/DX2 analytically  !
 ! A150  A(46,71,73)           111.2616         calculate D2E/DX2 analytically  !
 ! A151  A(46,71,74)           106.625          calculate D2E/DX2 analytically  !
 ! A152  A(72,71,73)           109.0973         calculate D2E/DX2 analytically  !
 ! A153  A(72,71,74)           109.3648         calculate D2E/DX2 analytically  !
 ! A154  A(73,71,74)           109.4755         calculate D2E/DX2 analytically  !
 ! A155  A(50,75,76)           107.0492         calculate D2E/DX2 analytically  !
 ! A156  A(50,75,77)           111.2122         calculate D2E/DX2 analytically  !
 ! A157  A(50,75,78)           111.3163         calculate D2E/DX2 analytically  !
 ! A158  A(76,75,77)           109.27           calculate D2E/DX2 analytically  !
 ! A159  A(76,75,78)           109.3344         calculate D2E/DX2 analytically  !
 ! A160  A(77,75,78)           108.6209         calculate D2E/DX2 analytically  !
 ! A161  A(12,79,80)           106.6686         calculate D2E/DX2 analytically  !
 ! A162  A(12,79,81)           111.5638         calculate D2E/DX2 analytically  !
 ! A163  A(12,79,82)           110.8523         calculate D2E/DX2 analytically  !
 ! A164  A(80,79,81)           109.3625         calculate D2E/DX2 analytically  !
 ! A165  A(80,79,82)           109.3142         calculate D2E/DX2 analytically  !
 ! A166  A(81,79,82)           109.0289         calculate D2E/DX2 analytically  !
 ! A167  A(19,83,84)           119.6491         calculate D2E/DX2 analytically  !
 ! A168  A(83,84,85)           123.8627         calculate D2E/DX2 analytically  !
 ! A169  A(83,84,89)           118.0687         calculate D2E/DX2 analytically  !
 ! A170  A(85,84,89)           112.4274         calculate D2E/DX2 analytically  !
 ! A171  A(84,85,86)           111.0204         calculate D2E/DX2 analytically  !
 ! A172  A(84,85,87)           107.3243         calculate D2E/DX2 analytically  !
 ! A173  A(84,85,88)           110.8973         calculate D2E/DX2 analytically  !
 ! A174  A(86,85,87)           109.4828         calculate D2E/DX2 analytically  !
 ! A175  A(86,85,88)           108.8608         calculate D2E/DX2 analytically  !
 ! A176  A(87,85,88)           109.2231         calculate D2E/DX2 analytically  !
 ! A177  A(84,89,90)           110.3492         calculate D2E/DX2 analytically  !
 ! A178  A(84,89,91)           106.8625         calculate D2E/DX2 analytically  !
 ! A179  A(84,89,92)           110.7839         calculate D2E/DX2 analytically  !
 ! A180  A(90,89,91)           109.3243         calculate D2E/DX2 analytically  !
 ! A181  A(90,89,92)           110.0012         calculate D2E/DX2 analytically  !
 ! A182  A(91,89,92)           109.4559         calculate D2E/DX2 analytically  !
 ! A183  A(8,91,9)              73.0158         calculate D2E/DX2 analytically  !
 ! A184  A(8,91,58)             93.2107         calculate D2E/DX2 analytically  !
 ! A185  A(8,91,89)            117.1276         calculate D2E/DX2 analytically  !
 ! A186  A(9,91,58)            122.33           calculate D2E/DX2 analytically  !
 ! A187  A(9,91,89)            105.1328         calculate D2E/DX2 analytically  !
 ! A188  A(58,91,89)           129.7729         calculate D2E/DX2 analytically  !
 ! A189  A(57,93,94)           111.6027         calculate D2E/DX2 analytically  !
 ! A190  A(57,93,95)           112.098          calculate D2E/DX2 analytically  !
 ! A191  A(57,93,96)           111.4749         calculate D2E/DX2 analytically  !
 ! A192  A(94,93,95)           107.6221         calculate D2E/DX2 analytically  !
 ! A193  A(94,93,96)           106.9486         calculate D2E/DX2 analytically  !
 ! A194  A(95,93,96)           106.8035         calculate D2E/DX2 analytically  !
 ! A195  A(59,97,98)           111.707          calculate D2E/DX2 analytically  !
 ! A196  A(59,97,99)           111.789          calculate D2E/DX2 analytically  !
 ! A197  A(59,97,100)          111.4645         calculate D2E/DX2 analytically  !
 ! A198  A(98,97,99)           107.6878         calculate D2E/DX2 analytically  !
 ! A199  A(98,97,100)          106.9564         calculate D2E/DX2 analytically  !
 ! A200  A(99,97,100)          106.9628         calculate D2E/DX2 analytically  !
 ! D1    D(5,1,2,3)            -44.3623         calculate D2E/DX2 analytically  !
 ! D2    D(5,1,2,7)             72.7689         calculate D2E/DX2 analytically  !
 ! D3    D(5,1,2,13)          -168.5031         calculate D2E/DX2 analytically  !
 ! D4    D(8,1,2,3)             75.9981         calculate D2E/DX2 analytically  !
 ! D5    D(8,1,2,7)           -166.8708         calculate D2E/DX2 analytically  !
 ! D6    D(8,1,2,13)           -48.1427         calculate D2E/DX2 analytically  !
 ! D7    D(14,1,2,3)          -162.8477         calculate D2E/DX2 analytically  !
 ! D8    D(14,1,2,7)           -45.7166         calculate D2E/DX2 analytically  !
 ! D9    D(14,1,2,13)           73.0115         calculate D2E/DX2 analytically  !
 ! D10   D(2,1,5,4)             44.3527         calculate D2E/DX2 analytically  !
 ! D11   D(2,1,5,10)           -75.0736         calculate D2E/DX2 analytically  !
 ! D12   D(2,1,5,15)           165.1586         calculate D2E/DX2 analytically  !
 ! D13   D(8,1,5,4)            -75.5495         calculate D2E/DX2 analytically  !
 ! D14   D(8,1,5,10)           165.0242         calculate D2E/DX2 analytically  !
 ! D15   D(8,1,5,15)            45.2564         calculate D2E/DX2 analytically  !
 ! D16   D(14,1,5,4)           166.0985         calculate D2E/DX2 analytically  !
 ! D17   D(14,1,5,10)           46.6722         calculate D2E/DX2 analytically  !
 ! D18   D(14,1,5,15)          -73.0956         calculate D2E/DX2 analytically  !
 ! D19   D(2,1,8,91)          -114.8561         calculate D2E/DX2 analytically  !
 ! D20   D(5,1,8,91)             7.0496         calculate D2E/DX2 analytically  !
 ! D21   D(14,1,8,91)          122.9553         calculate D2E/DX2 analytically  !
 ! D22   D(2,1,14,24)          -73.8415         calculate D2E/DX2 analytically  !
 ! D23   D(5,1,14,24)          164.3363         calculate D2E/DX2 analytically  !
 ! D24   D(8,1,14,24)           46.4482         calculate D2E/DX2 analytically  !
 ! D25   D(1,2,3,6)            168.871          calculate D2E/DX2 analytically  !
 ! D26   D(1,2,3,11)            53.761          calculate D2E/DX2 analytically  !
 ! D27   D(1,2,3,12)           -70.6178         calculate D2E/DX2 analytically  !
 ! D28   D(7,2,3,6)             51.0471         calculate D2E/DX2 analytically  !
 ! D29   D(7,2,3,11)           -64.0629         calculate D2E/DX2 analytically  !
 ! D30   D(7,2,3,12)           171.5584         calculate D2E/DX2 analytically  !
 ! D31   D(13,2,3,6)           -69.8132         calculate D2E/DX2 analytically  !
 ! D32   D(13,2,3,11)          175.0768         calculate D2E/DX2 analytically  !
 ! D33   D(13,2,3,12)           50.698          calculate D2E/DX2 analytically  !
 ! D34   D(1,2,13,20)         -168.8093         calculate D2E/DX2 analytically  !
 ! D35   D(3,2,13,20)           67.4507         calculate D2E/DX2 analytically  !
 ! D36   D(7,2,13,20)          -51.4843         calculate D2E/DX2 analytically  !
 ! D37   D(2,3,11,4)           -64.749          calculate D2E/DX2 analytically  !
 ! D38   D(6,3,11,4)           175.8568         calculate D2E/DX2 analytically  !
 ! D39   D(12,3,11,4)           56.336          calculate D2E/DX2 analytically  !
 ! D40   D(2,3,12,79)         -176.8534         calculate D2E/DX2 analytically  !
 ! D41   D(6,3,12,79)          -55.475          calculate D2E/DX2 analytically  !
 ! D42   D(11,3,12,79)          60.8626         calculate D2E/DX2 analytically  !
 ! D43   D(9,4,5,1)             66.8512         calculate D2E/DX2 analytically  !
 ! D44   D(9,4,5,10)          -174.1807         calculate D2E/DX2 analytically  !
 ! D45   D(9,4,5,15)           -56.742          calculate D2E/DX2 analytically  !
 ! D46   D(11,4,5,1)           -51.7162         calculate D2E/DX2 analytically  !
 ! D47   D(11,4,5,10)           67.2519         calculate D2E/DX2 analytically  !
 ! D48   D(11,4,5,15)         -175.3094         calculate D2E/DX2 analytically  !
 ! D49   D(16,4,5,1)          -172.0384         calculate D2E/DX2 analytically  !
 ! D50   D(16,4,5,10)          -53.0703         calculate D2E/DX2 analytically  !
 ! D51   D(16,4,5,15)           64.3684         calculate D2E/DX2 analytically  !
 ! D52   D(5,4,9,91)             8.2696         calculate D2E/DX2 analytically  !
 ! D53   D(11,4,9,91)          127.0242         calculate D2E/DX2 analytically  !
 ! D54   D(16,4,9,91)         -116.4942         calculate D2E/DX2 analytically  !
 ! D55   D(5,4,11,3)            63.2203         calculate D2E/DX2 analytically  !
 ! D56   D(9,4,11,3)           -55.8985         calculate D2E/DX2 analytically  !
 ! D57   D(16,4,11,3)         -172.5639         calculate D2E/DX2 analytically  !
 ! D58   D(5,4,16,17)          132.6986         calculate D2E/DX2 analytically  !
 ! D59   D(5,4,16,18)           21.9676         calculate D2E/DX2 analytically  !
 ! D60   D(5,4,16,19)         -103.1487         calculate D2E/DX2 analytically  !
 ! D61   D(9,4,16,17)         -105.3633         calculate D2E/DX2 analytically  !
 ! D62   D(9,4,16,18)          143.9057         calculate D2E/DX2 analytically  !
 ! D63   D(9,4,16,19)           18.7894         calculate D2E/DX2 analytically  !
 ! D64   D(11,4,16,17)          11.7047         calculate D2E/DX2 analytically  !
 ! D65   D(11,4,16,18)         -99.0263         calculate D2E/DX2 analytically  !
 ! D66   D(11,4,16,19)         135.8574         calculate D2E/DX2 analytically  !
 ! D67   D(1,5,15,28)           82.4939         calculate D2E/DX2 analytically  !
 ! D68   D(1,5,15,37)         -150.6582         calculate D2E/DX2 analytically  !
 ! D69   D(4,5,15,28)         -152.9495         calculate D2E/DX2 analytically  !
 ! D70   D(4,5,15,37)          -26.1016         calculate D2E/DX2 analytically  !
 ! D71   D(10,5,15,28)         -36.1927         calculate D2E/DX2 analytically  !
 ! D72   D(10,5,15,37)          90.6552         calculate D2E/DX2 analytically  !
 ! D73   D(1,8,91,9)            35.9454         calculate D2E/DX2 analytically  !
 ! D74   D(1,8,91,58)          -86.9379         calculate D2E/DX2 analytically  !
 ! D75   D(1,8,91,89)          134.585          calculate D2E/DX2 analytically  !
 ! D76   D(4,9,91,8)           -46.2465         calculate D2E/DX2 analytically  !
 ! D77   D(4,9,91,58)           36.6303         calculate D2E/DX2 analytically  !
 ! D78   D(4,9,91,89)         -160.5328         calculate D2E/DX2 analytically  !
 ! D79   D(3,12,79,80)         170.7713         calculate D2E/DX2 analytically  !
 ! D80   D(3,12,79,81)         -69.8578         calculate D2E/DX2 analytically  !
 ! D81   D(3,12,79,82)          51.8568         calculate D2E/DX2 analytically  !
 ! D82   D(2,13,20,21)         -71.2238         calculate D2E/DX2 analytically  !
 ! D83   D(2,13,20,22)          50.9478         calculate D2E/DX2 analytically  !
 ! D84   D(2,13,20,23)         169.9172         calculate D2E/DX2 analytically  !
 ! D85   D(1,14,24,25)         -41.1888         calculate D2E/DX2 analytically  !
 ! D86   D(1,14,24,26)          80.4659         calculate D2E/DX2 analytically  !
 ! D87   D(1,14,24,27)        -159.738          calculate D2E/DX2 analytically  !
 ! D88   D(5,15,28,29)         -79.2806         calculate D2E/DX2 analytically  !
 ! D89   D(5,15,28,30)          41.7646         calculate D2E/DX2 analytically  !
 ! D90   D(5,15,28,31)         159.6873         calculate D2E/DX2 analytically  !
 ! D91   D(37,15,28,29)        144.7171         calculate D2E/DX2 analytically  !
 ! D92   D(37,15,28,30)        -94.2377         calculate D2E/DX2 analytically  !
 ! D93   D(37,15,28,31)         23.6849         calculate D2E/DX2 analytically  !
 ! D94   D(5,15,37,19)           9.7564         calculate D2E/DX2 analytically  !
 ! D95   D(5,15,37,34)        -106.8786         calculate D2E/DX2 analytically  !
 ! D96   D(28,15,37,19)        141.9294         calculate D2E/DX2 analytically  !
 ! D97   D(28,15,37,34)         25.2944         calculate D2E/DX2 analytically  !
 ! D98   D(4,16,19,37)          68.8795         calculate D2E/DX2 analytically  !
 ! D99   D(4,16,19,83)          -6.6347         calculate D2E/DX2 analytically  !
 ! D100  D(17,16,19,37)       -171.4712         calculate D2E/DX2 analytically  !
 ! D101  D(17,16,19,83)        113.0146         calculate D2E/DX2 analytically  !
 ! D102  D(18,16,19,37)        -53.5203         calculate D2E/DX2 analytically  !
 ! D103  D(18,16,19,83)       -129.0344         calculate D2E/DX2 analytically  !
 ! D104  D(16,19,37,15)        -26.6329         calculate D2E/DX2 analytically  !
 ! D105  D(16,19,37,34)        133.2843         calculate D2E/DX2 analytically  !
 ! D106  D(83,19,37,15)        103.182          calculate D2E/DX2 analytically  !
 ! D107  D(83,19,37,34)        -96.9008         calculate D2E/DX2 analytically  !
 ! D108  D(16,19,83,84)        -12.1136         calculate D2E/DX2 analytically  !
 ! D109  D(37,19,83,84)       -102.2583         calculate D2E/DX2 analytically  !
 ! D110  D(36,32,33,34)        -45.3264         calculate D2E/DX2 analytically  !
 ! D111  D(36,32,33,38)         67.1593         calculate D2E/DX2 analytically  !
 ! D112  D(36,32,33,44)       -170.2223         calculate D2E/DX2 analytically  !
 ! D113  D(39,32,33,34)         74.1376         calculate D2E/DX2 analytically  !
 ! D114  D(39,32,33,38)       -173.3767         calculate D2E/DX2 analytically  !
 ! D115  D(39,32,33,44)        -50.7584         calculate D2E/DX2 analytically  !
 ! D116  D(45,32,33,34)       -166.0439         calculate D2E/DX2 analytically  !
 ! D117  D(45,32,33,38)        -53.5582         calculate D2E/DX2 analytically  !
 ! D118  D(45,32,33,44)         69.0602         calculate D2E/DX2 analytically  !
 ! D119  D(33,32,36,35)         56.8751         calculate D2E/DX2 analytically  !
 ! D120  D(33,32,36,41)        -62.7435         calculate D2E/DX2 analytically  !
 ! D121  D(33,32,36,46)        175.6366         calculate D2E/DX2 analytically  !
 ! D122  D(39,32,36,35)        -61.853          calculate D2E/DX2 analytically  !
 ! D123  D(39,32,36,41)        178.5283         calculate D2E/DX2 analytically  !
 ! D124  D(39,32,36,46)         56.9084         calculate D2E/DX2 analytically  !
 ! D125  D(45,32,36,35)        175.7806         calculate D2E/DX2 analytically  !
 ! D126  D(45,32,36,41)         56.1619         calculate D2E/DX2 analytically  !
 ! D127  D(45,32,36,46)        -65.4579         calculate D2E/DX2 analytically  !
 ! D128  D(33,32,45,67)       -139.9262         calculate D2E/DX2 analytically  !
 ! D129  D(36,32,45,67)        100.0829         calculate D2E/DX2 analytically  !
 ! D130  D(39,32,45,67)        -21.6062         calculate D2E/DX2 analytically  !
 ! D131  D(32,33,34,37)       -169.9835         calculate D2E/DX2 analytically  !
 ! D132  D(32,33,34,42)         35.4446         calculate D2E/DX2 analytically  !
 ! D133  D(32,33,34,53)        -72.7792         calculate D2E/DX2 analytically  !
 ! D134  D(38,33,34,37)         73.8519         calculate D2E/DX2 analytically  !
 ! D135  D(38,33,34,42)        -80.72           calculate D2E/DX2 analytically  !
 ! D136  D(38,33,34,53)        171.0563         calculate D2E/DX2 analytically  !
 ! D137  D(44,33,34,37)        -44.0167         calculate D2E/DX2 analytically  !
 ! D138  D(44,33,34,42)        161.4114         calculate D2E/DX2 analytically  !
 ! D139  D(44,33,34,53)         53.1877         calculate D2E/DX2 analytically  !
 ! D140  D(32,33,44,63)       -100.546          calculate D2E/DX2 analytically  !
 ! D141  D(34,33,44,63)        133.0789         calculate D2E/DX2 analytically  !
 ! D142  D(38,33,44,63)         20.6433         calculate D2E/DX2 analytically  !
 ! D143  D(33,34,37,15)         27.1766         calculate D2E/DX2 analytically  !
 ! D144  D(33,34,37,19)        -90.2118         calculate D2E/DX2 analytically  !
 ! D145  D(42,34,37,15)       -177.5351         calculate D2E/DX2 analytically  !
 ! D146  D(42,34,37,19)         65.0765         calculate D2E/DX2 analytically  !
 ! D147  D(53,34,37,15)        -75.8432         calculate D2E/DX2 analytically  !
 ! D148  D(53,34,37,19)        166.7684         calculate D2E/DX2 analytically  !
 ! D149  D(33,34,42,35)        -36.4062         calculate D2E/DX2 analytically  !
 ! D150  D(37,34,42,35)        168.708          calculate D2E/DX2 analytically  !
 ! D151  D(53,34,42,35)         72.3771         calculate D2E/DX2 analytically  !
 ! D152  D(33,34,53,51)        174.4625         calculate D2E/DX2 analytically  !
 ! D153  D(37,34,53,51)        -66.4459         calculate D2E/DX2 analytically  !
 ! D154  D(42,34,53,51)         51.223          calculate D2E/DX2 analytically  !
 ! D155  D(40,35,36,32)         61.5154         calculate D2E/DX2 analytically  !
 ! D156  D(40,35,36,41)       -179.1048         calculate D2E/DX2 analytically  !
 ! D157  D(40,35,36,46)        -58.6007         calculate D2E/DX2 analytically  !
 ! D158  D(42,35,36,32)        -55.694          calculate D2E/DX2 analytically  !
 ! D159  D(42,35,36,41)         63.6858         calculate D2E/DX2 analytically  !
 ! D160  D(42,35,36,46)       -175.8101         calculate D2E/DX2 analytically  !
 ! D161  D(47,35,36,32)       -175.8045         calculate D2E/DX2 analytically  !
 ! D162  D(47,35,36,41)        -56.4247         calculate D2E/DX2 analytically  !
 ! D163  D(47,35,36,46)         64.0793         calculate D2E/DX2 analytically  !
 ! D164  D(36,35,42,34)         46.0551         calculate D2E/DX2 analytically  !
 ! D165  D(40,35,42,34)        -72.9751         calculate D2E/DX2 analytically  !
 ! D166  D(47,35,42,34)        171.167          calculate D2E/DX2 analytically  !
 ! D167  D(36,35,47,48)        -65.5966         calculate D2E/DX2 analytically  !
 ! D168  D(36,35,47,49)        177.1972         calculate D2E/DX2 analytically  !
 ! D169  D(36,35,47,50)         55.7915         calculate D2E/DX2 analytically  !
 ! D170  D(40,35,47,48)         57.6034         calculate D2E/DX2 analytically  !
 ! D171  D(40,35,47,49)        -59.6028         calculate D2E/DX2 analytically  !
 ! D172  D(40,35,47,50)        178.9915         calculate D2E/DX2 analytically  !
 ! D173  D(42,35,47,48)        172.1081         calculate D2E/DX2 analytically  !
 ! D174  D(42,35,47,49)         54.902          calculate D2E/DX2 analytically  !
 ! D175  D(42,35,47,50)        -66.5038         calculate D2E/DX2 analytically  !
 ! D176  D(32,36,46,71)        123.5791         calculate D2E/DX2 analytically  !
 ! D177  D(35,36,46,71)       -116.56           calculate D2E/DX2 analytically  !
 ! D178  D(41,36,46,71)          3.0459         calculate D2E/DX2 analytically  !
 ! D179  D(33,44,63,64)        -62.9457         calculate D2E/DX2 analytically  !
 ! D180  D(33,44,63,65)         59.1492         calculate D2E/DX2 analytically  !
 ! D181  D(33,44,63,66)        178.527          calculate D2E/DX2 analytically  !
 ! D182  D(32,45,67,68)        -60.0913         calculate D2E/DX2 analytically  !
 ! D183  D(32,45,67,69)         61.8002         calculate D2E/DX2 analytically  !
 ! D184  D(32,45,67,70)       -179.5972         calculate D2E/DX2 analytically  !
 ! D185  D(36,46,71,72)        -63.5112         calculate D2E/DX2 analytically  !
 ! D186  D(36,46,71,73)         58.1638         calculate D2E/DX2 analytically  !
 ! D187  D(36,46,71,74)        177.4745         calculate D2E/DX2 analytically  !
 ! D188  D(35,47,50,75)        178.8516         calculate D2E/DX2 analytically  !
 ! D189  D(48,47,50,75)        -61.6627         calculate D2E/DX2 analytically  !
 ! D190  D(49,47,50,75)         58.5739         calculate D2E/DX2 analytically  !
 ! D191  D(47,50,75,76)        179.8106         calculate D2E/DX2 analytically  !
 ! D192  D(47,50,75,77)        -60.8947         calculate D2E/DX2 analytically  !
 ! D193  D(47,50,75,78)         60.3782         calculate D2E/DX2 analytically  !
 ! D194  D(43,51,53,34)         18.498          calculate D2E/DX2 analytically  !
 ! D195  D(52,51,53,34)       -113.4509         calculate D2E/DX2 analytically  !
 ! D196  D(54,51,53,34)        130.959          calculate D2E/DX2 analytically  !
 ! D197  D(43,51,54,55)         32.0993         calculate D2E/DX2 analytically  !
 ! D198  D(43,51,54,56)       -146.9382         calculate D2E/DX2 analytically  !
 ! D199  D(52,51,54,55)        155.8085         calculate D2E/DX2 analytically  !
 ! D200  D(52,51,54,56)        -23.229          calculate D2E/DX2 analytically  !
 ! D201  D(53,51,54,55)        -85.738          calculate D2E/DX2 analytically  !
 ! D202  D(53,51,54,56)         95.2245         calculate D2E/DX2 analytically  !
 ! D203  D(51,54,55,57)       -178.6688         calculate D2E/DX2 analytically  !
 ! D204  D(51,54,55,58)          1.2708         calculate D2E/DX2 analytically  !
 ! D205  D(56,54,55,57)          0.355          calculate D2E/DX2 analytically  !
 ! D206  D(56,54,55,58)       -179.7054         calculate D2E/DX2 analytically  !
 ! D207  D(51,54,56,59)        179.0768         calculate D2E/DX2 analytically  !
 ! D208  D(51,54,56,60)         -0.231          calculate D2E/DX2 analytically  !
 ! D209  D(55,54,56,59)          0.0722         calculate D2E/DX2 analytically  !
 ! D210  D(55,54,56,60)       -179.2356         calculate D2E/DX2 analytically  !
 ! D211  D(54,55,57,61)         -0.405          calculate D2E/DX2 analytically  !
 ! D212  D(54,55,57,93)       -178.6239         calculate D2E/DX2 analytically  !
 ! D213  D(58,55,57,61)        179.656          calculate D2E/DX2 analytically  !
 ! D214  D(58,55,57,93)          1.4371         calculate D2E/DX2 analytically  !
 ! D215  D(54,55,58,91)        -90.707          calculate D2E/DX2 analytically  !
 ! D216  D(57,55,58,91)         89.2312         calculate D2E/DX2 analytically  !
 ! D217  D(54,56,59,61)         -0.4577         calculate D2E/DX2 analytically  !
 ! D218  D(54,56,59,97)       -177.1288         calculate D2E/DX2 analytically  !
 ! D219  D(60,56,59,61)        178.8431         calculate D2E/DX2 analytically  !
 ! D220  D(60,56,59,97)          2.1719         calculate D2E/DX2 analytically  !
 ! D221  D(55,57,61,59)          0.0298         calculate D2E/DX2 analytically  !
 ! D222  D(55,57,61,62)        179.7369         calculate D2E/DX2 analytically  !
 ! D223  D(93,57,61,59)        178.2403         calculate D2E/DX2 analytically  !
 ! D224  D(93,57,61,62)         -2.0526         calculate D2E/DX2 analytically  !
 ! D225  D(55,57,93,94)        -28.4241         calculate D2E/DX2 analytically  !
 ! D226  D(55,57,93,95)       -149.2345         calculate D2E/DX2 analytically  !
 ! D227  D(55,57,93,96)         91.0947         calculate D2E/DX2 analytically  !
 ! D228  D(61,57,93,94)        153.3423         calculate D2E/DX2 analytically  !
 ! D229  D(61,57,93,95)         32.5318         calculate D2E/DX2 analytically  !
 ! D230  D(61,57,93,96)        -87.139          calculate D2E/DX2 analytically  !
 ! D231  D(55,58,91,8)        -127.23           calculate D2E/DX2 analytically  !
 ! D232  D(55,58,91,9)         160.8737         calculate D2E/DX2 analytically  !
 ! D233  D(55,58,91,89)          2.628          calculate D2E/DX2 analytically  !
 ! D234  D(56,59,61,57)          0.4088         calculate D2E/DX2 analytically  !
 ! D235  D(56,59,61,62)       -179.2986         calculate D2E/DX2 analytically  !
 ! D236  D(97,59,61,57)        177.0732         calculate D2E/DX2 analytically  !
 ! D237  D(97,59,61,62)         -2.6342         calculate D2E/DX2 analytically  !
 ! D238  D(56,59,97,98)        -32.6405         calculate D2E/DX2 analytically  !
 ! D239  D(56,59,97,99)       -153.3922         calculate D2E/DX2 analytically  !
 ! D240  D(56,59,97,100)        86.9517         calculate D2E/DX2 analytically  !
 ! D241  D(61,59,97,98)        150.6579         calculate D2E/DX2 analytically  !
 ! D242  D(61,59,97,99)         29.9062         calculate D2E/DX2 analytically  !
 ! D243  D(61,59,97,100)       -89.7499         calculate D2E/DX2 analytically  !
 ! D244  D(19,83,84,85)       -130.1654         calculate D2E/DX2 analytically  !
 ! D245  D(19,83,84,89)         78.3712         calculate D2E/DX2 analytically  !
 ! D246  D(83,84,85,86)        -90.8998         calculate D2E/DX2 analytically  !
 ! D247  D(83,84,85,87)         28.7136         calculate D2E/DX2 analytically  !
 ! D248  D(83,84,85,88)        147.9409         calculate D2E/DX2 analytically  !
 ! D249  D(89,84,85,86)         61.9693         calculate D2E/DX2 analytically  !
 ! D250  D(89,84,85,87)       -178.4173         calculate D2E/DX2 analytically  !
 ! D251  D(89,84,85,88)        -59.19           calculate D2E/DX2 analytically  !
 ! D252  D(83,84,89,90)       -143.3655         calculate D2E/DX2 analytically  !
 ! D253  D(83,84,89,91)        -24.6005         calculate D2E/DX2 analytically  !
 ! D254  D(83,84,89,92)         94.5637         calculate D2E/DX2 analytically  !
 ! D255  D(85,84,89,90)         62.0479         calculate D2E/DX2 analytically  !
 ! D256  D(85,84,89,91)       -179.1871         calculate D2E/DX2 analytically  !
 ! D257  D(85,84,89,92)        -60.0229         calculate D2E/DX2 analytically  !
 ! D258  D(84,89,91,8)        -120.5725         calculate D2E/DX2 analytically  !
 ! D259  D(84,89,91,9)         -42.1943         calculate D2E/DX2 analytically  !
 ! D260  D(84,89,91,58)        118.875          calculate D2E/DX2 analytically  !
 ! D261  D(90,89,91,8)          -1.1431         calculate D2E/DX2 analytically  !
 ! D262  D(90,89,91,9)          77.2351         calculate D2E/DX2 analytically  !
 ! D263  D(90,89,91,58)       -121.6956         calculate D2E/DX2 analytically  !
 ! D264  D(92,89,91,8)         119.4067         calculate D2E/DX2 analytically  !
 ! D265  D(92,89,91,9)        -162.2151         calculate D2E/DX2 analytically  !
 ! D266  D(92,89,91,58)         -1.1458         calculate D2E/DX2 analytically  !
 --------------------------------------------------------------------------------
 Trust Radius=1.00D-01 FncErr=1.00D-07 GrdErr=1.00D-06 EigMax=2.50D+02 EigMin=1.00D-04
 Number of steps in this run=    582 maximum allowed number of steps=    600.
 Search for a saddle point of order  1.
 GradGradGradGradGradGradGradGradGradGradGradGradGradGradGradGradGradGrad

 Leave Link  103 at Thu Jun  6 06:52:23 2019, MaxMem=  6442450944 cpu:               4.3 elap:               0.2
 (Enter /home/ekwan/sw/g16/l202.exe)
 Stoichiometry    C30H47F6NaO15S
 Framework group  C1[X(C30H47F6NaO15S)]
 Deg. of freedom   294
 Full point group                 C1      NOp   1
 Largest Abelian subgroup         C1      NOp   1
 Largest concise Abelian subgroup C1      NOp   1
                         Standard orientation:                         
 ---------------------------------------------------------------------
 Center     Atomic      Atomic             Coordinates (Angstroms)
 Number     Number       Type             X           Y           Z
 ---------------------------------------------------------------------
      1          6           0        3.227416   -2.047841   -1.107954
      2          6           0        3.848591   -3.449907   -1.037667
      3          6           0        3.004812   -4.408158   -0.183954
      4          6           0        0.999161   -3.158744   -0.493579
      5          6           0        1.711204   -2.109634   -1.352796
      6          1           0        3.344654   -5.446743   -0.298717
      7          1           0        3.864647   -3.864566   -2.058074
      8          1           0        3.418730   -1.535670   -0.155987
      9          1           0        1.047906   -2.862508    0.558376
     10          1           0        1.559578   -2.371994   -2.410606
     11          8           0        1.674240   -4.423635   -0.646563
     12          8           0        3.126997   -4.012539    1.158835
     13          8           0        5.172249   -3.308271   -0.549150
     14          8           0        3.768629   -1.288776   -2.183674
     15          8           0        1.079464   -0.858803   -1.084226
     16          6           0       -0.495332   -3.373616   -0.862415
     17          1           0       -0.616040   -4.477125   -0.918270
     18          1           0       -0.628959   -3.021862   -1.913972
     19          8           0       -1.382962   -2.782559   -0.001237
     20          6           0        5.963386   -4.479162   -0.660752
     21          1           0        5.647759   -5.258686    0.045612
     22          1           0        5.930795   -4.890365   -1.680577
     23          1           0        6.990560   -4.189770   -0.425862
     24          6           0        5.093032   -0.798280   -2.011893
     25          1           0        5.250094   -0.423736   -0.994631
     26          1           0        5.842078   -1.568834   -2.219682
     27          1           0        5.210324    0.029493   -2.716262
     28          6           0        1.137171    0.100912   -2.141191
     29          1           0        2.107853    0.599750   -2.173727
     30          1           0        0.955694   -0.383105   -3.108080
     31          1           0        0.338018    0.817956   -1.952920
     32          6           0       -4.233112   -0.070525   -1.769793
     33          6           0       -2.802821   -0.612824   -1.776588
     34          6           0       -2.136184   -0.513088   -0.433330
     35          6           0       -4.215566   -0.205446    0.727457
     36          6           0       -4.975433   -0.594867   -0.541149
     37          1           0       -1.082236   -0.714093   -0.371778
     38          1           0       -2.845533   -1.700990   -1.936600
     39          1           0       -4.186463    1.025138   -1.730058
     40          1           0       -4.162291    0.885160    0.804410
     41          1           0       -5.039177   -1.686367   -0.604122
     42          8           0       -2.842815   -0.687557    0.662823
     43          8           0       -0.676089    0.644141    1.774538
     44          8           0       -2.006859    0.007208   -2.758568
     45          8           0       -4.866711   -0.501731   -2.962827
     46          8           0       -6.271055   -0.019381   -0.469428
     47          6           0       -4.798303   -0.753287    2.009917
     48          1           0       -5.785635   -0.293745    2.161643
     49          1           0       -4.152731   -0.458692    2.851920
     50          8           0       -4.895827   -2.159781    1.918536
     51         16           0       -1.242796    1.815864    1.053397
     52          8           0       -2.191418    2.645908    1.818442
     53          8           0       -1.809406    1.431601   -0.321055
     54          6           0        0.177920    2.838577    0.668371
     55          6           0        1.395181    2.208787    0.422532
     56          6           0        0.056032    4.223324    0.639972
     57          6           0        2.513655    2.991981    0.149765
     58          1           0        1.461941    1.128793    0.446048
     59          6           0        1.186356    4.992152    0.355813
     60          1           0       -0.900008    4.689205    0.847028
     61          6           0        2.417329    4.383646    0.114340
     62          1           0        3.292552    4.986999   -0.094324
     63          6           0       -1.837381   -0.768181   -3.942213
     64          1           0       -1.309330   -1.707120   -3.726001
     65          1           0       -2.802052   -0.991057   -4.409082
     66          1           0       -1.229898   -0.164119   -4.619517
     67          6           0       -5.699350    0.482606   -3.567038
     68          1           0       -6.505069    0.792680   -2.893632
     69          1           0       -5.114534    1.365213   -3.861056
     70          1           0       -6.125601    0.022298   -4.461584
     71          6           0       -7.323139   -0.979159   -0.426483
     72          1           0       -7.352157   -1.571643   -1.349720
     73          1           0       -7.210345   -1.655166    0.430547
     74          1           0       -8.254610   -0.417534   -0.327158
     75          6           0       -5.413189   -2.741398    3.104081
     76          1           0       -5.454910   -3.819860    2.939703
     77          1           0       -4.764034   -2.530458    3.967132
     78          1           0       -6.423521   -2.367395    3.324906
     79          6           0        2.443266   -4.870536    2.064430
     80          1           0        2.742969   -4.567801    3.069328
     81          1           0        1.356401   -4.776171    1.965689
     82          1           0        2.728307   -5.919448    1.900523
     83         11           0       -1.080733   -1.740508    1.919243
     84          8           0        0.967472   -1.876359    2.984663
     85          6           0        1.126029   -2.217982    4.353676
     86          1           0        1.119071   -1.320125    4.987388
     87          1           0        0.287952   -2.863522    4.627106
     88          1           0        2.067508   -2.759616    4.515747
     89          6           0        2.030132   -1.058617    2.501714
     90          1           0        2.984403   -1.594642    2.568562
     91          1           0        1.811547   -0.840801    1.457358
     92          1           0        2.086689   -0.119176    3.067141
     93          6           0        3.826930    2.324607   -0.148093
     94          9           0        3.923387    1.119817    0.461719
     95          9           0        4.876842    3.069838    0.252046
     96          9           0        3.983649    2.108428   -1.477491
     97          6           0        1.088707    6.493494    0.384551
     98          9           0       -0.131031    6.921918   -0.003144
     99          9           0        2.002615    7.070778   -0.424596
    100          9           0        1.300496    6.979761    1.629525
 ---------------------------------------------------------------------
 Rotational constants (GHZ):           0.0495321           0.0444056           0.0300087
 Leave Link  202 at Thu Jun  6 06:52:23 2019, MaxMem=  6442450944 cpu:               5.5 elap:               0.2
 (Enter /home/ekwan/sw/g16/l301.exe)
 Standard basis: 6-31G(d) (6D, 7F)
 Ernie: Thresh=  0.10000D-02 Tol=  0.10000D-05 Strict=F.
 There are   897 symmetry adapted cartesian basis functions of A   symmetry.
 There are   897 symmetry adapted basis functions of A   symmetry.
   897 basis functions,  1720 primitive gaussians,   897 cartesian basis functions
   214 alpha electrons      214 beta electrons
       nuclear repulsion energy      9471.1083522315 Hartrees.
 IExCor=  402 DFT=T Ex+Corr=B3LYP ExCW=0 ScaHFX=  0.200000
 ScaDFX=  0.800000  0.720000  1.000000  0.810000 ScalE2=  1.000000  1.000000
 IRadAn=      5 IRanWt=     -1 IRanGd=            0 ICorTp=0 IEmpDi=141
 NAtoms=  100 NActive=  100 NUniq=  100 SFac= 1.00D+00 NAtFMM=   60 NAOKFM=T Big=T
 Integral buffers will be    131072 words long.
 Raffenetti 2 integral format.
 Two-electron integral symmetry is turned on.
 R6Disp:  Grimme-D3(BJ) Dispersion energy=       -0.2290465010 Hartrees.
 Nuclear repulsion after empirical dispersion term =     9470.8793057305 Hartrees.
 Force inversion solution in PCM.
 ------------------------------------------------------------------------------
 Polarizable Continuum Model (PCM)
 =================================
 Model                : PCM.
 Atomic radii         : UFF (Universal Force Field).
 Polarization charges : Total charges.
 Charge compensation  : None.
 Solution method      : Matrix inversion.
 Cavity type          : Scaled VdW (van der Waals Surface) (Alpha=1.100).
 Cavity algorithm     : GePol (No added spheres)
                        Default sphere list used, NSphG=  100.
                        Lebedev-Laikov grids with approx.  5.0 points / Ang**2.
                        Smoothing algorithm: York/Karplus (Gamma=1.0000).
[...]
 .00003123,0.00012766,0.00009188,0.00000492,0.00009739,0.00012234,-0.00
 001391,0.00001377,-0.00002393,0.00004673,0.00002868,0.00001570,-0.0000
 1140,-0.00000930,0.00000046,-0.00000578,0.00001467,0.00004427,-0.00006
 888,-0.00004781,-0.00323481,0.00152989,0.00037298,0.00101703,-0.000172
 52,-0.00037988,0.00125174,-0.00128097,0.00097371,0.00217198,-0.0018205
 9,0.00061983,0.00045832,-0.00088725,-0.00029937,-0.00507577,-0.0059160
 2,-0.00049028,0.00040416,-0.00016340,0.00024129,-0.00002234,0.00012954
 ,-0.00006317,0.03406813,-0.02194501,-0.02811577,-0.00016071,0.00044342
 ,-0.00030974,0.00102683,-0.00124198,-0.00065491,-0.00010410,-0.0021440
 4,-0.00078633,0.00002350,0.00005126,-0.00010052,-0.00000386,-0.0000092
 5,0.00000433,0.00001009,-0.00001231,0.00001607,-0.00001078,-0.00000106
 ,0.00000800,-0.00003969,-0.00004730,-0.00003204,0.00000496,0.00000751,
 -0.00000202,0.00000152,0.00000897,-0.00000011,0.00000873,0.00000110,0.
 00001102,-0.00005183,0.00004750,-0.00000043,0.00000446,-0.00000990,0.0
 0000461,0.00000022,-0.00000664,-0.00000177,0.00001122,-0.00000189,-0.0
 0000108,-0.00002950,0.00002170,0.00004109,0.00000181,-0.00000851,-0.00
 000400,0.00000159,0.00000070,-0.00000495,0.00000952,0.00000188,-0.0000
 0740,-0.00000172,0.00002847,0.00002084,0.00000302,0.00000348,-0.000001
 24,-0.00000189,0.00000332,-0.00000141,-0.00000288,-0.00001054,0.000002
 05,-0.00002986,0.00022808,0.00006186,-0.00000872,-0.00011803,-0.000129
 88,0.00002036,0.00003362,0.00010339,-0.00000246,0.00000373,-0.00000786
 ,0.00000859,-0.00000874,-0.00001416,-0.00001712,-0.00000931,-0.0000128
 8,-0.00001297,0.00006279,0.00009826,-0.00001408,-0.00003347,-0.0000307
 2,0.00000982,0.00007182,-0.00005171,0.00001879,-0.00000927,0.00004451,
 0.00215058,0.00086091,-0.00065083,-0.00051103,-0.00055247,-0.00002229,
 -0.00077511,-0.00000327,0.00001138,-0.00054841,-0.00027280,0.00061322,
 0.05849051,-0.13417503,-0.05537382,0.00168795,0.01700382,0.00488958,-0
 .08784166,0.13324426,0.00001118,-0.00000676,-0.00003635,0.00000677,0.0
 0000816,-0.00000272,0.00001437,0.00000644,-0.00001394,0.00000469,0.000
 01552,-0.00000915,0.00001673,0.00003768,-0.00000580,-0.00000281,-0.000
 00406,0.00000096,-0.00000224,-0.00000419,0.00000366,0.00000465,0.00000
 090,0.00000865,0.00000070,0.00000401,0.00000561,-0.00000135,-0.0000096
 8,0.00000900,-0.00001919,-0.00001718,0.00000910,-0.00000776,-0.0000097
 7,0.00001336,-0.00001366,-0.00000481,0.00000794,-0.00002849,0.00000777
 ,0.00003180,-0.00001583,-0.00002381,0.00007125,0.00004290,0.00002058,-
 0.00005134,-0.00000949,-0.00001607,0.00000942,-0.00000636,0.00000535,0
 .00001930,-0.00003130,-0.00008079,0.00002085,0.00000596,0.00000607,-0.
 00000671,-0.00000092,0.00000060,0.00000125,0.00000055,-0.00000233,0.00
 000321,-0.00000103,-0.00000074,-0.00000143,0.00001430,-0.00001269,-0.0
 0002323,0.00000588,0.00000476,0.00000587,-0.00000370,-0.00000242,0.000
 00437,-0.00000307,0.00000694,0.00000164,0.00001006,-0.00001881,-0.0000
 2839,0.00000448,0.00000585,-0.00001709,0.00000313,-0.00002570,0.000013
 65,-0.00001645,-0.00001086,-0.00002562,-0.00002732,0.00000208,-0.00002
 729,0.00002358,-0.00004687,-0.00004667,-0.00007024,0.00038527,-0.00003
 648,-0.00005965,0.00000589,0.00000225,-0.00002208,0.00000506,-0.000016
 26,0.00001825,-0.00001281,-0.00000227,0.00000361,0.00000399,0.00001428
 ,-0.00000137,-0.00000433,-0.00000484,-0.00000707,0.00000087,-0.0000022
 4,0.00000233,-0.00000172,0.00000337,0.00008430,-0.00008055,-0.00001121
 ,0.00016893,-0.00045132,-0.00016317,-0.00001750,0.00000324,0.00006448,
 0.00002616,0.00000588,0.00004602,0.00003090,-0.00000621,0.00001388,-0.
 00001125,0.00002329,-0.00000149,0.00000273,-0.00000280,-0.00000282,0.0
 0000438,-0.00000058,0.00001048,0.00001452,-0.00003000,-0.00000418,-0.0
 0092511,0.00050709,-0.00021823,0.00028063,-0.00011786,-0.00003447,0.00
 033716,-0.00037723,0.00039750,0.00108572,0.00012035,-0.00037011,-0.000
 43334,-0.00004329,0.00006257,-0.00152722,-0.00302053,0.00067535,-0.000
 24366,-0.00068127,0.00027878,-0.00007655,0.00004595,-0.00001871,0.0125
 8082,-0.00817748,-0.00050743,-0.00014982,0.00019431,0.00008205,0.00191
 428,0.00132068,-0.00005428,-0.00097582,-0.00034136,-0.00038634,0.00001
 435,0.00000956,-0.00004192,-0.00000053,-0.00000155,0.00000316,0.000001
 69,-0.00000386,0.00000520,-0.00000606,0.00000018,0.00000921,-0.0000075
 0,-0.00002440,-0.00001654,-0.00000140,0.00000336,0.00000046,-0.0000004
 2,0.00000769,0.00000013,0.00000346,0.00000033,0.00000391,-0.00001444,0
 .00001412,-0.00000325,0.00000139,-0.00000416,0.00000293,-0.00000027,-0
 .00000050,0.00000029,0.00000208,-0.00000060,-0.00000123,-0.00001124,0.
 00000792,0.00000618,0.00000054,-0.00000407,-0.00000065,0.00000266,0.00
 000052,0.00000050,0.00000237,0.00000077,-0.00000242,0.00000330,0.00000
 465,-0.00000209,0.00000181,0.00000170,0.00000235,-0.00000170,0.0000018
 7,-0.00000093,-0.00000172,-0.00000280,0.00000149,-0.00000776,0.0000826
 6,-0.00000423,-0.00000347,-0.00004705,-0.00002077,0.00000615,0.0000203
 1,0.00001824,0.00000020,-0.00000325,0.00000257,0.00000351,-0.00000256,
 -0.00000333,-0.00000719,-0.00000433,-0.00000269,-0.00000376,0.00003433
 ,0.00001018,-0.00000668,-0.00001206,-0.00000838,0.00000568,0.00001969,
 -0.00001474,0.00000611,-0.00000751,0.00001840,0.00062802,0.00004798,-0
 .00039266,-0.00015234,-0.00011643,0.00004585,-0.00022041,0.00003832,0.
 00004416,-0.00017802,-0.00006605,0.00028491,0.06614774,-0.06053769,-0.
 13102108,0.01366578,0.00322861,0.01309509,-0.12747491,0.07970026,0.189
 75113,-0.00000179,0.00000152,0.00000049,-0.00000734,-0.00000212,-0.000
 00337,-0.00000912,0.00000016,-0.00000869,-0.00000090,-0.00000568,-0.00
 000305,-0.00001190,-0.00001661,0.00000233,0.00000092,0.00000071,0.0000
 0080,0.00000075,0.00000008,0.00000089,-0.00000061,-0.00000182,-0.00000
 096,-0.00000072,0.00000009,-0.00000035,0.00000129,0.00000198,-0.000000
 74,0.00001162,0.00000717,0.00000401,0.00000411,-0.00000038,0.00000657,
 0.00000919,0.00000147,0.00000308,0.00001459,0.00000011,0.00000085,0.00
 001046,0.00002767,0.00000126,-0.00001218,-0.00000547,0.00000793,0.0000
 0284,0.00000479,-0.00000204,0.00000218,-0.00000068,-0.00000058,0.00001
 302,0.00002172,0.00000378,-0.00000253,-0.00000146,-0.00000056,0.000000
 18,0.00000067,-0.00000025,0.00000020,0.00000024,0.00000070,0.00000183,
 0.00000045,-0.00000002,-0.00000908,0.00000451,-0.00000080,-0.00000286,
 -0.00000279,0.00000103,0.00000165,0.00000191,-0.00000153,-0.00000099,-
 0.00000099,0.00000035,-0.00000189,-0.00001339,-0.00000729,-0.00000650,
 -0.00000197,0.00000361,-0.00000304,0.00000475,-0.00000032,0.00000394,-
 0.00000121,-0.00000040,0.00000385,-0.00001684,0.00000406,-0.00000050,-
 0.00000051,-0.00000210,0.00000753,-0.00008364,-0.00000151,-0.00000043,
 -0.00001177,0.00000099,0.00000279,-0.00000205,-0.00000123,-0.00000488,
 0.00000329,-0.00000133,-0.00000043,0.00000187,-0.00000129,0.00000239,0
 .00000476,0.00000170,-0.00000085,0.00000033,-0.00000200,-0.00000145,0.
 00000251,-0.00000042,-0.00000162,0.00001976,0.00000949,0.00007186,-0.0
 0000474,0.00001871,0.00000299,0.00001130,-0.00000617,-0.00000176,0.000
 01408,-0.00000148,-0.00000930,0.00001017,0.00000052,0.00000031,-0.0000
 1100,-0.00000550,0.00000179,0.00000070,0.00000020,-0.00000071,0.000000
 66,0.00000005,-0.00000215,0.00001510,0.00000825,-0.00014479,-0.0002059
 2,-0.00008508,0.00002470,0.00008630,0.00000765,-0.00000761,0.00009159,
 -0.00001654,-0.00006512,-0.00096567,-0.00023148,0.00087227,-0.00006601
 ,-0.00021664,-0.00064659,-0.00048591,0.00124244,0.00037804,0.00116425,
 0.00020285,0.00001999,-0.00000385,-0.00001370,0.01205695,0.00102085,-0
 .00264630,0.00016887,-0.00028871,-0.00000623,-0.00143783,0.00084170,-0
 .00074620,0.00012676,0.00017342,-0.00018070,-0.00000307,-0.00001030,0.
 00001043,0.00000112,0.00000395,0.00000029,-0.00000069,0.00000044,-0.00
 000099,-0.00000106,-0.00000076,0.00000057,0.00000209,-0.00001113,-0.00
 000217,0.00000126,-0.00000059,0.00000007,-0.00000283,0.00000258,0.0000
 0287,-0.00000101,0.00000214,-0.00000173,0.00000881,-0.00000989,-0.0000
 0020,-0.00000066,0.00000181,-0.00000143,-0.00000044,0.00000184,0.00000
 109,0.00000020,0.00000007,-0.00000006,0.00000150,-0.00000401,-0.000008
 02,-0.00000046,0.00000172,0.00000042,0.00000010,-0.00000067,0.00000182
 ,-0.00000009,0.,0.00000130,-0.00000190,-0.00000064,-0.00000220,-0.0000
 0019,-0.00000003,0.00000121,0.00000089,-0.00000002,0.00000011,0.,0.000
 00034,0.00000002,-0.00000705,-0.00000772,-0.00000987,0.00001098,-0.000
 00224,0.00000834,-0.00000292,0.00000079,-0.00000672,-0.00000137,-0.000
 00114,0.00000130,0.00000075,-0.00000108,0.00000068,0.00000131,0.000001
 53,0.00000021,-0.00000795,0.00000718,-0.00000900,0.00000119,0.00000261
 ,0.00000159,0.00000028,-0.00000407,0.00000248,-0.00000185,-0.00000188,
 0.00000051,-0.00036503,0.00009181,0.00012653,0.00012753,0.00012370,0.0
 0000424,0.00012494,-0.00005729,0.00002486,0.00006375,0.00000154,-0.000
 04315,-0.07328578,0.01173041,-0.02214645,-0.02584797,0.00895553,-0.055
 42631,0.00575838,-0.00483948,0.03559000,0.08200488,0.00000317,0.000024
 41,-0.00003538,0.00003699,0.00003759,0.00000916,0.00004961,0.00002810,
 0.00004335,0.00000472,0.00008156,0.00002312,0.00012675,0.00023521,-0.0
 0003300,-0.00000894,-0.00001803,-0.00000702,-0.00000810,-0.00001238,0.
 00000446,0.00001495,0.00001142,0.00002373,0.00000429,0.00000924,0.0000
 0905,-0.00001573,-0.00004115,0.00002842,-0.00006621,-0.00010013,-0.000
 02045,-0.00001216,-0.00004357,-0.00004188,-0.00006844,-0.00005464,-0.0
 0001003,-0.00007765,-0.00006566,0.00002235,-0.00005464,-0.00034087,0.0
 0012289,0.00006767,0.00005295,-0.00009633,-0.00001906,-0.00005440,0.00
 002391,-0.00001724,0.00001082,0.00002441,-0.00003824,-0.00022241,-0.00
 001133,0.00002962,0.00004492,-0.00000814,-0.00000035,-0.00001020,-0.00
 000134,-0.00000105,-0.00000651,0.00000518,-0.00000813,-0.00000354,-0.0
 0000080,0.00003651,0.00001108,-0.00003846,0.00003246,0.00002908,0.0000
 1988,-0.00001484,-0.00002432,0.00001928,0.00000875,0.00001112,-0.00001
 912,0.00003569,0.00011580,0.00003783,0.00008007,0.00003641,-0.00007096
 ,0.00000798,-0.00011425,0.00003710,-0.00013480,-0.00001205,-0.00006244
 ,-0.00008301,0.00001386,-0.00005408,-0.00001110,-0.00008316,-0.0000492
 0,-0.00026283,0.00111921,0.00001220,-0.00022043,-0.00001200,0.00003734
 ,-0.00007213,0.00001065,-0.00001615,0.00001634,-0.00002196,0.00001185,
 0.00001585,0.00000097,0.00003100,-0.00001457,-0.00001669,-0.00000991,-
 0.00002075,0.00000886,0.00000508,0.00000773,-0.00000280,0.00000543,0.0
 0033045,-0.00023129,-0.00016754,0.00060779,-0.00106019,-0.00050866,0.0
 0003594,-0.00004081,0.00009919,0.00008749,0.00000255,0.00007699,0.0001
 2006,-0.00001064,0.00000462,-0.00001907,0.00003537,0.00003415,0.000016
 83,-0.00001116,-0.00000860,-0.00000338,-0.00000637,0.00000904,0.000040
 91,-0.00005541,-0.00005287,-0.00290745,0.00158988,0.00021790,0.0009957
 3,-0.00013415,-0.00041783,0.00099412,-0.00109507,0.00073723,-0.0006076
 2,-0.00081031,-0.00172868,-0.00017799,-0.00104620,0.00022620,-0.002776
 81,-0.00016789,0.00112908,-0.00040332,-0.00126856,-0.00193056,0.000026
 65,0.00020685,0.00018419,0.00509434,-0.02155164,0.03990685,0.00036196,
 0.00003252,0.00085589,0.00363698,-0.00070737,0.00016436,-0.00004658,0.
 00003041,0.00099513,0.00001586,0.00005170,-0.00008606,-0.00000456,-0.0
 0000780,0.00000248,0.00001153,-0.00001127,0.00001517,-0.00000852,-0.00
 000227,0.00000088,-0.00004089,-0.00003660,-0.00002440,0.00000709,0.000
 00622,-0.00000275,0.00000208,0.00000441,-0.00000026,0.00000750,0.00000
 102,0.00000978,-0.00004946,0.00004424,0.00000226,0.00000415,-0.0000082
 4,0.00000287,0.00000043,-0.00000750,-0.00000226,0.00001175,-0.00000169
 ,-0.00000021,-0.00002629,0.00001904,0.00004340,0.00000158,-0.00000651,
 -0.00000419,-0.00000039,0.00000026,-0.00000607,0.00000965,0.00000169,-
 0.00000664,-0.00000680,0.00003405,0.00002991,0.00000235,0.00000308,-0.
 00000357,-0.00000056,0.00000255,-0.00000104,-0.00000211,-0.00001156,0.
 00000128,-0.00003989,0.00020402,0.00007862,0.00000313,-0.00011774,-0.0
 0015747,0.00002301,0.00002525,0.00012003,-0.00000435,0.00000798,-0.000
 01268,0.00000847,-0.00001007,-0.00001666,-0.00001565,-0.00000759,-0.00
 001411,-0.00002138,0.00006031,0.00013005,-0.00001179,-0.00003403,-0.00
 003423,0.00000519,0.00008452,-0.00005718,0.00001948,-0.00000610,0.0000
 4605,0.00241815,0.00079064,-0.00074205,-0.00067791,-0.00073987,-0.0000
 2100,-0.00082726,0.00001259,-0.00002310,-0.00055402,-0.00028463,0.0005
 9366,0.01196250,-0.11490568,0.07630812,0.00132695,0.01697876,-0.005072
 82,-0.00098630,0.01786592,-0.01149366,-0.01731850,0.10566786,0.0000042
 3,-0.00002006,-0.00000749,-0.00002895,-0.00002300,-0.00001237,-0.00003
 709,-0.00001408,-0.00005763,-0.00000182,-0.00005408,-0.00002928,-0.000
 09172,-0.00015831,0.00002160,0.00000575,0.00001041,0.00000723,0.000004
 68,0.00000535,0.00000110,-0.00000717,-0.00000955,-0.00001041,-0.000004
 12,-0.00000372,-0.00000262,0.00001192,0.00002413,-0.00001384,0.0000500
 6,0.00006801,0.00002860,0.00000714,0.00002261,0.00005344,0.00004862,0.
 00003738,0.00001809,0.00004792,0.00005373,0.00001314,0.00004643,0.0002
 5609,-0.00003035,-0.00004172,-0.00003188,0.00004761,0.00001310,0.00003
 599,-0.00001494,0.00001197,-0.00000528,-0.00000526,0.00002769,0.000146
 97,0.00003232,-0.00001868,-0.00002932,-0.00000073,-0.00000049,0.000008
 90,0.00000185,0.00000149,0.00000293,-0.00000004,0.00000705,0.00000242,
 -0.00000084,-0.00002364,-0.00001391,0.00000541,-0.00002019,-0.00001965
 ,-0.00000837,0.00000933,0.00001745,-0.00001162,-0.00000958,-0.00000313
 ,0.00001641,-0.00002530,-0.00011531,-0.00005130,-0.00005381,-0.0000221
 5,0.00003811,-0.00000439,0.00006305,-0.00001624,0.00008023,-0.00000030
 ,0.00002630,0.00005155,-0.00003089,0.00002467,0.00002470,0.00003381,0.
 00000254,0.00016769,-0.00074047,-0.00004689,0.00014232,0.00000524,-0.0
 0003208,0.00004367,-0.00000735,-0.00000152,-0.00001382,0.00001561,-0.0
 0000965,-0.00001138,0.00000456,-0.00001734,0.00001462,0.00001630,0.000
 00644,0.00001098,-0.00000693,-0.00001046,-0.00000625,0.00000374,-0.000
 00196,-0.00022116,0.00015666,0.00014464,-0.00035238,0.00077638,0.00047
 480,-0.00003463,0.00004805,-0.00003556,-0.00005202,0.00002031,-0.00002
 520,-0.00008482,0.00001465,0.00000987,0.00000436,-0.00001818,-0.000041
 79,-0.00001056,0.00000831,0.00000498,0.00000784,0.00000620,0.00000374,
 -0.00002315,0.00003408,0.00005434,0.00190920,-0.00099996,-0.00050404,-
 0.00064513,0.00004889,0.00041115,-0.00064559,0.00073667,-0.00037385,0.
 00003482,0.00121909,0.00106476,-0.00020377,0.00038228,-0.00012605,0.00
 196423,0.00048812,-0.00076160,0.00054067,0.00079918,0.00081085,-0.0000
 2659,-0.00008517,-0.00012397,-0.00397460,0.01743369,-0.01501205,-0.000
 18724,-0.00018142,-0.00075431,-0.00181300,0.00073583,0.00035549,-0.000
 23548,-0.00029919,-0.00069777,-0.00000600,-0.00004586,0.00004788,0.000
 00445,0.00001065,0.00000064,-0.00000789,0.00000645,-0.00000936,0.00000
 030,0.00000079,0.00000621,0.00002936,-0.00000409,0.00000277,-0.0000055
 8,-0.00000303,0.00000252,-0.00000558,0.00000594,0.00000383,-0.00000444
 ,0.00000186,-0.00000659,0.00003842,-0.00003576,-0.00000585,-0.00000310
 ,0.00000503,-0.00000108,-0.00000124,0.00000829,0.00000366,-0.00000795,
 0.00000101,-0.00000128,0.00001206,-0.00001280,-0.00004255,-0.00000147,
 0.00000334,0.00000385,0.00000373,-0.00000035,0.00000845,-0.00000602,-0
 .00000055,0.00000483,0.00000582,-0.00002216,-0.00002787,0.00000004,-0.
 00000067,0.00000657,-0.00000013,-0.00000021,-0.00000016,0.00000003,0.0
 0000640,0.00000058,0.00001272,-0.00012108,-0.00008681,0.00001646,0.000
 04037,0.00011608,-0.00001328,0.00000381,-0.00009075,0.00000236,-0.0000
 1208,0.00001602,-0.00000227,0.00000385,0.00001035,0.00000634,0.0000030
 1,0.00001051,-0.00000284,0.00000586,-0.00010308,0.00000439,0.00001622,
 0.00002160,-0.00000184,-0.00005002,0.00003409,-0.00001000,-0.00000641,
 -0.00001448,-0.00156866,-0.00049291,0.00017526,0.00044281,0.00053104,0
 .00010835,0.00055320,-0.00001189,0.00008240,0.00035497,0.00018016,-0.0
 0029118,-0.02247748,0.07532544,-0.21028408,-0.04330289,0.00284025,-0.0
 3921695,0.02501761,0.00036960,-0.07153109,0.04453962,-0.09939922,0.336
 21666\\0.00000051,-0.00000082,0.00000057,0.00000094,-0.00000114,0.0000
 0093,0.00000118,-0.00000081,0.00000123,0.00000071,-0.00000013,0.000000
 50,0.00000045,-0.00000037,0.00000058,0.00000148,-0.00000085,0.00000131
 ,0.00000107,-0.00000074,0.00000099,0.00000027,-0.00000078,0.00000047,0
 .00000113,-0.00000007,0.00000037,0.00000075,-0.00000006,0.00000050,0.0
 0000116,-0.00000053,0.00000083,0.00000120,-0.00000138,0.00000101,0.000
 00031,-0.00000144,0.00000087,0.00000031,-0.00000058,0.00000049,0.00000
 017,-0.00000013,0.00000005,0.00000146,0.00000071,0.00000036,0.00000074
 ,0.00000008,0.00000080,0.00000069,0.00000051,0.00000048,-0.00000140,0.
 00000041,0.00000095,0.00000111,-0.00000190,0.00000136,0.00000134,-0.00
 000180,0.00000155,0.00000142,-0.00000144,0.00000139,0.00000106,-0.0000
 0200,0.00000133,0.00000033,-0.00000105,0.00000045,-0.00000004,-0.00000
 140,0.00000039,0.00000052,-0.00000137,0.00000068,-0.00000007,-0.000001
 04,0.00000027,0.00000009,0.,0.,-0.00000015,-0.00000025,-0.00000032,0.0
 0000010,0.00000038,0.00000003,-0.00000034,0.00000042,-0.00000032,-0.00
 000005,0.00000166,-0.00000033,-0.00000017,0.00000099,-0.00000025,-0.00
 000007,0.00000053,0.00000003,-0.00000022,0.00000101,-0.00000028,-0.000
 00001,0.00000155,-0.00000044,-0.00000051,0.00000042,0.00000025,0.00000
 013,0.00000155,-0.00000006,-0.00000012,0.00000162,-0.00000051,-0.00000
 055,0.00000102,-0.00000072,0.00000027,0.00000170,-0.00000024,0.0000021
 4,0.00000002,-0.00000023,-0.00000016,-0.00000030,-0.00000037,-0.000000
 35,0.00000078,-0.00000022,0.00000026,0.00000208,-0.00000023,-0.0000001
 7,0.00000185,-0.00000059,0.00000011,0.00000070,-0.00000072,-0.00000035
 ,0.00000120,-0.00000052,-0.00000036,0.00000044,-0.00000022,0.00000061,
 0.00000098,-0.00000053,-0.00000051,0.00000009,-0.00000112,-0.00000105,
 0.00000016,-0.00000080,-0.00000013,0.00000077,-0.00000046,-0.00000109,
 -0.00000012,-0.00000076,-0.00000110,-0.00000063,-0.00000055,-0.0000015
 4,-0.00000012,-0.00000111,-0.00000120,-0.00000078,-0.00000063,-0.00000
 048,-0.00000084,-0.00000034,-0.00000170,-0.00000033,-0.00000119,-0.000
 00168,0.00000009,-0.00000118,-0.00000169,-0.00000071,-0.00000110,-0.00
 000170,-0.00000097,-0.00000100,0.00000035,0.00000130,-0.00000022,0.000
 00057,0.00000119,0.00000009,0.00000045,0.00000179,-0.00000013,0.000000
 21,0.00000134,-0.00000015,-0.00000020,0.00000236,-0.00000074,-0.000000
 21,0.00000249,-0.00000080,-0.00000039,0.00000231,-0.00000085,0.0000001
 4,0.00000275,-0.00000062,0.00000014,0.00000222,-0.00000044,0.00000039,
 0.00000243,-0.00000041,0.00000025,0.00000195,-0.00000030,-0.00000007,0
 .00000248,-0.00000068,0.00000028,0.00000083,0.00000016,0.00000069,0.00
 000088,0.00000029,0.00000020,0.00000049,0.,0.00000030,0.00000109,-0.00
 000015,0.00000112,-0.00000117,0.00000118,0.00000083,-0.00000160,0.0000
 0116,0.00000101,-0.00000101,0.00000105,0.00000139,-0.00000130,0.000001
 38,-0.00000105,-0.00000082,0.00000014,0.00000082,-0.00000098,0.0000008
 5,-0.00000003,-0.00000153,0.00000024,-0.00000020,-0.00000153,0.0000002
 5,0.00000026,-0.00000102,0.00000064,0.00000027,-0.00000165,0.00000060,
 0.00000020,-0.00000125,0.00000036,0.00000016,-0.00000168,0.00000044,-0
 .00000009,-0.00000052,0.00000018,-0.00000058,-0.00000140,0.00000007,-0
 .00000099,-0.00000121,-0.00000033,-0.00000060,-0.00000135,0.,-0.000001
 12,-0.00000158,-0.00000046,-0.00000072,-0.00000103,-0.00000021,-0.0000
 0195,-0.00000043,-0.00000153,-0.00000233,-0.00000017,-0.00000171,-0.00
 000216,-0.00000064,-0.00000162,-0.00000236,-0.00000091,-0.00000140\\\@


 THE SECRET OF SUCCESS IN LIFE IS TO EAT WHAT YOU LIKE, AND LET THE FOOD
 FIGHT IT OUT INSIDE YOU. -- FROM A FORTUNE COOKIE
 Job cpu time:       4 days  9 hours  5 minutes 10.2 seconds.
 Elapsed time:       0 days  3 hours 25 minutes 11.0 seconds.
 File lengths (MBytes):  RWF=   9736 Int=      0 D2E=      0 Chk=    106 Scr=      1
 Normal termination of Gaussian 16 at Thu Jun  6 13:52:34 2019.
