 Entering Gaussian System, Link 0=g16
 Input=clay_new-glu_gluC6-FCDL-Na2_1Me2O-bisCF3-ts-b3lyp_d3bj-631gd-pcm_thf.gjf
 Output=clay_new-glu_gluC6-FCDL-Na2_1Me2O-bisCF3-ts-b3lyp_d3bj-631gd-pcm_thf.out
 Initial command:
 /home/ekwan/sw/g16/l1.exe "/scratch/users/ekwan/clay_new-glu_gluC6-FCDL-Na2_1Me2O-bisCF3-ts-b3lyp_d3bj-631gd-pcm_thf/Gau-43283.inp" -scrdir="/scratch/users/ekwan/clay_new-glu_gluC6-FCDL-Na2_1Me2O-bisCF3-ts-b3lyp_d3bj-631gd-pcm_thf/"
 Entering Link 1 = /home/ekwan/sw/g16/l1.exe PID=     43284.
  
 Copyright (c) 1988,1990,1992,1993,1995,1998,2003,2009,2016,
            Gaussian, Inc.  All Rights Reserved.
  
 This is part of the Gaussian(R) 16 program.  It is based on
 the Gaussian(R) 09 system (copyright 2009, Gaussian, Inc.),
 the Gaussian(R) 03 system (copyright 2003, Gaussian, Inc.),
 the Gaussian(R) 98 system (copyright 1998, Gaussian, Inc.),
 the Gaussian(R) 94 system (copyright 1995, Gaussian, Inc.),
 the Gaussian 92(TM) system (copyright 1992, Gaussian, Inc.),
 the Gaussian 90(TM) system (copyright 1990, Gaussian, Inc.),
 the Gaussian 88(TM) system (copyright 1988, Gaussian, Inc.),
 the Gaussian 86(TM) system (copyright 1986, Carnegie Mellon
 University), and the Gaussian 82(TM) system (copyright 1983,
 Carnegie Mellon University). Gaussian is a federally registered
 trademark of Gaussian, Inc.
  
 This software contains proprietary and confidential information,
 including trade secrets, belonging to Gaussian, Inc.
  
 This software is provided under written license and may be
 used, copied, transmitted, or stored only in accord with that
 written license.
  
 The following legend is applicable only to US Government
 contracts under FAR:
  
                    RESTRICTED RIGHTS LEGEND
  
 Use, reproduction and disclosure by the US Government is
 subject to restrictions as set forth in subparagraphs (a)
 and (c) of the Commercial Computer Software - Restricted
 Rights clause in FAR 52.227-19.
  
 Gaussian, Inc.
 340 Quinnipiac St., Bldg. 40, Wallingford CT 06492
  
  
 ---------------------------------------------------------------
 Warning -- This program may not be used in any manner that
 competes with the business of Gaussian, Inc. or will provide
 assistance to any competitor of Gaussian, Inc.  The licensee
 of this program is prohibited from giving any competitor of
 Gaussian, Inc. access to this program.  By using this program,
 the user acknowledges that Gaussian, Inc. is engaged in the
 business of creating and licensing software in the field of
 computational chemistry and represents and warrants to the
 licensee that it is not a competitor of Gaussian, Inc. and that
 it will not use this program in any manner prohibited above.
 ---------------------------------------------------------------
  

 Cite this work as:
 Gaussian 16, Revision A.03,
 M. J. Frisch, G. W. Trucks, H. B. Schlegel, G. E. Scuseria, 
 M. A. Robb, J. R. Cheeseman, G. Scalmani, V. Barone, 
 G. A. Petersson, H. Nakatsuji, X. Li, M. Caricato, A. V. Marenich, 
 J. Bloino, B. G. Janesko, R. Gomperts, B. Mennucci, H. P. Hratchian, 
 J. V. Ortiz, A. F. Izmaylov, J. L. Sonnenberg, D. Williams-Young, 
 F. Ding, F. Lipparini, F. Egidi, J. Goings, B. Peng, A. Petrone, 
 T. Henderson, D. Ranasinghe, V. G. Zakrzewski, J. Gao, N. Rega, 
 G. Zheng, W. Liang, M. Hada, M. Ehara, K. Toyota, R. Fukuda, 
 J. Hasegawa, M. Ishida, T. Nakajima, Y. Honda, O. Kitao, H. Nakai, 
 T. Vreven, K. Throssell, J. A. Montgomery, Jr., J. E. Peralta, 
 F. Ogliaro, M. J. Bearpark, J. J. Heyd, E. N. Brothers, K. N. Kudin, 
 V. N. Staroverov, T. A. Keith, R. Kobayashi, J. Normand, 
 K. Raghavachari, A. P. Rendell, J. C. Burant, S. S. Iyengar, 
 J. Tomasi, M. Cossi, J. M. Millam, M. Klene, C. Adamo, R. Cammi, 
 J. W. Ochterski, R. L. Martin, K. Morokuma, O. Farkas, 
 J. B. Foresman, and D. J. Fox, Gaussian, Inc., Wallingford CT, 2016.
 
 ******************************************
 Gaussian 16:  AS64L-G16RevA.03 25-Dec-2016
                24-May-2019 
 ******************************************
 %mem=48GB
 %nprocshared=32
 Will use up to   32 processors via shared memory.
 ----------------------------------------------------------------------
 #p opt=(ts,noeigentest,calcfc,maxstep=3,modredundant,recalc=30) freq=n
 oraman b3lyp 6-31g* pop=none scrf=(solvent=tetrahydrofuran,pcm) empiri
 caldispersion=gd3bj
 ----------------------------------------------------------------------
 1/5=1,8=3,10=4,11=1,18=120,26=3,38=1,71=30/1,3;
 2/9=110,12=2,17=6,18=5,40=1/2;
 3/5=1,6=6,7=1,11=2,25=1,30=1,70=2201,71=2,72=20,74=-5,124=41,140=1/1,2,3;
 4//1;
 5/5=2,38=5,53=20/2;
 8/6=4,10=90,11=11/1;
 11/6=1,8=1,9=11,15=111,16=1/1,2,10;
 10/6=1,13=1/2;
 7/10=1,18=20,25=1/1,2,3,16;
 1/5=1,8=3,10=4,11=1,18=20,26=3,71=30/3(2);
 2/9=110/2;
 99//99;
 2/9=110/2;
 3/5=1,6=6,7=1,11=2,25=1,30=1,70=2205,71=1,72=20,74=-5,124=41/1,2,3;
 4/5=5,16=3,69=1/1;
 5/5=2,38=5,53=20/2;
 7//1,2,3,16;
 1/5=1,8=3,11=1,18=20,26=3,71=30/3(-5);
 2/9=110/2;
 99/9=1/99;
 Leave Link    1 at Fri May 24 23:51:02 2019, MaxMem=  6442450944 cpu:               4.8 elap:               0.2
 (Enter /home/ekwan/sw/g16/l101.exe)
 -----
 title
 -----
 Symbolic Z-matrix:
 Charge =  0 Multiplicity = 1
 C                    -4.70561  -0.79081   0.5837 
 C                    -3.52499  -1.15257   1.48607 
 C                    -2.84934  -2.43079   0.97466 
 C                    -3.39835  -1.88605  -1.32666 
 C                    -4.23697  -0.68523  -0.87066 
 H                    -1.94142  -2.6575    1.54257 
 H                    -2.78843  -0.33948   1.42684 
 H                    -5.46755  -1.57783   0.651 
 H                    -4.07381  -2.74243  -1.44998 
 H                    -3.63888   0.22579  -0.97248 
 O                    -2.38583  -2.22055  -0.35117 
 O                    -3.76645  -3.48565   1.05747 
 O                    -3.96017  -1.29632   2.82708 
 O                    -5.26743   0.46644   0.94349 
 O                    -5.36032  -0.62474  -1.74683 
 C                    -2.62851  -1.60969  -2.63814 
 H                    -3.39282  -1.23631  -3.35238 
 H                    -2.33575  -2.61625  -3.02855 
 O                    -1.55098  -0.77014  -2.47348 
 C                    -2.94912  -0.9704    3.77298 
 H                    -2.05621  -1.59914   3.66203 
 H                    -2.64174   0.08038   3.67591 
 H                    -3.37948  -1.13229   4.76401 
 C                    -6.36721   0.38671   1.83739 
 H                    -7.1853   -0.21029   1.40708 
 H                    -6.07531  -0.04862   2.7982 
 H                    -6.71977   1.41044   1.99048 
 C                    -5.68904   0.68689  -2.17633 
 H                    -5.96315   1.32662  -1.33062 
 H                    -4.85118   1.15062  -2.71865 
 H                    -6.54045   0.59306  -2.85641 
 C                     0.67793   2.56587  -1.09097 
 C                     0.12815   1.17625  -1.42563 
 C                    -1.00621   0.82571  -0.51498 
 C                    -1.60853   3.14597  -0.18778 
 C                    -0.48461   3.55929  -1.14663 
 H                    -1.30936  -0.19226  -0.34748 
 H                    -0.34563   1.19335  -2.41728 
 H                     1.08903   2.5555   -0.07689 
 H                    -1.29266   3.35613   0.83677 
 H                    -0.86588   3.59986  -2.1775 
 O                    -1.89208   1.7018   -0.18872 
 O                     0.22442  -1.67119   1.07613 
 O                     1.10671   0.1575   -1.39432 
 O                     1.66986   2.95557  -2.02496 
 O                    -0.0917    4.84732  -0.71096 
 C                    -2.92792   3.82893  -0.47354 
 H                    -3.35374   3.42454  -1.40573 
 H                    -2.73833   4.90309  -0.61995 
 O                    -3.7814    3.59533   0.6218 
 S                     0.74196  -0.47046   1.78998 
 O                     0.73248  -0.56971   3.26066 
 O                     0.08673   0.80863   1.30594 
 C                     2.46311  -0.31506   1.29303 
 C                     3.04731  -1.30546   0.51582 
 C                     3.18601   0.80879   1.69103 
 C                     4.38052  -1.1649    0.12485 
 H                     2.46593  -2.15915   0.19077 
 C                     4.51458   0.93425   1.29188 
 H                     2.71821   1.57757   2.29464 
 C                     5.12112  -0.05051   0.50689 
 H                     6.15583   0.05178   0.20349 
 C                     1.65642  -0.13922  -2.68793 
 H                     0.87764  -0.57002  -3.32812 
 H                     2.06265   0.76292  -3.15138 
 H                     2.45829  -0.85808  -2.51605 
 C                     2.99497   2.89638  -1.50268 
 H                     3.09889   3.53443  -0.61746 
 H                     3.27613   1.8713   -1.23742 
 H                     3.65769   3.26219  -2.28996 
 C                     0.2449    5.74906  -1.76348 
 H                     1.08696   5.37445  -2.35228 
 H                    -0.61572   5.91856  -2.42566 
 H                     0.51762   6.69134  -1.28341 
 C                    -5.11658   3.99392   0.37332 
 H                    -5.69345   3.74459   1.26617 
 H                    -5.18756   5.07598   0.18523 
 H                    -5.53999   3.45749  -0.48775 
 C                    -3.18971  -4.74963   0.7513 
 H                    -3.9547   -5.50301   0.94878 
 H                    -2.88481  -4.80718  -0.30065 
 H                    -2.31386  -4.9445    1.38681 
 Na                   -0.18613  -2.07925  -1.18656 
 O                     1.37279  -3.77262  -1.07668 
 C                     1.38417  -4.64949   0.0488 
 H                     2.4164   -4.88348   0.33856 
 H                     0.88552  -4.12136   0.86284 
 H                     0.85042  -5.58173  -0.17883 
 C                     2.02189  -4.3318   -2.21489 
 H                     1.51384  -5.24881  -2.54153 
 H                     1.97428  -3.58463  -3.00972 
 H                     3.07034  -4.55588  -1.98998 
 C                     4.97968  -2.22796  -0.75163 
 F                     4.72535  -3.46952  -0.27344 
 F                     6.31365  -2.10555  -0.87796 
 F                     4.45535  -2.19107  -2.00612 
 C                     5.29697   2.16935   1.64236 
 F                     4.77349   2.82227   2.69821 
 F                     5.32236   3.04679   0.60576 
 F                     6.58358   1.8801    1.93221 
 
 Add virtual bond connecting atoms O53        and C34        Dist= 4.01D+00.
 Add virtual bond connecting atoms H37        and H7         Dist= 4.37D+00.
 Add virtual bond connecting atoms H37        and O11        Dist= 4.34D+00.
 Add virtual bond connecting atoms H37        and O19        Dist= 4.19D+00.
 Add virtual bond connecting atoms H37        and Na83       Dist= 4.44D+00.
 Add virtual bond connecting atoms H38        and O19        Dist= 4.36D+00.
 The following ModRedundant input section has been read:
 
 ITRead=  0  0  0  0  0  0  0  0  0  0  0  0  0  0  0  0  0  0  0  0
 ITRead=  0  0  0  0  0  0  0  0  0  0  0  0  0  0  0  0  0  0  0  0
 ITRead=  0  0  0  0  0  0  0  0  0  0  0  0  0  0  0  0  0  0  0  0
 ITRead=  0  0  0  0  0  0  0  0  0  0  0  0  0  0  0  0  0  0  0  0
 ITRead=  0  0  0  0  0  0  0  0  0  0  0  0  0  0  0  0  0  0  0  0
 MicOpt= -1 -1 -1 -1 -1 -1 -1 -1 -1 -1 -1 -1 -1 -1 -1 -1 -1 -1 -1 -1
 MicOpt= -1 -1 -1 -1 -1 -1 -1 -1 -1 -1 -1 -1 -1 -1 -1 -1 -1 -1 -1 -1
 MicOpt= -1 -1 -1 -1 -1 -1 -1 -1 -1 -1 -1 -1 -1 -1 -1 -1 -1 -1 -1 -1
 MicOpt= -1 -1 -1 -1 -1 -1 -1 -1 -1 -1 -1 -1 -1 -1 -1 -1 -1 -1 -1 -1
 MicOpt= -1 -1 -1 -1 -1 -1 -1 -1 -1 -1 -1 -1 -1 -1 -1 -1 -1 -1 -1 -1
 NAtoms=    100 NQM=      100 NQMF=       0 NMMI=      0 NMMIF=      0
                NMic=       0 NMicF=      0.
                    Isotopes and Nuclear Properties:
 (Nuclear quadrupole moments (NQMom) in fm**2, nuclear magnetic moments (NMagM)
  in nuclear magnetons)

  Atom         1           2           3           4           5           6           7           8           9          10
 IAtWgt=          12          12          12          12          12           1           1           1           1           1
 AtmWgt=  12.0000000  12.0000000  12.0000000  12.0000000  12.0000000   1.0078250   1.0078250   1.0078250   1.0078250   1.0078250
 NucSpn=           0           0           0           0           0           1           1           1           1           1
 AtZEff=   0.0000000   0.0000000   0.0000000   0.0000000   0.0000000   0.0000000   0.0000000   0.0000000   0.0000000   0.0000000
 NQMom=    0.0000000   0.0000000   0.0000000   0.0000000   0.0000000   0.0000000   0.0000000   0.0000000   0.0000000   0.0000000
 NMagM=    0.0000000   0.0000000   0.0000000   0.0000000   0.0000000   2.7928460   2.7928460   2.7928460   2.7928460   2.7928460
 AtZNuc=   6.0000000   6.0000000   6.0000000   6.0000000   6.0000000   1.0000000   1.0000000   1.0000000   1.0000000   1.0000000

  Atom        11          12          13          14          15          16          17          18          19          20
 IAtWgt=          16          16          16          16          16          12           1           1          16          12
 AtmWgt=  15.9949146  15.9949146  15.9949146  15.9949146  15.9949146  12.0000000   1.0078250   1.0078250  15.9949146  12.0000000
 NucSpn=           0           0           0           0           0           0           1           1           0           0
 AtZEff=   0.0000000   0.0000000   0.0000000   0.0000000   0.0000000   0.0000000   0.0000000   0.0000000   0.0000000   0.0000000
 NQMom=    0.0000000   0.0000000   0.0000000   0.0000000   0.0000000   0.0000000   0.0000000   0.0000000   0.0000000   0.0000000
 NMagM=    0.0000000   0.0000000   0.0000000   0.0000000   0.0000000   0.0000000   2.7928460   2.7928460   0.0000000   0.0000000
 AtZNuc=   8.0000000   8.0000000   8.0000000   8.0000000   8.0000000   6.0000000   1.0000000   1.0000000   8.0000000   6.0000000

  Atom        21          22          23          24          25          26          27          28          29          30
 IAtWgt=           1           1           1          12           1           1           1          12           1           1
 AtmWgt=   1.0078250   1.0078250   1.0078250  12.0000000   1.0078250   1.0078250   1.0078250  12.0000000   1.0078250   1.0078250
 NucSpn=           1           1           1           0           1           1           1           0           1           1
 AtZEff=   0.0000000   0.0000000   0.0000000   0.0000000   0.0000000   0.0000000   0.0000000   0.0000000   0.0000000   0.0000000
 NQMom=    0.0000000   0.0000000   0.0000000   0.0000000   0.0000000   0.0000000   0.0000000   0.0000000   0.0000000   0.0000000
 NMagM=    2.7928460   2.7928460   2.7928460   0.0000000   2.7928460   2.7928460   2.7928460   0.0000000   2.7928460   2.7928460
 AtZNuc=   1.0000000   1.0000000   1.0000000   6.0000000   1.0000000   1.0000000   1.0000000   6.0000000   1.0000000   1.0000000

  Atom        31          32          33          34          35          36          37          38          39          40
 IAtWgt=           1          12          12          12          12          12           1           1           1           1
 AtmWgt=   1.0078250  12.0000000  12.0000000  12.0000000  12.0000000  12.0000000   1.0078250   1.0078250   1.0078250   1.0078250
 NucSpn=           1           0           0           0           0           0           1           1           1           1
 AtZEff=   0.0000000   0.0000000   0.0000000   0.0000000   0.0000000   0.0000000   0.0000000   0.0000000   0.0000000   0.0000000
 NQMom=    0.0000000   0.0000000   0.0000000   0.0000000   0.0000000   0.0000000   0.0000000   0.0000000   0.0000000   0.0000000
 NMagM=    2.7928460   0.0000000   0.0000000   0.0000000   0.0000000   0.0000000   2.7928460   2.7928460   2.7928460   2.7928460
 AtZNuc=   1.0000000   6.0000000   6.0000000   6.0000000   6.0000000   6.0000000   1.0000000   1.0000000   1.0000000   1.0000000

  Atom        41          42          43          44          45          46          47          48          49          50
 IAtWgt=           1          16          16          16          16          16          12           1           1          16
 AtmWgt=   1.0078250  15.9949146  15.9949146  15.9949146  15.9949146  15.9949146  12.0000000   1.0078250   1.0078250  15.9949146
 NucSpn=           1           0           0           0           0           0           0           1           1           0
 AtZEff=   0.0000000   0.0000000   0.0000000   0.0000000   0.0000000   0.0000000   0.0000000   0.0000000   0.0000000   0.0000000
 NQMom=    0.0000000   0.0000000   0.0000000   0.0000000   0.0000000   0.0000000   0.0000000   0.0000000   0.0000000   0.0000000
 NMagM=    2.7928460   0.0000000   0.0000000   0.0000000   0.0000000   0.0000000   0.0000000   2.7928460   2.7928460   0.0000000
 AtZNuc=   1.0000000   8.0000000   8.0000000   8.0000000   8.0000000   8.0000000   6.0000000   1.0000000   1.0000000   8.0000000

  Atom        51          52          53          54          55          56          57          58          59          60
 IAtWgt=          32          16          16          12          12          12          12           1          12           1
 AtmWgt=  31.9720718  15.9949146  15.9949146  12.0000000  12.0000000  12.0000000  12.0000000   1.0078250  12.0000000   1.0078250
 NucSpn=           0           0           0           0           0           0           0           1           0           1
 AtZEff=   0.0000000   0.0000000   0.0000000   0.0000000   0.0000000   0.0000000   0.0000000   0.0000000   0.0000000   0.0000000
 NQMom=    0.0000000   0.0000000   0.0000000   0.0000000   0.0000000   0.0000000   0.0000000   0.0000000   0.0000000   0.0000000
 NMagM=    0.0000000   0.0000000   0.0000000   0.0000000   0.0000000   0.0000000   0.0000000   2.7928460   0.0000000   2.7928460
 AtZNuc=  16.0000000   8.0000000   8.0000000   6.0000000   6.0000000   6.0000000   6.0000000   1.0000000   6.0000000   1.0000000

  Atom        61          62          63          64          65          66          67          68          69          70
 IAtWgt=          12           1          12           1           1           1          12           1           1           1
 AtmWgt=  12.0000000   1.0078250  12.0000000   1.0078250   1.0078250   1.0078250  12.0000000   1.0078250   1.0078250   1.0078250
 NucSpn=           0           1           0           1           1           1           0           1           1           1
 AtZEff=   0.0000000   0.0000000   0.0000000   0.0000000   0.0000000   0.0000000   0.0000000   0.0000000   0.0000000   0.0000000
 NQMom=    0.0000000   0.0000000   0.0000000   0.0000000   0.0000000   0.0000000   0.0000000   0.0000000   0.0000000   0.0000000
 NMagM=    0.0000000   2.7928460   0.0000000   2.7928460   2.7928460   2.7928460   0.0000000   2.7928460   2.7928460   2.7928460
 AtZNuc=   6.0000000   1.0000000   6.0000000   1.0000000   1.0000000   1.0000000   6.0000000   1.0000000   1.0000000   1.0000000

  Atom        71          72          73          74          75          76          77          78          79          80
 IAtWgt=          12           1           1           1          12           1           1           1          12           1
 AtmWgt=  12.0000000   1.0078250   1.0078250   1.0078250  12.0000000   1.0078250   1.0078250   1.0078250  12.0000000   1.0078250
 NucSpn=           0           1           1           1           0           1           1           1           0           1
 AtZEff=   0.0000000   0.0000000   0.0000000   0.0000000   0.0000000   0.0000000   0.0000000   0.0000000   0.0000000   0.0000000
 NQMom=    0.0000000   0.0000000   0.0000000   0.0000000   0.0000000   0.0000000   0.0000000   0.0000000   0.0000000   0.0000000
 NMagM=    0.0000000   2.7928460   2.7928460   2.7928460   0.0000000   2.7928460   2.7928460   2.7928460   0.0000000   2.7928460
 AtZNuc=   6.0000000   1.0000000   1.0000000   1.0000000   6.0000000   1.0000000   1.0000000   1.0000000   6.0000000   1.0000000

  Atom        81          82          83          84          85          86          87          88          89          90
 IAtWgt=           1           1          23          16          12           1           1           1          12           1
 AtmWgt=   1.0078250   1.0078250  22.9897697  15.9949146  12.0000000   1.0078250   1.0078250   1.0078250  12.0000000   1.0078250
 NucSpn=           1           1           3           0           0           1           1           1           0           1
 AtZEff=   0.0000000   0.0000000   0.0000000   0.0000000   0.0000000   0.0000000   0.0000000   0.0000000   0.0000000   0.0000000
 NQMom=    0.0000000   0.0000000  10.4000000   0.0000000   0.0000000   0.0000000   0.0000000   0.0000000   0.0000000   0.0000000
 NMagM=    2.7928460   2.7928460   2.2175200   0.0000000   0.0000000   2.7928460   2.7928460   2.7928460   0.0000000   2.7928460
 AtZNuc=   1.0000000   1.0000000  11.0000000   8.0000000   6.0000000   1.0000000   1.0000000   1.0000000   6.0000000   1.0000000

  Atom        91          92          93          94          95          96          97          98          99         100
 IAtWgt=           1           1          12          19          19          19          12          19          19          19
 AtmWgt=   1.0078250   1.0078250  12.0000000  18.9984033  18.9984033  18.9984033  12.0000000  18.9984033  18.9984033  18.9984033
 NucSpn=           1           1           0           1           1           1           0           1           1           1
 AtZEff=   0.0000000   0.0000000   0.0000000   0.0000000   0.0000000   0.0000000   0.0000000   0.0000000   0.0000000   0.0000000
 NQMom=    0.0000000   0.0000000   0.0000000   0.0000000   0.0000000   0.0000000   0.0000000   0.0000000   0.0000000   0.0000000
 NMagM=    2.7928460   2.7928460   0.0000000   2.6288670   2.6288670   2.6288670   0.0000000   2.6288670   2.6288670   2.6288670
 AtZNuc=   1.0000000   1.0000000   6.0000000   9.0000000   9.0000000   9.0000000   6.0000000   9.0000000   9.0000000   9.0000000
 Leave Link  101 at Fri May 24 23:51:03 2019, MaxMem=  6442450944 cpu:              17.8 elap:               0.7
 (Enter /home/ekwan/sw/g16/l103.exe)

 GradGradGradGradGradGradGradGradGradGradGradGradGradGradGradGradGradGrad
 Berny optimization.
 Initialization pass.
                           ----------------------------
                           !    Initial Parameters    !
                           ! (Angstroms and Degrees)  !
 --------------------------                            --------------------------
 ! Name  Definition              Value          Derivative Info.                !
 --------------------------------------------------------------------------------
 ! R1    R(1,2)                  1.5294         calculate D2E/DX2 analytically  !
 ! R2    R(1,5)                  1.5316         calculate D2E/DX2 analytically  !
 ! R3    R(1,8)                  1.0975         calculate D2E/DX2 analytically  !
 ! R4    R(1,14)                 1.4233         calculate D2E/DX2 analytically  !
 ! R5    R(2,3)                  1.5336         calculate D2E/DX2 analytically  !
 ! R6    R(2,7)                  1.0987         calculate D2E/DX2 analytically  !
 ! R7    R(2,13)                 1.4172         calculate D2E/DX2 analytically  !
 ! R8    R(3,6)                  1.0946         calculate D2E/DX2 analytically  !
 ! R9    R(3,11)                 1.4202         calculate D2E/DX2 analytically  !
 ! R10   R(3,12)                 1.4002         calculate D2E/DX2 analytically  !
 ! R11   R(4,5)                  1.534          calculate D2E/DX2 analytically  !
 ! R12   R(4,9)                  1.0977         calculate D2E/DX2 analytically  !
 ! R13   R(4,11)                 1.4452         calculate D2E/DX2 analytically  !
 ! R14   R(4,16)                 1.5456         calculate D2E/DX2 analytically  !
 ! R15   R(5,10)                 1.0945         calculate D2E/DX2 analytically  !
 ! R16   R(5,15)                 1.4259         calculate D2E/DX2 analytically  !
 ! R17   R(7,37)                 2.3146         calculate D2E/DX2 analytically  !
 ! R18   R(11,37)                2.2962         calculate D2E/DX2 analytically  !
 ! R19   R(12,79)                1.4227         calculate D2E/DX2 analytically  !
 ! R20   R(13,20)                1.4224         calculate D2E/DX2 analytically  !
 ! R21   R(14,24)                1.4195         calculate D2E/DX2 analytically  !
 ! R22   R(15,28)                1.4188         calculate D2E/DX2 analytically  !
 ! R23   R(16,17)                1.1107         calculate D2E/DX2 analytically  !
 ! R24   R(16,18)                1.1186         calculate D2E/DX2 analytically  !
 ! R25   R(16,19)                1.3759         calculate D2E/DX2 analytically  !
 ! R26   R(19,37)                2.2164         calculate D2E/DX2 analytically  !
 ! R27   R(19,38)                2.3046         calculate D2E/DX2 analytically  !
 ! R28   R(19,83)                2.2875         calculate D2E/DX2 analytically  !
 ! R29   R(20,21)                1.0977         calculate D2E/DX2 analytically  !
 ! R30   R(20,22)                1.0991         calculate D2E/DX2 analytically  !
 ! R31   R(20,23)                1.0925         calculate D2E/DX2 analytically  !
 ! R32   R(24,25)                1.1004         calculate D2E/DX2 analytically  !
 ! R33   R(24,26)                1.0945         calculate D2E/DX2 analytically  !
 ! R34   R(24,27)                1.0935         calculate D2E/DX2 analytically  !
 ! R35   R(28,29)                1.0953         calculate D2E/DX2 analytically  !
 ! R36   R(28,30)                1.1005         calculate D2E/DX2 analytically  !
 ! R37   R(28,31)                1.0937         calculate D2E/DX2 analytically  !
 ! R38   R(32,33)                1.5314         calculate D2E/DX2 analytically  !
 ! R39   R(32,36)                1.5302         calculate D2E/DX2 analytically  !
 ! R40   R(32,39)                1.0943         calculate D2E/DX2 analytically  !
 ! R41   R(32,45)                1.4171         calculate D2E/DX2 analytically  !
 ! R42   R(33,34)                1.4963         calculate D2E/DX2 analytically  !
 ! R43   R(33,38)                1.0991         calculate D2E/DX2 analytically  !
 ! R44   R(33,44)                1.4129         calculate D2E/DX2 analytically  !
 ! R45   R(34,37)                1.0753         calculate D2E/DX2 analytically  !
 ! R46   R(34,42)                1.2879         calculate D2E/DX2 analytically  !
 ! R47   R(34,53)                2.1238         calculate D2E/DX2 analytically  !
 ! R48   R(35,36)                1.5341         calculate D2E/DX2 analytically  !
 ! R49   R(35,40)                1.0925         calculate D2E/DX2 analytically  !
 ! R50   R(35,42)                1.4717         calculate D2E/DX2 analytically  !
 ! R51   R(35,47)                1.5129         calculate D2E/DX2 analytically  !
 ! R52   R(36,41)                1.0999         calculate D2E/DX2 analytically  !
 ! R53   R(36,46)                1.4153         calculate D2E/DX2 analytically  !
 ! R54   R(37,83)                2.3508         calculate D2E/DX2 analytically  !
 ! R55   R(43,51)                1.4897         calculate D2E/DX2 analytically  !
 ! R56   R(44,63)                1.4365         calculate D2E/DX2 analytically  !
 ! R57   R(45,67)                1.4256         calculate D2E/DX2 analytically  !
 ! R58   R(46,71)                1.4263         calculate D2E/DX2 analytically  !
 ! R59   R(47,48)                1.1017         calculate D2E/DX2 analytically  !
 ! R60   R(47,49)                1.1005         calculate D2E/DX2 analytically  !
 ! R61   R(47,50)                1.4081         calculate D2E/DX2 analytically  !
 ! R62   R(50,75)                1.4154         calculate D2E/DX2 analytically  !
 ! R63   R(51,52)                1.4741         calculate D2E/DX2 analytically  !
 ! R64   R(51,53)                1.5165         calculate D2E/DX2 analytically  !
 ! R65   R(51,54)                1.7982         calculate D2E/DX2 analytically  !
 ! R66   R(54,55)                1.3879         calculate D2E/DX2 analytically  !
 ! R67   R(54,56)                1.3943         calculate D2E/DX2 analytically  !
 ! R68   R(55,57)                1.3964         calculate D2E/DX2 analytically  !
 ! R69   R(55,58)                1.0828         calculate D2E/DX2 analytically  !
 ! R70   R(56,59)                1.3929         calculate D2E/DX2 analytically  !
 ! R71   R(56,60)                1.0836         calculate D2E/DX2 analytically  !
 ! R72   R(57,61)                1.3915         calculate D2E/DX2 analytically  !
 ! R73   R(57,93)                1.5024         calculate D2E/DX2 analytically  !
 ! R74   R(59,61)                1.3978         calculate D2E/DX2 analytically  !
 ! R75   R(59,97)                1.5035         calculate D2E/DX2 analytically  !
 ! R76   R(61,62)                1.0831         calculate D2E/DX2 analytically  !
 ! R77   R(63,64)                1.0963         calculate D2E/DX2 analytically  !
 ! R78   R(63,65)                1.0925         calculate D2E/DX2 analytically  !
 ! R79   R(63,66)                1.0906         calculate D2E/DX2 analytically  !
 ! R80   R(67,68)                1.0961         calculate D2E/DX2 analytically  !
 ! R81   R(67,69)                1.0955         calculate D2E/DX2 analytically  !
 ! R82   R(67,70)                1.0922         calculate D2E/DX2 analytically  !
 ! R83   R(71,72)                1.0937         calculate D2E/DX2 analytically  !
 ! R84   R(71,73)                1.099          calculate D2E/DX2 analytically  !
 ! R85   R(71,74)                1.0921         calculate D2E/DX2 analytically  !
 ! R86   R(75,76)                1.0918         calculate D2E/DX2 analytically  !
 ! R87   R(75,77)                1.1006         calculate D2E/DX2 analytically  !
 ! R88   R(75,78)                1.0993         calculate D2E/DX2 analytically  !
 ! R89   R(79,80)                1.0917         calculate D2E/DX2 analytically  !
 ! R90   R(79,81)                1.0968         calculate D2E/DX2 analytically  !
 ! R91   R(79,82)                1.0995         calculate D2E/DX2 analytically  !
 ! R92   R(83,84)                2.3043         calculate D2E/DX2 analytically  !
 ! R93   R(84,85)                1.4268         calculate D2E/DX2 analytically  !
 ! R94   R(84,89)                1.4246         calculate D2E/DX2 analytically  !
 ! R95   R(85,86)                1.0974         calculate D2E/DX2 analytically  !
 ! R96   R(85,87)                1.091          calculate D2E/DX2 analytically  !
 ! R97   R(85,88)                1.0981         calculate D2E/DX2 analytically  !
 ! R98   R(89,90)                1.098          calculate D2E/DX2 analytically  !
 ! R99   R(89,91)                1.0919         calculate D2E/DX2 analytically  !
 ! R100  R(89,92)                1.0955         calculate D2E/DX2 analytically  !
 ! R101  R(93,94)                1.3546         calculate D2E/DX2 analytically  !
 ! R102  R(93,95)                1.3455         calculate D2E/DX2 analytically  !
 ! R103  R(93,96)                1.3602         calculate D2E/DX2 analytically  !
 ! R104  R(97,98)                1.3473         calculate D2E/DX2 analytically  !
 ! R105  R(97,99)                1.3583         calculate D2E/DX2 analytically  !
 ! R106  R(97,100)               1.3502         calculate D2E/DX2 analytically  !
 ! A1    A(2,1,5)              109.8985         calculate D2E/DX2 analytically  !
 ! A2    A(2,1,8)              109.2765         calculate D2E/DX2 analytically  !
 ! A3    A(2,1,14)             111.3779         calculate D2E/DX2 analytically  !
 ! A4    A(5,1,8)              108.6681         calculate D2E/DX2 analytically  !
 ! A5    A(5,1,14)             107.4527         calculate D2E/DX2 analytically  !
 ! A6    A(8,1,14)             110.1149         calculate D2E/DX2 analytically  !
 ! A7    A(1,2,3)              109.9074         calculate D2E/DX2 analytically  !
 ! A8    A(1,2,7)              108.0988         calculate D2E/DX2 analytically  !
 ! A9    A(1,2,13)             110.1975         calculate D2E/DX2 analytically  !
 ! A10   A(3,2,7)              107.6672         calculate D2E/DX2 analytically  !
 ! A11   A(3,2,13)             111.4875         calculate D2E/DX2 analytically  !
 ! A12   A(7,2,13)             109.3863         calculate D2E/DX2 analytically  !
 ! A13   A(2,3,6)              111.409          calculate D2E/DX2 analytically  !
 ! A14   A(2,3,11)             109.3733         calculate D2E/DX2 analytically  !
 ! A15   A(2,3,12)             108.6396         calculate D2E/DX2 analytically  !
 ! A16   A(6,3,11)             104.1408         calculate D2E/DX2 analytically  !
 ! A17   A(6,3,12)             110.8881         calculate D2E/DX2 analytically  !
 ! A18   A(11,3,12)            112.3652         calculate D2E/DX2 analytically  !
 ! A19   A(5,4,9)              107.9217         calculate D2E/DX2 analytically  !
 ! A20   A(5,4,11)             111.3183         calculate D2E/DX2 analytically  !
 ! A21   A(5,4,16)             112.6155         calculate D2E/DX2 analytically  !
 ! A22   A(9,4,11)             109.0494         calculate D2E/DX2 analytically  !
 ! A23   A(9,4,16)             110.5279         calculate D2E/DX2 analytically  !
 ! A24   A(11,4,16)            105.3762         calculate D2E/DX2 analytically  !
 ! A25   A(1,5,4)              113.3015         calculate D2E/DX2 analytically  !
 ! A26   A(1,5,10)             108.2335         calculate D2E/DX2 analytically  !
 ! A27   A(1,5,15)             110.2016         calculate D2E/DX2 analytically  !
 ! A28   A(4,5,10)             108.9758         calculate D2E/DX2 analytically  !
 ! A29   A(4,5,15)             106.3342         calculate D2E/DX2 analytically  !
 ! A30   A(10,5,15)            109.7563         calculate D2E/DX2 analytically  !
 ! A31   A(2,7,37)             121.1162         calculate D2E/DX2 analytically  !
 ! A32   A(3,11,4)             115.8326         calculate D2E/DX2 analytically  !
 ! A33   A(3,11,37)            106.3958         calculate D2E/DX2 analytically  !
 ! A34   A(4,11,37)             97.1852         calculate D2E/DX2 analytically  !
 ! A35   A(3,12,79)            113.0202         calculate D2E/DX2 analytically  !
 ! A36   A(2,13,20)            112.815          calculate D2E/DX2 analytically  !
 ! A37   A(1,14,24)            114.5445         calculate D2E/DX2 analytically  !
 ! A38   A(5,15,28)            114.0642         calculate D2E/DX2 analytically  !
 ! A39   A(4,16,17)            105.2474         calculate D2E/DX2 analytically  !
 ! A40   A(4,16,18)            105.4025         calculate D2E/DX2 analytically  !
 ! A41   A(4,16,19)            113.4295         calculate D2E/DX2 analytically  !
 ! A42   A(17,16,18)           104.9601         calculate D2E/DX2 analytically  !
 ! A43   A(17,16,19)           114.2519         calculate D2E/DX2 analytically  !
 ! A44   A(18,16,19)           112.6983         calculate D2E/DX2 analytically  !
 ! A45   A(16,19,37)           111.0558         calculate D2E/DX2 analytically  !
 ! A46   A(16,19,38)           158.811          calculate D2E/DX2 analytically  !
 ! A47   A(16,19,83)           100.6845         calculate D2E/DX2 analytically  !
 ! A48   A(37,19,38)            72.3893         calculate D2E/DX2 analytically  !
 ! A49   A(38,19,83)            99.3109         calculate D2E/DX2 analytically  !
 ! A50   A(13,20,21)           112.3183         calculate D2E/DX2 analytically  !
 ! A51   A(13,20,22)           111.0462         calculate D2E/DX2 analytically  !
 ! A52   A(13,20,23)           106.8153         calculate D2E/DX2 analytically  !
 ! A53   A(21,20,22)           108.1299         calculate D2E/DX2 analytically  !
 ! A54   A(21,20,23)           109.1017         calculate D2E/DX2 analytically  !
 ! A55   A(22,20,23)           109.387          calculate D2E/DX2 analytically  !
 ! A56   A(14,24,25)           111.1145         calculate D2E/DX2 analytically  !
 ! A57   A(14,24,26)           111.6247         calculate D2E/DX2 analytically  !
 ! A58   A(14,24,27)           106.5812         calculate D2E/DX2 analytically  !
 ! A59   A(25,24,26)           109.0132         calculate D2E/DX2 analytically  !
 ! A60   A(25,24,27)           108.8428         calculate D2E/DX2 analytically  !
 ! A61   A(26,24,27)           109.6            calculate D2E/DX2 analytically  !
 ! A62   A(15,28,29)           111.3584         calculate D2E/DX2 analytically  !
 ! A63   A(15,28,30)           111.2439         calculate D2E/DX2 analytically  !
 ! A64   A(15,28,31)           106.8152         calculate D2E/DX2 analytically  !
 ! A65   A(29,28,30)           108.9608         calculate D2E/DX2 analytically  !
 ! A66   A(29,28,31)           109.5977         calculate D2E/DX2 analytically  !
 ! A67   A(30,28,31)           108.8083         calculate D2E/DX2 analytically  !
 ! A68   A(33,32,36)           107.9631         calculate D2E/DX2 analytically  !
 ! A69   A(33,32,39)           109.1947         calculate D2E/DX2 analytically  !
 ! A70   A(33,32,45)           110.9036         calculate D2E/DX2 analytically  !
 ! A71   A(36,32,39)           108.9819         calculate D2E/DX2 analytically  !
 ! A72   A(36,32,45)           109.2256         calculate D2E/DX2 analytically  !
 ! A73   A(39,32,45)           110.5134         calculate D2E/DX2 analytically  !
 ! A74   A(32,33,34)           110.5933         calculate D2E/DX2 analytically  !
 ! A75   A(32,33,38)           109.7421         calculate D2E/DX2 analytically  !
 ! A76   A(32,33,44)           113.6267         calculate D2E/DX2 analytically  !
 ! A77   A(34,33,38)           103.0583         calculate D2E/DX2 analytically  !
 ! A78   A(34,33,44)           110.0377         calculate D2E/DX2 analytically  !
 ! A79   A(38,33,44)           109.2528         calculate D2E/DX2 analytically  !
 ! A80   A(33,34,37)           122.0266         calculate D2E/DX2 analytically  !
 ! A81   A(33,34,42)           121.0819         calculate D2E/DX2 analytically  !
 ! A82   A(33,34,53)            97.6751         calculate D2E/DX2 analytically  !
 ! A83   A(37,34,42)           114.2428         calculate D2E/DX2 analytically  !
 ! A84   A(37,34,53)            90.2242         calculate D2E/DX2 analytically  !
 ! A85   A(42,34,53)            98.178          calculate D2E/DX2 analytically  !
 ! A86   A(36,35,40)           108.8138         calculate D2E/DX2 analytically  !
 ! A87   A(36,35,42)           113.8994         calculate D2E/DX2 analytically  !
 ! A88   A(36,35,47)           113.5308         calculate D2E/DX2 analytically  !
 ! A89   A(40,35,42)           104.1849         calculate D2E/DX2 analytically  !
 ! A90   A(40,35,47)           110.0245         calculate D2E/DX2 analytically  !
 ! A91   A(42,35,47)           105.9516         calculate D2E/DX2 analytically  !
 ! A92   A(32,36,35)           111.0362         calculate D2E/DX2 analytically  !
 ! A93   A(32,36,41)           108.7479         calculate D2E/DX2 analytically  !
 ! A94   A(32,36,46)           111.6359         calculate D2E/DX2 analytically  !
 ! A95   A(35,36,41)           109.9856         calculate D2E/DX2 analytically  !
 ! A96   A(35,36,46)           104.8437         calculate D2E/DX2 analytically  !
 ! A97   A(41,36,46)           110.5592         calculate D2E/DX2 analytically  !
 ! A98   A(7,37,11)             69.2365         calculate D2E/DX2 analytically  !
 ! A99   A(7,37,19)            130.4717         calculate D2E/DX2 analytically  !
 ! A100  A(7,37,34)            111.0864         calculate D2E/DX2 analytically  !
 ! A101  A(7,37,83)            121.8621         calculate D2E/DX2 analytically  !
 ! A102  A(11,37,19)            73.5633         calculate D2E/DX2 analytically  !
 ! A103  A(11,37,83)            60.9481         calculate D2E/DX2 analytically  !
 ! A104  A(19,37,34)            97.3628         calculate D2E/DX2 analytically  !
 ! A105  A(34,37,83)           124.7226         calculate D2E/DX2 analytically  !
 ! A106  A(19,38,33)           103.5441         calculate D2E/DX2 analytically  !
 ! A107  A(34,42,35)           122.3528         calculate D2E/DX2 analytically  !
 ! A108  A(33,44,63)           113.2025         calculate D2E/DX2 analytically  !
 ! A109  A(32,45,67)           113.4387         calculate D2E/DX2 analytically  !
 ! A110  A(36,46,71)           114.4393         calculate D2E/DX2 analytically  !
 ! A111  A(35,47,48)           109.3405         calculate D2E/DX2 analytically  !
 ! A112  A(35,47,49)           108.3903         calculate D2E/DX2 analytically  !
 ! A113  A(35,47,50)           107.8649         calculate D2E/DX2 analytically  !
 ! A114  A(48,47,49)           108.196          calculate D2E/DX2 analytically  !
 ! A115  A(48,47,50)           111.2855         calculate D2E/DX2 analytically  !
 ! A116  A(49,47,50)           111.7048         calculate D2E/DX2 analytically  !
 ! A117  A(47,50,75)           112.8607         calculate D2E/DX2 analytically  !
 ! A118  A(43,51,52)           114.9349         calculate D2E/DX2 analytically  !
 ! A119  A(43,51,53)           112.1354         calculate D2E/DX2 analytically  !
 ! A120  A(43,51,54)           105.6499         calculate D2E/DX2 analytically  !
 ! A121  A(52,51,53)           111.868          calculate D2E/DX2 analytically  !
 ! A122  A(52,51,54)           106.7205         calculate D2E/DX2 analytically  !
 ! A123  A(53,51,54)           104.623          calculate D2E/DX2 analytically  !
 ! A124  A(34,53,51)           120.1855         calculate D2E/DX2 analytically  !
 ! A125  A(51,54,55)           119.7346         calculate D2E/DX2 analytically  !
 ! A126  A(51,54,56)           119.1458         calculate D2E/DX2 analytically  !
 ! A127  A(55,54,56)           121.1183         calculate D2E/DX2 analytically  !
 ! A128  A(54,55,57)           119.132          calculate D2E/DX2 analytically  !
 ! A129  A(54,55,58)           120.3124         calculate D2E/DX2 analytically  !
 ! A130  A(57,55,58)           120.5254         calculate D2E/DX2 analytically  !
 ! A131  A(54,56,59)           119.0341         calculate D2E/DX2 analytically  !
 ! A132  A(54,56,60)           120.4666         calculate D2E/DX2 analytically  !
 ! A133  A(59,56,60)           120.4971         calculate D2E/DX2 analytically  !
 ! A134  A(55,57,61)           120.7882         calculate D2E/DX2 analytically  !
 ! A135  A(55,57,93)           118.2193         calculate D2E/DX2 analytically  !
 ! A136  A(61,57,93)           120.9682         calculate D2E/DX2 analytically  !
 ! A137  A(56,59,61)           120.7543         calculate D2E/DX2 analytically  !
 ! A138  A(56,59,97)           120.2348         calculate D2E/DX2 analytically  !
 ! A139  A(61,59,97)           118.9376         calculate D2E/DX2 analytically  !
 ! A140  A(57,61,59)           119.1725         calculate D2E/DX2 analytically  !
 ! A141  A(57,61,62)           120.4751         calculate D2E/DX2 analytically  !
 ! A142  A(59,61,62)           120.352          calculate D2E/DX2 analytically  !
 ! A143  A(44,63,64)           109.583          calculate D2E/DX2 analytically  !
 ! A144  A(44,63,65)           110.7151         calculate D2E/DX2 analytically  !
 ! A145  A(44,63,66)           105.9969         calculate D2E/DX2 analytically  !
 ! A146  A(64,63,65)           109.9314         calculate D2E/DX2 analytically  !
 ! A147  A(64,63,66)           110.8134         calculate D2E/DX2 analytically  !
 ! A148  A(65,63,66)           109.7401         calculate D2E/DX2 analytically  !
 ! A149  A(45,67,68)           111.0891         calculate D2E/DX2 analytically  !
 ! A150  A(45,67,69)           111.4764         calculate D2E/DX2 analytically  !
 ! A151  A(45,67,70)           106.6205         calculate D2E/DX2 analytically  !
 ! A152  A(68,67,69)           108.9533         calculate D2E/DX2 analytically  !
 ! A153  A(68,67,70)           109.2471         calculate D2E/DX2 analytically  !
 ! A154  A(69,67,70)           109.4032         calculate D2E/DX2 analytically  !
 ! A155  A(46,71,72)           111.2505         calculate D2E/DX2 analytically  !
 ! A156  A(46,71,73)           110.936          calculate D2E/DX2 analytically  !
 ! A157  A(46,71,74)           106.2631         calculate D2E/DX2 analytically  !
 ! A158  A(72,71,73)           109.3521         calculate D2E/DX2 analytically  !
 ! A159  A(72,71,74)           109.8725         calculate D2E/DX2 analytically  !
 ! A160  A(73,71,74)           109.1059         calculate D2E/DX2 analytically  !
 ! A161  A(50,75,76)           106.8901         calculate D2E/DX2 analytically  !
 ! A162  A(50,75,77)           111.5745         calculate D2E/DX2 analytically  !
 ! A163  A(50,75,78)           111.3106         calculate D2E/DX2 analytically  !
 ! A164  A(76,75,77)           109.2805         calculate D2E/DX2 analytically  !
 ! A165  A(76,75,78)           109.0025         calculate D2E/DX2 analytically  !
 ! A166  A(77,75,78)           108.7265         calculate D2E/DX2 analytically  !
 ! A167  A(12,79,80)           106.8653         calculate D2E/DX2 analytically  !
 ! A168  A(12,79,81)           111.453          calculate D2E/DX2 analytically  !
 ! A169  A(12,79,82)           110.8548         calculate D2E/DX2 analytically  !
 ! A170  A(80,79,81)           109.396          calculate D2E/DX2 analytically  !
 ! A171  A(80,79,82)           109.3497         calculate D2E/DX2 analytically  !
 ! A172  A(81,79,82)           108.8815         calculate D2E/DX2 analytically  !
 ! A173  A(19,83,84)           148.3241         calculate D2E/DX2 analytically  !
 ! A174  A(37,83,84)           153.65           calculate D2E/DX2 analytically  !
 ! A175  A(83,84,85)           119.6465         calculate D2E/DX2 analytically  !
 ! A176  A(83,84,89)           123.9589         calculate D2E/DX2 analytically  !
 ! A177  A(85,84,89)           112.6662         calculate D2E/DX2 analytically  !
 ! A178  A(84,85,86)           110.2936         calculate D2E/DX2 analytically  !
 ! A179  A(84,85,87)           106.7039         calculate D2E/DX2 analytically  !
 ! A180  A(84,85,88)           110.7544         calculate D2E/DX2 analytically  !
 ! A181  A(86,85,87)           109.6416         calculate D2E/DX2 analytically  !
 ! A182  A(86,85,88)           109.3261         calculate D2E/DX2 analytically  !
 ! A183  A(87,85,88)           110.0892         calculate D2E/DX2 analytically  !
 ! A184  A(84,89,90)           110.7723         calculate D2E/DX2 analytically  !
 ! A185  A(84,89,91)           107.0452         calculate D2E/DX2 analytically  !
 ! A186  A(84,89,92)           110.6302         calculate D2E/DX2 analytically  !
 ! A187  A(90,89,91)           109.5564         calculate D2E/DX2 analytically  !
 ! A188  A(90,89,92)           109.4558         calculate D2E/DX2 analytically  !
 ! A189  A(91,89,92)           109.3384         calculate D2E/DX2 analytically  !
 ! A190  A(57,93,94)           111.5742         calculate D2E/DX2 analytically  !
 ! A191  A(57,93,95)           112.6913         calculate D2E/DX2 analytically  !
 ! A192  A(57,93,96)           111.4156         calculate D2E/DX2 analytically  !
 ! A193  A(94,93,95)           107.619          calculate D2E/DX2 analytically  !
 ! A194  A(94,93,96)           106.1455         calculate D2E/DX2 analytically  !
 ! A195  A(95,93,96)           107.0453         calculate D2E/DX2 analytically  !
 ! A196  A(59,97,98)           112.2476         calculate D2E/DX2 analytically  !
 ! A197  A(59,97,99)           111.2537         calculate D2E/DX2 analytically  !
 ! A198  A(59,97,100)          111.7111         calculate D2E/DX2 analytically  !
 ! A199  A(98,97,99)           106.9948         calculate D2E/DX2 analytically  !
 ! A200  A(98,97,100)          107.8077         calculate D2E/DX2 analytically  !
 ! A201  A(99,97,100)          106.5224         calculate D2E/DX2 analytically  !
 ! A202  L(11,37,34,7,-1)      180.3229         calculate D2E/DX2 analytically  !
 ! A203  L(11,37,34,7,-2)      195.5264         calculate D2E/DX2 analytically  !
 ! D1    D(5,1,2,3)            -54.7795         calculate D2E/DX2 analytically  !
 ! D2    D(5,1,2,7)             62.4744         calculate D2E/DX2 analytically  !
 ! D3    D(5,1,2,13)          -178.0319         calculate D2E/DX2 analytically  !
 ! D4    D(8,1,2,3)             64.3784         calculate D2E/DX2 analytically  !
 ! D5    D(8,1,2,7)           -178.3676         calculate D2E/DX2 analytically  !
 ! D6    D(8,1,2,13)           -58.8739         calculate D2E/DX2 analytically  !
 ! D7    D(14,1,2,3)          -173.7409         calculate D2E/DX2 analytically  !
 ! D8    D(14,1,2,7)           -56.487          calculate D2E/DX2 analytically  !
 ! D9    D(14,1,2,13)           63.0067         calculate D2E/DX2 analytically  !
 ! D10   D(2,1,5,4)             49.0126         calculate D2E/DX2 analytically  !
 ! D11   D(2,1,5,10)           -71.9614         calculate D2E/DX2 analytically  !
 ! D12   D(2,1,5,15)           168.0098         calculate D2E/DX2 analytically  !
 ! D13   D(8,1,5,4)            -70.5174         calculate D2E/DX2 analytically  !
 ! D14   D(8,1,5,10)           168.5086         calculate D2E/DX2 analytically  !
 ! D15   D(8,1,5,15)            48.4798         calculate D2E/DX2 analytically  !
 ! D16   D(14,1,5,4)           170.3561         calculate D2E/DX2 analytically  !
 ! D17   D(14,1,5,10)           49.3821         calculate D2E/DX2 analytically  !
 ! D18   D(14,1,5,15)          -70.6467         calculate D2E/DX2 analytically  !
 ! D19   D(2,1,14,24)          -94.1861         calculate D2E/DX2 analytically  !
 ! D20   D(5,1,14,24)          145.4021         calculate D2E/DX2 analytically  !
 ! D21   D(8,1,14,24)           27.2074         calculate D2E/DX2 analytically  !
 ! D22   D(1,2,3,6)            174.3343         calculate D2E/DX2 analytically  !
 ! D23   D(1,2,3,11)            59.7501         calculate D2E/DX2 analytically  !
 ! D24   D(1,2,3,12)           -63.2255         calculate D2E/DX2 analytically  !
 ! D25   D(7,2,3,6)             56.8116         calculate D2E/DX2 analytically  !
 ! D26   D(7,2,3,11)           -57.7726         calculate D2E/DX2 analytically  !
 ! D27   D(7,2,3,12)           179.2518         calculate D2E/DX2 analytically  !
 ! D28   D(13,2,3,6)           -63.1733         calculate D2E/DX2 analytically  !
 ! D29   D(13,2,3,11)         -177.7575         calculate D2E/DX2 analytically  !
 ! D30   D(13,2,3,12)           59.2669         calculate D2E/DX2 analytically  !
 ! D31   D(1,2,7,37)           -80.4801         calculate D2E/DX2 analytically  !
 ! D32   D(3,2,7,37)            38.2089         calculate D2E/DX2 analytically  !
 ! D33   D(13,2,7,37)          159.5155         calculate D2E/DX2 analytically  !
 ! D34   D(1,2,13,20)         -150.5116         calculate D2E/DX2 analytically  !
 ! D35   D(3,2,13,20)           87.1628         calculate D2E/DX2 analytically  !
 ! D36   D(7,2,13,20)          -31.8028         calculate D2E/DX2 analytically  !
 ! D37   D(2,3,11,4)           -60.2738         calculate D2E/DX2 analytically  !
 ! D38   D(2,3,11,37)           46.4226         calculate D2E/DX2 analytically  !
 ! D39   D(6,3,11,4)          -179.4576         calculate D2E/DX2 analytically  !
 ! D40   D(6,3,11,37)          -72.7612         calculate D2E/DX2 analytically  !
 ! D41   D(12,3,11,4)           60.4592         calculate D2E/DX2 analytically  !
 ! D42   D(12,3,11,37)         167.1556         calculate D2E/DX2 analytically  !
 ! D43   D(2,3,12,79)         -173.1631         calculate D2E/DX2 analytically  !
 ! D44   D(6,3,12,79)          -50.4078         calculate D2E/DX2 analytically  !
 ! D45   D(11,3,12,79)          65.6823         calculate D2E/DX2 analytically  !
 ! D46   D(9,4,5,1)             72.8894         calculate D2E/DX2 analytically  !
 ! D47   D(9,4,5,10)          -166.5565         calculate D2E/DX2 analytically  !
 ! D48   D(9,4,5,15)           -48.3108         calculate D2E/DX2 analytically  !
 ! D49   D(11,4,5,1)           -46.7431         calculate D2E/DX2 analytically  !
 ! D50   D(11,4,5,10)           73.8111         calculate D2E/DX2 analytically  !
 ! D51   D(11,4,5,15)         -167.9432         calculate D2E/DX2 analytically  !
 ! D52   D(16,4,5,1)          -164.8365         calculate D2E/DX2 analytically  !
 ! D53   D(16,4,5,10)          -44.2823         calculate D2E/DX2 analytically  !
 ! D54   D(16,4,5,15)           73.9634         calculate D2E/DX2 analytically  !
 ! D55   D(5,4,11,3)            53.5245         calculate D2E/DX2 analytically  !
 ! D56   D(5,4,11,37)          -58.6312         calculate D2E/DX2 analytically  !
 ! D57   D(9,4,11,3)           -65.4361         calculate D2E/DX2 analytically  !
 ! D58   D(9,4,11,37)         -177.5917         calculate D2E/DX2 analytically  !
 ! D59   D(16,4,11,3)          175.8977         calculate D2E/DX2 analytically  !
 ! D60   D(16,4,11,37)          63.7421         calculate D2E/DX2 analytically  !
 ! D61   D(5,4,16,17)          -51.9187         calculate D2E/DX2 analytically  !
 ! D62   D(5,4,16,18)         -162.5668         calculate D2E/DX2 analytically  !
 ! D63   D(5,4,16,19)           73.6808         calculate D2E/DX2 analytically  !
 ! D64   D(9,4,16,17)           68.8741         calculate D2E/DX2 analytically  !
 ! D65   D(9,4,16,18)          -41.7739         calculate D2E/DX2 analytically  !
 ! D66   D(9,4,16,19)         -165.5263         calculate D2E/DX2 analytically  !
 ! D67   D(11,4,16,17)        -173.4531         calculate D2E/DX2 analytically  !
 ! D68   D(11,4,16,18)          75.8988         calculate D2E/DX2 analytically  !
 ! D69   D(11,4,16,19)         -47.8536         calculate D2E/DX2 analytically  !
 ! D70   D(1,5,15,28)           99.3679         calculate D2E/DX2 analytically  !
 ! D71   D(4,5,15,28)         -137.4663         calculate D2E/DX2 analytically  !
 ! D72   D(10,5,15,28)         -19.7369         calculate D2E/DX2 analytically  !
 ! D73   D(2,7,37,11)          -11.4181         calculate D2E/DX2 analytically  !
 ! D74   D(2,7,37,19)           32.4217         calculate D2E/DX2 analytically  !
 ! D75   D(2,7,37,34)          153.0555         calculate D2E/DX2 analytically  !
 ! D76   D(2,7,37,83)          -43.5196         calculate D2E/DX2 analytically  !
 ! D77   D(3,11,37,7)          -21.6836         calculate D2E/DX2 analytically  !
 ! D78   D(3,11,37,19)        -168.3602         calculate D2E/DX2 analytically  !
 ! D79   D(3,11,37,83)         127.2315         calculate D2E/DX2 analytically  !
 ! D80   D(4,11,37,7)           97.9797         calculate D2E/DX2 analytically  !
 ! D81   D(4,11,37,19)         -48.6969         calculate D2E/DX2 analytically  !
 ! D82   D(4,11,37,83)        -113.1052         calculate D2E/DX2 analytically  !
 ! D83   D(3,12,79,80)         174.0826         calculate D2E/DX2 analytically  !
 ! D84   D(3,12,79,81)         -66.4464         calculate D2E/DX2 analytically  !
 ! D85   D(3,12,79,82)          55.0053         calculate D2E/DX2 analytically  !
 ! D86   D(2,13,20,21)         -59.359          calculate D2E/DX2 analytically  !
 ! D87   D(2,13,20,22)          61.8641         calculate D2E/DX2 analytically  !
 ! D88   D(2,13,20,23)        -178.9367         calculate D2E/DX2 analytically  !
 ! D89   D(1,14,24,25)         -59.2184         calculate D2E/DX2 analytically  !
 ! D90   D(1,14,24,26)          62.7031         calculate D2E/DX2 analytically  !
 ! D91   D(1,14,24,27)        -177.6572         calculate D2E/DX2 analytically  !
 ! D92   D(5,15,28,29)         -61.8634         calculate D2E/DX2 analytically  !
 ! D93   D(5,15,28,30)          59.8954         calculate D2E/DX2 analytically  !
 ! D94   D(5,15,28,31)         178.5054         calculate D2E/DX2 analytically  !
 ! D95   D(4,16,19,37)           1.8191         calculate D2E/DX2 analytically  !
 ! D96   D(4,16,19,38)         -93.6994         calculate D2E/DX2 analytically  !
 ! D97   D(4,16,19,83)          66.7289         calculate D2E/DX2 analytically  !
 ! D98   D(17,16,19,37)        122.4557         calculate D2E/DX2 analytically  !
 ! D99   D(17,16,19,38)         26.9371         calculate D2E/DX2 analytically  !
 ! D100  D(17,16,19,83)       -172.6346         calculate D2E/DX2 analytically  !
 ! D101  D(18,16,19,37)       -117.8523         calculate D2E/DX2 analytically  !
 ! D102  D(18,16,19,38)        146.6292         calculate D2E/DX2 analytically  !
 ! D103  D(18,16,19,83)        -52.9425         calculate D2E/DX2 analytically  !
 ! D104  D(16,19,37,7)         -16.4969         calculate D2E/DX2 analytically  !
 ! D105  D(16,19,37,11)         25.977          calculate D2E/DX2 analytically  !
 ! D106  D(16,19,37,34)       -142.4498         calculate D2E/DX2 analytically  !
 ! D107  D(38,19,37,7)         141.3266         calculate D2E/DX2 analytically  !
 ! D108  D(38,19,37,11)       -176.1995         calculate D2E/DX2 analytically  !
 ! D109  D(38,19,37,34)         15.3737         calculate D2E/DX2 analytically  !
 ! D110  D(16,19,38,33)        128.2821         calculate D2E/DX2 analytically  !
 ! D111  D(37,19,38,33)         25.3358         calculate D2E/DX2 analytically  !
 ! D112  D(83,19,38,33)        -32.2321         calculate D2E/DX2 analytically  !
 ! D113  D(16,19,83,84)         82.1292         calculate D2E/DX2 analytically  !
 ! D114  D(38,19,83,84)       -104.9186         calculate D2E/DX2 analytically  !
 ! D115  D(36,32,33,34)        -55.0426         calculate D2E/DX2 analytically  !
 ! D116  D(36,32,33,38)         57.9919         calculate D2E/DX2 analytically  !
 ! D117  D(36,32,33,44)       -179.3673         calculate D2E/DX2 analytically  !
 ! D118  D(39,32,33,34)         63.3124         calculate D2E/DX2 analytically  !
 ! D119  D(39,32,33,38)        176.3469         calculate D2E/DX2 analytically  !
 ! D120  D(39,32,33,44)        -61.0124         calculate D2E/DX2 analytically  !
 ! D121  D(45,32,33,34)       -174.6712         calculate D2E/DX2 analytically  !
 ! D122  D(45,32,33,38)        -61.6368         calculate D2E/DX2 analytically  !
 ! D123  D(45,32,33,44)         61.004          calculate D2E/DX2 analytically  !
 ! D124  D(33,32,36,35)         57.1503         calculate D2E/DX2 analytically  !
 ! D125  D(33,32,36,41)        -63.997          calculate D2E/DX2 analytically  !
 ! D126  D(33,32,36,46)        173.7548         calculate D2E/DX2 analytically  !
 ! D127  D(39,32,36,35)        -61.3407         calculate D2E/DX2 analytically  !
 ! D128  D(39,32,36,41)        177.512          calculate D2E/DX2 analytically  !
 ! D129  D(39,32,36,46)         55.2637         calculate D2E/DX2 analytically  !
 ! D130  D(45,32,36,35)        177.8339         calculate D2E/DX2 analytically  !
 ! D131  D(45,32,36,41)         56.6866         calculate D2E/DX2 analytically  !
 ! D132  D(45,32,36,46)        -65.5616         calculate D2E/DX2 analytically  !
 ! D133  D(33,32,45,67)       -105.8548         calculate D2E/DX2 analytically  !
 ! D134  D(36,32,45,67)        135.275          calculate D2E/DX2 analytically  !
 ! D135  D(39,32,45,67)         15.3884         calculate D2E/DX2 analytically  !
 ! D136  D(32,33,34,37)       -158.7524         calculate D2E/DX2 analytically  !
 ! D137  D(32,33,34,42)         40.7595         calculate D2E/DX2 analytically  !
 ! D138  D(32,33,34,53)        -63.649          calculate D2E/DX2 analytically  !
 ! D139  D(38,33,34,37)         84.017          calculate D2E/DX2 analytically  !
 ! D140  D(38,33,34,42)        -76.4711         calculate D2E/DX2 analytically  !
 ! D141  D(38,33,34,53)        179.1205         calculate D2E/DX2 analytically  !
 ! D142  D(44,33,34,37)        -32.3993         calculate D2E/DX2 analytically  !
 ! D143  D(44,33,34,42)        167.1125         calculate D2E/DX2 analytically  !
 ! D144  D(44,33,34,53)         62.7041         calculate D2E/DX2 analytically  !
 ! D145  D(32,33,38,19)       -165.7928         calculate D2E/DX2 analytically  !
 ! D146  D(34,33,38,19)        -47.9623         calculate D2E/DX2 analytically  !
 ! D147  D(44,33,38,19)         69.0113         calculate D2E/DX2 analytically  !
 ! D148  D(32,33,44,63)        -96.0623         calculate D2E/DX2 analytically  !
 ! D149  D(34,33,44,63)        139.3134         calculate D2E/DX2 analytically  !
 ! D150  D(38,33,44,63)         26.8475         calculate D2E/DX2 analytically  !
 ! D151  D(33,34,37,7)         168.4719         calculate D2E/DX2 analytically  !
 ! D152  D(33,34,37,19)        -52.8281         calculate D2E/DX2 analytically  !
 ! D153  D(33,34,37,83)          5.6165         calculate D2E/DX2 analytically  !
 ! D154  D(42,34,37,7)         -29.8113         calculate D2E/DX2 analytically  !
 ! D155  D(42,34,37,19)        108.8887         calculate D2E/DX2 analytically  !
 ! D156  D(42,34,37,83)        167.3333         calculate D2E/DX2 analytically  !
 ! D157  D(53,34,37,7)          69.2662         calculate D2E/DX2 analytically  !
 ! D158  D(53,34,37,19)       -152.0339         calculate D2E/DX2 analytically  !
 ! D159  D(53,34,37,83)        -93.5893         calculate D2E/DX2 analytically  !
 ! D160  D(33,34,42,35)        -25.7181         calculate D2E/DX2 analytically  !
 ! D161  D(37,34,42,35)        172.3745         calculate D2E/DX2 analytically  !
 ! D162  D(53,34,42,35)         78.415          calculate D2E/DX2 analytically  !
 ! D163  D(33,34,53,51)        -89.8089         calculate D2E/DX2 analytically  !
 ! D164  D(37,34,53,51)         32.5784         calculate D2E/DX2 analytically  !
 ! D165  D(42,34,53,51)        147.1222         calculate D2E/DX2 analytically  !
 ! D166  D(40,35,36,32)         73.9247         calculate D2E/DX2 analytically  !
 ! D167  D(40,35,36,41)       -165.6583         calculate D2E/DX2 analytically  !
 ! D168  D(40,35,36,46)        -46.7791         calculate D2E/DX2 analytically  !
 ! D169  D(42,35,36,32)        -41.8055         calculate D2E/DX2 analytically  !
 ! D170  D(42,35,36,41)         78.6115         calculate D2E/DX2 analytically  !
 ! D171  D(42,35,36,46)       -162.5093         calculate D2E/DX2 analytically  !
 ! D172  D(47,35,36,32)       -163.1929         calculate D2E/DX2 analytically  !
 ! D173  D(47,35,36,41)        -42.7759         calculate D2E/DX2 analytically  !
 ! D174  D(47,35,36,46)         76.1033         calculate D2E/DX2 analytically  !
 ! D175  D(36,35,42,34)         25.7258         calculate D2E/DX2 analytically  !
 ! D176  D(40,35,42,34)        -92.6879         calculate D2E/DX2 analytically  !
 ! D177  D(47,35,42,34)        151.2349         calculate D2E/DX2 analytically  !
 ! D178  D(36,35,47,48)         71.185          calculate D2E/DX2 analytically  !
 ! D179  D(36,35,47,49)        -46.5542         calculate D2E/DX2 analytically  !
 ! D180  D(36,35,47,50)       -167.6607         calculate D2E/DX2 analytically  !
 ! D181  D(40,35,47,48)       -166.6013         calculate D2E/DX2 analytically  !
 ! D182  D(40,35,47,49)         75.6594         calculate D2E/DX2 analytically  !
 ! D183  D(40,35,47,50)        -45.447          calculate D2E/DX2 analytically  !
 ! D184  D(42,35,47,48)        -54.55           calculate D2E/DX2 analytically  !
 ! D185  D(42,35,47,49)       -172.2893         calculate D2E/DX2 analytically  !
 ! D186  D(42,35,47,50)         66.6043         calculate D2E/DX2 analytically  !
 ! D187  D(32,36,46,71)         97.1586         calculate D2E/DX2 analytically  !
 ! D188  D(35,36,46,71)       -142.5352         calculate D2E/DX2 analytically  !
 ! D189  D(41,36,46,71)        -24.0432         calculate D2E/DX2 analytically  !
 ! D190  D(7,37,83,84)         -70.7929         calculate D2E/DX2 analytically  !
 ! D191  D(11,37,83,84)       -105.4334         calculate D2E/DX2 analytically  !
 ! D192  D(34,37,83,84)         90.3118         calculate D2E/DX2 analytically  !
 ! D193  D(33,44,63,64)        -65.8971         calculate D2E/DX2 analytically  !
 ! D194  D(33,44,63,65)         55.5268         calculate D2E/DX2 analytically  !
 ! D195  D(33,44,63,66)        174.4778         calculate D2E/DX2 analytically  !
 ! D196  D(32,45,67,68)        -58.3681         calculate D2E/DX2 analytically  !
 ! D197  D(32,45,67,69)         63.355          calculate D2E/DX2 analytically  !
 ! D198  D(32,45,67,70)       -177.3039         calculate D2E/DX2 analytically  !
 ! D199  D(36,46,71,72)        -60.823          calculate D2E/DX2 analytically  !
 ! D200  D(36,46,71,73)         61.1463         calculate D2E/DX2 analytically  !
 ! D201  D(36,46,71,74)        179.6142         calculate D2E/DX2 analytically  !
 ! D202  D(35,47,50,75)       -170.0295         calculate D2E/DX2 analytically  !
 ! D203  D(48,47,50,75)        -50.0953         calculate D2E/DX2 analytically  !
 ! D204  D(49,47,50,75)         70.9541         calculate D2E/DX2 analytically  !
 ! D205  D(47,50,75,76)        178.3975         calculate D2E/DX2 analytically  !
 ! D206  D(47,50,75,77)        -62.1871         calculate D2E/DX2 analytically  !
 ! D207  D(47,50,75,78)         59.4695         calculate D2E/DX2 analytically  !
 ! D208  D(43,51,53,34)        -15.2209         calculate D2E/DX2 analytically  !
 ! D209  D(52,51,53,34)       -146.0406         calculate D2E/DX2 analytically  !
 ! D210  D(54,51,53,34)         98.8022         calculate D2E/DX2 analytically  !
 ! D211  D(43,51,54,55)         -6.3026         calculate D2E/DX2 analytically  !
 ! D212  D(43,51,54,56)        173.2763         calculate D2E/DX2 analytically  !
 ! D213  D(52,51,54,55)        116.4698         calculate D2E/DX2 analytically  !
 ! D214  D(52,51,54,56)        -63.9513         calculate D2E/DX2 analytically  !
 ! D215  D(53,51,54,55)       -124.8245         calculate D2E/DX2 analytically  !
 ! D216  D(53,51,54,56)         54.7544         calculate D2E/DX2 analytically  !
 ! D217  D(51,54,55,57)        179.3077         calculate D2E/DX2 analytically  !
 ! D218  D(51,54,55,58)          1.2961         calculate D2E/DX2 analytically  !
 ! D219  D(56,54,55,57)         -0.2627         calculate D2E/DX2 analytically  !
 ! D220  D(56,54,55,58)       -178.2743         calculate D2E/DX2 analytically  !
 ! D221  D(51,54,56,59)       -179.2681         calculate D2E/DX2 analytically  !
 ! D222  D(51,54,56,60)          0.189          calculate D2E/DX2 analytically  !
 ! D223  D(55,54,56,59)          0.3047         calculate D2E/DX2 analytically  !
 ! D224  D(55,54,56,60)        179.7619         calculate D2E/DX2 analytically  !
 ! D225  D(54,55,57,61)          0.0933         calculate D2E/DX2 analytically  !
 ! D226  D(54,55,57,93)       -178.1304         calculate D2E/DX2 analytically  !
 ! D227  D(58,55,57,61)        178.1005         calculate D2E/DX2 analytically  !
 ! D228  D(58,55,57,93)         -0.1232         calculate D2E/DX2 analytically  !
 ! D229  D(54,56,59,61)         -0.1781         calculate D2E/DX2 analytically  !
 ! D230  D(54,56,59,97)        176.6745         calculate D2E/DX2 analytically  !
 ! D231  D(60,56,59,61)       -179.635          calculate D2E/DX2 analytically  !
 ! D232  D(60,56,59,97)         -2.7824         calculate D2E/DX2 analytically  !
 ! D233  D(55,57,61,59)          0.0291         calculate D2E/DX2 analytically  !
 ! D234  D(55,57,61,62)        179.7992         calculate D2E/DX2 analytically  !
 ! D235  D(93,57,61,59)        178.2037         calculate D2E/DX2 analytically  !
 ! D236  D(93,57,61,62)         -2.0263         calculate D2E/DX2 analytically  !
 ! D237  D(55,57,93,94)        -48.3823         calculate D2E/DX2 analytically  !
 ! D238  D(55,57,93,95)       -169.5892         calculate D2E/DX2 analytically  !
 ! D239  D(55,57,93,96)         70.0609         calculate D2E/DX2 analytically  !
 ! D240  D(61,57,93,94)        133.3973         calculate D2E/DX2 analytically  !
 ! D241  D(61,57,93,95)         12.1904         calculate D2E/DX2 analytically  !
 ! D242  D(61,57,93,96)       -108.1595         calculate D2E/DX2 analytically  !
 ! D243  D(56,59,61,57)          0.0142         calculate D2E/DX2 analytically  !
 ! D244  D(56,59,61,62)       -179.7561         calculate D2E/DX2 analytically  !
 ! D245  D(97,59,61,57)       -176.8787         calculate D2E/DX2 analytically  !
 ! D246  D(97,59,61,62)          3.351          calculate D2E/DX2 analytically  !
 ! D247  D(56,59,97,98)         21.8568         calculate D2E/DX2 analytically  !
 ! D248  D(56,59,97,99)        -98.0074         calculate D2E/DX2 analytically  !
 ! D249  D(56,59,97,100)       143.0904         calculate D2E/DX2 analytically  !
 ! D250  D(61,59,97,98)       -161.2338         calculate D2E/DX2 analytically  !
 ! D251  D(61,59,97,99)         78.9021         calculate D2E/DX2 analytically  !
 ! D252  D(61,59,97,100)       -40.0002         calculate D2E/DX2 analytically  !
 ! D253  D(19,83,84,85)       -146.2101         calculate D2E/DX2 analytically  !
 ! D254  D(19,83,84,89)         10.4098         calculate D2E/DX2 analytically  !
 ! D255  D(37,83,84,85)         53.827          calculate D2E/DX2 analytically  !
 ! D256  D(37,83,84,89)       -149.5531         calculate D2E/DX2 analytically  !
 ! D257  D(83,84,85,86)       -141.0679         calculate D2E/DX2 analytically  !
 ! D258  D(83,84,85,87)        -22.0465         calculate D2E/DX2 analytically  !
 ! D259  D(83,84,85,88)         97.7699         calculate D2E/DX2 analytically  !
 ! D260  D(89,84,85,86)         59.8294         calculate D2E/DX2 analytically  !
 ! D261  D(89,84,85,87)        178.8508         calculate D2E/DX2 analytically  !
 ! D262  D(89,84,85,88)        -61.3328         calculate D2E/DX2 analytically  !
 ! D263  D(83,84,89,90)        -96.5447         calculate D2E/DX2 analytically  !
 ! D264  D(83,84,89,91)         22.8451         calculate D2E/DX2 analytically  !
 ! D265  D(83,84,89,92)        141.8915         calculate D2E/DX2 analytically  !
 ! D266  D(85,84,89,90)         61.5083         calculate D2E/DX2 analytically  !
 ! D267  D(85,84,89,91)       -179.1019         calculate D2E/DX2 analytically  !
 ! D268  D(85,84,89,92)        -60.0554         calculate D2E/DX2 analytically  !
 --------------------------------------------------------------------------------
 Trust Radius=3.00D-02 FncErr=1.00D-07 GrdErr=1.00D-06 EigMax=2.50D+02 EigMin=1.00D-04
 Number of steps in this run=    587 maximum allowed number of steps=    600.
 Search for a saddle point of order  1.
 Step   0 in ReCalcFC=30 IGetFC= 4 compute analytic Hessian.
 GradGradGradGradGradGradGradGradGradGradGradGradGradGradGradGradGradGrad

 Leave Link  103 at Fri May 24 23:51:03 2019, MaxMem=  6442450944 cpu:               4.1 elap:               0.2
 (Enter /home/ekwan/sw/g16/l202.exe)
 Stoichiometry    C30H47F6NaO15S
 Framework group  C1[X(C30H47F6NaO15S)]
 Deg. of freedom   294
 Full point group                 C1      NOp   1
 Largest Abelian subgroup         C1      NOp   1
 Largest concise Abelian subgroup C1      NOp   1
                         Standard orientation:                         
 ---------------------------------------------------------------------
 Center     Atomic      Atomic             Coordinates (Angstroms)
 Number     Number       Type             X           Y           Z
 ---------------------------------------------------------------------
      1          6           0       -4.705609   -0.790807    0.583698
      2          6           0       -3.524988   -1.152573    1.486067
      3          6           0       -2.849337   -2.430794    0.974658
      4          6           0       -3.398348   -1.886047   -1.326655
      5          6           0       -4.236965   -0.685229   -0.870663
      6          1           0       -1.941421   -2.657495    1.542571
      7          1           0       -2.788428   -0.339482    1.426842
      8          1           0       -5.467547   -1.577827    0.651001
      9          1           0       -4.073810   -2.742427   -1.449977
     10          1           0       -3.638875    0.225788   -0.972475
     11          8           0       -2.385827   -2.220548   -0.351169
     12          8           0       -3.766454   -3.485654    1.057472
     13          8           0       -3.960171   -1.296321    2.827082
     14          8           0       -5.267430    0.466444    0.943486
     15          8           0       -5.360320   -0.624742   -1.746825
     16          6           0       -2.628509   -1.609686   -2.638144
     17          1           0       -3.392824   -1.236312   -3.352378
     18          1           0       -2.335754   -2.616250   -3.028551
     19          8           0       -1.550983   -0.770140   -2.473480
     20          6           0       -2.949121   -0.970402    3.772980
     21          1           0       -2.056208   -1.599136    3.662030
     22          1           0       -2.641736    0.080378    3.675910
     23          1           0       -3.379478   -1.132293    4.764014
     24          6           0       -6.367215    0.386711    1.837385
     25          1           0       -7.185300   -0.210286    1.407083
     26          1           0       -6.075305   -0.048618    2.798197
     27          1           0       -6.719766    1.410435    1.990482
     28          6           0       -5.689036    0.686894   -2.176335
     29          1           0       -5.963149    1.326621   -1.330615
     30          1           0       -4.851182    1.150620   -2.718646
     31          1           0       -6.540450    0.593058   -2.856411
     32          6           0        0.677934    2.565871   -1.090971
     33          6           0        0.128154    1.176250   -1.425634
     34          6           0       -1.006213    0.825714   -0.514975
     35          6           0       -1.608528    3.145970   -0.187784
     36          6           0       -0.484608    3.559294   -1.146628
     37          1           0       -1.309364   -0.192264   -0.347477
     38          1           0       -0.345626    1.193345   -2.417277
     39          1           0        1.089028    2.555504   -0.076891
     40          1           0       -1.292663    3.356127    0.836768
     41          1           0       -0.865883    3.599863   -2.177496
     42          8           0       -1.892080    1.701797   -0.188722
     43          8           0        0.224422   -1.671194    1.076131
     44          8           0        1.106705    0.157497   -1.394318
     45          8           0        1.669858    2.955574   -2.024958
     46          8           0       -0.091695    4.847315   -0.710963
     47          6           0       -2.927922    3.828932   -0.473542
     48          1           0       -3.353743    3.424544   -1.405732
     49          1           0       -2.738326    4.903092   -0.619951
     50          8           0       -3.781403    3.595328    0.621801
     51         16           0        0.741960   -0.470462    1.789977
     52          8           0        0.732482   -0.569713    3.260662
     53          8           0        0.086730    0.808631    1.305939
     54          6           0        2.463112   -0.315056    1.293025
     55          6           0        3.047309   -1.305455    0.515816
     56          6           0        3.186010    0.808789    1.691030
     57          6           0        4.380520   -1.164903    0.124854
     58          1           0        2.465931   -2.159145    0.190770
     59          6           0        4.514582    0.934246    1.291884
     60          1           0        2.718210    1.577566    2.294641
     61          6           0        5.121119   -0.050511    0.506891
     62          1           0        6.155832    0.051776    0.203487
     63          6           0        1.656417   -0.139215   -2.687932
     64          1           0        0.877635   -0.570021   -3.328115
     65          1           0        2.062649    0.762918   -3.151382
     66          1           0        2.458292   -0.858084   -2.516046
     67          6           0        2.994974    2.896375   -1.502678
     68          1           0        3.098888    3.534432   -0.617461
     69          1           0        3.276130    1.871295   -1.237424
     70          1           0        3.657685    3.262191   -2.289957
     71          6           0        0.244904    5.749056   -1.763477
     72          1           0        1.086961    5.374445   -2.352281
     73          1           0       -0.615722    5.918559   -2.425655
     74          1           0        0.517618    6.691343   -1.283412
     75          6           0       -5.116583    3.993916    0.373324
     76          1           0       -5.693445    3.744594    1.266170
     77          1           0       -5.187559    5.075976    0.185230
     78          1           0       -5.539988    3.457490   -0.487749
     79          6           0       -3.189712   -4.749628    0.751303
     80          1           0       -3.954702   -5.503012    0.948778
     81          1           0       -2.884806   -4.807181   -0.300646
     82          1           0       -2.313855   -4.944497    1.386807
     83         11           0       -0.186128   -2.079248   -1.186559
     84          8           0        1.372790   -3.772617   -1.076679
     85          6           0        1.384169   -4.649493    0.048796
     86          1           0        2.416403   -4.883479    0.338555
     87          1           0        0.885515   -4.121360    0.862844
     88          1           0        0.850416   -5.581730   -0.178834
     89          6           0        2.021889   -4.331803   -2.214885
     90          1           0        1.513835   -5.248806   -2.541529
     91          1           0        1.974280   -3.584632   -3.009722
     92          1           0        3.070340   -4.555883   -1.989978
     93          6           0        4.979681   -2.227962   -0.751634
     94          9           0        4.725347   -3.469516   -0.273443
     95          9           0        6.313654   -2.105545   -0.877960
     96          9           0        4.455346   -2.191070   -2.006118
     97          6           0        5.296965    2.169353    1.642355
     98          9           0        4.773488    2.822272    2.698213
     99          9           0        5.322364    3.046788    0.605762
    100          9           0        6.583584    1.880101    1.932209
 ---------------------------------------------------------------------
 Rotational constants (GHZ):           0.0694490           0.0405563           0.0326140
 Leave Link  202 at Fri May 24 23:51:03 2019, MaxMem=  6442450944 cpu:               4.3 elap:               0.2
 (Enter /home/ekwan/sw/g16/l301.exe)
 Standard basis: 6-31G(d) (6D, 7F)
 Ernie: Thresh=  0.10000D-02 Tol=  0.10000D-05 Strict=F.
 There are   897 symmetry adapted cartesian basis functions of A   symmetry.
 There are   897 symmetry adapted basis functions of A   symmetry.
   897 basis functions,  1720 primitive gaussians,   897 cartesian basis functions
   214 alpha electrons      214 beta electrons
       nuclear repulsion energy      9725.2196018903 Hartrees.
 IExCor=  402 DFT=T Ex+Corr=B3LYP ExCW=0 ScaHFX=  0.200000
 ScaDFX=  0.800000  0.720000  1.000000  0.810000 ScalE2=  1.000000  1.000000
 IRadAn=      5 IRanWt=     -1 IRanGd=            0 ICorTp=0 IEmpDi=141
 NAtoms=  100 NActive=  100 NUniq=  100 SFac= 1.00D+00 NAtFMM=   60 NAOKFM=T Big=T
 Integral buffers will be    131072 words long.
 Raffenetti 2 integral format.
 Two-electron integral symmetry is turned on.
 R6Disp:  Grimme-D3(BJ) Dispersion energy=       -0.2372303541 Hartrees.
 Nuclear repulsion after empirical dispersion term =     9724.9823715361 Hartrees.
 Force inversion solution in PCM.
 ------------------------------------------------------------------------------
 Polarizable Continuum Model (PCM)
 =================================
 Model                : PCM.
 Atomic radii         : UFF (Universal Force Field).
[...]
 63,-0.00030654,0.00106687,0.00056952,0.00033636,0.00010821,0.00014956,
 -0.00000348,0.00000946,0.00000598,-0.00001224,0.00000256,-0.00000122,0
 .00000397,-0.00001819,0.00002127,-0.00000190,0.00001023,0.00002300,-0.
 00001316,0.00369079,-0.00066184,-0.00131802,-0.00084331,0.00003531,0.0
 0082254,-0.00147869,0.00100791,-0.00049963,-0.00179114,-0.00063621,-0.
 00214705,-0.00095152,-0.00080360,0.00041471,0.00318896,-0.00330624,-0.
 00110504,-0.00072433,0.00005683,-0.00117351,0.00019243,0.00012515,0.00
 019093,-0.01146460,-0.03175261,0.03180401,0.00023630,-0.00036945,0.000
 98812,-0.00218246,0.00126913,0.00096924,0.00047595,-0.00031589,0.00071
 840,-0.00005432,-0.00006528,0.00022578,-0.00001760,0.00002627,-0.00005
 106,0.00001311,0.00001248,-0.00008887,0.00000027,0.00001747,0.00010281
 ,-0.00041729,-0.00138226,-0.00144225,-0.00073532,0.00086606,0.00044009
 ,-0.00017519,0.00003259,-0.00001629,-0.00004641,0.00006542,-0.00010131
 ,-0.00007045,-0.00002734,0.00005138,0.00000628,0.00000148,-0.00004636,
 0.00003253,0.00000504,-0.00000170,-0.00000950,0.00002546,-0.00000580,0
 .00000830,-0.00001272,0.00000027,0.00000095,-0.00000137,-0.00000180,-0
 .00000166,0.00000732,-0.00000149,-0.00000009,0.00000012,0.00000165,0.0
 0000713,0.00002798,0.00001899,-0.00000703,-0.00000790,0.00000102,0.000
 00700,-0.00000019,-0.00000171,0.00000098,0.00000142,-0.00001083,0.0002
 7155,0.00008693,0.00028514,-0.00013244,-0.00030009,-0.00023506,0.00005
 754,0.00013386,-0.00006564,-0.00000880,0.00004556,-0.00000397,0.000040
 63,0.00004675,-0.00002460,-0.00002809,-0.00005328,-0.00002797,-0.00004
 817,0.00005315,0.00022561,-0.00001625,-0.00005162,-0.00004100,0.000010
 06,0.00001538,-0.00000602,0.00001221,0.00003785,0.00000601,-0.00129203
 ,0.00170598,0.00169769,0.00017961,-0.00081386,-0.00023751,0.00061466,-
 0.00036207,-0.00041159,0.00006061,-0.00040093,-0.00098579,-0.01210762,
 -0.16293372,0.08503574,-0.00192671,0.02037960,0.00227261,0.00025317,0.
 19140555,-0.00001103,0.00000625,-0.00000984,-0.00000128,0.00000285,-0.
 00001402,-0.00002771,0.00000286,-0.00004591,-0.00002434,0.00000884,-0.
 00002923,0.00000154,0.00001000,-0.00001453,-0.00000229,-0.00001598,0.0
 0001435,-0.00000490,0.00000469,-0.00000352,0.00000117,-0.00000010,0.00
 000165,0.00000284,-0.00000204,0.00000511,0.00000102,-0.00000227,0.0000
 0121,0.00002517,-0.00001904,0.00005639,0.00002038,0.00000597,0.0000200
 1,0.00002759,0.00000271,0.00003833,0.00000718,-0.00000921,0.00001053,0
 .00000869,-0.00001935,0.00002219,0.00002487,0.00002206,-0.00000563,-0.
 00000073,-0.00000226,0.00000310,-0.00000428,-0.00000874,-0.00000099,-0
 .00005032,-0.00005134,0.00003677,-0.00003317,-0.00000139,-0.00001861,0
 .00000419,-0.00001310,0.00000074,-0.00000175,0.00000572,-0.00000009,0.
 00000209,-0.00000011,0.00000125,-0.00000367,0.00000131,-0.00000521,0.0
 0000149,0.00000149,0.00000147,-0.00000154,-0.00000120,0.00000362,-0.00
 000020,-0.00000044,-0.00000136,0.00000510,0.00001834,-0.00001137,-0.00
 000129,-0.00000030,-0.00000034,-0.00000438,-0.00000373,0.00000307,0.00
 000098,-0.00000140,0.00000117,0.00074778,0.00035771,-0.00070934,-0.000
 07168,0.00011182,0.00015645,-0.00013405,0.00004259,-0.00044358,-0.0000
 0475,0.00017557,-0.00010154,0.00000471,-0.00012252,0.00006248,-0.00002
 390,0.00000237,0.00005392,0.00000350,0.00000228,0.00001826,0.00005678,
 0.00004487,0.00001264,-0.00000625,-0.00000498,0.00000378,-0.00000058,0
 .00000303,-0.00000061,0.00005787,-0.00013253,0.00007364,0.00041768,0.0
 0016197,0.00011808,-0.00004435,-0.00017856,0.00006994,-0.00164922,-0.0
 0035845,-0.00069349,-0.00007382,0.00003595,0.00002325,0.00003938,-0.00
 003369,0.00000538,-0.00000240,0.00000167,0.00000298,0.00000675,-0.0000
 0789,0.00000180,-0.00006732,0.00000574,0.00003298,-0.00120765,0.000318
 64,-0.00000066,0.00029818,-0.00002465,-0.00010619,0.00051329,-0.000416
 11,0.00034478,0.00034195,-0.00015627,0.00023528,-0.00037504,0.00032971
 ,0.00010802,-0.00004626,0.00062119,0.00054159,0.00067016,0.00095804,0.
 00097161,-0.00007535,0.00001545,-0.00006847,0.00159684,0.01197664,-0.0
 0002390,-0.00051169,-0.00001966,-0.00035310,0.00121592,-0.00040760,-0.
 00084938,-0.00039017,0.00033060,-0.00048033,0.00004074,0.00008757,-0.0
 0005820,-0.00001210,-0.00002899,0.00001822,-0.00000355,-0.00000742,0.0
 0008410,0.00000671,0.00000523,-0.00003098,-0.00039116,0.00071366,0.001
 43904,0.00020088,-0.00108092,-0.00103001,0.00003477,0.00052768,0.00011
 090,0.00016243,-0.00003083,0.00011354,0.00007117,-0.00003374,-0.000019
 06,-0.00001692,-0.00002419,0.00004773,-0.00003189,0.00000350,-0.000003
 62,0.00000345,0.00000780,0.00000556,0.00001737,-0.00000511,0.00000619,
 -0.00000950,0.00000093,0.00000339,-0.00000270,0.00000110,-0.00000274,-
 0.00000168,0.00000199,-0.00000127,-0.00000786,-0.00000220,-0.00001376,
 0.00000158,0.00000134,-0.00000021,-0.00000140,0.00000048,0.00000349,0.
 00000324,-0.00000112,0.00000453,-0.00005471,0.00003769,-0.00011843,0.0
 0003628,0.00006612,0.00010652,-0.00002083,-0.00002079,-0.00001167,0.00
 000850,-0.00001850,0.00000119,-0.00001668,-0.00001165,0.00000721,0.000
 00937,0.00001194,0.00001143,0.00001708,-0.00001049,-0.00008269,0.00000
 291,0.00001356,0.00001366,-0.00000015,-0.00000572,0.00000913,-0.000003
 00,-0.00000877,-0.00000259,0.00054207,-0.00039650,-0.00073043,-0.00007
 520,0.00025697,0.00012023,-0.00021682,0.00008287,0.00017611,-0.0000073
 0,0.00012209,0.00047939,0.00952924,0.08439583,-0.15111303,0.02162737,0
 .01740690,-0.07470084,-0.00194390,-0.14635705,0.24830542,0.00004579,-0
 .00002691,-0.00000300,0.00005413,0.00003290,-0.00005101,0.00013651,0.0
 0009498,-0.00004126,0.00004394,-0.00000402,0.00006463,0.00005578,-0.00
 000248,0.00002561,0.00001240,0.00004448,-0.00003430,0.00000415,-0.0000
 2766,-0.00000498,-0.00001646,-0.00000095,0.00000101,-0.00002917,-0.000
 01605,0.00000162,0.00000972,-0.00001001,0.00000348,-0.00012802,-0.0000
 5384,-0.00002164,-0.00008849,-0.00012138,-0.00000395,-0.00006364,-0.00
 002454,0.00003893,-0.00007272,0.00002213,0.00002894,-0.00007163,0.0000
 2435,-0.00003483,0.00019935,0.00014377,0.00004005,-0.00005455,-0.00001
 169,-0.00003307,-0.00002564,-0.00007530,-0.00002041,-0.00022638,-0.000
 20628,-0.00017264,0.00002752,0.00000323,-0.00000652,0.00000231,0.00003
 568,-0.00001074,0.00001492,-0.00001849,-0.00000434,-0.00001572,-0.0000
 0077,0.00001154,0.00004836,0.00000513,-0.00002462,-0.00001031,-0.00000
 720,-0.00000146,0.00000043,-0.00000167,0.00000150,-0.00000326,0.000002
 50,0.00000338,0.00001836,-0.00003234,0.00001203,0.00000235,0.00000685,
 0.00000156,-0.00000019,0.00000285,0.00000259,-0.00000876,0.00000298,-0
 .00000673,0.00018915,0.00004077,0.00004116,0.00010820,-0.00010125,-0.0
 0002909,0.00065334,-0.00015274,0.00060696,0.00003700,-0.00011353,0.000
 01930,0.00005374,-0.00013981,0.00001432,0.00001013,0.00005196,-0.00003
 393,-0.00001366,0.00004087,-0.00000884,0.00002840,-0.00007118,-0.00001
 126,0.00002070,0.00000522,-0.00001156,-0.00002735,0.00002664,-0.000024
 61,-0.00030522,0.00026153,-0.00004597,-0.00127982,-0.00070605,-0.00013
 672,-0.00017328,0.00001719,-0.00034396,-0.00053752,0.00002789,-0.00035
 449,-0.00001999,0.00020046,-0.00007721,0.00008142,-0.00002865,-0.00000
 481,-0.00001389,-0.00000482,-0.00000242,-0.00000901,0.00001006,0.00000
 553,-0.00011501,0.00003221,0.00000275,0.00333319,-0.00039404,-0.001204
 51,-0.00073577,-0.00003630,0.00093524,-0.00128185,0.00059822,-0.000332
 73,-0.00138627,-0.00106514,0.00152398,-0.00045450,-0.00044508,-0.00017
 811,0.00023652,-0.00506498,-0.00455902,0.00007390,-0.00152519,0.000277
 96,0.00016244,0.00019181,-0.00013044,-0.04256159,0.00314049,-0.0106690
 6,0.00060574,0.00068980,-0.00044299,-0.00175958,0.00194369,0.00276676,
 0.00046539,-0.00076315,-0.00203763,-0.00006689,0.00004712,0.00027483,-
 0.00003244,-0.00000240,-0.00004958,0.00000389,0.00002736,-0.00001534,0
 .00000600,0.00000871,0.00007920,0.00030446,0.00001341,0.00054669,0.000
 21793,-0.00028937,-0.00010308,0.00002370,0.00019759,0.00019567,-0.0000
 0160,0.00007285,-0.00010060,-0.00000068,-0.00010674,0.00010971,0.00000
 084,-0.00001527,0.00000777,-0.00002396,0.00000843,-0.00002648,0.000006
 08,0.00001452,0.00000143,0.00007566,-0.00002345,0.00002308,-0.00001046
 ,0.00000163,0.00000348,-0.00000837,0.00001173,-0.00000605,-0.00000844,
 -0.00000151,-0.00001152,-0.00001362,0.00005600,0.00001362,-0.00000719,
 -0.00001152,0.00000110,0.00000879,-0.00000078,-0.00000186,0.00000818,-
 0.00000060,-0.00000665,0.00022594,0.00019125,0.00024613,-0.00008347,-0
 .00029054,-0.00016580,0.00002387,0.00013729,-0.00008970,0.00000752,0.0
 0002677,-0.00000322,0.00002739,0.00004932,-0.00002629,-0.00001925,-0.0
 0004892,-0.00001881,-0.00006038,0.00005455,0.00018438,-0.00001246,-0.0
 0004447,-0.00003469,0.00000760,0.00001268,0.00000185,0.00001674,0.0000
 2722,0.00000371,-0.00140888,0.00147924,0.00121488,0.00021185,-0.000756
 90,-0.00018652,0.00071921,-0.00029249,-0.00029803,0.00012376,-0.000385
 93,-0.00068938,-0.25022948,0.01135973,-0.04627979,-0.04842570,0.030510
 76,0.02487053,-0.01417650,0.02756666,-0.03074550,0.35732438,0.00002141
 ,-0.00001995,-0.00000093,0.00001765,0.00000351,-0.00002536,0.00006398,
 0.00002204,-0.00000451,0.00002554,-0.00000948,0.00003443,0.00001893,-0
 .00000791,0.00001114,0.00000631,0.00002285,-0.00001866,0.00000556,-0.0
 0001206,-0.00000094,-0.00000479,0.00000102,-0.00000003,-0.00001119,-0.
 00000374,-0.00000140,0.00000327,-0.00000248,-0.00000033,-0.00006070,-0
 .00000404,-0.00002180,-0.00004330,-0.00003203,-0.00000485,-0.00002573,
 0.00000397,0.00001873,-0.00002833,0.00002199,0.00001286,-0.00002861,0.
 00002029,-0.00001637,0.00006030,0.00003957,0.00001338,-0.00001914,-0.0
 0000293,-0.00001288,-0.00000661,-0.00001766,-0.00000423,-0.00007006,-0
 .00004096,-0.00006257,0.00001229,-0.00001982,-0.00000350,-0.00000117,0
 .00002057,-0.00000382,0.00000693,-0.00000105,-0.00000321,-0.00000668,-
 0.00000004,0.00000443,0.00001626,-0.00000065,-0.00001037,-0.00000270,-
 0.00000143,0.00000109,0.00000005,-0.00000238,0.00000045,-0.00000334,0.
 00000316,0.00000132,0.00000590,-0.00002125,0.00000657,-0.00000021,0.00
 000323,0.00000165,0.00000127,0.00000177,-0.00000060,-0.00000276,0.0000
 0178,-0.00000238,-0.00016792,-0.00009846,0.00015564,0.00009375,-0.0001
 2908,-0.00005530,0.00031442,-0.00011192,0.00034267,0.00000214,-0.00014
 232,0.00001475,0.00000086,-0.00004713,-0.00002918,0.00001362,0.0000150
 5,-0.00002843,-0.00000929,0.00002474,-0.00001092,-0.00000457,-0.000056
 50,-0.00000491,0.00000460,0.00000684,-0.00000251,-0.00000262,0.0000090
 3,0.00000281,-0.00015975,0.00019966,-0.00002277,-0.00067754,-0.0002349
 7,-0.00006321,-0.00010050,0.00011738,-0.00014809,0.00030700,0.00016519
 ,0.00010576,0.00004301,0.00007846,0.00000701,0.00001089,-0.00000116,-0
 .00000762,0.00000180,-0.00000021,0.00000346,-0.00000877,0.00000999,-0.
 00000088,-0.00000301,0.00001289,0.00000066,0.00191762,-0.00054962,-0.0
 0055823,-0.00044656,0.00007150,0.00048983,-0.00070752,0.00048864,-0.00
 021440,-0.00097983,-0.00143264,0.00080200,-0.00099845,-0.00022660,0.00
 025417,0.00044791,-0.00202542,-0.00274670,-0.00008076,0.00067883,0.000
 49973,-0.00001122,0.00011547,0.00003665,-0.02591002,0.00817048,-0.0053
 8547,-0.00031368,0.00022107,-0.00016366,-0.00068426,-0.00134801,-0.001
 70525,-0.00138419,-0.00039351,0.00022472,-0.00002269,-0.00002150,0.000
 10436,-0.00000960,0.00000906,-0.00002439,0.00000696,0.00000598,-0.0000
 3366,0.00000278,0.00000899,0.00004592,-0.00007324,-0.00036403,-0.00043
 073,-0.00024625,0.00026088,0.00008950,-0.00001859,-0.00002509,0.000038
 46,-0.00001839,0.00003271,-0.00002629,-0.00002305,-0.00001574,0.000018
 94,0.00000118,-0.00000183,-0.00001509,0.00001154,0.00000249,-0.0000005
 1,-0.00000304,0.00001332,-0.00000266,0.00000485,-0.00000737,-0.0000000
 5,-0.00000116,-0.00000079,-0.00000039,-0.00000110,0.00000393,-0.000001
 20,0.00000006,0.00000064,0.00000146,0.00000390,0.00001298,0.00000785,-
 0.00000354,-0.00000387,0.00000050,0.00000342,0.00000004,-0.00000017,0.
 00000070,0.00000066,-0.00000531,0.00013071,0.00004938,0.00013371,-0.00
 006270,-0.00013836,-0.00010448,0.00002837,0.00006307,-0.00003090,-0.00
 000361,0.00002087,-0.00000207,0.00001842,0.00002247,-0.00001120,-0.000
 01301,-0.00002542,-0.00001297,-0.00001673,0.00002441,0.00010121,-0.000
 00863,-0.00002426,-0.00001848,0.00000525,0.00000710,-0.00000178,0.0000
 0493,0.00001954,0.00000302,-0.00033385,0.00095535,0.00082635,0.0000543
 2,-0.00040069,-0.00010258,0.00021069,-0.00020876,-0.00020048,-0.000022
 40,-0.00019575,-0.00043388,0.01803061,-0.07772622,0.00175047,0.0388147
 3,-0.00403502,-0.00943008,0.03914174,-0.01290671,0.03072474,-0.0660510
 9,0.09103402,0.00001162,-0.00000973,-0.00000390,0.00001648,0.00000876,
 -0.00002584,0.00004011,0.00002711,-0.00002549,0.00000856,-0.00000118,0
 .00001416,0.00001657,-0.00000007,0.00000273,0.00000413,0.00001225,-0.0
 0000946,0.00000158,-0.00000839,-0.00000211,-0.00000434,0.00000020,0.00
 000060,-0.00000834,-0.00000474,0.00000124,0.00000321,-0.00000327,0.000
 00094,-0.00003735,-0.00001783,0.00000841,-0.00002568,-0.00003392,0.000
 00476,-0.00001019,-0.00000250,0.00003057,-0.00002031,0.00000840,0.0000
 1377,-0.00001905,0.00000441,-0.00000351,0.00006375,0.00004625,0.000009
 31,-0.00001601,-0.00000388,-0.00000910,-0.00000817,-0.00002196,-0.0000
 0534,-0.00007834,-0.00006644,-0.00004060,-0.00000441,-0.00000741,-0.00
 001047,0.00000192,0.00000995,-0.00000361,0.00000452,-0.00000206,-0.000
 00195,-0.00000536,-0.00000011,0.00000456,0.00001281,0.00000133,-0.0000
 1033,-0.00000217,-0.00000114,0.00000072,-0.00000046,-0.00000160,0.0000
 0189,-0.00000188,0.00000132,0.00000054,0.00000681,-0.00000633,0.000000
 19,-0.00000019,0.00000222,0.00000069,-0.00000116,-0.00000025,0.0000012
 6,-0.00000202,0.00000071,-0.00000152,0.00016578,0.00006590,-0.00011829
 ,0.00002803,-0.00002936,0.00002213,0.00018970,-0.00005380,0.00011093,0
 .00000663,-0.00002107,-0.00001987,0.00001355,-0.00006451,0.00000942,0.
 00000017,0.00001502,-0.00000231,-0.00000277,0.00001396,-0.00000096,0.0
 0001754,-0.00001880,-0.00000051,0.00000434,0.00000207,-0.00000218,-0.0
 0000628,0.00000803,-0.00000409,-0.00009515,0.00007813,0.00000353,-0.00
 040401,-0.00023789,-0.00000640,-0.00006763,-0.00001491,-0.00008140,-0.
 00042287,-0.00003665,-0.00016589,-0.00001563,0.00006325,-0.00000351,0.
 00003056,-0.00001344,-0.00000465,-0.00000247,-0.00000039,0.00000202,-0
 .00000269,0.00000240,0.00000135,-0.00004057,0.00001079,0.00001212,0.00
 095370,-0.00013487,-0.00052804,-0.00020848,-0.00001225,0.00036070,-0.0
 0035808,0.00018480,-0.00003447,-0.00107582,0.00016391,0.00046008,-0.00
 013067,-0.00016207,-0.00003587,-0.00026124,-0.00263595,-0.00168830,-0.
 00024085,0.00022745,0.00012473,-0.00000184,0.00002718,0.00003352,-0.01
 467248,0.00095267,0.00773765,-0.00019222,-0.00009250,0.00009437,-0.000
 22962,-0.00006999,-0.00052401,-0.00095636,-0.00019292,-0.00013535,-0.0
 0000569,0.00002132,0.00005535,-0.00001305,-0.00000433,-0.00001078,0.00
 000299,0.00000255,0.00000921,0.00000664,0.00000782,0.00001668,0.000182
 82,0.00012395,0.00044702,0.00028897,-0.00026143,-0.00006323,0.00002705
 ,0.00009867,0.00005257,0.00001274,0.00001372,-0.00000618,0.00001473,-0
 .00002989,0.00001691,-0.00000359,-0.00000807,0.00001117,-0.00001050,0.
 00000250,-0.00000574,0.00000251,0.00000704,0.00000054,0.00001983,-0.00
 000752,0.00000511,-0.00000524,0.00000025,0.00000170,-0.00000263,0.0000
 0339,-0.00000229,-0.00000191,0.00000064,-0.00000175,-0.00000551,0.0000
 1554,-0.00000031,-0.00000196,-0.00000312,0.00000019,0.00000246,-0.0000
 0007,0.00000111,0.00000356,-0.00000039,-0.00000119,0.00006152,0.000062
 39,0.00005538,-0.00002447,-0.00007645,-0.00002233,0.00000647,0.0000420
 0,-0.00003405,0.00000496,0.00000512,-0.00000251,0.00000362,0.00001430,
 -0.00000695,-0.00000433,-0.00001347,-0.00000361,-0.00000735,0.00001166
 ,0.00003559,-0.00000580,-0.00001135,-0.00000750,0.00000379,0.00000224,
 0.00000373,0.00000311,0.00001039,0.00000054,-0.00027133,0.00058505,0.0
 0029187,0.00003091,-0.00026211,-0.00001357,0.00015459,-0.00012548,-0.0
 0008410,0.00001960,-0.00012815,-0.00020269,-0.04338420,-0.00044547,-0.
 08263657,0.03741412,-0.01233874,0.00721402,-0.04225320,0.02938801,-0.0
 2221400,0.06576488,-0.01465675,0.09154111\\-0.00000039,-0.00000060,-0.
 00000055,0.00000004,-0.00000053,-0.00000062,-0.00000054,-0.00000024,-0
 .00000191,-0.00000014,0.00000071,-0.00000059,0.00000041,0.00000054,-0.
 00000101,0.00000064,-0.00000119,-0.00000127,-0.00000014,-0.00000071,-0
 .00000050,0.00000037,-0.00000031,-0.00000073,0.00000012,0.00000052,-0.
 00000089,0.00000016,0.,0.00000023,-0.00000097,0.00000033,-0.00000066,0
 .00000020,-0.00000039,-0.00000150,0.00000037,-0.00000137,0.00000007,0.
 00000071,0.00000072,-0.00000004,-0.00000069,0.00000104,-0.00000070,0.0
 0000037,0.00000077,-0.00000074,0.00000010,0.00000115,-0.00000079,-0.00
 000006,0.00000098,-0.00000113,0.00000006,0.00000066,-0.00000042,-0.000
 00038,-0.00000125,-0.00000079,-0.00000009,-0.00000146,-0.00000077,-0.0
 0000021,-0.00000191,-0.00000006,-0.00000032,-0.00000184,-0.00000045,-0
 .00000053,-0.00000134,0.00000029,-0.00000007,-0.00000053,-0.00000035,-
 0.00000031,-0.00000118,-0.00000077,-0.00000003,-0.00000080,0.00000019,
 0.00000084,0.00000123,0.00000021,0.00000050,-0.00000121,-0.00000001,-0
 .00000026,0.00000084,0.00000046,-0.00000013,0.00000116,-0.00000037,-0.
 00000064,0.00000091,0.00000156,-0.00000065,0.00000050,0.00000017,0.000
 00150,0.00000002,0.00000100,0.00000044,0.00000076,0.00000111,-0.000000
 29,0.00000027,0.00000105,0.00000070,-0.00000035,0.00000023,-0.00000009
 ,0.00000121,0.00000071,0.00000020,-0.00000039,0.00000058,-0.00000023,-
 0.00000034,0.00000121,0.00000039,0.00000063,0.00000175,-0.00000165,-0.
 00000016,0.00000025,0.00000140,0.00000227,0.00000106,0.00000073,0.0000
 0029,-0.00000007,0.00000052,0.00000080,0.00000123,0.00000015,-0.000000
 03,0.00000199,-0.00000039,0.00000029,0.00000080,0.00000021,0.00000054,
 0.00000140,0.,0.00000024,0.00000185,-0.00000027,-0.00000092,0.00000124
 ,-0.00000089,-0.00000318,-0.00000233,-0.00000068,-0.00000097,0.0000002
 1,-0.00000020,-0.00000142,0.00000106,-0.00000017,-0.00000111,-0.000000
 37,0.00000018,0.00000072,-0.00000027,-0.00000016,-0.00000037,0.0000005
 3,0.00000010,-0.00000026,0.00000040,0.00000066,-0.00000017,-0.00000061
 ,-0.00000032,-0.00000062,0.00000070,-0.00000001,-0.00000113,0.00000072
 ,0.00000033,-0.00000084,-0.00000012,-0.00000030,-0.00000012,0.00000049
 ,0.,0.00000115,0.00000039,0.00000041,0.00000098,-0.00000038,0.00000014
 ,0.00000087,0.00000063,0.00000037,0.00000045,0.,-0.00000017,0.00000016
 ,0.00000144,0.00000008,0.00000013,0.00000146,0.00000002,0.00000056,0.0
 0000082,0.00000012,0.00000096,0.00000136,0.00000002,0.00000031,0.00000
 177,-0.00000014,0.00000101,0.00000237,0.00000034,0.00000088,0.00000252
 ,0.00000013,0.00000064,0.00000275,-0.00000066,0.00000011,0.00000085,-0
 .00000017,-0.00000042,0.00000106,-0.00000011,-0.00000006,0.00000187,0.
 00000076,0.00000017,0.00000209,0.00000045,-0.00000012,-0.00000155,-0.0
 0000016,-0.00000071,-0.00000238,0.,-0.00000003,-0.00000211,-0.00000045
 ,-0.00000061,-0.00000232,-0.00000033,0.00000036,-0.00000180,-0.0000002
 3,0.00000010,-0.00000114,0.00000076,-0.00000008,-0.00000121,-0.0000006
 6,-0.00000017,-0.00000198,-0.00000014,-0.00000035,-0.00000157,-0.00000
 039,-0.00000035,-0.00000225,0.,0.00000054,-0.00000243,-0.00000003,0.00
 000097,-0.00000198,0.00000028,0.00000166,-0.00000152,-0.00000019,0.000
 00083,-0.00000151,0.00000040,0.00000012,-0.00000072,0.00000014,0.00000
 026,-0.00000123,-0.00000028,0.00000018,-0.00000051,-0.00000024,0.00000
 126,-0.00000102,0.00000011,-0.00000059,0.00000140,-0.00000020,-0.00000
 107,0.00000121,-0.00000017,-0.00000003,0.00000127,-0.00000001,-0.00000
 091,0.00000097\\\@


 HICKORY, DICKORY, DOCK
 TWO MICE RAN UP THE CLOCK
 THE CLOCK STRUCK ONE...
 THE OTHER ESCAPED WITH MINOR INJURIES.
 Job cpu time:       4 days 19 hours 54 minutes  9.1 seconds.
 Elapsed time:       0 days  3 hours 47 minutes  9.3 seconds.
 File lengths (MBytes):  RWF=   9771 Int=      0 D2E=      0 Chk=     86 Scr=      1
 Normal termination of Gaussian 16 at Sat May 25 07:29:30 2019.
