 Entering Gaussian System, Link 0=g16
 Input=clay_new-glu_gluC6-EAUR-Na2_1Me2O-bisCF3-ts-b3lyp_d3bj-631gd-pcm_thf.gjf
 Output=clay_new-glu_gluC6-EAUR-Na2_1Me2O-bisCF3-ts-b3lyp_d3bj-631gd-pcm_thf.out
 Initial command:
 /home/ekwan/sw/g16/l1.exe "/scratch/users/ekwan/clay_new-glu_gluC6-EAUR-Na2_1Me2O-bisCF3-ts-b3lyp_d3bj-631gd-pcm_thf/Gau-17705.inp" -scrdir="/scratch/users/ekwan/clay_new-glu_gluC6-EAUR-Na2_1Me2O-bisCF3-ts-b3lyp_d3bj-631gd-pcm_thf/"
 Entering Link 1 = /home/ekwan/sw/g16/l1.exe PID=     17706.
  
 Copyright (c) 1988,1990,1992,1993,1995,1998,2003,2009,2016,
            Gaussian, Inc.  All Rights Reserved.
  
 This is part of the Gaussian(R) 16 program.  It is based on
 the Gaussian(R) 09 system (copyright 2009, Gaussian, Inc.),
 the Gaussian(R) 03 system (copyright 2003, Gaussian, Inc.),
 the Gaussian(R) 98 system (copyright 1998, Gaussian, Inc.),
 the Gaussian(R) 94 system (copyright 1995, Gaussian, Inc.),
 the Gaussian 92(TM) system (copyright 1992, Gaussian, Inc.),
 the Gaussian 90(TM) system (copyright 1990, Gaussian, Inc.),
 the Gaussian 88(TM) system (copyright 1988, Gaussian, Inc.),
 the Gaussian 86(TM) system (copyright 1986, Carnegie Mellon
 University), and the Gaussian 82(TM) system (copyright 1983,
 Carnegie Mellon University). Gaussian is a federally registered
 trademark of Gaussian, Inc.
  
 This software contains proprietary and confidential information,
 including trade secrets, belonging to Gaussian, Inc.
  
 This software is provided under written license and may be
 used, copied, transmitted, or stored only in accord with that
 written license.
  
 The following legend is applicable only to US Government
 contracts under FAR:
  
                    RESTRICTED RIGHTS LEGEND
  
 Use, reproduction and disclosure by the US Government is
 subject to restrictions as set forth in subparagraphs (a)
 and (c) of the Commercial Computer Software - Restricted
 Rights clause in FAR 52.227-19.
  
 Gaussian, Inc.
 340 Quinnipiac St., Bldg. 40, Wallingford CT 06492
  
  
 ---------------------------------------------------------------
 Warning -- This program may not be used in any manner that
 competes with the business of Gaussian, Inc. or will provide
 assistance to any competitor of Gaussian, Inc.  The licensee
 of this program is prohibited from giving any competitor of
 Gaussian, Inc. access to this program.  By using this program,
 the user acknowledges that Gaussian, Inc. is engaged in the
 business of creating and licensing software in the field of
 computational chemistry and represents and warrants to the
 licensee that it is not a competitor of Gaussian, Inc. and that
 it will not use this program in any manner prohibited above.
 ---------------------------------------------------------------
  

 Cite this work as:
 Gaussian 16, Revision A.03,
 M. J. Frisch, G. W. Trucks, H. B. Schlegel, G. E. Scuseria, 
 M. A. Robb, J. R. Cheeseman, G. Scalmani, V. Barone, 
 G. A. Petersson, H. Nakatsuji, X. Li, M. Caricato, A. V. Marenich, 
 J. Bloino, B. G. Janesko, R. Gomperts, B. Mennucci, H. P. Hratchian, 
 J. V. Ortiz, A. F. Izmaylov, J. L. Sonnenberg, D. Williams-Young, 
 F. Ding, F. Lipparini, F. Egidi, J. Goings, B. Peng, A. Petrone, 
 T. Henderson, D. Ranasinghe, V. G. Zakrzewski, J. Gao, N. Rega, 
 G. Zheng, W. Liang, M. Hada, M. Ehara, K. Toyota, R. Fukuda, 
 J. Hasegawa, M. Ishida, T. Nakajima, Y. Honda, O. Kitao, H. Nakai, 
 T. Vreven, K. Throssell, J. A. Montgomery, Jr., J. E. Peralta, 
 F. Ogliaro, M. J. Bearpark, J. J. Heyd, E. N. Brothers, K. N. Kudin, 
 V. N. Staroverov, T. A. Keith, R. Kobayashi, J. Normand, 
 K. Raghavachari, A. P. Rendell, J. C. Burant, S. S. Iyengar, 
 J. Tomasi, M. Cossi, J. M. Millam, M. Klene, C. Adamo, R. Cammi, 
 J. W. Ochterski, R. L. Martin, K. Morokuma, O. Farkas, 
 J. B. Foresman, and D. J. Fox, Gaussian, Inc., Wallingford CT, 2016.
 
 ******************************************
 Gaussian 16:  AS64L-G16RevA.03 25-Dec-2016
                28-May-2019 
 ******************************************
 %mem=48GB
 %nprocshared=32
 Will use up to   32 processors via shared memory.
 ----------------------------------------------------------------------
 #p opt=(ts,noeigentest,calcfc,maxstep=5,modredundant,recalc=30) freq=n
 oraman b3lyp 6-31g* pop=none scrf=(solvent=tetrahydrofuran,pcm) empiri
 caldispersion=gd3bj
 ----------------------------------------------------------------------
 1/5=1,8=5,10=4,11=1,18=120,26=3,38=1,71=30/1,3;
 2/9=110,12=2,17=6,18=5,40=1/2;
 3/5=1,6=6,7=1,11=2,25=1,30=1,70=2201,71=2,72=20,74=-5,124=41,140=1/1,2,3;
 4//1;
 5/5=2,38=5,53=20/2;
 8/6=4,10=90,11=11/1;
 11/6=1,8=1,9=11,15=111,16=1/1,2,10;
 10/6=1,13=1/2;
 7/10=1,18=20,25=1/1,2,3,16;
 1/5=1,8=5,10=4,11=1,18=20,26=3,71=30/3(2);
 2/9=110/2;
 99//99;
 2/9=110/2;
 3/5=1,6=6,7=1,11=2,25=1,30=1,70=2205,71=1,72=20,74=-5,124=41/1,2,3;
 4/5=5,16=3,69=1/1;
 5/5=2,38=5,53=20/2;
 7//1,2,3,16;
 1/5=1,8=5,11=1,18=20,26=3,71=30/3(-5);
 2/9=110/2;
 99/9=1/99;
 Leave Link    1 at Tue May 28 17:50:15 2019, MaxMem=  6442450944 cpu:               5.9 elap:               0.2
 (Enter /home/ekwan/sw/g16/l101.exe)
 -----
 title
 -----
 Symbolic Z-matrix:
 Charge =  0 Multiplicity = 1
 C                     4.65394  -0.2993   -1.39547 
 C                     5.35354  -0.08753  -0.04624 
 C                     5.33206   1.38349   0.40187 
 C                     3.44918   1.88269  -0.99439 
 C                     3.31106   0.42615  -1.44727 
 H                     5.61023   1.47937   1.46047 
 H                     4.79039  -0.6441    0.71611 
 H                     5.29754   0.08844  -2.19623 
 H                     4.14475   2.40367  -1.66356 
 H                     2.62177  -0.09439  -0.77006 
 O                     4.00268   1.88117   0.34812 
 O                     6.2217    2.10536  -0.39738 
 O                     6.66217  -0.61786  -0.15127 
 O                     4.39061  -1.68297  -1.60238 
 O                     2.80223   0.3677   -2.77128 
 C                     2.11995   2.64462  -0.93306 
 H                     1.77931   2.72632  -1.988 
 H                     2.38042   3.68406  -0.62728 
 O                     1.20018   2.05291  -0.10693 
 C                     7.33245  -0.75893   1.09036 
 H                     7.61066   0.21232   1.521 
 H                     6.71515  -1.3066    1.81829 
 H                     8.24348  -1.32916   0.895 
 C                     5.37635  -2.37934  -2.3513 
 H                     5.51114  -1.92258  -3.34229 
 H                     6.33983  -2.39859  -1.8318 
 H                     5.00662  -3.40014  -2.47937 
 C                     1.43366  -0.03304  -2.81929 
 H                     1.32274  -1.08998  -2.54885 
 H                     0.82487   0.56883  -2.13604 
 H                     1.09351   0.10904  -3.84835 
 C                    -3.45267   2.98799  -0.23877 
 C                    -1.95337   3.1809    0.03093 
 C                    -1.30078   1.84566   0.22721 
 C                    -2.7685    0.79387  -1.3939 
 C                    -3.58725   2.09376  -1.47537 
 H                    -0.40349   1.74748   0.80494 
 H                    -1.50288   3.59225  -0.89124 
 H                    -3.91895   2.50128   0.6254 
 H                    -3.39735   0.01927  -0.95222 
 H                    -3.24539   2.68698  -2.33752 
 O                    -1.59236   0.83956  -0.51409 
 O                    -2.31268   1.36373   2.11189 
 O                    -1.72317   4.04278   1.10909 
 O                    -4.08117   4.21705  -0.53581 
 O                    -4.91436   1.65161  -1.6898 
 C                    -2.2451    0.37532  -2.76368 
 H                    -1.48746   1.10015  -3.0811 
 H                    -3.0831    0.41701  -3.47278 
 O                    -1.63361  -0.89553  -2.75138 
 S                    -1.51058   0.28435   2.80245 
 O                    -2.00216  -0.01291   4.15884 
 O                    -0.041     0.53027   2.70725 
 C                    -1.83326  -1.1593    1.77891 
 C                    -0.79674  -1.86059   1.17525 
 C                    -3.16636  -1.48179   1.52559 
 C                    -1.10932  -2.90284   0.29785 
 H                     0.23511  -1.58953   1.36862 
 C                    -3.45814  -2.5288    0.65638 
 H                    -3.96415  -0.9069    1.98155 
 C                    -2.4325   -3.24911   0.0419 
 H                    -2.66627  -4.05434  -0.6425 
 C                    -0.43626   4.67295   1.05949 
 H                     0.36048   3.92901   0.94083 
 H                    -0.3938    5.38484   0.22246 
 H                    -0.32457   5.21372   2.00107 
 C                    -4.6759    4.85788   0.59155 
 H                    -5.44929   4.21958   1.04036 
 H                    -3.92602   5.10605   1.34778 
 H                    -5.13987   5.77237   0.21513 
 C                    -5.6936    2.48468  -2.54614 
 H                    -5.84699   3.47496  -2.10938 
 H                    -5.21266   2.59391  -3.52845 
 H                    -6.65334   1.97879  -2.67186 
 C                    -2.51469  -1.95519  -3.10191 
 H                    -1.94665  -2.87986  -2.99044 
 H                    -3.3943   -1.99234  -2.44777 
 H                    -2.85369  -1.85698  -4.14283 
 C                     6.38948   3.45695   0.02129 
 H                     7.17979   3.88172  -0.60035 
 H                     5.46816   4.03524  -0.11045 
 H                     6.69117   3.50254   1.07731 
 Na                    1.96346   0.80068   1.53595 
 O                     2.39495  -1.47824   2.13901 
 C                     2.06898  -1.77374   3.49752 
 H                     2.98172  -1.90179   4.09481 
 H                     1.47857  -0.94048   3.87738 
 H                     1.47258  -2.69422   3.55551 
 C                     3.1089   -2.55625   1.53227 
 H                     2.51178  -3.47455   1.57078 
 H                     3.30139  -2.29396   0.49255 
 H                     4.06212  -2.72501   2.05189 
 C                     0.0057   -3.65681  -0.3705 
 F                     1.00959  -2.83076  -0.74439 
 F                    -0.41229  -4.31093  -1.47626 
 F                     0.55159  -4.58428   0.45316 
 C                    -4.88638  -2.79238   0.27381 
 F                    -5.74199  -2.52436   1.2787 
 F                    -5.08566  -4.06793  -0.11318 
 F                    -5.25377  -2.00169  -0.77397 
 
 Add virtual bond connecting atoms H37        and O19        Dist= 3.53D+00.
 Add virtual bond connecting atoms O43        and C34        Dist= 4.14D+00.
 Add virtual bond connecting atoms O43        and H37        Dist= 4.43D+00.
 Add virtual bond connecting atoms O53        and H37        Dist= 4.32D+00.
 Add virtual bond connecting atoms O53        and Na83       Dist= 4.42D+00.
 Add virtual bond connecting atoms O84        and H58        Dist= 4.34D+00.
 Add virtual bond connecting atoms H91        and H7         Dist= 4.22D+00.
 The following ModRedundant input section has been read:
 
 ITRead=  0  0  0  0  0  0  0  0  0  0  0  0  0  0  0  0  0  0  0  0
 ITRead=  0  0  0  0  0  0  0  0  0  0  0  0  0  0  0  0  0  0  0  0
 ITRead=  0  0  0  0  0  0  0  0  0  0  0  0  0  0  0  0  0  0  0  0
 ITRead=  0  0  0  0  0  0  0  0  0  0  0  0  0  0  0  0  0  0  0  0
 ITRead=  0  0  0  0  0  0  0  0  0  0  0  0  0  0  0  0  0  0  0  0
 MicOpt= -1 -1 -1 -1 -1 -1 -1 -1 -1 -1 -1 -1 -1 -1 -1 -1 -1 -1 -1 -1
 MicOpt= -1 -1 -1 -1 -1 -1 -1 -1 -1 -1 -1 -1 -1 -1 -1 -1 -1 -1 -1 -1
 MicOpt= -1 -1 -1 -1 -1 -1 -1 -1 -1 -1 -1 -1 -1 -1 -1 -1 -1 -1 -1 -1
 MicOpt= -1 -1 -1 -1 -1 -1 -1 -1 -1 -1 -1 -1 -1 -1 -1 -1 -1 -1 -1 -1
 MicOpt= -1 -1 -1 -1 -1 -1 -1 -1 -1 -1 -1 -1 -1 -1 -1 -1 -1 -1 -1 -1
 NAtoms=    100 NQM=      100 NQMF=       0 NMMI=      0 NMMIF=      0
                NMic=       0 NMicF=      0.
                    Isotopes and Nuclear Properties:
 (Nuclear quadrupole moments (NQMom) in fm**2, nuclear magnetic moments (NMagM)
  in nuclear magnetons)

  Atom         1           2           3           4           5           6           7           8           9          10
 IAtWgt=          12          12          12          12          12           1           1           1           1           1
 AtmWgt=  12.0000000  12.0000000  12.0000000  12.0000000  12.0000000   1.0078250   1.0078250   1.0078250   1.0078250   1.0078250
 NucSpn=           0           0           0           0           0           1           1           1           1           1
 AtZEff=   0.0000000   0.0000000   0.0000000   0.0000000   0.0000000   0.0000000   0.0000000   0.0000000   0.0000000   0.0000000
 NQMom=    0.0000000   0.0000000   0.0000000   0.0000000   0.0000000   0.0000000   0.0000000   0.0000000   0.0000000   0.0000000
 NMagM=    0.0000000   0.0000000   0.0000000   0.0000000   0.0000000   2.7928460   2.7928460   2.7928460   2.7928460   2.7928460
 AtZNuc=   6.0000000   6.0000000   6.0000000   6.0000000   6.0000000   1.0000000   1.0000000   1.0000000   1.0000000   1.0000000

  Atom        11          12          13          14          15          16          17          18          19          20
 IAtWgt=          16          16          16          16          16          12           1           1          16          12
 AtmWgt=  15.9949146  15.9949146  15.9949146  15.9949146  15.9949146  12.0000000   1.0078250   1.0078250  15.9949146  12.0000000
 NucSpn=           0           0           0           0           0           0           1           1           0           0
 AtZEff=   0.0000000   0.0000000   0.0000000   0.0000000   0.0000000   0.0000000   0.0000000   0.0000000   0.0000000   0.0000000
 NQMom=    0.0000000   0.0000000   0.0000000   0.0000000   0.0000000   0.0000000   0.0000000   0.0000000   0.0000000   0.0000000
 NMagM=    0.0000000   0.0000000   0.0000000   0.0000000   0.0000000   0.0000000   2.7928460   2.7928460   0.0000000   0.0000000
 AtZNuc=   8.0000000   8.0000000   8.0000000   8.0000000   8.0000000   6.0000000   1.0000000   1.0000000   8.0000000   6.0000000

  Atom        21          22          23          24          25          26          27          28          29          30
 IAtWgt=           1           1           1          12           1           1           1          12           1           1
 AtmWgt=   1.0078250   1.0078250   1.0078250  12.0000000   1.0078250   1.0078250   1.0078250  12.0000000   1.0078250   1.0078250
 NucSpn=           1           1           1           0           1           1           1           0           1           1
 AtZEff=   0.0000000   0.0000000   0.0000000   0.0000000   0.0000000   0.0000000   0.0000000   0.0000000   0.0000000   0.0000000
 NQMom=    0.0000000   0.0000000   0.0000000   0.0000000   0.0000000   0.0000000   0.0000000   0.0000000   0.0000000   0.0000000
 NMagM=    2.7928460   2.7928460   2.7928460   0.0000000   2.7928460   2.7928460   2.7928460   0.0000000   2.7928460   2.7928460
 AtZNuc=   1.0000000   1.0000000   1.0000000   6.0000000   1.0000000   1.0000000   1.0000000   6.0000000   1.0000000   1.0000000

  Atom        31          32          33          34          35          36          37          38          39          40
 IAtWgt=           1          12          12          12          12          12           1           1           1           1
 AtmWgt=   1.0078250  12.0000000  12.0000000  12.0000000  12.0000000  12.0000000   1.0078250   1.0078250   1.0078250   1.0078250
 NucSpn=           1           0           0           0           0           0           1           1           1           1
 AtZEff=   0.0000000   0.0000000   0.0000000   0.0000000   0.0000000   0.0000000   0.0000000   0.0000000   0.0000000   0.0000000
 NQMom=    0.0000000   0.0000000   0.0000000   0.0000000   0.0000000   0.0000000   0.0000000   0.0000000   0.0000000   0.0000000
 NMagM=    2.7928460   0.0000000   0.0000000   0.0000000   0.0000000   0.0000000   2.7928460   2.7928460   2.7928460   2.7928460
 AtZNuc=   1.0000000   6.0000000   6.0000000   6.0000000   6.0000000   6.0000000   1.0000000   1.0000000   1.0000000   1.0000000

  Atom        41          42          43          44          45          46          47          48          49          50
 IAtWgt=           1          16          16          16          16          16          12           1           1          16
 AtmWgt=   1.0078250  15.9949146  15.9949146  15.9949146  15.9949146  15.9949146  12.0000000   1.0078250   1.0078250  15.9949146
 NucSpn=           1           0           0           0           0           0           0           1           1           0
 AtZEff=   0.0000000   0.0000000   0.0000000   0.0000000   0.0000000   0.0000000   0.0000000   0.0000000   0.0000000   0.0000000
 NQMom=    0.0000000   0.0000000   0.0000000   0.0000000   0.0000000   0.0000000   0.0000000   0.0000000   0.0000000   0.0000000
 NMagM=    2.7928460   0.0000000   0.0000000   0.0000000   0.0000000   0.0000000   0.0000000   2.7928460   2.7928460   0.0000000
 AtZNuc=   1.0000000   8.0000000   8.0000000   8.0000000   8.0000000   8.0000000   6.0000000   1.0000000   1.0000000   8.0000000

  Atom        51          52          53          54          55          56          57          58          59          60
 IAtWgt=          32          16          16          12          12          12          12           1          12           1
 AtmWgt=  31.9720718  15.9949146  15.9949146  12.0000000  12.0000000  12.0000000  12.0000000   1.0078250  12.0000000   1.0078250
 NucSpn=           0           0           0           0           0           0           0           1           0           1
 AtZEff=   0.0000000   0.0000000   0.0000000   0.0000000   0.0000000   0.0000000   0.0000000   0.0000000   0.0000000   0.0000000
 NQMom=    0.0000000   0.0000000   0.0000000   0.0000000   0.0000000   0.0000000   0.0000000   0.0000000   0.0000000   0.0000000
 NMagM=    0.0000000   0.0000000   0.0000000   0.0000000   0.0000000   0.0000000   0.0000000   2.7928460   0.0000000   2.7928460
 AtZNuc=  16.0000000   8.0000000   8.0000000   6.0000000   6.0000000   6.0000000   6.0000000   1.0000000   6.0000000   1.0000000

  Atom        61          62          63          64          65          66          67          68          69          70
 IAtWgt=          12           1          12           1           1           1          12           1           1           1
 AtmWgt=  12.0000000   1.0078250  12.0000000   1.0078250   1.0078250   1.0078250  12.0000000   1.0078250   1.0078250   1.0078250
 NucSpn=           0           1           0           1           1           1           0           1           1           1
 AtZEff=   0.0000000   0.0000000   0.0000000   0.0000000   0.0000000   0.0000000   0.0000000   0.0000000   0.0000000   0.0000000
 NQMom=    0.0000000   0.0000000   0.0000000   0.0000000   0.0000000   0.0000000   0.0000000   0.0000000   0.0000000   0.0000000
 NMagM=    0.0000000   2.7928460   0.0000000   2.7928460   2.7928460   2.7928460   0.0000000   2.7928460   2.7928460   2.7928460
 AtZNuc=   6.0000000   1.0000000   6.0000000   1.0000000   1.0000000   1.0000000   6.0000000   1.0000000   1.0000000   1.0000000

  Atom        71          72          73          74          75          76          77          78          79          80
 IAtWgt=          12           1           1           1          12           1           1           1          12           1
 AtmWgt=  12.0000000   1.0078250   1.0078250   1.0078250  12.0000000   1.0078250   1.0078250   1.0078250  12.0000000   1.0078250
 NucSpn=           0           1           1           1           0           1           1           1           0           1
 AtZEff=   0.0000000   0.0000000   0.0000000   0.0000000   0.0000000   0.0000000   0.0000000   0.0000000   0.0000000   0.0000000
 NQMom=    0.0000000   0.0000000   0.0000000   0.0000000   0.0000000   0.0000000   0.0000000   0.0000000   0.0000000   0.0000000
 NMagM=    0.0000000   2.7928460   2.7928460   2.7928460   0.0000000   2.7928460   2.7928460   2.7928460   0.0000000   2.7928460
 AtZNuc=   6.0000000   1.0000000   1.0000000   1.0000000   6.0000000   1.0000000   1.0000000   1.0000000   6.0000000   1.0000000

  Atom        81          82          83          84          85          86          87          88          89          90
 IAtWgt=           1           1          23          16          12           1           1           1          12           1
 AtmWgt=   1.0078250   1.0078250  22.9897697  15.9949146  12.0000000   1.0078250   1.0078250   1.0078250  12.0000000   1.0078250
 NucSpn=           1           1           3           0           0           1           1           1           0           1
 AtZEff=   0.0000000   0.0000000   0.0000000   0.0000000   0.0000000   0.0000000   0.0000000   0.0000000   0.0000000   0.0000000
 NQMom=    0.0000000   0.0000000  10.4000000   0.0000000   0.0000000   0.0000000   0.0000000   0.0000000   0.0000000   0.0000000
 NMagM=    2.7928460   2.7928460   2.2175200   0.0000000   0.0000000   2.7928460   2.7928460   2.7928460   0.0000000   2.7928460
 AtZNuc=   1.0000000   1.0000000  11.0000000   8.0000000   6.0000000   1.0000000   1.0000000   1.0000000   6.0000000   1.0000000

  Atom        91          92          93          94          95          96          97          98          99         100
 IAtWgt=           1           1          12          19          19          19          12          19          19          19
 AtmWgt=   1.0078250   1.0078250  12.0000000  18.9984033  18.9984033  18.9984033  12.0000000  18.9984033  18.9984033  18.9984033
 NucSpn=           1           1           0           1           1           1           0           1           1           1
 AtZEff=   0.0000000   0.0000000   0.0000000   0.0000000   0.0000000   0.0000000   0.0000000   0.0000000   0.0000000   0.0000000
 NQMom=    0.0000000   0.0000000   0.0000000   0.0000000   0.0000000   0.0000000   0.0000000   0.0000000   0.0000000   0.0000000
 NMagM=    2.7928460   2.7928460   0.0000000   2.6288670   2.6288670   2.6288670   0.0000000   2.6288670   2.6288670   2.6288670
 AtZNuc=   1.0000000   1.0000000   6.0000000   9.0000000   9.0000000   9.0000000   6.0000000   9.0000000   9.0000000   9.0000000
 Leave Link  101 at Tue May 28 17:50:15 2019, MaxMem=  6442450944 cpu:              16.5 elap:               0.7
 (Enter /home/ekwan/sw/g16/l103.exe)

 GradGradGradGradGradGradGradGradGradGradGradGradGradGradGradGradGradGrad
 Berny optimization.
 Initialization pass.
                           ----------------------------
                           !    Initial Parameters    !
                           ! (Angstroms and Degrees)  !
 --------------------------                            --------------------------
 ! Name  Definition              Value          Derivative Info.                !
 --------------------------------------------------------------------------------
 ! R1    R(1,2)                  1.5345         calculate D2E/DX2 analytically  !
 ! R2    R(1,5)                  1.5272         calculate D2E/DX2 analytically  !
 ! R3    R(1,8)                  1.0981         calculate D2E/DX2 analytically  !
 ! R4    R(1,14)                 1.4236         calculate D2E/DX2 analytically  !
 ! R5    R(2,3)                  1.5379         calculate D2E/DX2 analytically  !
 ! R6    R(2,7)                  1.0991         calculate D2E/DX2 analytically  !
 ! R7    R(2,13)                 1.4159         calculate D2E/DX2 analytically  !
 ! R8    R(3,6)                  1.0987         calculate D2E/DX2 analytically  !
 ! R9    R(3,11)                 1.4205         calculate D2E/DX2 analytically  !
 ! R10   R(3,12)                 1.3969         calculate D2E/DX2 analytically  !
 ! R11   R(4,5)                  1.5316         calculate D2E/DX2 analytically  !
 ! R12   R(4,9)                  1.0968         calculate D2E/DX2 analytically  !
 ! R13   R(4,11)                 1.4521         calculate D2E/DX2 analytically  !
 ! R14   R(4,16)                 1.5333         calculate D2E/DX2 analytically  !
 ! R15   R(5,10)                 1.0976         calculate D2E/DX2 analytically  !
 ! R16   R(5,15)                 1.4196         calculate D2E/DX2 analytically  !
 ! R17   R(7,91)                 2.2336         calculate D2E/DX2 analytically  !
 ! R18   R(12,79)                1.4249         calculate D2E/DX2 analytically  !
 ! R19   R(13,20)                1.418          calculate D2E/DX2 analytically  !
 ! R20   R(14,24)                1.4204         calculate D2E/DX2 analytically  !
 ! R21   R(15,28)                1.4268         calculate D2E/DX2 analytically  !
 ! R22   R(16,17)                1.1116         calculate D2E/DX2 analytically  !
 ! R23   R(16,18)                1.1144         calculate D2E/DX2 analytically  !
 ! R24   R(16,19)                1.3706         calculate D2E/DX2 analytically  !
 ! R25   R(19,37)                1.8699         calculate D2E/DX2 analytically  !
 ! R26   R(19,83)                2.2022         calculate D2E/DX2 analytically  !
 ! R27   R(20,21)                1.0983         calculate D2E/DX2 analytically  !
 ! R28   R(20,22)                1.1004         calculate D2E/DX2 analytically  !
 ! R29   R(20,23)                1.0924         calculate D2E/DX2 analytically  !
 ! R30   R(24,25)                1.0995         calculate D2E/DX2 analytically  !
 ! R31   R(24,26)                1.0948         calculate D2E/DX2 analytically  !
 ! R32   R(24,27)                1.0932         calculate D2E/DX2 analytically  !
 ! R33   R(28,29)                1.0966         calculate D2E/DX2 analytically  !
 ! R34   R(28,30)                1.0953         calculate D2E/DX2 analytically  !
 ! R35   R(28,31)                1.0931         calculate D2E/DX2 analytically  !
 ! R36   R(32,33)                1.5355         calculate D2E/DX2 analytically  !
 ! R37   R(32,36)                1.532          calculate D2E/DX2 analytically  !
 ! R38   R(32,39)                1.0959         calculate D2E/DX2 analytically  !
 ! R39   R(32,45)                1.412          calculate D2E/DX2 analytically  !
 ! R40   R(33,34)                1.4991         calculate D2E/DX2 analytically  !
 ! R41   R(33,38)                1.1057         calculate D2E/DX2 analytically  !
 ! R42   R(33,44)                1.3994         calculate D2E/DX2 analytically  !
 ! R43   R(34,37)                1.0717         calculate D2E/DX2 analytically  !
 ! R44   R(34,42)                1.2833         calculate D2E/DX2 analytically  !
 ! R45   R(34,43)                2.1928         calculate D2E/DX2 analytically  !
 ! R46   R(35,36)                1.5384         calculate D2E/DX2 analytically  !
 ! R47   R(35,40)                1.0911         calculate D2E/DX2 analytically  !
 ! R48   R(35,42)                1.4695         calculate D2E/DX2 analytically  !
 ! R49   R(35,47)                1.5249         calculate D2E/DX2 analytically  !
 ! R50   R(36,41)                1.1009         calculate D2E/DX2 analytically  !
 ! R51   R(36,46)                1.4152         calculate D2E/DX2 analytically  !
 ! R52   R(37,43)                2.3453         calculate D2E/DX2 analytically  !
 ! R53   R(37,53)                2.2873         calculate D2E/DX2 analytically  !
 ! R54   R(43,51)                1.5117         calculate D2E/DX2 analytically  !
 ! R55   R(44,63)                1.4338         calculate D2E/DX2 analytically  !
 ! R56   R(45,67)                1.4266         calculate D2E/DX2 analytically  !
 ! R57   R(46,71)                1.4264         calculate D2E/DX2 analytically  !
 ! R58   R(47,48)                1.0955         calculate D2E/DX2 analytically  !
 ! R59   R(47,49)                1.0985         calculate D2E/DX2 analytically  !
 ! R60   R(47,50)                1.4104         calculate D2E/DX2 analytically  !
 ! R61   R(50,75)                1.422          calculate D2E/DX2 analytically  !
 ! R62   R(51,52)                1.473          calculate D2E/DX2 analytically  !
 ! R63   R(51,53)                1.4931         calculate D2E/DX2 analytically  !
 ! R64   R(51,54)                1.7989         calculate D2E/DX2 analytically  !
 ! R65   R(53,83)                2.3373         calculate D2E/DX2 analytically  !
 ! R66   R(54,55)                1.3895         calculate D2E/DX2 analytically  !
 ! R67   R(54,56)                1.3948         calculate D2E/DX2 analytically  !
 ! R68   R(55,57)                1.3978         calculate D2E/DX2 analytically  !
 ! R69   R(55,58)                1.0842         calculate D2E/DX2 analytically  !
 ! R70   R(56,59)                1.3917         calculate D2E/DX2 analytically  !
 ! R71   R(56,60)                1.0839         calculate D2E/DX2 analytically  !
 ! R72   R(57,61)                1.3915         calculate D2E/DX2 analytically  !
 ! R73   R(57,93)                1.5028         calculate D2E/DX2 analytically  !
 ! R74   R(58,84)                2.2958         calculate D2E/DX2 analytically  !
 ! R75   R(59,61)                1.3958         calculate D2E/DX2 analytically  !
 ! R76   R(59,97)                1.5019         calculate D2E/DX2 analytically  !
 ! R77   R(61,62)                1.0823         calculate D2E/DX2 analytically  !
 ! R78   R(63,64)                1.0965         calculate D2E/DX2 analytically  !
 ! R79   R(63,65)                1.0996         calculate D2E/DX2 analytically  !
 ! R80   R(63,66)                1.0915         calculate D2E/DX2 analytically  !
 ! R81   R(67,68)                1.0986         calculate D2E/DX2 analytically  !
 ! R82   R(67,69)                1.0935         calculate D2E/DX2 analytically  !
 ! R83   R(67,70)                1.0924         calculate D2E/DX2 analytically  !
 ! R84   R(71,72)                1.0931         calculate D2E/DX2 analytically  !
 ! R85   R(71,73)                1.0992         calculate D2E/DX2 analytically  !
 ! R86   R(71,74)                1.0922         calculate D2E/DX2 analytically  !
 ! R87   R(75,76)                1.0909         calculate D2E/DX2 analytically  !
 ! R88   R(75,77)                1.0968         calculate D2E/DX2 analytically  !
 ! R89   R(75,78)                1.0991         calculate D2E/DX2 analytically  !
 ! R90   R(79,80)                1.0915         calculate D2E/DX2 analytically  !
 ! R91   R(79,81)                1.0957         calculate D2E/DX2 analytically  !
 ! R92   R(79,82)                1.0992         calculate D2E/DX2 analytically  !
 ! R93   R(84,85)                1.428          calculate D2E/DX2 analytically  !
 ! R94   R(84,89)                1.4283         calculate D2E/DX2 analytically  !
 ! R95   R(85,86)                1.0983         calculate D2E/DX2 analytically  !
 ! R96   R(85,87)                1.0896         calculate D2E/DX2 analytically  !
 ! R97   R(85,88)                1.0983         calculate D2E/DX2 analytically  !
 ! R98   R(89,90)                1.096          calculate D2E/DX2 analytically  !
 ! R99   R(89,91)                1.0894         calculate D2E/DX2 analytically  !
 ! R100  R(89,92)                1.0987         calculate D2E/DX2 analytically  !
 ! R101  R(93,94)                1.3528         calculate D2E/DX2 analytically  !
 ! R102  R(93,95)                1.351          calculate D2E/DX2 analytically  !
 ! R103  R(93,96)                1.3552         calculate D2E/DX2 analytically  !
 ! R104  R(97,98)                1.3467         calculate D2E/DX2 analytically  !
 ! R105  R(97,99)                1.3478         calculate D2E/DX2 analytically  !
 ! R106  R(97,100)               1.3631         calculate D2E/DX2 analytically  !
 ! A1    A(2,1,5)              111.4178         calculate D2E/DX2 analytically  !
 ! A2    A(2,1,8)              108.98           calculate D2E/DX2 analytically  !
 ! A3    A(2,1,14)             110.2585         calculate D2E/DX2 analytically  !
 ! A4    A(5,1,8)              108.8394         calculate D2E/DX2 analytically  !
 ! A5    A(5,1,14)             107.1044         calculate D2E/DX2 analytically  !
 ! A6    A(8,1,14)             110.2194         calculate D2E/DX2 analytically  !
 ! A7    A(1,2,3)              112.447          calculate D2E/DX2 analytically  !
 ! A8    A(1,2,7)              107.8405         calculate D2E/DX2 analytically  !
 ! A9    A(1,2,13)             107.726          calculate D2E/DX2 analytically  !
 ! A10   A(3,2,7)              105.9676         calculate D2E/DX2 analytically  !
 ! A11   A(3,2,13)             113.1279         calculate D2E/DX2 analytically  !
 ! A12   A(7,2,13)             109.5926         calculate D2E/DX2 analytically  !
 ! A13   A(2,3,6)              111.1411         calculate D2E/DX2 analytically  !
 ! A14   A(2,3,11)             109.704          calculate D2E/DX2 analytically  !
 ! A15   A(2,3,12)             108.583          calculate D2E/DX2 analytically  !
 ! A16   A(6,3,11)             104.0524         calculate D2E/DX2 analytically  !
 ! A17   A(6,3,12)             110.1774         calculate D2E/DX2 analytically  !
 ! A18   A(11,3,12)            113.1612         calculate D2E/DX2 analytically  !
 ! A19   A(5,4,9)              109.1782         calculate D2E/DX2 analytically  !
 ! A20   A(5,4,11)             107.8636         calculate D2E/DX2 analytically  !
 ! A21   A(5,4,16)             113.9672         calculate D2E/DX2 analytically  !
 ! A22   A(9,4,11)             108.8336         calculate D2E/DX2 analytically  !
 ! A23   A(9,4,16)             109.7631         calculate D2E/DX2 analytically  !
 ! A24   A(11,4,16)            107.0951         calculate D2E/DX2 analytically  !
 ! A25   A(1,5,4)              111.2491         calculate D2E/DX2 analytically  !
 ! A26   A(1,5,10)             107.8187         calculate D2E/DX2 analytically  !
 ! A27   A(1,5,15)             109.1018         calculate D2E/DX2 analytically  !
 ! A28   A(4,5,10)             108.9787         calculate D2E/DX2 analytically  !
 ! A29   A(4,5,15)             110.3199         calculate D2E/DX2 analytically  !
 ! A30   A(10,5,15)            109.319          calculate D2E/DX2 analytically  !
 ! A31   A(2,7,91)             130.2531         calculate D2E/DX2 analytically  !
 ! A32   A(3,11,4)             113.0822         calculate D2E/DX2 analytically  !
 ! A33   A(3,12,79)            113.3948         calculate D2E/DX2 analytically  !
 ! A34   A(2,13,20)            114.1537         calculate D2E/DX2 analytically  !
 ! A35   A(1,14,24)            115.1366         calculate D2E/DX2 analytically  !
 ! A36   A(5,15,28)            112.7511         calculate D2E/DX2 analytically  !
 ! A37   A(4,16,17)            105.3201         calculate D2E/DX2 analytically  !
 ! A38   A(4,16,18)            105.7744         calculate D2E/DX2 analytically  !
 ! A39   A(4,16,19)            113.0372         calculate D2E/DX2 analytically  !
 ! A40   A(17,16,18)           105.2771         calculate D2E/DX2 analytically  !
 ! A41   A(17,16,19)           113.4604         calculate D2E/DX2 analytically  !
 ! A42   A(18,16,19)           113.2131         calculate D2E/DX2 analytically  !
 ! A43   A(16,19,37)           160.0456         calculate D2E/DX2 analytically  !
 ! A44   A(16,19,83)           117.5513         calculate D2E/DX2 analytically  !
 ! A45   A(37,19,83)            80.8265         calculate D2E/DX2 analytically  !
 ! A46   A(13,20,21)           112.0296         calculate D2E/DX2 analytically  !
 ! A47   A(13,20,22)           111.3198         calculate D2E/DX2 analytically  !
 ! A48   A(13,20,23)           106.8307         calculate D2E/DX2 analytically  !
 ! A49   A(21,20,22)           108.8364         calculate D2E/DX2 analytically  !
 ! A50   A(21,20,23)           108.6928         calculate D2E/DX2 analytically  !
 ! A51   A(22,20,23)           109.0475         calculate D2E/DX2 analytically  !
 ! A52   A(14,24,25)           110.8938         calculate D2E/DX2 analytically  !
 ! A53   A(14,24,26)           111.6653         calculate D2E/DX2 analytically  !
 ! A54   A(14,24,27)           106.5497         calculate D2E/DX2 analytically  !
 ! A55   A(25,24,26)           109.0937         calculate D2E/DX2 analytically  !
 ! A56   A(25,24,27)           108.8916         calculate D2E/DX2 analytically  !
 ! A57   A(26,24,27)           109.6835         calculate D2E/DX2 analytically  !
 ! A58   A(15,28,29)           111.0643         calculate D2E/DX2 analytically  !
 ! A59   A(15,28,30)           110.9654         calculate D2E/DX2 analytically  !
 ! A60   A(15,28,31)           107.0763         calculate D2E/DX2 analytically  !
 ! A61   A(29,28,30)           108.6365         calculate D2E/DX2 analytically  !
 ! A62   A(29,28,31)           109.0239         calculate D2E/DX2 analytically  !
 ! A63   A(30,28,31)           110.0516         calculate D2E/DX2 analytically  !
 ! A64   A(33,32,36)           107.5105         calculate D2E/DX2 analytically  !
 ! A65   A(33,32,39)           109.4338         calculate D2E/DX2 analytically  !
 ! A66   A(33,32,45)           111.2354         calculate D2E/DX2 analytically  !
 ! A67   A(36,32,39)           109.8697         calculate D2E/DX2 analytically  !
 ! A68   A(36,32,45)           107.4073         calculate D2E/DX2 analytically  !
 ! A69   A(39,32,45)           111.2884         calculate D2E/DX2 analytically  !
 ! A70   A(32,33,34)           109.6427         calculate D2E/DX2 analytically  !
 ! A71   A(32,33,38)           107.3412         calculate D2E/DX2 analytically  !
 ! A72   A(32,33,44)           111.9204         calculate D2E/DX2 analytically  !
 ! A73   A(34,33,38)           105.2607         calculate D2E/DX2 analytically  !
 ! A74   A(34,33,44)           112.0923         calculate D2E/DX2 analytically  !
 ! A75   A(38,33,44)           110.2682         calculate D2E/DX2 analytically  !
 ! A76   A(33,34,37)           121.1083         calculate D2E/DX2 analytically  !
 ! A77   A(33,34,42)           121.586          calculate D2E/DX2 analytically  !
 ! A78   A(33,34,43)            96.166          calculate D2E/DX2 analytically  !
 ! A79   A(37,34,42)           115.456          calculate D2E/DX2 analytically  !
 ! A80   A(42,34,43)           102.67           calculate D2E/DX2 analytically  !
 ! A81   A(36,35,40)           108.334          calculate D2E/DX2 analytically  !
 ! A82   A(36,35,42)           115.556          calculate D2E/DX2 analytically  !
 ! A83   A(36,35,47)           111.5314         calculate D2E/DX2 analytically  !
 ! A84   A(40,35,42)           103.9452         calculate D2E/DX2 analytically  !
 ! A85   A(40,35,47)           111.5045         calculate D2E/DX2 analytically  !
 ! A86   A(42,35,47)           105.7609         calculate D2E/DX2 analytically  !
 ! A87   A(32,36,35)           113.8102         calculate D2E/DX2 analytically  !
 ! A88   A(32,36,41)           106.877          calculate D2E/DX2 analytically  !
 ! A89   A(32,36,46)           112.772          calculate D2E/DX2 analytically  !
 ! A90   A(35,36,41)           109.3598         calculate D2E/DX2 analytically  !
 ! A91   A(35,36,46)           104.0705         calculate D2E/DX2 analytically  !
 ! A92   A(41,36,46)           109.9309         calculate D2E/DX2 analytically  !
 ! A93   A(19,37,34)           116.1173         calculate D2E/DX2 analytically  !
 ! A94   A(19,37,53)           110.8904         calculate D2E/DX2 analytically  !
 ! A95   A(34,37,53)           129.0332         calculate D2E/DX2 analytically  !
 ! A96   A(43,37,53)            65.0685         calculate D2E/DX2 analytically  !
 ! A97   A(34,42,35)           123.5099         calculate D2E/DX2 analytically  !
 ! A98   A(34,43,51)           107.7402         calculate D2E/DX2 analytically  !
 ! A99   A(37,43,51)            86.5297         calculate D2E/DX2 analytically  !
 ! A100  A(33,44,63)           113.0607         calculate D2E/DX2 analytically  !
 ! A101  A(32,45,67)           114.2232         calculate D2E/DX2 analytically  !
 ! A102  A(36,46,71)           114.8856         calculate D2E/DX2 analytically  !
 ! A103  A(35,47,48)           108.4235         calculate D2E/DX2 analytically  !
 ! A104  A(35,47,49)           107.9135         calculate D2E/DX2 analytically  !
 ! A105  A(35,47,50)           112.8486         calculate D2E/DX2 analytically  !
 ! A106  A(48,47,49)           108.3862         calculate D2E/DX2 analytically  !
 ! A107  A(48,47,50)           107.3891         calculate D2E/DX2 analytically  !
 ! A108  A(49,47,50)           111.7501         calculate D2E/DX2 analytically  !
 ! A109  A(47,50,75)           113.6213         calculate D2E/DX2 analytically  !
 ! A110  A(43,51,52)           112.8085         calculate D2E/DX2 analytically  !
 ! A111  A(43,51,53)           112.056          calculate D2E/DX2 analytically  !
 ! A112  A(43,51,54)           102.5872         calculate D2E/DX2 analytically  !
 ! A113  A(52,51,53)           114.8615         calculate D2E/DX2 analytically  !
 ! A114  A(52,51,54)           107.5853         calculate D2E/DX2 analytically  !
 ! A115  A(53,51,54)           105.8111         calculate D2E/DX2 analytically  !
 ! A116  A(37,53,51)            89.1231         calculate D2E/DX2 analytically  !
 ! A117  A(37,53,83)            69.9743         calculate D2E/DX2 analytically  !
 ! A118  A(51,53,83)           153.5247         calculate D2E/DX2 analytically  !
 ! A119  A(51,54,55)           121.2284         calculate D2E/DX2 analytically  !
 ! A120  A(51,54,56)           117.4101         calculate D2E/DX2 analytically  !
 ! A121  A(55,54,56)           121.1582         calculate D2E/DX2 analytically  !
 ! A122  A(54,55,57)           118.8313         calculate D2E/DX2 analytically  !
 ! A123  A(54,55,58)           120.4156         calculate D2E/DX2 analytically  !
 ! A124  A(57,55,58)           120.7428         calculate D2E/DX2 analytically  !
 ! A125  A(54,56,59)           119.1943         calculate D2E/DX2 analytically  !
 ! A126  A(54,56,60)           120.2954         calculate D2E/DX2 analytically  !
 ! A127  A(59,56,60)           120.4926         calculate D2E/DX2 analytically  !
 ! A128  A(55,57,61)           120.908          calculate D2E/DX2 analytically  !
 ! A129  A(55,57,93)           119.1655         calculate D2E/DX2 analytically  !
 ! A130  A(61,57,93)           119.9262         calculate D2E/DX2 analytically  !
 ! A131  A(56,59,61)           120.6048         calculate D2E/DX2 analytically  !
 ! A132  A(56,59,97)           119.3728         calculate D2E/DX2 analytically  !
 ! A133  A(61,59,97)           119.739          calculate D2E/DX2 analytically  !
 ! A134  A(57,61,59)           119.2964         calculate D2E/DX2 analytically  !
 ! A135  A(57,61,62)           120.4531         calculate D2E/DX2 analytically  !
 ! A136  A(59,61,62)           120.2376         calculate D2E/DX2 analytically  !
 ! A137  A(44,63,64)           110.961          calculate D2E/DX2 analytically  !
 ! A138  A(44,63,65)           110.2138         calculate D2E/DX2 analytically  !
 ! A139  A(44,63,66)           106.2449         calculate D2E/DX2 analytically  !
 ! A140  A(64,63,65)           109.1953         calculate D2E/DX2 analytically  !
 ! A141  A(64,63,66)           110.8014         calculate D2E/DX2 analytically  !
 ! A142  A(65,63,66)           109.3863         calculate D2E/DX2 analytically  !
 ! A143  A(45,67,68)           110.8128         calculate D2E/DX2 analytically  !
 ! A144  A(45,67,69)           111.2568         calculate D2E/DX2 analytically  !
 ! A145  A(45,67,70)           106.3082         calculate D2E/DX2 analytically  !
 ! A146  A(68,67,69)           109.3947         calculate D2E/DX2 analytically  !
 ! A147  A(68,67,70)           109.1575         calculate D2E/DX2 analytically  !
 ! A148  A(69,67,70)           109.8509         calculate D2E/DX2 analytically  !
 ! A149  A(46,71,72)           111.4616         calculate D2E/DX2 analytically  !
 ! A150  A(46,71,73)           110.8263         calculate D2E/DX2 analytically  !
 ! A151  A(46,71,74)           106.1792         calculate D2E/DX2 analytically  !
 ! A152  A(72,71,73)           109.1747         calculate D2E/DX2 analytically  !
 ! A153  A(72,71,74)           110.017          calculate D2E/DX2 analytically  !
 ! A154  A(73,71,74)           109.1266         calculate D2E/DX2 analytically  !
 ! A155  A(50,75,76)           106.488          calculate D2E/DX2 analytically  !
 ! A156  A(50,75,77)           112.0323         calculate D2E/DX2 analytically  !
 ! A157  A(50,75,78)           110.9757         calculate D2E/DX2 analytically  !
 ! A158  A(76,75,77)           109.1431         calculate D2E/DX2 analytically  !
 ! A159  A(76,75,78)           109.4577         calculate D2E/DX2 analytically  !
 ! A160  A(77,75,78)           108.6929         calculate D2E/DX2 analytically  !
 ! A161  A(12,79,80)           106.6821         calculate D2E/DX2 analytically  !
 ! A162  A(12,79,81)           111.4876         calculate D2E/DX2 analytically  !
 ! A163  A(12,79,82)           110.7288         calculate D2E/DX2 analytically  !
 ! A164  A(80,79,81)           109.5687         calculate D2E/DX2 analytically  !
 ! A165  A(80,79,82)           109.4066         calculate D2E/DX2 analytically  !
 ! A166  A(81,79,82)           108.9282         calculate D2E/DX2 analytically  !
 ! A167  A(19,83,53)            98.1866         calculate D2E/DX2 analytically  !
 ! A168  A(58,84,85)            95.4202         calculate D2E/DX2 analytically  !
 ! A169  A(58,84,89)           106.9257         calculate D2E/DX2 analytically  !
 ! A170  A(85,84,89)           111.2267         calculate D2E/DX2 analytically  !
 ! A171  A(84,85,86)           110.5977         calculate D2E/DX2 analytically  !
 ! A172  A(84,85,87)           107.284          calculate D2E/DX2 analytically  !
 ! A173  A(84,85,88)           110.3408         calculate D2E/DX2 analytically  !
 ! A174  A(86,85,87)           110.4809         calculate D2E/DX2 analytically  !
 ! A175  A(86,85,88)           108.9558         calculate D2E/DX2 analytically  !
 ! A176  A(87,85,88)           109.1633         calculate D2E/DX2 analytically  !
 ! A177  A(84,89,90)           110.1885         calculate D2E/DX2 analytically  !
 ! A178  A(84,89,91)           108.181          calculate D2E/DX2 analytically  !
 ! A179  A(84,89,92)           110.4086         calculate D2E/DX2 analytically  !
 ! A180  A(90,89,91)           109.3601         calculate D2E/DX2 analytically  !
 ! A181  A(90,89,92)           109.1092         calculate D2E/DX2 analytically  !
 ! A182  A(91,89,92)           109.5753         calculate D2E/DX2 analytically  !
 ! A183  A(7,91,89)            101.5432         calculate D2E/DX2 analytically  !
 ! A184  A(57,93,94)           111.5409         calculate D2E/DX2 analytically  !
 ! A185  A(57,93,95)           112.1696         calculate D2E/DX2 analytically  !
 ! A186  A(57,93,96)           111.8344         calculate D2E/DX2 analytically  !
 ! A187  A(94,93,95)           107.3993         calculate D2E/DX2 analytically  !
 ! A188  A(94,93,96)           106.6762         calculate D2E/DX2 analytically  !
 ! A189  A(95,93,96)           106.9009         calculate D2E/DX2 analytically  !
 ! A190  A(59,97,98)           112.2821         calculate D2E/DX2 analytically  !
 ! A191  A(59,97,99)           112.3234         calculate D2E/DX2 analytically  !
 ! A192  A(59,97,100)          110.5067         calculate D2E/DX2 analytically  !
 ! A193  A(98,97,99)           107.9784         calculate D2E/DX2 analytically  !
 ! A194  A(98,97,100)          106.6716         calculate D2E/DX2 analytically  !
 ! A195  A(99,97,100)          106.7634         calculate D2E/DX2 analytically  !
 ! A196  L(19,37,43,53,-1)     175.959          calculate D2E/DX2 analytically  !
 ! A197  L(55,58,84,17,-1)     194.6634         calculate D2E/DX2 analytically  !
 ! A198  L(19,37,43,53,-2)     177.3798         calculate D2E/DX2 analytically  !
 ! A199  L(55,58,84,17,-2)     181.0431         calculate D2E/DX2 analytically  !
 ! D1    D(5,1,2,3)            -46.1386         calculate D2E/DX2 analytically  !
 ! D2    D(5,1,2,7)             70.3261         calculate D2E/DX2 analytically  !
 ! D3    D(5,1,2,13)          -171.4641         calculate D2E/DX2 analytically  !
 ! D4    D(8,1,2,3)             73.9755         calculate D2E/DX2 analytically  !
 ! D5    D(8,1,2,7)           -169.5598         calculate D2E/DX2 analytically  !
 ! D6    D(8,1,2,13)           -51.3499         calculate D2E/DX2 analytically  !
 ! D7    D(14,1,2,3)          -164.9247         calculate D2E/DX2 analytically  !
 ! D8    D(14,1,2,7)           -48.4599         calculate D2E/DX2 analytically  !
 ! D9    D(14,1,2,13)           69.7499         calculate D2E/DX2 analytically  !
 ! D10   D(2,1,5,4)             49.3953         calculate D2E/DX2 analytically  !
 ! D11   D(2,1,5,10)           -70.0446         calculate D2E/DX2 analytically  !
 ! D12   D(2,1,5,15)           171.3314         calculate D2E/DX2 analytically  !
 ! D13   D(8,1,5,4)            -70.8017         calculate D2E/DX2 analytically  !
 ! D14   D(8,1,5,10)           169.7583         calculate D2E/DX2 analytically  !
 ! D15   D(8,1,5,15)            51.1343         calculate D2E/DX2 analytically  !
 ! D16   D(14,1,5,4)           170.0499         calculate D2E/DX2 analytically  !
 ! D17   D(14,1,5,10)           50.6099         calculate D2E/DX2 analytically  !
 ! D18   D(14,1,5,15)          -68.0141         calculate D2E/DX2 analytically  !
 ! D19   D(2,1,14,24)          -94.5769         calculate D2E/DX2 analytically  !
 ! D20   D(5,1,14,24)          144.0348         calculate D2E/DX2 analytically  !
 ! D21   D(8,1,14,24)           25.7804         calculate D2E/DX2 analytically  !
 ! D22   D(1,2,3,6)            166.1322         calculate D2E/DX2 analytically  !
 ! D23   D(1,2,3,11)            51.6124         calculate D2E/DX2 analytically  !
 ! D24   D(1,2,3,12)           -72.5242         calculate D2E/DX2 analytically  !
 ! D25   D(7,2,3,6)             48.5515         calculate D2E/DX2 analytically  !
 ! D26   D(7,2,3,11)           -65.9683         calculate D2E/DX2 analytically  !
 ! D27   D(7,2,3,12)           169.8951         calculate D2E/DX2 analytically  !
 ! D28   D(13,2,3,6)           -71.5465         calculate D2E/DX2 analytically  !
 ! D29   D(13,2,3,11)          173.9337         calculate D2E/DX2 analytically  !
 ! D30   D(13,2,3,12)           49.7971         calculate D2E/DX2 analytically  !
 ! D31   D(1,2,7,91)            17.7725         calculate D2E/DX2 analytically  !
 ! D32   D(3,2,7,91)           138.3901         calculate D2E/DX2 analytically  !
 ! D33   D(13,2,7,91)          -99.2319         calculate D2E/DX2 analytically  !
 ! D34   D(1,2,13,20)         -167.0628         calculate D2E/DX2 analytically  !
 ! D35   D(3,2,13,20)           68.0184         calculate D2E/DX2 analytically  !
 ! D36   D(7,2,13,20)          -49.9863         calculate D2E/DX2 analytically  !
 ! D37   D(2,3,11,4)           -62.8479         calculate D2E/DX2 analytically  !
 ! D38   D(6,3,11,4)           178.1688         calculate D2E/DX2 analytically  !
 ! D39   D(12,3,11,4)           58.5771         calculate D2E/DX2 analytically  !
 ! D40   D(2,3,12,79)         -173.7413         calculate D2E/DX2 analytically  !
 ! D41   D(6,3,12,79)          -51.8079         calculate D2E/DX2 analytically  !
 ! D42   D(11,3,12,79)          64.2046         calculate D2E/DX2 analytically  !
 ! D43   D(9,4,5,1)             60.7319         calculate D2E/DX2 analytically  !
 ! D44   D(9,4,5,10)           179.4784         calculate D2E/DX2 analytically  !
 ! D45   D(9,4,5,15)           -60.4942         calculate D2E/DX2 analytically  !
 ! D46   D(11,4,5,1)           -57.3802         calculate D2E/DX2 analytically  !
 ! D47   D(11,4,5,10)           61.3664         calculate D2E/DX2 analytically  !
 ! D48   D(11,4,5,15)         -178.6063         calculate D2E/DX2 analytically  !
 ! D49   D(16,4,5,1)          -176.148          calculate D2E/DX2 analytically  !
 ! D50   D(16,4,5,10)          -57.4015         calculate D2E/DX2 analytically  !
 ! D51   D(16,4,5,15)           62.6259         calculate D2E/DX2 analytically  !
 ! D52   D(5,4,11,3)            65.8759         calculate D2E/DX2 analytically  !
 ! D53   D(9,4,11,3)           -52.4574         calculate D2E/DX2 analytically  !
 ! D54   D(16,4,11,3)         -171.056          calculate D2E/DX2 analytically  !
 ! D55   D(5,4,16,17)          -66.9056         calculate D2E/DX2 analytically  !
 ! D56   D(5,4,16,18)         -178.084          calculate D2E/DX2 analytically  !
 ! D57   D(5,4,16,19)           57.5            calculate D2E/DX2 analytically  !
 ! D58   D(9,4,16,17)           55.8957         calculate D2E/DX2 analytically  !
 ! D59   D(9,4,16,18)          -55.2827         calculate D2E/DX2 analytically  !
 ! D60   D(9,4,16,19)         -179.6987         calculate D2E/DX2 analytically  !
 ! D61   D(11,4,16,17)         173.8897         calculate D2E/DX2 analytically  !
 ! D62   D(11,4,16,18)          62.7113         calculate D2E/DX2 analytically  !
 ! D63   D(11,4,16,19)         -61.7046         calculate D2E/DX2 analytically  !
 ! D64   D(1,5,15,28)          132.1322         calculate D2E/DX2 analytically  !
 ! D65   D(4,5,15,28)         -105.3721         calculate D2E/DX2 analytically  !
 ! D66   D(10,5,15,28)          14.45           calculate D2E/DX2 analytically  !
 ! D67   D(2,7,91,89)          175.1498         calculate D2E/DX2 analytically  !
 ! D68   D(3,12,79,80)         173.8319         calculate D2E/DX2 analytically  !
 ! D69   D(3,12,79,81)         -66.5814         calculate D2E/DX2 analytically  !
 ! D70   D(3,12,79,82)          54.8662         calculate D2E/DX2 analytically  !
 ! D71   D(2,13,20,21)         -70.6919         calculate D2E/DX2 analytically  !
 ! D72   D(2,13,20,22)          51.4354         calculate D2E/DX2 analytically  !
 ! D73   D(2,13,20,23)         170.3867         calculate D2E/DX2 analytically  !
 ! D74   D(1,14,24,25)         -58.0996         calculate D2E/DX2 analytically  !
 ! D75   D(1,14,24,26)          63.7977         calculate D2E/DX2 analytically  !
 ! D76   D(1,14,24,27)        -176.4577         calculate D2E/DX2 analytically  !
 ! D77   D(5,15,28,29)         -70.0903         calculate D2E/DX2 analytically  !
 ! D78   D(5,15,28,30)          50.8606         calculate D2E/DX2 analytically  !
 ! D79   D(5,15,28,31)         170.9806         calculate D2E/DX2 analytically  !
 ! D80   D(4,16,19,37)        -178.6285         calculate D2E/DX2 analytically  !
 ! D81   D(4,16,19,83)          25.8625         calculate D2E/DX2 analytically  !
 ! D82   D(17,16,19,37)        -58.7917         calculate D2E/DX2 analytically  !
 ! D83   D(17,16,19,83)        145.6992         calculate D2E/DX2 analytically  !
 ! D84   D(18,16,19,37)         61.1195         calculate D2E/DX2 analytically  !
 ! D85   D(18,16,19,83)        -94.3895         calculate D2E/DX2 analytically  !
 ! D86   D(16,19,37,34)         45.0758         calculate D2E/DX2 analytically  !
 ! D87   D(16,19,37,53)       -155.2291         calculate D2E/DX2 analytically  !
 ! D88   D(83,19,37,34)       -156.7818         calculate D2E/DX2 analytically  !
 ! D89   D(83,19,37,53)          2.9133         calculate D2E/DX2 analytically  !
 ! D90   D(16,19,43,51)       -166.1206         calculate D2E/DX2 analytically  !
 ! D91   D(83,19,43,51)        -14.0967         calculate D2E/DX2 analytically  !
 ! D92   D(16,19,83,53)        169.0699         calculate D2E/DX2 analytically  !
 ! D93   D(37,19,83,53)         -2.6908         calculate D2E/DX2 analytically  !
 ! D94   D(36,32,33,34)        -57.9121         calculate D2E/DX2 analytically  !
 ! D95   D(36,32,33,38)         55.9311         calculate D2E/DX2 analytically  !
 ! D96   D(36,32,33,44)        177.052          calculate D2E/DX2 analytically  !
 ! D97   D(39,32,33,34)         61.3787         calculate D2E/DX2 analytically  !
 ! D98   D(39,32,33,38)        175.2219         calculate D2E/DX2 analytically  !
 ! D99   D(39,32,33,44)        -63.6572         calculate D2E/DX2 analytically  !
 ! D100  D(45,32,33,34)       -175.2444         calculate D2E/DX2 analytically  !
 ! D101  D(45,32,33,38)        -61.4012         calculate D2E/DX2 analytically  !
 ! D102  D(45,32,33,44)         59.7197         calculate D2E/DX2 analytically  !
 ! D103  D(33,32,36,35)         51.4052         calculate D2E/DX2 analytically  !
 ! D104  D(33,32,36,41)        -69.4266         calculate D2E/DX2 analytically  !
 ! D105  D(33,32,36,46)        169.6627         calculate D2E/DX2 analytically  !
 ! D106  D(39,32,36,35)        -67.6066         calculate D2E/DX2 analytically  !
 ! D107  D(39,32,36,41)        171.5616         calculate D2E/DX2 analytically  !
 ! D108  D(39,32,36,46)         50.6509         calculate D2E/DX2 analytically  !
 ! D109  D(45,32,36,35)        171.2034         calculate D2E/DX2 analytically  !
 ! D110  D(45,32,36,41)         50.3715         calculate D2E/DX2 analytically  !
 ! D111  D(45,32,36,46)        -70.5391         calculate D2E/DX2 analytically  !
 ! D112  D(33,32,45,67)        -94.2646         calculate D2E/DX2 analytically  !
 ! D113  D(36,32,45,67)        148.3404         calculate D2E/DX2 analytically  !
 ! D114  D(39,32,45,67)         28.046          calculate D2E/DX2 analytically  !
 ! D115  D(32,33,34,37)       -154.3668         calculate D2E/DX2 analytically  !
 ! D116  D(32,33,34,42)         41.8221         calculate D2E/DX2 analytically  !
 ! D117  D(32,33,34,43)        -67.1679         calculate D2E/DX2 analytically  !
 ! D118  D(38,33,34,37)         90.4555         calculate D2E/DX2 analytically  !
 ! D119  D(38,33,34,42)        -73.3556         calculate D2E/DX2 analytically  !
 ! D120  D(38,33,34,43)        177.6544         calculate D2E/DX2 analytically  !
 ! D121  D(44,33,34,37)        -29.4303         calculate D2E/DX2 analytically  !
 ! D122  D(44,33,34,42)        166.7587         calculate D2E/DX2 analytically  !
 ! D123  D(44,33,34,43)         57.7687         calculate D2E/DX2 analytically  !
 ! D124  D(32,33,44,63)       -155.9213         calculate D2E/DX2 analytically  !
 ! D125  D(34,33,44,63)         80.4092         calculate D2E/DX2 analytically  !
 ! D126  D(38,33,44,63)        -36.5085         calculate D2E/DX2 analytically  !
 ! D127  D(33,34,37,19)        -85.2672         calculate D2E/DX2 analytically  !
 ! D128  D(33,34,37,53)        119.4014         calculate D2E/DX2 analytically  !
 ! D129  D(42,34,37,19)         79.4823         calculate D2E/DX2 analytically  !
 ! D130  D(42,34,37,53)        -75.849          calculate D2E/DX2 analytically  !
 ! D131  D(33,34,42,35)        -14.2929         calculate D2E/DX2 analytically  !
 ! D132  D(37,34,42,35)       -178.9629         calculate D2E/DX2 analytically  !
 ! D133  D(43,34,42,35)         91.2204         calculate D2E/DX2 analytically  !
 ! D134  D(33,34,43,51)       -160.7563         calculate D2E/DX2 analytically  !
 ! D135  D(42,34,43,51)         74.8927         calculate D2E/DX2 analytically  !
 ! D136  D(40,35,36,32)         90.744          calculate D2E/DX2 analytically  !
 ! D137  D(40,35,36,41)       -149.824          calculate D2E/DX2 analytically  !
 ! D138  D(40,35,36,46)        -32.4008         calculate D2E/DX2 analytically  !
 ! D139  D(42,35,36,32)        -25.3516         calculate D2E/DX2 analytically  !
 ! D140  D(42,35,36,41)         94.0805         calculate D2E/DX2 analytically  !
 ! D141  D(42,35,36,46)       -148.4964         calculate D2E/DX2 analytically  !
 ! D142  D(47,35,36,32)       -146.1705         calculate D2E/DX2 analytically  !
 ! D143  D(47,35,36,41)        -26.7385         calculate D2E/DX2 analytically  !
 ! D144  D(47,35,36,46)         90.6847         calculate D2E/DX2 analytically  !
 ! D145  D(36,35,42,34)          5.2104         calculate D2E/DX2 analytically  !
 ! D146  D(40,35,42,34)       -113.344          calculate D2E/DX2 analytically  !
 ! D147  D(47,35,42,34)        129.1046         calculate D2E/DX2 analytically  !
 ! D148  D(36,35,47,48)         68.5789         calculate D2E/DX2 analytically  !
 ! D149  D(36,35,47,49)        -48.6198         calculate D2E/DX2 analytically  !
 ! D150  D(36,35,47,50)       -172.5928         calculate D2E/DX2 analytically  !
 ! D151  D(40,35,47,48)       -170.1623         calculate D2E/DX2 analytically  !
 ! D152  D(40,35,47,49)         72.639          calculate D2E/DX2 analytically  !
 ! D153  D(40,35,47,50)        -51.334          calculate D2E/DX2 analytically  !
 ! D154  D(42,35,47,48)        -57.8074         calculate D2E/DX2 analytically  !
 ! D155  D(42,35,47,49)       -175.006          calculate D2E/DX2 analytically  !
 ! D156  D(42,35,47,50)         61.0209         calculate D2E/DX2 analytically  !
 ! D157  D(32,36,46,71)         91.9737         calculate D2E/DX2 analytically  !
 ! D158  D(35,36,46,71)       -144.2058         calculate D2E/DX2 analytically  !
 ! D159  D(41,36,46,71)        -27.1789         calculate D2E/DX2 analytically  !
 ! D160  D(53,37,43,51)        -16.1378         calculate D2E/DX2 analytically  !
 ! D161  D(19,37,53,51)       -166.3038         calculate D2E/DX2 analytically  !
 ! D162  D(19,37,53,83)         -2.8842         calculate D2E/DX2 analytically  !
 ! D163  D(34,37,53,51)         -9.9521         calculate D2E/DX2 analytically  !
 ! D164  D(34,37,53,83)        153.4675         calculate D2E/DX2 analytically  !
 ! D165  D(43,37,53,51)         16.3164         calculate D2E/DX2 analytically  !
 ! D166  D(43,37,53,83)        179.736          calculate D2E/DX2 analytically  !
 ! D167  D(34,43,51,52)        173.1366         calculate D2E/DX2 analytically  !
 ! D168  D(34,43,51,53)         41.6466         calculate D2E/DX2 analytically  !
 ! D169  D(34,43,51,54)        -71.4131         calculate D2E/DX2 analytically  !
 ! D170  D(37,43,51,52)        156.1113         calculate D2E/DX2 analytically  !
 ! D171  D(37,43,51,53)         24.6213         calculate D2E/DX2 analytically  !
 ! D172  D(37,43,51,54)        -88.4385         calculate D2E/DX2 analytically  !
 ! D173  D(33,44,63,64)        -52.601          calculate D2E/DX2 analytically  !
 ! D174  D(33,44,63,65)         68.4801         calculate D2E/DX2 analytically  !
 ! D175  D(33,44,63,66)       -173.1139         calculate D2E/DX2 analytically  !
 ! D176  D(32,45,67,68)        -60.1647         calculate D2E/DX2 analytically  !
 ! D177  D(32,45,67,69)         61.7774         calculate D2E/DX2 analytically  !
 ! D178  D(32,45,67,70)       -178.6547         calculate D2E/DX2 analytically  !
 ! D179  D(36,46,71,72)        -64.3123         calculate D2E/DX2 analytically  !
 ! D180  D(36,46,71,73)         57.4998         calculate D2E/DX2 analytically  !
 ! D181  D(36,46,71,74)        175.8839         calculate D2E/DX2 analytically  !
 ! D182  D(35,47,50,75)         93.9192         calculate D2E/DX2 analytically  !
 ! D183  D(48,47,50,75)       -146.6527         calculate D2E/DX2 analytically  !
 ! D184  D(49,47,50,75)        -27.9148         calculate D2E/DX2 analytically  !
 ! D185  D(47,50,75,76)       -176.2776         calculate D2E/DX2 analytically  !
 ! D186  D(47,50,75,77)        -57.0215         calculate D2E/DX2 analytically  !
 ! D187  D(47,50,75,78)         64.6756         calculate D2E/DX2 analytically  !
 ! D188  D(43,51,53,37)        -25.2422         calculate D2E/DX2 analytically  !
 ! D189  D(43,51,53,83)        -62.2119         calculate D2E/DX2 analytically  !
 ! D190  D(52,51,53,37)       -155.6876         calculate D2E/DX2 analytically  !
 ! D191  D(52,51,53,83)        167.3428         calculate D2E/DX2 analytically  !
 ! D192  D(54,51,53,37)         85.8035         calculate D2E/DX2 analytically  !
 ! D193  D(54,51,53,83)         48.8339         calculate D2E/DX2 analytically  !
 ! D194  D(43,51,54,55)        122.2021         calculate D2E/DX2 analytically  !
 ! D195  D(43,51,54,56)        -52.6745         calculate D2E/DX2 analytically  !
 ! D196  D(52,51,54,55)       -118.6255         calculate D2E/DX2 analytically  !
 ! D197  D(52,51,54,56)         66.4979         calculate D2E/DX2 analytically  !
 ! D198  D(53,51,54,55)          4.6133         calculate D2E/DX2 analytically  !
 ! D199  D(53,51,54,56)       -170.2633         calculate D2E/DX2 analytically  !
 ! D200  D(37,53,83,19)          2.3112         calculate D2E/DX2 analytically  !
 ! D201  D(51,53,83,19)         42.1043         calculate D2E/DX2 analytically  !
 ! D202  D(51,54,55,57)       -174.5022         calculate D2E/DX2 analytically  !
 ! D203  D(51,54,55,58)          4.3425         calculate D2E/DX2 analytically  !
 ! D204  D(56,54,55,57)          0.1823         calculate D2E/DX2 analytically  !
 ! D205  D(56,54,55,58)        179.0271         calculate D2E/DX2 analytically  !
 ! D206  D(51,54,56,59)        175.147          calculate D2E/DX2 analytically  !
 ! D207  D(51,54,56,60)         -3.3295         calculate D2E/DX2 analytically  !
 ! D208  D(55,54,56,59)          0.2666         calculate D2E/DX2 analytically  !
 ! D209  D(55,54,56,60)       -178.2099         calculate D2E/DX2 analytically  !
 ! D210  D(54,55,57,61)         -0.8265         calculate D2E/DX2 analytically  !
 ! D211  D(54,55,57,93)        179.3554         calculate D2E/DX2 analytically  !
 ! D212  D(58,55,57,61)       -179.6673         calculate D2E/DX2 analytically  !
 ! D213  D(58,55,57,93)          0.5145         calculate D2E/DX2 analytically  !
 ! D214  D(54,55,84,85)         54.2392         calculate D2E/DX2 analytically  !
 ! D215  D(54,55,84,89)        166.8816         calculate D2E/DX2 analytically  !
 ! D216  D(57,55,84,85)       -115.3778         calculate D2E/DX2 analytically  !
 ! D217  D(57,55,84,89)         -2.7354         calculate D2E/DX2 analytically  !
 ! D218  D(54,56,59,61)         -0.0843         calculate D2E/DX2 analytically  !
 ! D219  D(54,56,59,97)       -173.9542         calculate D2E/DX2 analytically  !
 ! D220  D(60,56,59,61)        178.3892         calculate D2E/DX2 analytically  !
 ! D221  D(60,56,59,97)          4.5192         calculate D2E/DX2 analytically  !
 ! D222  D(55,57,61,59)          1.007          calculate D2E/DX2 analytically  !
 ! D223  D(55,57,61,62)        179.7052         calculate D2E/DX2 analytically  !
 ! D224  D(93,57,61,59)       -179.1762         calculate D2E/DX2 analytically  !
 ! D225  D(93,57,61,62)         -0.478          calculate D2E/DX2 analytically  !
 ! D226  D(55,57,93,94)        -39.502          calculate D2E/DX2 analytically  !
 ! D227  D(55,57,93,95)       -160.0321         calculate D2E/DX2 analytically  !
 ! D228  D(55,57,93,96)         79.872          calculate D2E/DX2 analytically  !
 ! D229  D(61,57,93,94)        140.6779         calculate D2E/DX2 analytically  !
 ! D230  D(61,57,93,95)         20.1479         calculate D2E/DX2 analytically  !
 ! D231  D(61,57,93,96)        -99.948          calculate D2E/DX2 analytically  !
 ! D232  D(56,59,61,57)         -0.5441         calculate D2E/DX2 analytically  !
 ! D233  D(56,59,61,62)       -179.2452         calculate D2E/DX2 analytically  !
 ! D234  D(97,59,61,57)        173.3035         calculate D2E/DX2 analytically  !
 ! D235  D(97,59,61,62)         -5.3976         calculate D2E/DX2 analytically  !
 ! D236  D(56,59,97,98)        -33.9994         calculate D2E/DX2 analytically  !
 ! D237  D(56,59,97,99)       -155.9267         calculate D2E/DX2 analytically  !
 ! D238  D(56,59,97,100)        84.9654         calculate D2E/DX2 analytically  !
 ! D239  D(61,59,97,98)        152.0769         calculate D2E/DX2 analytically  !
 ! D240  D(61,59,97,99)         30.1495         calculate D2E/DX2 analytically  !
 ! D241  D(61,59,97,100)       -88.9584         calculate D2E/DX2 analytically  !
 ! D242  D(58,84,85,86)        173.2544         calculate D2E/DX2 analytically  !
 ! D243  D(58,84,85,87)        -66.1877         calculate D2E/DX2 analytically  !
 ! D244  D(58,84,85,88)         52.6286         calculate D2E/DX2 analytically  !
 ! D245  D(89,84,85,86)         62.7318         calculate D2E/DX2 analytically  !
 ! D246  D(89,84,85,87)       -176.7103         calculate D2E/DX2 analytically  !
 ! D247  D(89,84,85,88)        -57.894          calculate D2E/DX2 analytically  !
 ! D248  D(58,84,89,90)        -44.3726         calculate D2E/DX2 analytically  !
 ! D249  D(58,84,89,91)         75.1339         calculate D2E/DX2 analytically  !
 ! D250  D(58,84,89,92)       -164.9678         calculate D2E/DX2 analytically  !
 ! D251  D(85,84,89,90)         58.5786         calculate D2E/DX2 analytically  !
 ! D252  D(85,84,89,91)        178.085          calculate D2E/DX2 analytically  !
 ! D253  D(85,84,89,92)        -62.0166         calculate D2E/DX2 analytically  !
 ! D254  D(84,89,91,7)          69.2872         calculate D2E/DX2 analytically  !
 ! D255  D(90,89,91,7)        -170.6856         calculate D2E/DX2 analytically  !
 ! D256  D(92,89,91,7)         -51.1329         calculate D2E/DX2 analytically  !
 --------------------------------------------------------------------------------
 Trust Radius=5.00D-02 FncErr=1.00D-07 GrdErr=1.00D-06 EigMax=2.50D+02 EigMin=1.00D-04
 Number of steps in this run=    571 maximum allowed number of steps=    600.
 Search for a saddle point of order  1.
 Step   0 in ReCalcFC=30 IGetFC= 4 compute analytic Hessian.
 GradGradGradGradGradGradGradGradGradGradGradGradGradGradGradGradGradGrad

 Leave Link  103 at Tue May 28 17:50:15 2019, MaxMem=  6442450944 cpu:               3.8 elap:               0.2
 (Enter /home/ekwan/sw/g16/l202.exe)
 Stoichiometry    C30H47F6NaO15S
 Framework group  C1[X(C30H47F6NaO15S)]
 Deg. of freedom   294
 Full point group                 C1      NOp   1
 Largest Abelian subgroup         C1      NOp   1
 Largest concise Abelian subgroup C1      NOp   1
                         Standard orientation:                         
 ---------------------------------------------------------------------
 Center     Atomic      Atomic             Coordinates (Angstroms)
 Number     Number       Type             X           Y           Z
 ---------------------------------------------------------------------
      1          6           0        4.653939   -0.299297   -1.395469
      2          6           0        5.353544   -0.087528   -0.046244
      3          6           0        5.332064    1.383493    0.401865
      4          6           0        3.449182    1.882691   -0.994393
      5          6           0        3.311060    0.426146   -1.447272
      6          1           0        5.610232    1.479373    1.460473
      7          1           0        4.790386   -0.644095    0.716105
      8          1           0        5.297540    0.088436   -2.196228
      9          1           0        4.144752    2.403668   -1.663563
     10          1           0        2.621769   -0.094392   -0.770060
     11          8           0        4.002678    1.881170    0.348124
     12          8           0        6.221701    2.105356   -0.397377
     13          8           0        6.662167   -0.617859   -0.151266
     14          8           0        4.390612   -1.682972   -1.602383
     15          8           0        2.802234    0.367695   -2.771282
     16          6           0        2.119951    2.644616   -0.933056
     17          1           0        1.779314    2.726319   -1.987996
     18          1           0        2.380420    3.684055   -0.627277
     19          8           0        1.200177    2.052907   -0.106932
     20          6           0        7.332447   -0.758933    1.090363
     21          1           0        7.610662    0.212324    1.520997
     22          1           0        6.715153   -1.306600    1.818292
     23          1           0        8.243478   -1.329160    0.894995
     24          6           0        5.376353   -2.379344   -2.351295
     25          1           0        5.511142   -1.922581   -3.342288
     26          1           0        6.339831   -2.398590   -1.831795
     27          1           0        5.006616   -3.400142   -2.479372
     28          6           0        1.433663   -0.033037   -2.819288
     29          1           0        1.322738   -1.089977   -2.548852
     30          1           0        0.824870    0.568834   -2.136041
     31          1           0        1.093508    0.109042   -3.848350
     32          6           0       -3.452668    2.987993   -0.238766
     33          6           0       -1.953368    3.180895    0.030933
     34          6           0       -1.300783    1.845660    0.227212
     35          6           0       -2.768501    0.793868   -1.393898
     36          6           0       -3.587251    2.093763   -1.475371
     37          1           0       -0.403485    1.747484    0.804935
     38          1           0       -1.502884    3.592249   -0.891236
     39          1           0       -3.918948    2.501279    0.625403
     40          1           0       -3.397350    0.019271   -0.952220
     41          1           0       -3.245390    2.686978   -2.337517
     42          8           0       -1.592361    0.839555   -0.514085
     43          8           0       -2.312675    1.363731    2.111885
     44          8           0       -1.723165    4.042782    1.109089
     45          8           0       -4.081165    4.217053   -0.535812
     46          8           0       -4.914357    1.651613   -1.689802
     47          6           0       -2.245102    0.375320   -2.763679
     48          1           0       -1.487460    1.100148   -3.081100
     49          1           0       -3.083097    0.417008   -3.472783
     50          8           0       -1.633612   -0.895530   -2.751381
     51         16           0       -1.510577    0.284349    2.802447
     52          8           0       -2.002159   -0.012906    4.158841
     53          8           0       -0.040999    0.530271    2.707248
     54          6           0       -1.833255   -1.159300    1.778913
     55          6           0       -0.796735   -1.860594    1.175246
     56          6           0       -3.166360   -1.481790    1.525588
     57          6           0       -1.109318   -2.902843    0.297849
     58          1           0        0.235113   -1.589527    1.368620
     59          6           0       -3.458144   -2.528804    0.656383
     60          1           0       -3.964153   -0.906900    1.981551
     61          6           0       -2.432500   -3.249111    0.041899
     62          1           0       -2.666267   -4.054343   -0.642499
     63          6           0       -0.436257    4.672954    1.059494
     64          1           0        0.360484    3.929012    0.940825
     65          1           0       -0.393797    5.384840    0.222462
     66          1           0       -0.324573    5.213718    2.001068
     67          6           0       -4.675900    4.857875    0.591549
     68          1           0       -5.449291    4.219577    1.040365
     69          1           0       -3.926019    5.106046    1.347783
     70          1           0       -5.139867    5.772367    0.215132
     71          6           0       -5.693601    2.484684   -2.546143
     72          1           0       -5.846993    3.474963   -2.109380
     73          1           0       -5.212662    2.593911   -3.528453
     74          1           0       -6.653337    1.978792   -2.671857
     75          6           0       -2.514688   -1.955192   -3.101914
     76          1           0       -1.946648   -2.879863   -2.990436
     77          1           0       -3.394296   -1.992342   -2.447773
     78          1           0       -2.853689   -1.856980   -4.142831
     79          6           0        6.389481    3.456947    0.021287
     80          1           0        7.179793    3.881722   -0.600348
     81          1           0        5.468160    4.035243   -0.110451
     82          1           0        6.691165    3.502540    1.077309
     83         11           0        1.963461    0.800681    1.535949
     84          8           0        2.394948   -1.478243    2.139009
     85          6           0        2.068984   -1.773736    3.497522
     86          1           0        2.981724   -1.901791    4.094814
     87          1           0        1.478569   -0.940482    3.877378
     88          1           0        1.472578   -2.694220    3.555512
     89          6           0        3.108902   -2.556254    1.532274
     90          1           0        2.511776   -3.474548    1.570776
     91          1           0        3.301393   -2.293958    0.492553
     92          1           0        4.062123   -2.725009    2.051889
     93          6           0        0.005699   -3.656814   -0.370499
     94          9           0        1.009587   -2.830759   -0.744391
     95          9           0       -0.412293   -4.310925   -1.476264
     96          9           0        0.551590   -4.584276    0.453157
     97          6           0       -4.886382   -2.792375    0.273810
     98          9           0       -5.741990   -2.524356    1.278697
     99          9           0       -5.085662   -4.067932   -0.113179
    100          9           0       -5.253773   -2.001693   -0.773968
 ---------------------------------------------------------------------
 Rotational constants (GHZ):           0.0696490           0.0388318           0.0326503
 Leave Link  202 at Tue May 28 17:50:16 2019, MaxMem=  6442450944 cpu:               4.1 elap:               0.2
 (Enter /home/ekwan/sw/g16/l301.exe)
 Standard basis: 6-31G(d) (6D, 7F)
 Ernie: Thresh=  0.10000D-02 Tol=  0.10000D-05 Strict=F.
 There are   897 symmetry adapted cartesian basis functions of A   symmetry.
 There are   897 symmetry adapted basis functions of A   symmetry.
   897 basis functions,  1720 primitive gaussians,   897 cartesian basis functions
   214 alpha electrons      214 beta electrons
       nuclear repulsion energy      9633.6665437555 Hartrees.
 IExCor=  402 DFT=T Ex+Corr=B3LYP ExCW=0 ScaHFX=  0.200000
 ScaDFX=  0.800000  0.720000  1.000000  0.810000 ScalE2=  1.000000  1.000000
 IRadAn=      5 IRanWt=     -1 IRanGd=            0 ICorTp=0 IEmpDi=141
 NAtoms=  100 NActive=  100 NUniq=  100 SFac= 1.00D+00 NAtFMM=   60 NAOKFM=T Big=T
 Integral buffers will be    131072 words long.
 Raffenetti 2 integral format.
 Two-electron integral symmetry is turned on.
 R6Disp:  Grimme-D3(BJ) Dispersion energy=       -0.2318364379 Hartrees.
 Nuclear repulsion after empirical dispersion term =     9633.4347073177 Hartrees.
 Force inversion solution in PCM.
 ------------------------------------------------------------------------------
 Polarizable Continuum Model (PCM)
 =================================
 Model                : PCM.
 Atomic radii         : UFF (Universal Force Field).
 Polarization charges : Total charges.
 Charge compensation  : None.
 Solution method      : Matrix inversion.
 Cavity type          : Scaled VdW (van der Waals Surface) (Alpha=1.100).
 Cavity algorithm     : GePol (No added spheres)
                        Default sphere list used, NSphG=  100.
                        Lebedev-Laikov grids with approx.  5.0 points / Ang**2.
                        Smoothing algorithm: York/Karplus (Gamma=1.0000).
                        Polarization charges: spherical gaussians, with
                                              point-specific exponents (IZeta= 3).
                        Self-potential: point-specific (ISelfS= 7).
                        Self-field    : sphere-specific E.n sum rule (ISelfD= 2).
 1st derivatives      : Analytical E(r).r(x)/FMM algorithm (CHGder, D1EAlg=3).
                        Cavity 1st derivative terms included.
 2nd derivatives      : Analytical E(r).r(xy)/FMM algorithm (CHGder, D2EAlg=3).
                        Cavity 2nd derivative terms included.
 Solvent              : TetraHydroFuran, Eps=   7.425700 Eps(inf)=   1.974025
 ------------------------------------------------------------------------------
[...]
 7355,-0.00005970,0.00007667,-0.00021572,-0.00002229,0.00013597,-0.0001
 9300,0.00017229,0.00002372,-0.00001488,-0.00020577,-0.00005535,-0.0000
 0551,0.00005494,0.00002033,0.00000707,0.00000233,-0.00015013,-0.000028
 33,0.00020337,0.00014942,0.00189412,0.00155398,0.00007708,-0.00029207,
 -0.00077373,-0.00085033,-0.00068059,-0.00036850,0.00019636,-0.00103398
 ,-0.00132928,-0.00034375,0.00009253,0.00014326,-0.00559899,0.00109804,
 0.00101833,-0.00123129,0.00059817,-0.00014895,0.00009045,0.00006437,0.
 00021136,-0.00820207,-0.02535047,-0.01215064,0.00042372,0.00035258,0.0
 0049998,0.00323850,-0.00134311,-0.00239075,-0.00131113,0.00070906,0.00
 162909,0.00011033,0.00008411,-0.00001227,-0.00000877,0.00001047,0.0000
 0890,-0.00001417,-0.00001933,0.00001826,-0.00001026,-0.00001445,-0.000
 01100,-0.00002511,0.00007509,0.00007034,-0.00000605,-0.00000119,-0.000
 00847,-0.00000115,-0.00000276,-0.00001694,0.00001246,-0.00002516,-0.00
 000090,-0.00015171,0.00013661,-0.00019240,0.00002032,-0.00004129,0.000
 01809,-0.00000886,-0.00002747,0.00004989,0.00000594,0.00000522,-0.0000
 0192,0.00046265,0.00008463,-0.00031404,-0.00012431,-0.00000282,0.00003
 609,0.00011523,-0.00010309,-0.00017140,-0.00008015,-0.00002792,0.00016
 840,0.00001152,0.00001418,0.00000642,-0.00000351,-0.00000251,0.0000017
 8,0.00000007,0.00000205,-0.00000241,0.00000057,-0.00000226,-0.00000288
 ,0.00024471,0.00008451,-0.00003173,-0.00021297,0.00007418,-0.00007365,
 0.00000490,-0.00003172,0.00009771,-0.00003553,0.00001167,-0.00001642,0
 .00003208,-0.00000059,0.00004518,0.00002024,-0.00001413,0.00001565,0.0
 0009176,-0.00009558,-0.00006531,0.00001336,-0.00000123,0.00001710,0.00
 001689,0.00000562,-0.00000388,-0.00003910,0.00001201,-0.00001167,0.000
 82989,-0.00125505,-0.00071198,-0.00039448,0.00013293,0.00021563,-0.000
 09856,0.00040396,0.00039241,-0.00039848,0.00051405,-0.00005289,-0.0532
 0086,-0.23479988,-0.05562303,0.01890233,-0.03024697,-0.03892352,0.0432
 7893,0.36132860,0.00000516,-0.00001121,-0.00000399,0.00001721,-0.00000
 093,-0.00000748,0.00003071,0.00000305,-0.00000535,-0.00000472,-0.00000
 428,0.00000623,0.00001388,0.00000775,-0.00003674,-0.00000057,0.0000012
 2,-0.00000023,0.00000067,-0.00000107,0.00000322,-0.00000417,0.00000128
 ,0.00000298,-0.00001011,-0.00000143,0.00000291,-0.00000630,-0.00000854
 ,0.00000594,-0.00002323,-0.00000006,0.00000684,-0.00001747,-0.00001117
 ,0.00000745,-0.00001715,0.00000462,0.00000355,-0.00001680,0.00001713,0
 .00002134,-0.00000766,-0.00000056,0.00003031,0.00004888,0.00005295,-0.
 00006992,-0.00000404,-0.00000686,0.00002459,-0.00001431,-0.00001964,0.
 00000464,-0.00010370,-0.00006632,0.00008684,0.00000547,0.00000109,0.00
 000078,0.00000015,-0.00000041,-0.00000096,-0.00000033,-0.00000121,0.00
 000022,-0.00000216,0.00000093,-0.00000007,0.00001255,-0.00001269,-0.00
 001509,-0.00000346,-0.00000115,0.00000463,-0.00000216,0.00000095,0.000
 00125,-0.00000065,0.00000323,-0.00000027,0.00000599,0.00000491,-0.0000
 1882,0.00000863,-0.00000717,-0.00001108,-0.00000494,0.00001069,-0.0000
 1744,-0.00000304,-0.00000620,0.00001399,-0.00002309,0.00003416,-0.0000
 5063,0.00000535,0.00003123,0.00001892,0.00016908,0.00013019,-0.0002874
 5,-0.00014144,-0.00005281,-0.00009197,-0.00004136,0.00000049,-0.000027
 10,0.00000866,0.00002289,0.00001276,-0.00000137,-0.00001742,0.00000224
 ,-0.00001872,0.00000905,0.00000529,-0.00018107,-0.00003222,-0.00008978
 ,0.00000863,-0.00000542,0.00000936,0.00006530,-0.00001741,0.00019465,0
 .00002878,-0.00052137,0.00011293,-0.00001483,-0.00004931,0.00000790,0.
 00002249,-0.00003874,0.00003421,0.00005582,0.00002181,0.00006621,0.000
 02877,-0.00011112,-0.00002751,-0.00000201,0.00002231,0.00000797,-0.000
 00053,-0.00000027,0.00002320,0.00015144,0.00023137,0.00007653,0.000021
 68,0.00129366,0.00060983,0.00005000,-0.00023921,-0.00035426,-0.0003868
 2,-0.00039528,-0.00012878,-0.00053879,0.00014476,-0.00095983,-0.000164
 80,-0.00027272,-0.00017749,-0.00211023,0.00007604,0.00146644,-0.000480
 38,0.00042987,0.00002954,0.00006543,0.00002888,0.00012863,-0.00582588,
 -0.01933326,0.00305033,0.00038332,0.00019089,0.00048076,0.00119324,-0.
 00048379,-0.00138175,-0.00052078,0.00067395,0.00083975,0.00002938,0.00
 002792,-0.00000367,-0.00000163,0.00000468,0.00000095,-0.00000336,-0.00
 000827,0.00000736,-0.00000133,-0.00000152,-0.00000210,0.00000327,0.000
 01446,-0.00000195,-0.00000560,-0.00000153,-0.00000238,0.00000136,0.000
 00330,-0.00000061,0.00000171,-0.00000627,0.00000235,-0.00001552,0.0000
 0676,-0.00002841,0.00000091,0.00000526,0.00000225,-0.00000547,-0.00000
 663,0.00000909,0.00001372,-0.00000724,-0.00000206,-0.00030888,-0.00015
 106,0.00012406,0.00000028,-0.00001947,-0.00002965,-0.00003300,-0.00009
 732,0.00002358,0.00003335,-0.00001783,-0.00000574,0.00000350,0.0000069
 9,0.00000097,-0.00000205,-0.00000129,0.00000083,0.00000052,0.00000045,
 -0.00000151,0.00000079,-0.00000129,-0.00000025,0.00012174,0.00006564,-
 0.00003457,-0.00013263,0.00002641,-0.00002651,0.00001580,-0.00000078,0
 .00004320,-0.00002264,0.00000365,-0.00000836,0.00001854,0.00000344,0.0
 0002284,0.00001022,-0.00001865,0.00000876,0.00005883,-0.00004817,-0.00
 003875,0.00000550,-0.00000280,0.00000927,0.00000872,0.00000292,-0.0000
 0247,-0.00002276,0.00000714,-0.00000641,0.00045136,-0.00060570,-0.0005
 2257,-0.00021282,0.00005960,0.00013315,-0.00004186,0.00020737,0.000265
 29,-0.00018952,0.00022417,0.00002354,-0.01733397,-0.05454304,-0.088907
 60,0.01191798,-0.04751357,-0.02457966,0.01158783,0.08461147,0.10029505
 ,0.00001727,-0.00000769,-0.00000367,0.00004446,0.00000057,-0.00001251,
 0.00007869,0.00001901,-0.00000484,-0.00000089,0.00000246,0.00002939,0.
 00005778,0.00002832,-0.00005172,-0.00000498,0.00000021,-0.00000441,0.0
 0000194,-0.00000024,0.00000791,-0.00001074,0.00000087,0.00000725,-0.00
 002361,-0.00000650,0.00000530,-0.00001727,-0.00001928,0.00001590,-0.00
 006463,-0.00001322,-0.00000657,-0.00004638,-0.00004041,0.00001022,-0.0
 0005178,0.00000578,-0.00000671,-0.00005582,0.00002011,0.00003899,-0.00
 008641,-0.00003629,0.00003753,0.00011137,0.00012934,-0.00014991,-0.000
 00989,-0.00001263,0.00005042,-0.00003608,-0.00005610,0.00000924,-0.000
 23435,-0.00019108,0.00016110,0.00001826,0.00000449,0.00001381,-0.00000
 130,-0.00000417,-0.00000414,-0.00000004,-0.00000116,0.,-0.00000506,0.0
 0000277,-0.00000112,0.00003596,-0.00002296,-0.00003070,-0.00000575,-0.
 00000176,0.00000990,-0.00000818,0.00000214,0.00000096,0.00000048,0.000
 00134,-0.00000030,0.00007250,0.00005278,-0.00004801,0.00003580,-0.0000
 3900,-0.00001950,-0.00001178,0.00003688,-0.00003533,-0.00000700,-0.000
 01146,0.00002357,-0.00010103,0.00005526,0.00001193,0.00001981,0.000093
 38,0.00005921,0.00031538,0.00051869,-0.00039074,-0.00007758,-0.0000718
 1,-0.00036926,-0.00044414,-0.00005669,-0.00007186,0.00002784,0.0000474
 5,0.00001679,0.00001283,-0.00003467,-0.00000515,-0.00004105,0.00000547
 ,-0.00001787,-0.00088557,-0.00036036,0.00001697,0.00006550,-0.00002134
 ,0.00000165,0.00004076,-0.00036263,0.00024399,0.00023416,-0.00124152,0
 .00010214,0.00000133,-0.00012686,-0.00001055,0.00014260,-0.00012005,-0
 .00000575,0.00020437,-0.00007077,0.00018818,-0.00016220,0.00032339,-0.
 00013296,0.00000534,-0.00004271,0.00001850,0.00004396,-0.00001504,0.00
 007825,-0.00017483,-0.00047567,0.00018104,-0.00000027,0.00266389,0.001
 96030,0.00013652,-0.00049533,-0.00090148,-0.00069197,-0.00082969,-0.00
 051009,-0.00118267,-0.00124426,0.00125124,-0.00092305,-0.00020064,-0.0
 0055022,-0.00111489,0.00317376,0.00113591,-0.00077190,-0.00146965,0.00
 087584,0.00024370,0.00014495,-0.00002359,-0.01660699,0.01928682,-0.034
 69997,0.00002538,0.00032720,-0.00085185,0.00107321,-0.00152057,-0.0026
 0862,0.00001170,0.00062039,-0.00043958,0.00004926,0.00005407,-0.000002
 88,-0.00000172,0.00001684,0.00000827,-0.00000632,-0.00001551,0.0000131
 9,-0.00000297,-0.00000641,-0.00000692,-0.00006150,0.00000382,0.0000600
 5,0.00001194,0.00000618,-0.00002026,0.00000546,0.00000958,-0.00000459,
 0.00000824,-0.00000982,-0.00000599,-0.00003449,-0.00001022,-0.00001468
 ,-0.00000339,0.00000726,0.00000495,0.00000813,-0.00000262,-0.00001239,
 0.00005437,-0.00001984,0.00002664,0.00076737,0.00028964,-0.00002392,-0
 .00004371,-0.00002832,0.00000400,-0.00230654,0.00026059,0.00116037,-0.
 00023215,-0.00004168,0.00029569,0.00000966,0.00002751,0.00000913,-0.00
 000456,-0.00000381,0.00000164,0.00000226,-0.00000006,-0.00000255,0.000
 00049,-0.00000334,-0.00000344,0.00027974,0.00019570,-0.00004095,-0.000
 34491,0.00003762,-0.00012819,0.00003035,0.00000301,0.00016241,-0.00005
 701,0.00000922,-0.00002762,0.00004145,0.00000306,0.00004972,0.00002651
 ,-0.00004547,0.00002467,0.00014651,-0.00009512,-0.00008417,0.00001779,
 -0.00001761,0.00003530,0.00003112,0.00001240,-0.00000854,-0.00006199,0
 .00001281,-0.00002092,0.00163423,-0.00147242,-0.00093586,-0.00077396,0
 .00008613,0.00039822,-0.00027622,0.00042605,0.00048968,-0.00056660,0.0
 0059231,-0.00007215,-0.09823295,0.03459245,-0.05202600,0.01380693,-0.0
 1174591,0.02767067,0.01390671,0.00361180,0.00233955,0.09295361,0.00000
 333,-0.00001965,-0.00000174,-0.00000378,-0.00000678,0.00001378,0.00001
 575,-0.00001469,0.00000713,0.00000656,-0.00001210,0.00001772,-0.000001
 16,-0.00001562,0.00003690,-0.00000360,0.00000047,-0.00000289,-0.000001
 16,0.00000078,-0.00000446,0.00000228,0.00000214,-0.00000227,-0.0000046
 5,0.00000433,-0.00000081,0.00000629,-0.00000088,-0.00000512,-0.0000223
 5,0.00001383,-0.00001999,-0.00000461,0.00000942,-0.00000519,-0.0000029
 0,0.00000999,-0.00000916,0.00000183,0.00002083,-0.00000875,-0.00004814
 ,0.00000868,-0.00002693,0.00002523,0.00003618,-0.00002033,0.00000043,-
 0.00000192,0.00000032,-0.00000767,-0.00000761,0.00000064,-0.00010331,0
 .00000048,-0.00001474,-0.00000239,-0.00000582,0.00000784,0.00000040,0.
 00000164,-0.00000027,0.00000184,0.00000093,-0.00000277,-0.00000082,-0.
 00000032,-0.00000047,-0.00000035,-0.00000452,0.00000281,0.00000107,0.0
 0000203,-0.00000338,-0.00000131,-0.00000026,0.00000006,-0.00000012,0.0
 0000279,0.00000253,0.00003958,-0.00002162,-0.00000448,-0.00000094,0.00
 000234,0.00001045,0.00000344,0.00000811,0.00001958,0.00000445,0.000002
 51,-0.00001577,0.00001749,0.00012725,0.00009193,0.00008488,0.00004954,
 0.00006234,-0.00006024,0.00038530,0.00064840,0.00100785,0.00073775,-0.
 00027988,-0.00013712,0.00010072,0.00008176,0.00006033,-0.00004986,-0.0
 0003459,0.00000169,0.00001341,-0.00000816,0.00001454,0.00001284,0.0000
 2810,0.00020128,-0.00029199,0.00036797,0.00001741,-0.00012559,0.000026
 90,-0.00055928,-0.00069936,-0.00058106,-0.00019352,0.00057742,-0.00035
 222,-0.00009452,-0.00008542,-0.00009000,0.00003443,-0.00017013,-0.0000
 9873,-0.00002825,-0.00035088,0.00022397,0.00002212,-0.00004219,-0.0002
 6640,-0.00007653,-0.00001030,0.00009335,0.00001573,0.00001928,-0.00004
 152,-0.00034749,-0.00020894,0.00004155,0.00032252,-0.00120611,-0.00035
 778,-0.00006625,0.00024142,0.00016606,0.00020350,0.00036327,0.00010666
 ,0.00139129,0.00091672,-0.00007024,-0.00013952,0.00051530,0.00061726,0
 .00089469,-0.00128894,-0.00033963,-0.00023412,-0.00000928,-0.00029962,
 -0.00004379,-0.00003036,0.00004170,0.00499411,0.00510565,0.01028959,-0
 .00004693,-0.00024065,0.00047247,0.00013213,0.00046552,-0.00039661,-0.
 00040250,-0.00014905,0.00028808,0.00006276,0.00003375,-0.00000976,-0.0
 0000694,-0.00000077,0.00000706,-0.00000850,-0.00000352,0.00000484,-0.0
 0000928,-0.00001258,-0.00000677,-0.00002660,0.00005756,0.00007690,0.00
 000148,0.00000152,-0.00000339,-0.00000337,-0.00001172,-0.00001849,0.00
 001005,-0.00001759,-0.00000607,-0.00017835,0.00016323,-0.00019895,0.00
 002541,-0.00005581,0.00002162,-0.00000237,-0.00002854,0.00004891,-0.00
 001162,0.00001845,-0.00000424,0.00089427,0.00056130,-0.00048172,-0.000
 23974,0.00003627,0.00020277,0.00032544,-0.00056796,-0.00011852,-0.0001
 3113,0.00002749,0.00017099,0.00000327,-0.00000352,0.00000190,0.0000006
 2,0.00000044,0.,-0.00000108,0.00000131,0.00000054,-0.00000073,0.000000
 48,-0.00000122,-0.00003733,-0.00007017,0.00005075,0.00008659,0.0000132
 1,0.00001249,-0.00002141,-0.00001646,-0.00002086,0.00001543,-0.0000003
 2,0.00000444,-0.00001030,-0.00000339,-0.00000983,-0.00000287,0.0000199
 3,-0.00000475,-0.00003628,0.00000898,0.00001863,-0.00000142,0.00000706
 ,-0.00000878,-0.00000676,-0.00000432,0.00000216,0.00001415,-0.00000239
 ,0.00000458,-0.00040543,0.00012660,0.00034859,0.00019881,0.00005428,-0
 .00012625,0.00008327,-0.00005352,-0.00014895,0.00013843,-0.00010822,-0
 .00000998,0.03187420,-0.11257116,0.06373493,-0.00658522,0.00925319,0.0
 1741264,0.01218676,-0.07176708,0.03605067,-0.04508337,0.17022597,0.000
 00283,0.00000849,-0.00000140,0.00002473,0.00000544,-0.00002528,0.00001
 872,0.00001863,-0.00001354,-0.00001447,0.00000341,-0.00000989,0.000015
 26,0.00002688,-0.00009983,0.00000323,0.00000109,0.00000291,0.00000231,
 -0.00000178,0.00000918,-0.00000804,-0.00000086,0.00000609,-0.00000854,
 -0.00000594,0.00000448,-0.00001563,-0.00001000,0.00001411,-0.00000284,
 -0.00001290,0.00003214,-0.00001541,-0.00002235,0.00001446,-0.00001634,
 -0.00000523,0.00001542,-0.00002297,-0.00000200,0.00003752,0.00006169,-
 0.00000482,0.00007757,0.00003475,0.00003183,-0.00007284,-0.00000510,-0
 .00000786,0.00003295,-0.00000986,-0.00001621,0.00000600,-0.00003218,-0
 .00007979,0.00012412,0.00000878,0.00000749,-0.00000815,-0.00000024,-0.
 00000214,-0.00000063,-0.00000224,-0.00000237,0.00000335,-0.00000160,0.
 00000134,0.00000049,0.00001536,-0.00001060,-0.00002226,-0.00000597,-0.
 00000395,0.00000974,-0.00000100,0.00000142,0.00000187,-0.00000073,0.00
 000117,-0.00000341,-0.00005198,0.00002853,-0.00001986,0.00000927,-0.00
 000582,-0.00003091,-0.00001053,-0.00000095,-0.00005051,-0.00001158,-0.
 00001449,0.00004184,-0.00004031,-0.00005170,-0.00017074,-0.00006990,-0
 .00000658,-0.00002783,0.00025753,-0.00016275,-0.00091804,-0.00103539,-
 0.00048414,0.00002774,0.00006015,-0.00007438,-0.00006251,-0.00003990,0
 .00007262,0.00004522,-0.00000620,-0.00003471,0.00001004,-0.00003512,0.
 00001186,-0.00000869,-0.00065920,-0.00057881,-0.00084652,0.00000881,0.
 00007755,-0.00000863,0.00046012,0.00054338,0.00077979,0.00014939,-0.00
 113278,0.00041737,0.00006770,0.00001935,0.00009338,-0.00000898,0.00010
 894,0.00014837,0.00011040,0.00038993,-0.00000023,0.00010760,-0.0006485
 1,0.00022165,0.00005740,0.00011910,-0.00003293,-0.00004576,-0.00000741
 ,0.00007868,0.00118887,0.00135490,0.00002382,0.00003054,0.00230082,0.0
 0101514,0.00004707,-0.00048179,-0.00052694,-0.00054923,-0.00067184,-0.
 00024706,-0.00021339,-0.00069636,0.00074259,-0.00074839,0.00052976,0.0
 0007576,-0.00058090,0.00101527,0.00117300,-0.00197112,-0.00110598,0.00
 072972,0.00014764,0.00012681,-0.00002497,-0.01917740,0.01727517,-0.015
 47486,0.00036799,0.00057603,-0.00047284,0.00036712,-0.00174773,-0.0030
 1249,0.00000379,0.00073776,-0.00054294,-0.00002060,0.00000403,0.000003
 47,0.00000416,0.00000600,-0.00000550,0.00000368,-0.00000722,0.00000475
 ,0.00000682,0.00000972,0.00000401,0.00003662,-0.00002940,-0.00007958,-
 0.00001090,-0.00000295,0.00000180,0.00000424,0.00001430,0.00001713,-0.
 00000815,0.00000740,0.00000947,0.00012084,-0.00014015,0.00013019,-0.00
 001969,0.00006307,-0.00001408,-0.00000590,0.00000730,-0.00002394,0.000
 03708,-0.00003135,-0.00000396,-0.00258630,-0.00100417,0.00115871,0.000
 45551,-0.00008859,-0.00040400,0.00106488,-0.00000110,-0.00100936,0.000
 43310,-0.00005319,-0.00046040,0.00000046,0.00001134,-0.00000118,-0.000
 00312,-0.00000196,0.00000087,0.00000179,-0.00000083,-0.00000240,0.0000
 0170,-0.00000206,0.00000123,0.00017171,0.00015440,-0.00008407,-0.00026
 171,0.00001214,-0.00005896,0.00003970,0.00001831,0.00008970,-0.0000427
 1,0.00000342,-0.00001682,0.00003017,0.00000755,0.00003354,0.00001671,-
 0.00004374,0.00001730,0.00011151,-0.00006381,-0.00006594,0.00000996,-0
 .00001442,0.00002369,0.00002187,0.00000993,-0.00000702,-0.00004495,0.0
 0000909,-0.00001476,0.00113125,-0.00128812,-0.00109544,-0.00074536,0.0
 0004604,0.00042656,-0.00014653,0.00034958,0.00056405,-0.00041568,0.000
 44746,0.00002430,-0.04872433,0.06389572,-0.16289731,0.01425780,0.02511
 397,-0.07210318,0.00077025,0.02268163,0.00959152,0.05609349,-0.1273987
 7,0.24296587\\0.00000042,-0.00000082,0.00000203,-0.00000047,-0.0000019
 2,0.00000223,0.00000026,-0.00000084,0.00000247,0.00000078,-0.00000035,
 0.00000188,0.00000046,0.00000029,0.00000069,-0.00000020,-0.00000168,0.
 00000257,-0.00000111,0.00000017,0.00000134,0.00000094,-0.00000003,0.00
 000222,0.00000097,-0.00000021,0.00000233,0.00000023,-0.00000020,0.0000
 0091,-0.00000100,-0.00000104,0.00000232,-0.00000018,-0.00000111,0.0000
 0361,0.00000132,0.00000007,0.00000205,0.00000189,0.00000083,0.00000073
 ,0.00000155,0.00000022,0.00000095,0.00000005,-0.00000070,0.00000034,0.
 00000137,0.00000051,0.00000191,0.00000094,-0.00000033,0.00000219,0.000
 00096,0.00000050,0.00000258,-0.00000090,-0.00000228,0.00000295,-0.0000
 0089,-0.00000185,0.00000286,-0.00000071,-0.00000207,0.00000199,-0.0000
 0085,-0.00000186,0.00000268,-0.00000027,0.00000048,0.00000079,0.000000
 64,0.00000058,0.00000092,0.,-0.00000151,0.00000160,0.00000058,-0.00000
 061,0.00000086,0.00000075,0.00000111,0.00000041,0.00000113,0.00000083,
 -0.00000049,0.00000101,0.00000045,0.00000021,0.00000160,0.00000124,0.0
 0000021,0.00000027,0.00000035,-0.00000020,0.00000074,-0.00000011,-0.00
 000005,0.00000071,0.00000084,-0.00000004,0.00000065,0.00000092,-0.0000
 0162,0.00000100,0.00000119,-0.00000136,-0.00000077,0.00000008,-0.00000
 020,0.00000096,0.00000073,0.00000021,-0.00000009,0.00000059,-0.0000011
 5,0.00000050,0.00000080,-0.00000166,0.00000040,0.00000114,-0.00000022,
 -0.00000023,0.00000007,-0.00000085,-0.00000059,-0.00000055,-0.00000049
 ,0.00000022,0.00000014,0.00000076,0.00000077,0.00000143,-0.00000012,0.
 00000119,0.00000167,-0.00000106,0.00000134,0.00000169,-0.00000060,0.00
 000163,0.00000135,-0.00000049,0.00000140,0.00000159,-0.00000130,0.0000
 0066,0.00000124,-0.00000180,-0.00000170,-0.00000118,-0.00000097,-0.000
 00174,-0.00000121,-0.00000138,-0.00000109,-0.00000085,-0.00000027,-0.0
 0000046,-0.00000009,-0.00000127,-0.00000144,-0.00000038,-0.00000169,-0
 .00000165,0.00000004,-0.00000219,-0.00000034,0.00000021,-0.00000159,-0
 .00000089,-0.00000028,-0.00000061,-0.00000050,0.00000033,-0.00000282,-
 0.00000101,-0.00000005,-0.00000241,-0.00000099,0.,-0.00000230,-0.00000
 061,0.00000071,-0.00000292,-0.00000005,-0.00000036,0.00000125,0.000000
 20,-0.00000043,0.00000137,0.00000084,0.00000009,0.00000159,-0.00000006
 ,-0.00000070,0.00000152,-0.00000044,0.00000072,-0.00000088,0.00000059,
 0.00000077,-0.00000118,0.00000062,0.00000027,0.00000025,0.00000098,0.0
 0000035,-0.00000022,0.00000089,0.00000225,-0.00000217,0.00000144,0.000
 00173,-0.00000147,0.00000202,0.00000279,-0.00000188,0.00000160,0.00000
 221,-0.00000239,0.00000068,0.00000092,-0.00000127,0.00000035,0.0000017
 7,-0.00000222,0.00000082,0.00000165,-0.00000279,0.00000120,0.00000217,
 -0.00000257,-0.00000008,-0.00000099,0.00000338,0.00000080,-0.00000107,
 0.00000431,0.00000091,-0.00000102,0.00000363,0.00000013,-0.00000177,0.
 00000427,-0.00000053,-0.00000181,0.00000095,-0.00000166,-0.00000092,0.
 00000034,-0.00000101,-0.00000177,-0.00000019,-0.00000265,-0.00000195,0
 .00000012,-0.00000222,-0.00000115,-0.00000008,-0.00000232,-0.00000198,
 -0.00000061,-0.00000084,-0.00000161,0.,-0.00000152,-0.00000118,-0.0000
 0069,-0.00000094,-0.00000095,0.00000070,-0.00000180,-0.00000146,0.0000
 0015,-0.00000099,0.00000003,-0.00000148,-0.00000201,-0.00000048,-0.000
 00063,-0.00000015,0.00000074,-0.00000233,-0.00000115,-0.00000037,-0.00
 000189,-0.00000102,0.00000116,-0.00000330,-0.00000117,0.00000038,-0.00
 000355,-0.00000087,0.00000047,-0.00000424,-0.00000023,0.00000124,-0.00
 000354\\\@


 IBM COMPATIBILITY IS LIKE PREGNANCY. YOU ARE OR
 OR YOU ARE NOT. -- ADAM OSBORNE
 Job cpu time:       4 days  7 hours 39 minutes 37.5 seconds.
 Elapsed time:       0 days  3 hours 51 minutes 20.5 seconds.
 File lengths (MBytes):  RWF=   9777 Int=      0 D2E=      0 Chk=     86 Scr=      1
 Normal termination of Gaussian 16 at Wed May 29 01:16:13 2019.
