 Entering Gaussian System, Link 0=g16
 Input=clay_new-glu_gluC6-ECDL-Na2_1Me2O-bisCF3-ts-b3lyp_d3bj-631gd-pcm_thf.gjf
 Output=clay_new-glu_gluC6-ECDL-Na2_1Me2O-bisCF3-ts-b3lyp_d3bj-631gd-pcm_thf.out
 Initial command:
 /home/ekwan/sw/g16/l1.exe "/scratch/users/ekwan/clay_new-glu_gluC6-ECDL-Na2_1Me2O-bisCF3-ts-b3lyp_d3bj-631gd-pcm_thf/Gau-11743.inp" -scrdir="/scratch/users/ekwan/clay_new-glu_gluC6-ECDL-Na2_1Me2O-bisCF3-ts-b3lyp_d3bj-631gd-pcm_thf/"
 Entering Link 1 = /home/ekwan/sw/g16/l1.exe PID=     11744.
  
 Copyright (c) 1988,1990,1992,1993,1995,1998,2003,2009,2016,
            Gaussian, Inc.  All Rights Reserved.
  
 This is part of the Gaussian(R) 16 program.  It is based on
 the Gaussian(R) 09 system (copyright 2009, Gaussian, Inc.),
 the Gaussian(R) 03 system (copyright 2003, Gaussian, Inc.),
 the Gaussian(R) 98 system (copyright 1998, Gaussian, Inc.),
 the Gaussian(R) 94 system (copyright 1995, Gaussian, Inc.),
 the Gaussian 92(TM) system (copyright 1992, Gaussian, Inc.),
 the Gaussian 90(TM) system (copyright 1990, Gaussian, Inc.),
 the Gaussian 88(TM) system (copyright 1988, Gaussian, Inc.),
 the Gaussian 86(TM) system (copyright 1986, Carnegie Mellon
 University), and the Gaussian 82(TM) system (copyright 1983,
 Carnegie Mellon University). Gaussian is a federally registered
 trademark of Gaussian, Inc.
  
 This software contains proprietary and confidential information,
 including trade secrets, belonging to Gaussian, Inc.
  
 This software is provided under written license and may be
 used, copied, transmitted, or stored only in accord with that
 written license.
  
 The following legend is applicable only to US Government
 contracts under FAR:
  
                    RESTRICTED RIGHTS LEGEND
  
 Use, reproduction and disclosure by the US Government is
 subject to restrictions as set forth in subparagraphs (a)
 and (c) of the Commercial Computer Software - Restricted
 Rights clause in FAR 52.227-19.
  
 Gaussian, Inc.
 340 Quinnipiac St., Bldg. 40, Wallingford CT 06492
  
  
 ---------------------------------------------------------------
 Warning -- This program may not be used in any manner that
 competes with the business of Gaussian, Inc. or will provide
 assistance to any competitor of Gaussian, Inc.  The licensee
 of this program is prohibited from giving any competitor of
 Gaussian, Inc. access to this program.  By using this program,
 the user acknowledges that Gaussian, Inc. is engaged in the
 business of creating and licensing software in the field of
 computational chemistry and represents and warrants to the
 licensee that it is not a competitor of Gaussian, Inc. and that
 it will not use this program in any manner prohibited above.
 ---------------------------------------------------------------
  

 Cite this work as:
 Gaussian 16, Revision A.03,
 M. J. Frisch, G. W. Trucks, H. B. Schlegel, G. E. Scuseria, 
 M. A. Robb, J. R. Cheeseman, G. Scalmani, V. Barone, 
 G. A. Petersson, H. Nakatsuji, X. Li, M. Caricato, A. V. Marenich, 
 J. Bloino, B. G. Janesko, R. Gomperts, B. Mennucci, H. P. Hratchian, 
 J. V. Ortiz, A. F. Izmaylov, J. L. Sonnenberg, D. Williams-Young, 
 F. Ding, F. Lipparini, F. Egidi, J. Goings, B. Peng, A. Petrone, 
 T. Henderson, D. Ranasinghe, V. G. Zakrzewski, J. Gao, N. Rega, 
 G. Zheng, W. Liang, M. Hada, M. Ehara, K. Toyota, R. Fukuda, 
 J. Hasegawa, M. Ishida, T. Nakajima, Y. Honda, O. Kitao, H. Nakai, 
 T. Vreven, K. Throssell, J. A. Montgomery, Jr., J. E. Peralta, 
 F. Ogliaro, M. J. Bearpark, J. J. Heyd, E. N. Brothers, K. N. Kudin, 
 V. N. Staroverov, T. A. Keith, R. Kobayashi, J. Normand, 
 K. Raghavachari, A. P. Rendell, J. C. Burant, S. S. Iyengar, 
 J. Tomasi, M. Cossi, J. M. Millam, M. Klene, C. Adamo, R. Cammi, 
 J. W. Ochterski, R. L. Martin, K. Morokuma, O. Farkas, 
 J. B. Foresman, and D. J. Fox, Gaussian, Inc., Wallingford CT, 2016.
 
 ******************************************
 Gaussian 16:  AS64L-G16RevA.03 25-Dec-2016
                25-May-2019 
 ******************************************
 %mem=48GB
 %nprocshared=32
 Will use up to   32 processors via shared memory.
 ----------------------------------------------------------------------
 #p opt=(ts,noeigentest,calcfc,maxstep=1,modredundant,recalc=30) freq=n
 oraman b3lyp 6-31g* pop=none scrf=(solvent=tetrahydrofuran,pcm) empiri
 caldispersion=gd3bj
 ----------------------------------------------------------------------
 1/5=1,8=1,10=4,11=1,18=120,26=3,38=1,71=30/1,3;
 2/9=110,12=2,17=6,18=5,40=1/2;
 3/5=1,6=6,7=1,11=2,25=1,30=1,70=2201,71=2,72=20,74=-5,124=41,140=1/1,2,3;
 4//1;
 5/5=2,38=5,53=20/2;
 8/6=4,10=90,11=11/1;
 11/6=1,8=1,9=11,15=111,16=1/1,2,10;
 10/6=1,13=1/2;
 7/10=1,18=20,25=1/1,2,3,16;
 1/5=1,8=1,10=4,11=1,18=20,26=3,71=30/3(2);
 2/9=110/2;
 99//99;
 2/9=110/2;
 3/5=1,6=6,7=1,11=2,25=1,30=1,70=2205,71=1,72=20,74=-5,124=41/1,2,3;
 4/5=5,16=3,69=1/1;
 5/5=2,38=5,53=20/2;
 7//1,2,3,16;
 1/5=1,8=1,11=1,18=20,26=3,71=30/3(-5);
 2/9=110/2;
 99/9=1/99;
 Leave Link    1 at Sat May 25 14:26:48 2019, MaxMem=  6442450944 cpu:              11.6 elap:               0.4
 (Enter /home/ekwan/sw/g16/l101.exe)
 -----
 title
 -----
 Symbolic Z-matrix:
 Charge =  0 Multiplicity = 1
 C                     4.11042  -2.38123  -1.44511 
 C                     4.08213  -2.14445   0.06364 
 C                     4.48851  -0.70688   0.38221 
 C                     3.65752   0.12672  -1.71242 
 C                     3.3295   -1.29322  -2.18444 
 H                     4.3716   -0.51463   1.45722 
 H                     3.05198  -2.26355   0.42532 
 H                     5.157    -2.37227  -1.77454 
 H                     4.67811   0.38168  -2.02445 
 H                     2.26526  -1.46042  -2.00605 
 O                     3.60111   0.19359  -0.26111 
 O                     5.82353  -0.51744   0.00706 
 O                     4.93737  -3.03547   0.75973 
 O                     3.53035  -3.66308  -1.68954 
 O                     3.60573  -1.39459  -3.58296 
 C                     2.67922   1.17583  -2.28041 
 H                     3.04467   1.37199  -3.31414 
 H                     2.90042   2.10607  -1.71231 
 O                     1.35256   0.81775  -2.24622 
 C                     4.25132  -4.12341   1.36575 
 H                     3.50337  -3.7654    2.08929 
 H                     3.75255  -4.74802   0.6167 
 H                     5.00355  -4.71472   1.89458 
 C                     4.15029  -4.39573  -2.73667 
 H                     4.08468  -3.86756  -3.6937 
 H                     5.20886  -4.59005  -2.50994 
 H                     3.62266  -5.35078  -2.80762 
 C                     2.43379  -1.42452  -4.39097 
 H                     1.89585  -2.37651  -4.26759 
 H                     1.76122  -0.59914  -4.13114 
 H                     2.76262  -1.33715  -5.43057 
 C                     0.83306  -0.22844   2.30089 
 C                     0.63993  -0.32883   0.79153 
 C                     0.35103   1.00157   0.16855 
 C                     1.51686   2.20477   1.89005 
 C                     1.84923   0.87908   2.58939 
 H                    -0.04631   1.03409  -0.8235 
 H                     1.61198  -0.59093   0.3508 
 H                    -0.12047   0.01861   2.78352 
 H                     0.72355   2.7021    2.45294 
 H                     2.82949   0.53043   2.24486 
 O                     0.97946   2.0661    0.53642 
 O                    -2.03737   1.66551  -1.45683 
 O                    -0.33062  -1.2966    0.47376 
 O                     1.35901  -1.4436    2.80814 
 O                     1.90049   1.20135   3.96815 
 C                     2.75816   3.07762   1.75244 
 H                     3.43984   2.58437   1.0534 
 H                     3.23621   3.14233   2.74032 
 O                     2.49846   4.3619    1.22527 
 S                    -2.57312   1.74728  -0.0631 
 O                    -3.26795   3.00769   0.25264 
 O                    -1.51662   1.37402   0.96504 
 C                    -3.79181   0.43457   0.06181 
 C                    -5.12102   0.69807  -0.26147 
 C                    -3.37711  -0.83672   0.44177 
 C                    -6.04459  -0.34599  -0.21313 
 H                    -5.42924   1.70235  -0.5269 
 C                    -4.31423  -1.86911   0.47985 
 H                    -2.33842  -1.01118   0.70074 
 C                    -5.64774  -1.63404   0.15304 
 H                    -6.3726   -2.43746   0.19506 
 C                    -0.12808  -1.95369  -0.7827 
 H                    -1.03754  -2.52535  -0.97378 
 H                     0.04852  -1.22836  -1.58316 
 H                     0.72634  -2.64004  -0.72393 
 C                     0.37436  -2.33888   3.32338 
 H                    -0.14322  -1.89428   4.18455 
 H                    -0.36109  -2.61008   2.56039 
 H                     0.91283  -3.23118   3.65043 
 C                     2.91988   0.51765   4.69429 
 H                     2.76355  -0.56453   4.67586 
 H                     3.91409   0.74588   4.28429 
 H                     2.86437   0.88482   5.72144 
 C                     1.90891   5.26227   2.1529 
 H                     1.84589   6.23063   1.65229 
 H                     0.8973    4.95314   2.44825 
 H                     2.52707   5.35849   3.05686 
 C                     6.34485   0.74458   0.40906 
 H                     7.40878   0.73767   0.1649 
 H                     5.85351   1.5699   -0.11919 
 H                     6.22069   0.89163   1.49157 
 Na                   -0.27593   2.1683   -2.8906 
 O                     0.18827   4.29636  -2.13354 
 C                    -0.49577   4.82264  -0.99844 
 H                    -0.51893   5.92083  -1.03806 
 H                    -1.5131    4.43174  -1.01664 
 H                     0.00098   4.50347  -0.07526 
 C                     1.54871   4.72221  -2.17022 
 H                     2.05842   4.46609  -1.23445 
 H                     2.02776   4.20795  -3.00639 
 H                     1.6069    5.80851  -2.32942 
 C                    -7.47353  -0.09415  -0.61079 
 F                    -7.85128   1.17525  -0.35042 
 F                    -8.32731  -0.91646   0.03651 
 F                    -7.6612   -0.29741  -1.93615 
 C                    -3.83561  -3.2475    0.8426 
 F                    -3.12843  -3.80552  -0.17307 
 F                    -4.85054  -4.08732   1.12628 
 F                    -3.01187  -3.22317   1.91539 
 
 Add virtual bond connecting atoms H37        and O19        Dist= 3.79D+00.
 Add virtual bond connecting atoms H41        and H6         Dist= 3.82D+00.
 Add virtual bond connecting atoms O43        and H37        Dist= 4.12D+00.
 Add virtual bond connecting atoms O53        and C34        Dist= 3.90D+00.
 Add virtual bond connecting atoms H60        and O44        Dist= 3.86D+00.
 Add virtual bond connecting atoms O84        and Na83       Dist= 4.36D+00.
 The following ModRedundant input section has been read:
 
 ITRead=  0  0  0  0  0  0  0  0  0  0  0  0  0  0  0  0  0  0  0  0
 ITRead=  0  0  0  0  0  0  0  0  0  0  0  0  0  0  0  0  0  0  0  0
 ITRead=  0  0  0  0  0  0  0  0  0  0  0  0  0  0  0  0  0  0  0  0
 ITRead=  0  0  0  0  0  0  0  0  0  0  0  0  0  0  0  0  0  0  0  0
 ITRead=  0  0  0  0  0  0  0  0  0  0  0  0  0  0  0  0  0  0  0  0
 MicOpt= -1 -1 -1 -1 -1 -1 -1 -1 -1 -1 -1 -1 -1 -1 -1 -1 -1 -1 -1 -1
 MicOpt= -1 -1 -1 -1 -1 -1 -1 -1 -1 -1 -1 -1 -1 -1 -1 -1 -1 -1 -1 -1
 MicOpt= -1 -1 -1 -1 -1 -1 -1 -1 -1 -1 -1 -1 -1 -1 -1 -1 -1 -1 -1 -1
 MicOpt= -1 -1 -1 -1 -1 -1 -1 -1 -1 -1 -1 -1 -1 -1 -1 -1 -1 -1 -1 -1
 MicOpt= -1 -1 -1 -1 -1 -1 -1 -1 -1 -1 -1 -1 -1 -1 -1 -1 -1 -1 -1 -1
 NAtoms=    100 NQM=      100 NQMF=       0 NMMI=      0 NMMIF=      0
                NMic=       0 NMicF=      0.
                    Isotopes and Nuclear Properties:
 (Nuclear quadrupole moments (NQMom) in fm**2, nuclear magnetic moments (NMagM)
  in nuclear magnetons)

  Atom         1           2           3           4           5           6           7           8           9          10
 IAtWgt=          12          12          12          12          12           1           1           1           1           1
 AtmWgt=  12.0000000  12.0000000  12.0000000  12.0000000  12.0000000   1.0078250   1.0078250   1.0078250   1.0078250   1.0078250
 NucSpn=           0           0           0           0           0           1           1           1           1           1
 AtZEff=   0.0000000   0.0000000   0.0000000   0.0000000   0.0000000   0.0000000   0.0000000   0.0000000   0.0000000   0.0000000
 NQMom=    0.0000000   0.0000000   0.0000000   0.0000000   0.0000000   0.0000000   0.0000000   0.0000000   0.0000000   0.0000000
 NMagM=    0.0000000   0.0000000   0.0000000   0.0000000   0.0000000   2.7928460   2.7928460   2.7928460   2.7928460   2.7928460
 AtZNuc=   6.0000000   6.0000000   6.0000000   6.0000000   6.0000000   1.0000000   1.0000000   1.0000000   1.0000000   1.0000000

  Atom        11          12          13          14          15          16          17          18          19          20
 IAtWgt=          16          16          16          16          16          12           1           1          16          12
 AtmWgt=  15.9949146  15.9949146  15.9949146  15.9949146  15.9949146  12.0000000   1.0078250   1.0078250  15.9949146  12.0000000
 NucSpn=           0           0           0           0           0           0           1           1           0           0
 AtZEff=   0.0000000   0.0000000   0.0000000   0.0000000   0.0000000   0.0000000   0.0000000   0.0000000   0.0000000   0.0000000
 NQMom=    0.0000000   0.0000000   0.0000000   0.0000000   0.0000000   0.0000000   0.0000000   0.0000000   0.0000000   0.0000000
 NMagM=    0.0000000   0.0000000   0.0000000   0.0000000   0.0000000   0.0000000   2.7928460   2.7928460   0.0000000   0.0000000
 AtZNuc=   8.0000000   8.0000000   8.0000000   8.0000000   8.0000000   6.0000000   1.0000000   1.0000000   8.0000000   6.0000000

  Atom        21          22          23          24          25          26          27          28          29          30
 IAtWgt=           1           1           1          12           1           1           1          12           1           1
 AtmWgt=   1.0078250   1.0078250   1.0078250  12.0000000   1.0078250   1.0078250   1.0078250  12.0000000   1.0078250   1.0078250
 NucSpn=           1           1           1           0           1           1           1           0           1           1
 AtZEff=   0.0000000   0.0000000   0.0000000   0.0000000   0.0000000   0.0000000   0.0000000   0.0000000   0.0000000   0.0000000
 NQMom=    0.0000000   0.0000000   0.0000000   0.0000000   0.0000000   0.0000000   0.0000000   0.0000000   0.0000000   0.0000000
 NMagM=    2.7928460   2.7928460   2.7928460   0.0000000   2.7928460   2.7928460   2.7928460   0.0000000   2.7928460   2.7928460
 AtZNuc=   1.0000000   1.0000000   1.0000000   6.0000000   1.0000000   1.0000000   1.0000000   6.0000000   1.0000000   1.0000000

  Atom        31          32          33          34          35          36          37          38          39          40
 IAtWgt=           1          12          12          12          12          12           1           1           1           1
 AtmWgt=   1.0078250  12.0000000  12.0000000  12.0000000  12.0000000  12.0000000   1.0078250   1.0078250   1.0078250   1.0078250
 NucSpn=           1           0           0           0           0           0           1           1           1           1
 AtZEff=   0.0000000   0.0000000   0.0000000   0.0000000   0.0000000   0.0000000   0.0000000   0.0000000   0.0000000   0.0000000
 NQMom=    0.0000000   0.0000000   0.0000000   0.0000000   0.0000000   0.0000000   0.0000000   0.0000000   0.0000000   0.0000000
 NMagM=    2.7928460   0.0000000   0.0000000   0.0000000   0.0000000   0.0000000   2.7928460   2.7928460   2.7928460   2.7928460
 AtZNuc=   1.0000000   6.0000000   6.0000000   6.0000000   6.0000000   6.0000000   1.0000000   1.0000000   1.0000000   1.0000000

  Atom        41          42          43          44          45          46          47          48          49          50
 IAtWgt=           1          16          16          16          16          16          12           1           1          16
 AtmWgt=   1.0078250  15.9949146  15.9949146  15.9949146  15.9949146  15.9949146  12.0000000   1.0078250   1.0078250  15.9949146
 NucSpn=           1           0           0           0           0           0           0           1           1           0
 AtZEff=   0.0000000   0.0000000   0.0000000   0.0000000   0.0000000   0.0000000   0.0000000   0.0000000   0.0000000   0.0000000
 NQMom=    0.0000000   0.0000000   0.0000000   0.0000000   0.0000000   0.0000000   0.0000000   0.0000000   0.0000000   0.0000000
 NMagM=    2.7928460   0.0000000   0.0000000   0.0000000   0.0000000   0.0000000   0.0000000   2.7928460   2.7928460   0.0000000
 AtZNuc=   1.0000000   8.0000000   8.0000000   8.0000000   8.0000000   8.0000000   6.0000000   1.0000000   1.0000000   8.0000000

  Atom        51          52          53          54          55          56          57          58          59          60
 IAtWgt=          32          16          16          12          12          12          12           1          12           1
 AtmWgt=  31.9720718  15.9949146  15.9949146  12.0000000  12.0000000  12.0000000  12.0000000   1.0078250  12.0000000   1.0078250
 NucSpn=           0           0           0           0           0           0           0           1           0           1
 AtZEff=   0.0000000   0.0000000   0.0000000   0.0000000   0.0000000   0.0000000   0.0000000   0.0000000   0.0000000   0.0000000
 NQMom=    0.0000000   0.0000000   0.0000000   0.0000000   0.0000000   0.0000000   0.0000000   0.0000000   0.0000000   0.0000000
 NMagM=    0.0000000   0.0000000   0.0000000   0.0000000   0.0000000   0.0000000   0.0000000   2.7928460   0.0000000   2.7928460
 AtZNuc=  16.0000000   8.0000000   8.0000000   6.0000000   6.0000000   6.0000000   6.0000000   1.0000000   6.0000000   1.0000000

  Atom        61          62          63          64          65          66          67          68          69          70
 IAtWgt=          12           1          12           1           1           1          12           1           1           1
 AtmWgt=  12.0000000   1.0078250  12.0000000   1.0078250   1.0078250   1.0078250  12.0000000   1.0078250   1.0078250   1.0078250
 NucSpn=           0           1           0           1           1           1           0           1           1           1
 AtZEff=   0.0000000   0.0000000   0.0000000   0.0000000   0.0000000   0.0000000   0.0000000   0.0000000   0.0000000   0.0000000
 NQMom=    0.0000000   0.0000000   0.0000000   0.0000000   0.0000000   0.0000000   0.0000000   0.0000000   0.0000000   0.0000000
 NMagM=    0.0000000   2.7928460   0.0000000   2.7928460   2.7928460   2.7928460   0.0000000   2.7928460   2.7928460   2.7928460
 AtZNuc=   6.0000000   1.0000000   6.0000000   1.0000000   1.0000000   1.0000000   6.0000000   1.0000000   1.0000000   1.0000000

  Atom        71          72          73          74          75          76          77          78          79          80
 IAtWgt=          12           1           1           1          12           1           1           1          12           1
 AtmWgt=  12.0000000   1.0078250   1.0078250   1.0078250  12.0000000   1.0078250   1.0078250   1.0078250  12.0000000   1.0078250
 NucSpn=           0           1           1           1           0           1           1           1           0           1
 AtZEff=   0.0000000   0.0000000   0.0000000   0.0000000   0.0000000   0.0000000   0.0000000   0.0000000   0.0000000   0.0000000
 NQMom=    0.0000000   0.0000000   0.0000000   0.0000000   0.0000000   0.0000000   0.0000000   0.0000000   0.0000000   0.0000000
 NMagM=    0.0000000   2.7928460   2.7928460   2.7928460   0.0000000   2.7928460   2.7928460   2.7928460   0.0000000   2.7928460
 AtZNuc=   6.0000000   1.0000000   1.0000000   1.0000000   6.0000000   1.0000000   1.0000000   1.0000000   6.0000000   1.0000000

  Atom        81          82          83          84          85          86          87          88          89          90
 IAtWgt=           1           1          23          16          12           1           1           1          12           1
 AtmWgt=   1.0078250   1.0078250  22.9897697  15.9949146  12.0000000   1.0078250   1.0078250   1.0078250  12.0000000   1.0078250
 NucSpn=           1           1           3           0           0           1           1           1           0           1
 AtZEff=   0.0000000   0.0000000   0.0000000   0.0000000   0.0000000   0.0000000   0.0000000   0.0000000   0.0000000   0.0000000
 NQMom=    0.0000000   0.0000000  10.4000000   0.0000000   0.0000000   0.0000000   0.0000000   0.0000000   0.0000000   0.0000000
 NMagM=    2.7928460   2.7928460   2.2175200   0.0000000   0.0000000   2.7928460   2.7928460   2.7928460   0.0000000   2.7928460
 AtZNuc=   1.0000000   1.0000000  11.0000000   8.0000000   6.0000000   1.0000000   1.0000000   1.0000000   6.0000000   1.0000000

  Atom        91          92          93          94          95          96          97          98          99         100
 IAtWgt=           1           1          12          19          19          19          12          19          19          19
 AtmWgt=   1.0078250   1.0078250  12.0000000  18.9984033  18.9984033  18.9984033  12.0000000  18.9984033  18.9984033  18.9984033
 NucSpn=           1           1           0           1           1           1           0           1           1           1
 AtZEff=   0.0000000   0.0000000   0.0000000   0.0000000   0.0000000   0.0000000   0.0000000   0.0000000   0.0000000   0.0000000
 NQMom=    0.0000000   0.0000000   0.0000000   0.0000000   0.0000000   0.0000000   0.0000000   0.0000000   0.0000000   0.0000000
 NMagM=    2.7928460   2.7928460   0.0000000   2.6288670   2.6288670   2.6288670   0.0000000   2.6288670   2.6288670   2.6288670
 AtZNuc=   1.0000000   1.0000000   6.0000000   9.0000000   9.0000000   9.0000000   6.0000000   9.0000000   9.0000000   9.0000000
 Leave Link  101 at Sat May 25 14:26:49 2019, MaxMem=  6442450944 cpu:              18.0 elap:               0.7
 (Enter /home/ekwan/sw/g16/l103.exe)

 GradGradGradGradGradGradGradGradGradGradGradGradGradGradGradGradGradGrad
 Berny optimization.
 Initialization pass.
                           ----------------------------
                           !    Initial Parameters    !
                           ! (Angstroms and Degrees)  !
 --------------------------                            --------------------------
 ! Name  Definition              Value          Derivative Info.                !
 --------------------------------------------------------------------------------
 ! R1    R(1,2)                  1.5275         calculate D2E/DX2 analytically  !
 ! R2    R(1,5)                  1.5298         calculate D2E/DX2 analytically  !
 ! R3    R(1,8)                  1.0972         calculate D2E/DX2 analytically  !
 ! R4    R(1,14)                 1.4281         calculate D2E/DX2 analytically  !
 ! R5    R(2,3)                  1.5275         calculate D2E/DX2 analytically  !
 ! R6    R(2,7)                  1.0983         calculate D2E/DX2 analytically  !
 ! R7    R(2,13)                 1.4177         calculate D2E/DX2 analytically  !
 ! R8    R(3,6)                  1.0983         calculate D2E/DX2 analytically  !
 ! R9    R(3,11)                 1.4185         calculate D2E/DX2 analytically  !
 ! R10   R(3,12)                 1.3996         calculate D2E/DX2 analytically  !
 ! R11   R(4,5)                  1.5319         calculate D2E/DX2 analytically  !
 ! R12   R(4,9)                  1.0973         calculate D2E/DX2 analytically  !
 ! R13   R(4,11)                 1.4539         calculate D2E/DX2 analytically  !
 ! R14   R(4,16)                 1.5428         calculate D2E/DX2 analytically  !
 ! R15   R(5,10)                 1.092          calculate D2E/DX2 analytically  !
 ! R16   R(5,15)                 1.4291         calculate D2E/DX2 analytically  !
 ! R17   R(6,41)                 2.0225         calculate D2E/DX2 analytically  !
 ! R18   R(12,79)                1.4234         calculate D2E/DX2 analytically  !
 ! R19   R(13,20)                1.4218         calculate D2E/DX2 analytically  !
 ! R20   R(14,24)                1.4204         calculate D2E/DX2 analytically  !
 ! R21   R(15,28)                1.4238         calculate D2E/DX2 analytically  !
 ! R22   R(16,17)                1.1138         calculate D2E/DX2 analytically  !
 ! R23   R(16,18)                1.1122         calculate D2E/DX2 analytically  !
 ! R24   R(16,19)                1.3746         calculate D2E/DX2 analytically  !
 ! R25   R(19,37)                2.0069         calculate D2E/DX2 analytically  !
 ! R26   R(19,83)                2.2116         calculate D2E/DX2 analytically  !
 ! R27   R(20,21)                1.1005         calculate D2E/DX2 analytically  !
 ! R28   R(20,22)                1.0954         calculate D2E/DX2 analytically  !
 ! R29   R(20,23)                1.0932         calculate D2E/DX2 analytically  !
 ! R30   R(24,25)                1.0951         calculate D2E/DX2 analytically  !
 ! R31   R(24,26)                1.0999         calculate D2E/DX2 analytically  !
 ! R32   R(24,27)                1.0934         calculate D2E/DX2 analytically  !
 ! R33   R(28,29)                1.1004         calculate D2E/DX2 analytically  !
 ! R34   R(28,30)                1.096          calculate D2E/DX2 analytically  !
 ! R35   R(28,31)                1.0939         calculate D2E/DX2 analytically  !
 ! R36   R(32,33)                1.525          calculate D2E/DX2 analytically  !
 ! R37   R(32,36)                1.5305         calculate D2E/DX2 analytically  !
 ! R38   R(32,39)                1.0969         calculate D2E/DX2 analytically  !
 ! R39   R(32,45)                1.4179         calculate D2E/DX2 analytically  !
 ! R40   R(33,34)                1.4972         calculate D2E/DX2 analytically  !
 ! R41   R(33,38)                1.099          calculate D2E/DX2 analytically  !
 ! R42   R(33,44)                1.4069         calculate D2E/DX2 analytically  !
 ! R43   R(34,37)                1.0692         calculate D2E/DX2 analytically  !
 ! R44   R(34,42)                1.2898         calculate D2E/DX2 analytically  !
 ! R45   R(34,53)                2.0643         calculate D2E/DX2 analytically  !
 ! R46   R(35,36)                1.5353         calculate D2E/DX2 analytically  !
 ! R47   R(35,40)                1.0925         calculate D2E/DX2 analytically  !
 ! R48   R(35,42)                1.463          calculate D2E/DX2 analytically  !
 ! R49   R(35,47)                1.5237         calculate D2E/DX2 analytically  !
 ! R50   R(36,41)                1.096          calculate D2E/DX2 analytically  !
 ! R51   R(36,46)                1.4169         calculate D2E/DX2 analytically  !
 ! R52   R(37,43)                2.1827         calculate D2E/DX2 analytically  !
 ! R53   R(43,51)                1.4954         calculate D2E/DX2 analytically  !
 ! R54   R(44,60)                2.0407         calculate D2E/DX2 analytically  !
 ! R55   R(44,63)                1.4323         calculate D2E/DX2 analytically  !
 ! R56   R(45,67)                1.4271         calculate D2E/DX2 analytically  !
 ! R57   R(46,71)                1.4261         calculate D2E/DX2 analytically  !
 ! R58   R(47,48)                1.0939         calculate D2E/DX2 analytically  !
 ! R59   R(47,49)                1.0994         calculate D2E/DX2 analytically  !
 ! R60   R(47,50)                1.4124         calculate D2E/DX2 analytically  !
 ! R61   R(50,75)                1.4208         calculate D2E/DX2 analytically  !
 ! R62   R(51,52)                1.4735         calculate D2E/DX2 analytically  !
 ! R63   R(51,53)                1.5207         calculate D2E/DX2 analytically  !
 ! R64   R(51,54)                1.7956         calculate D2E/DX2 analytically  !
 ! R65   R(54,55)                1.3931         calculate D2E/DX2 analytically  !
 ! R66   R(54,56)                1.3901         calculate D2E/DX2 analytically  !
 ! R67   R(55,57)                1.3948         calculate D2E/DX2 analytically  !
 ! R68   R(55,58)                1.0835         calculate D2E/DX2 analytically  !
 ! R69   R(56,59)                1.3948         calculate D2E/DX2 analytically  !
 ! R70   R(56,60)                1.0846         calculate D2E/DX2 analytically  !
 ! R71   R(57,61)                1.3967         calculate D2E/DX2 analytically  !
 ! R72   R(57,93)                1.5045         calculate D2E/DX2 analytically  !
 ! R73   R(59,61)                1.3929         calculate D2E/DX2 analytically  !
 ! R74   R(59,97)                1.5035         calculate D2E/DX2 analytically  !
 ! R75   R(61,62)                1.0829         calculate D2E/DX2 analytically  !
 ! R76   R(63,64)                1.0911         calculate D2E/DX2 analytically  !
 ! R77   R(63,65)                1.0945         calculate D2E/DX2 analytically  !
 ! R78   R(63,66)                1.0975         calculate D2E/DX2 analytically  !
 ! R79   R(67,68)                1.0987         calculate D2E/DX2 analytically  !
 ! R80   R(67,69)                1.0939         calculate D2E/DX2 analytically  !
 ! R81   R(67,70)                1.0923         calculate D2E/DX2 analytically  !
 ! R82   R(71,72)                1.0936         calculate D2E/DX2 analytically  !
 ! R83   R(71,73)                1.0994         calculate D2E/DX2 analytically  !
 ! R84   R(71,74)                1.0922         calculate D2E/DX2 analytically  !
 ! R85   R(75,76)                1.0919         calculate D2E/DX2 analytically  !
 ! R86   R(75,77)                1.0982         calculate D2E/DX2 analytically  !
 ! R87   R(75,78)                1.0993         calculate D2E/DX2 analytically  !
 ! R88   R(79,80)                1.0916         calculate D2E/DX2 analytically  !
 ! R89   R(79,81)                1.0962         calculate D2E/DX2 analytically  !
 ! R90   R(79,82)                1.0995         calculate D2E/DX2 analytically  !
 ! R91   R(83,84)                2.3059         calculate D2E/DX2 analytically  !
 ! R92   R(84,85)                1.4259         calculate D2E/DX2 analytically  !
 ! R93   R(84,89)                1.426          calculate D2E/DX2 analytically  !
 ! R94   R(85,86)                1.0992         calculate D2E/DX2 analytically  !
 ! R95   R(85,87)                1.09           calculate D2E/DX2 analytically  !
 ! R96   R(85,88)                1.0959         calculate D2E/DX2 analytically  !
 ! R97   R(89,90)                1.0959         calculate D2E/DX2 analytically  !
 ! R98   R(89,91)                1.0923         calculate D2E/DX2 analytically  !
 ! R99   R(89,92)                1.0995         calculate D2E/DX2 analytically  !
 ! R100  R(93,94)                1.3498         calculate D2E/DX2 analytically  !
 ! R101  R(93,95)                1.3506         calculate D2E/DX2 analytically  !
 ! R102  R(93,96)                1.3539         calculate D2E/DX2 analytically  !
 ! R103  R(97,98)                1.3576         calculate D2E/DX2 analytically  !
 ! R104  R(97,99)                1.3475         calculate D2E/DX2 analytically  !
 ! R105  R(97,100)               1.3528         calculate D2E/DX2 analytically  !
 ! A1    A(2,1,5)              110.9571         calculate D2E/DX2 analytically  !
 ! A2    A(2,1,8)              108.2372         calculate D2E/DX2 analytically  !
 ! A3    A(2,1,14)             107.4986         calculate D2E/DX2 analytically  !
 ! A4    A(5,1,8)              109.6333         calculate D2E/DX2 analytically  !
 ! A5    A(5,1,14)             110.3854         calculate D2E/DX2 analytically  !
 ! A6    A(8,1,14)             110.0825         calculate D2E/DX2 analytically  !
 ! A7    A(1,2,3)              110.3014         calculate D2E/DX2 analytically  !
 ! A8    A(1,2,7)              109.0164         calculate D2E/DX2 analytically  !
 ! A9    A(1,2,13)             112.1099         calculate D2E/DX2 analytically  !
 ! A10   A(3,2,7)              106.4344         calculate D2E/DX2 analytically  !
 ! A11   A(3,2,13)             109.1839         calculate D2E/DX2 analytically  !
 ! A12   A(7,2,13)             109.6324         calculate D2E/DX2 analytically  !
 ! A13   A(2,3,6)              109.9101         calculate D2E/DX2 analytically  !
 ! A14   A(2,3,11)             109.6582         calculate D2E/DX2 analytically  !
 ! A15   A(2,3,12)             108.9808         calculate D2E/DX2 analytically  !
 ! A16   A(6,3,11)             105.4376         calculate D2E/DX2 analytically  !
 ! A17   A(6,3,12)             109.889          calculate D2E/DX2 analytically  !
 ! A18   A(11,3,12)            112.907          calculate D2E/DX2 analytically  !
 ! A19   A(5,4,9)              109.0823         calculate D2E/DX2 analytically  !
 ! A20   A(5,4,11)             109.9927         calculate D2E/DX2 analytically  !
 ! A21   A(5,4,16)             112.4007         calculate D2E/DX2 analytically  !
 ! A22   A(9,4,11)             108.0149         calculate D2E/DX2 analytically  !
 ! A23   A(9,4,16)             109.0925         calculate D2E/DX2 analytically  !
 ! A24   A(11,4,16)            108.1561         calculate D2E/DX2 analytically  !
 ! A25   A(1,5,4)              113.6422         calculate D2E/DX2 analytically  !
 ! A26   A(1,5,10)             108.0387         calculate D2E/DX2 analytically  !
 ! A27   A(1,5,15)             108.8944         calculate D2E/DX2 analytically  !
 ! A28   A(4,5,10)             107.475          calculate D2E/DX2 analytically  !
 ! A29   A(4,5,15)             109.0199         calculate D2E/DX2 analytically  !
 ! A30   A(10,5,15)            109.7173         calculate D2E/DX2 analytically  !
 ! A31   A(3,6,41)             123.5578         calculate D2E/DX2 analytically  !
 ! A32   A(3,11,4)             113.5297         calculate D2E/DX2 analytically  !
 ! A33   A(3,12,79)            113.1822         calculate D2E/DX2 analytically  !
 ! A34   A(2,13,20)            113.5225         calculate D2E/DX2 analytically  !
 ! A35   A(1,14,24)            114.3237         calculate D2E/DX2 analytically  !
 ! A36   A(5,15,28)            113.4373         calculate D2E/DX2 analytically  !
 ! A37   A(4,16,17)            104.6775         calculate D2E/DX2 analytically  !
 ! A38   A(4,16,18)            104.7483         calculate D2E/DX2 analytically  !
 ! A39   A(4,16,19)            115.1952         calculate D2E/DX2 analytically  !
 ! A40   A(17,16,18)           105.1584         calculate D2E/DX2 analytically  !
 ! A41   A(17,16,19)           112.6831         calculate D2E/DX2 analytically  !
 ! A42   A(18,16,19)           113.3993         calculate D2E/DX2 analytically  !
 ! A43   A(16,19,37)           131.4741         calculate D2E/DX2 analytically  !
 ! A44   A(16,19,83)           122.9803         calculate D2E/DX2 analytically  !
 ! A45   A(37,19,83)            68.1287         calculate D2E/DX2 analytically  !
 ! A46   A(13,20,21)           111.0537         calculate D2E/DX2 analytically  !
 ! A47   A(13,20,22)           111.3796         calculate D2E/DX2 analytically  !
 ! A48   A(13,20,23)           106.7409         calculate D2E/DX2 analytically  !
 ! A49   A(21,20,22)           109.002          calculate D2E/DX2 analytically  !
 ! A50   A(21,20,23)           109.0002         calculate D2E/DX2 analytically  !
 ! A51   A(22,20,23)           109.6128         calculate D2E/DX2 analytically  !
 ! A52   A(14,24,25)           111.6752         calculate D2E/DX2 analytically  !
 ! A53   A(14,24,26)           111.0524         calculate D2E/DX2 analytically  !
 ! A54   A(14,24,27)           106.724          calculate D2E/DX2 analytically  !
 ! A55   A(25,24,26)           108.846          calculate D2E/DX2 analytically  !
 ! A56   A(25,24,27)           109.6124         calculate D2E/DX2 analytically  !
 ! A57   A(26,24,27)           108.8743         calculate D2E/DX2 analytically  !
 ! A58   A(15,28,29)           110.9119         calculate D2E/DX2 analytically  !
 ! A59   A(15,28,30)           110.7781         calculate D2E/DX2 analytically  !
 ! A60   A(15,28,31)           106.8721         calculate D2E/DX2 analytically  !
 ! A61   A(29,28,30)           108.963          calculate D2E/DX2 analytically  !
 ! A62   A(29,28,31)           108.8211         calculate D2E/DX2 analytically  !
 ! A63   A(30,28,31)           110.4662         calculate D2E/DX2 analytically  !
 ! A64   A(33,32,36)           108.56           calculate D2E/DX2 analytically  !
 ! A65   A(33,32,39)           109.8907         calculate D2E/DX2 analytically  !
 ! A66   A(33,32,45)           110.1597         calculate D2E/DX2 analytically  !
 ! A67   A(36,32,39)           109.3443         calculate D2E/DX2 analytically  !
 ! A68   A(36,32,45)           107.8442         calculate D2E/DX2 analytically  !
 ! A69   A(39,32,45)           110.9811         calculate D2E/DX2 analytically  !
 ! A70   A(32,33,34)           112.1965         calculate D2E/DX2 analytically  !
 ! A71   A(32,33,38)           107.494          calculate D2E/DX2 analytically  !
 ! A72   A(32,33,44)           110.8664         calculate D2E/DX2 analytically  !
 ! A73   A(34,33,38)           102.4578         calculate D2E/DX2 analytically  !
 ! A74   A(34,33,44)           112.59           calculate D2E/DX2 analytically  !
 ! A75   A(38,33,44)           110.8251         calculate D2E/DX2 analytically  !
 ! A76   A(33,34,37)           119.0016         calculate D2E/DX2 analytically  !
 ! A77   A(33,34,42)           121.3807         calculate D2E/DX2 analytically  !
 ! A78   A(33,34,53)           100.0413         calculate D2E/DX2 analytically  !
 ! A79   A(37,34,42)           114.8747         calculate D2E/DX2 analytically  !
 ! A80   A(37,34,53)            90.9336         calculate D2E/DX2 analytically  !
 ! A81   A(42,34,53)           100.4783         calculate D2E/DX2 analytically  !
 ! A82   A(36,35,40)           108.3964         calculate D2E/DX2 analytically  !
 ! A83   A(36,35,42)           114.781          calculate D2E/DX2 analytically  !
 ! A84   A(36,35,47)           111.0651         calculate D2E/DX2 analytically  !
 ! A85   A(40,35,42)           104.6632         calculate D2E/DX2 analytically  !
 ! A86   A(40,35,47)           112.168          calculate D2E/DX2 analytically  !
 ! A87   A(42,35,47)           105.6637         calculate D2E/DX2 analytically  !
 ! A88   A(32,36,35)           113.2813         calculate D2E/DX2 analytically  !
 ! A89   A(32,36,41)           107.7215         calculate D2E/DX2 analytically  !
 ! A90   A(32,36,46)           111.8424         calculate D2E/DX2 analytically  !
 ! A91   A(35,36,41)           108.9732         calculate D2E/DX2 analytically  !
 ! A92   A(35,36,46)           104.7557         calculate D2E/DX2 analytically  !
 ! A93   A(41,36,46)           110.2371         calculate D2E/DX2 analytically  !
 ! A94   A(19,37,34)           113.2946         calculate D2E/DX2 analytically  !
 ! A95   A(19,37,43)           117.4718         calculate D2E/DX2 analytically  !
 ! A96   A(34,37,43)           128.1007         calculate D2E/DX2 analytically  !
 ! A97   A(34,42,35)           121.4075         calculate D2E/DX2 analytically  !
 ! A98   A(37,43,51)            94.1399         calculate D2E/DX2 analytically  !
 ! A99   A(33,44,60)           123.8756         calculate D2E/DX2 analytically  !
 ! A100  A(33,44,63)           114.5915         calculate D2E/DX2 analytically  !
 ! A101  A(60,44,63)           107.5098         calculate D2E/DX2 analytically  !
 ! A102  A(32,45,67)           114.2592         calculate D2E/DX2 analytically  !
 ! A103  A(36,46,71)           114.3487         calculate D2E/DX2 analytically  !
 ! A104  A(35,47,48)           107.8834         calculate D2E/DX2 analytically  !
 ! A105  A(35,47,49)           107.8678         calculate D2E/DX2 analytically  !
 ! A106  A(35,47,50)           113.8799         calculate D2E/DX2 analytically  !
 ! A107  A(48,47,49)           109.2558         calculate D2E/DX2 analytically  !
 ! A108  A(48,47,50)           106.6228         calculate D2E/DX2 analytically  !
 ! A109  A(49,47,50)           111.2129         calculate D2E/DX2 analytically  !
 ! A110  A(47,50,75)           114.1313         calculate D2E/DX2 analytically  !
 ! A111  A(43,51,52)           114.5469         calculate D2E/DX2 analytically  !
 ! A112  A(43,51,53)           111.5804         calculate D2E/DX2 analytically  !
 ! A113  A(43,51,54)           105.5464         calculate D2E/DX2 analytically  !
 ! A114  A(52,51,53)           113.1222         calculate D2E/DX2 analytically  !
 ! A115  A(52,51,54)           106.8823         calculate D2E/DX2 analytically  !
 ! A116  A(53,51,54)           104.1852         calculate D2E/DX2 analytically  !
 ! A117  A(34,53,51)           114.3293         calculate D2E/DX2 analytically  !
 ! A118  A(51,54,55)           119.549          calculate D2E/DX2 analytically  !
 ! A119  A(51,54,56)           119.0207         calculate D2E/DX2 analytically  !
 ! A120  A(55,54,56)           121.4012         calculate D2E/DX2 analytically  !
 ! A121  A(54,55,57)           118.8272         calculate D2E/DX2 analytically  !
 ! A122  A(54,55,58)           120.2368         calculate D2E/DX2 analytically  !
 ! A123  A(57,55,58)           120.9262         calculate D2E/DX2 analytically  !
 ! A124  A(54,56,59)           118.9418         calculate D2E/DX2 analytically  !
 ! A125  A(54,56,60)           119.8701         calculate D2E/DX2 analytically  !
 ! A126  A(59,56,60)           121.188          calculate D2E/DX2 analytically  !
 ! A127  A(55,57,61)           120.7494         calculate D2E/DX2 analytically  !
 ! A128  A(55,57,93)           119.6343         calculate D2E/DX2 analytically  !
 ! A129  A(61,57,93)           119.5743         calculate D2E/DX2 analytically  !
 ! A130  A(56,59,61)           120.7893         calculate D2E/DX2 analytically  !
 ! A131  A(56,59,97)           118.1167         calculate D2E/DX2 analytically  !
 ! A132  A(61,59,97)           121.0686         calculate D2E/DX2 analytically  !
 ! A133  A(44,60,56)           159.7497         calculate D2E/DX2 analytically  !
 ! A134  A(57,61,59)           119.2855         calculate D2E/DX2 analytically  !
 ! A135  A(57,61,62)           120.2788         calculate D2E/DX2 analytically  !
 ! A136  A(59,61,62)           120.4305         calculate D2E/DX2 analytically  !
 ! A137  A(44,63,64)           106.0293         calculate D2E/DX2 analytically  !
 ! A138  A(44,63,65)           111.1205         calculate D2E/DX2 analytically  !
 ! A139  A(44,63,66)           110.4879         calculate D2E/DX2 analytically  !
 ! A140  A(64,63,65)           110.7088         calculate D2E/DX2 analytically  !
 ! A141  A(64,63,66)           109.308          calculate D2E/DX2 analytically  !
 ! A142  A(65,63,66)           109.1453         calculate D2E/DX2 analytically  !
 ! A143  A(45,67,68)           110.7415         calculate D2E/DX2 analytically  !
 ! A144  A(45,67,69)           111.5674         calculate D2E/DX2 analytically  !
 ! A145  A(45,67,70)           106.2867         calculate D2E/DX2 analytically  !
 ! A146  A(68,67,69)           109.2877         calculate D2E/DX2 analytically  !
 ! A147  A(68,67,70)           109.1544         calculate D2E/DX2 analytically  !
 ! A148  A(69,67,70)           109.7403         calculate D2E/DX2 analytically  !
 ! A149  A(46,71,72)           111.3251         calculate D2E/DX2 analytically  !
 ! A150  A(46,71,73)           110.9163         calculate D2E/DX2 analytically  !
 ! A151  A(46,71,74)           106.3404         calculate D2E/DX2 analytically  !
 ! A152  A(72,71,73)           109.1731         calculate D2E/DX2 analytically  !
 ! A153  A(72,71,74)           109.9529         calculate D2E/DX2 analytically  !
 ! A154  A(73,71,74)           109.0801         calculate D2E/DX2 analytically  !
 ! A155  A(50,75,76)           106.6548         calculate D2E/DX2 analytically  !
 ! A156  A(50,75,77)           112.2975         calculate D2E/DX2 analytically  !
 ! A157  A(50,75,78)           111.0392         calculate D2E/DX2 analytically  !
 ! A158  A(76,75,77)           108.6476         calculate D2E/DX2 analytically  !
 ! A159  A(76,75,78)           109.3793         calculate D2E/DX2 analytically  !
 ! A160  A(77,75,78)           108.7506         calculate D2E/DX2 analytically  !
 ! A161  A(12,79,80)           106.7493         calculate D2E/DX2 analytically  !
 ! A162  A(12,79,81)           111.5478         calculate D2E/DX2 analytically  !
 ! A163  A(12,79,82)           110.8115         calculate D2E/DX2 analytically  !
 ! A164  A(80,79,81)           109.5021         calculate D2E/DX2 analytically  !
 ! A165  A(80,79,82)           109.3365         calculate D2E/DX2 analytically  !
 ! A166  A(81,79,82)           108.8532         calculate D2E/DX2 analytically  !
 ! A167  A(19,83,84)           108.6434         calculate D2E/DX2 analytically  !
 ! A168  A(83,84,85)           120.3565         calculate D2E/DX2 analytically  !
 ! A169  A(83,84,89)           117.3356         calculate D2E/DX2 analytically  !
 ! A170  A(85,84,89)           111.587          calculate D2E/DX2 analytically  !
 ! A171  A(84,85,86)           110.4973         calculate D2E/DX2 analytically  !
 ! A172  A(84,85,87)           107.5827         calculate D2E/DX2 analytically  !
 ! A173  A(84,85,88)           110.222          calculate D2E/DX2 analytically  !
 ! A174  A(86,85,87)           109.7578         calculate D2E/DX2 analytically  !
 ! A175  A(86,85,88)           109.3241         calculate D2E/DX2 analytically  !
 ! A176  A(87,85,88)           109.4323         calculate D2E/DX2 analytically  !
 ! A177  A(84,89,90)           110.6076         calculate D2E/DX2 analytically  !
 ! A178  A(84,89,91)           107.3073         calculate D2E/DX2 analytically  !
 ! A179  A(84,89,92)           110.4432         calculate D2E/DX2 analytically  !
 ! A180  A(90,89,91)           109.8549         calculate D2E/DX2 analytically  !
 ! A181  A(90,89,92)           109.2642         calculate D2E/DX2 analytically  !
 ! A182  A(91,89,92)           109.3359         calculate D2E/DX2 analytically  !
 ! A183  A(57,93,94)           111.8545         calculate D2E/DX2 analytically  !
 ! A184  A(57,93,95)           111.8276         calculate D2E/DX2 analytically  !
 ! A185  A(57,93,96)           111.4236         calculate D2E/DX2 analytically  !
 ! A186  A(94,93,95)           107.6519         calculate D2E/DX2 analytically  !
 ! A187  A(94,93,96)           106.9318         calculate D2E/DX2 analytically  !
 ! A188  A(95,93,96)           106.8655         calculate D2E/DX2 analytically  !
 ! A189  A(59,97,98)           111.2322         calculate D2E/DX2 analytically  !
 ! A190  A(59,97,99)           112.4815         calculate D2E/DX2 analytically  !
 ! A191  A(59,97,100)          111.6346         calculate D2E/DX2 analytically  !
 ! A192  A(98,97,99)           107.077          calculate D2E/DX2 analytically  !
 ! A193  A(98,97,100)          106.4685         calculate D2E/DX2 analytically  !
 ! A194  A(99,97,100)          107.6308         calculate D2E/DX2 analytically  !
 ! A195  L(6,41,36,16,-1)      176.9961         calculate D2E/DX2 analytically  !
 ! A196  L(6,41,36,16,-2)      165.4439         calculate D2E/DX2 analytically  !
 ! D1    D(5,1,2,3)            -50.5216         calculate D2E/DX2 analytically  !
 ! D2    D(5,1,2,7)             66.0021         calculate D2E/DX2 analytically  !
 ! D3    D(5,1,2,13)          -172.4236         calculate D2E/DX2 analytically  !
 ! D4    D(8,1,2,3)             69.8118         calculate D2E/DX2 analytically  !
 ! D5    D(8,1,2,7)           -173.6644         calculate D2E/DX2 analytically  !
 ! D6    D(8,1,2,13)           -52.0901         calculate D2E/DX2 analytically  !
 ! D7    D(14,1,2,3)          -171.3093         calculate D2E/DX2 analytically  !
 ! D8    D(14,1,2,7)           -54.7856         calculate D2E/DX2 analytically  !
 ! D9    D(14,1,2,13)           66.7887         calculate D2E/DX2 analytically  !
 ! D10   D(2,1,5,4)             46.6249         calculate D2E/DX2 analytically  !
 ! D11   D(2,1,5,10)           -72.5394         calculate D2E/DX2 analytically  !
 ! D12   D(2,1,5,15)           168.3503         calculate D2E/DX2 analytically  !
 ! D13   D(8,1,5,4)            -72.8762         calculate D2E/DX2 analytically  !
 ! D14   D(8,1,5,10)           167.9596         calculate D2E/DX2 analytically  !
 ! D15   D(8,1,5,15)            48.8493         calculate D2E/DX2 analytically  !
 ! D16   D(14,1,5,4)           165.6912         calculate D2E/DX2 analytically  !
 ! D17   D(14,1,5,10)           46.527          calculate D2E/DX2 analytically  !
 ! D18   D(14,1,5,15)          -72.5833         calculate D2E/DX2 analytically  !
 ! D19   D(2,1,14,24)         -142.8124         calculate D2E/DX2 analytically  !
 ! D20   D(5,1,14,24)           96.0405         calculate D2E/DX2 analytically  !
 ! D21   D(8,1,14,24)          -25.1252         calculate D2E/DX2 analytically  !
 ! D22   D(1,2,3,6)            174.4841         calculate D2E/DX2 analytically  !
 ! D23   D(1,2,3,11)            59.0154         calculate D2E/DX2 analytically  !
 ! D24   D(1,2,3,12)           -65.0378         calculate D2E/DX2 analytically  !
 ! D25   D(7,2,3,6)             56.3628         calculate D2E/DX2 analytically  !
 ! D26   D(7,2,3,11)           -59.106          calculate D2E/DX2 analytically  !
 ! D27   D(7,2,3,12)           176.8409         calculate D2E/DX2 analytically  !
 ! D28   D(13,2,3,6)           -61.9002         calculate D2E/DX2 analytically  !
 ! D29   D(13,2,3,11)         -177.3689         calculate D2E/DX2 analytically  !
 ! D30   D(13,2,3,12)           58.5779         calculate D2E/DX2 analytically  !
 ! D31   D(1,2,13,20)         -100.9328         calculate D2E/DX2 analytically  !
 ! D32   D(3,2,13,20)          136.5288         calculate D2E/DX2 analytically  !
 ! D33   D(7,2,13,20)           20.2875         calculate D2E/DX2 analytically  !
 ! D34   D(2,3,6,41)          -103.0121         calculate D2E/DX2 analytically  !
 ! D35   D(11,3,6,41)           15.1005         calculate D2E/DX2 analytically  !
 ! D36   D(12,3,6,41)          137.0603         calculate D2E/DX2 analytically  !
 ! D37   D(2,3,11,4)           -64.2253         calculate D2E/DX2 analytically  !
 ! D38   D(6,3,11,4)           177.493          calculate D2E/DX2 analytically  !
 ! D39   D(12,3,11,4)           57.5037         calculate D2E/DX2 analytically  !
 ! D40   D(2,3,12,79)         -172.9634         calculate D2E/DX2 analytically  !
 ! D41   D(6,3,12,79)          -52.4723         calculate D2E/DX2 analytically  !
 ! D42   D(11,3,12,79)          64.9265         calculate D2E/DX2 analytically  !
 ! D43   D(9,4,5,1)             69.498          calculate D2E/DX2 analytically  !
 ! D44   D(9,4,5,10)          -171.0165         calculate D2E/DX2 analytically  !
 ! D45   D(9,4,5,15)           -52.1577         calculate D2E/DX2 analytically  !
 ! D46   D(11,4,5,1)           -48.8024         calculate D2E/DX2 analytically  !
 ! D47   D(11,4,5,10)           70.6832         calculate D2E/DX2 analytically  !
 ! D48   D(11,4,5,15)         -170.458          calculate D2E/DX2 analytically  !
 ! D49   D(16,4,5,1)          -169.3741         calculate D2E/DX2 analytically  !
 ! D50   D(16,4,5,10)          -49.8886         calculate D2E/DX2 analytically  !
 ! D51   D(16,4,5,15)           68.9703         calculate D2E/DX2 analytically  !
 ! D52   D(5,4,11,3)            58.4205         calculate D2E/DX2 analytically  !
 ! D53   D(9,4,11,3)           -60.536          calculate D2E/DX2 analytically  !
 ! D54   D(16,4,11,3)         -178.4811         calculate D2E/DX2 analytically  !
 ! D55   D(5,4,16,17)          -80.4082         calculate D2E/DX2 analytically  !
 ! D56   D(5,4,16,18)          169.1981         calculate D2E/DX2 analytically  !
 ! D57   D(5,4,16,19)           43.9096         calculate D2E/DX2 analytically  !
 ! D58   D(9,4,16,17)           40.714          calculate D2E/DX2 analytically  !
 ! D59   D(9,4,16,18)          -69.6798         calculate D2E/DX2 analytically  !
 ! D60   D(9,4,16,19)          165.0318         calculate D2E/DX2 analytically  !
 ! D61   D(11,4,16,17)         157.9672         calculate D2E/DX2 analytically  !
 ! D62   D(11,4,16,18)          47.5735         calculate D2E/DX2 analytically  !
 ! D63   D(11,4,16,19)         -77.715          calculate D2E/DX2 analytically  !
 ! D64   D(1,5,15,28)          129.3755         calculate D2E/DX2 analytically  !
 ! D65   D(4,5,15,28)         -106.1301         calculate D2E/DX2 analytically  !
 ! D66   D(10,5,15,28)          11.3188         calculate D2E/DX2 analytically  !
 ! D67   D(3,6,36,32)           67.9068         calculate D2E/DX2 analytically  !
 ! D68   D(3,6,36,35)          -52.0831         calculate D2E/DX2 analytically  !
 ! D69   D(3,6,36,46)         -172.9853         calculate D2E/DX2 analytically  !
 ! D70   D(3,12,79,80)         173.9262         calculate D2E/DX2 analytically  !
 ! D71   D(3,12,79,81)         -66.492          calculate D2E/DX2 analytically  !
 ! D72   D(3,12,79,82)          54.9588         calculate D2E/DX2 analytically  !
 ! D73   D(2,13,20,21)         -59.4435         calculate D2E/DX2 analytically  !
 ! D74   D(2,13,20,22)          62.2498         calculate D2E/DX2 analytically  !
 ! D75   D(2,13,20,23)        -178.1346         calculate D2E/DX2 analytically  !
 ! D76   D(1,14,24,25)         -60.9531         calculate D2E/DX2 analytically  !
 ! D77   D(1,14,24,26)          60.7453         calculate D2E/DX2 analytically  !
 ! D78   D(1,14,24,27)         179.2736         calculate D2E/DX2 analytically  !
 ! D79   D(5,15,28,29)         -70.5909         calculate D2E/DX2 analytically  !
 ! D80   D(5,15,28,30)          50.5437         calculate D2E/DX2 analytically  !
 ! D81   D(5,15,28,31)         170.9333         calculate D2E/DX2 analytically  !
 ! D82   D(4,16,19,37)          87.6636         calculate D2E/DX2 analytically  !
 ! D83   D(4,16,19,83)         176.5688         calculate D2E/DX2 analytically  !
 ! D84   D(17,16,19,37)       -152.3278         calculate D2E/DX2 analytically  !
 ! D85   D(17,16,19,83)        -63.4226         calculate D2E/DX2 analytically  !
 ! D86   D(18,16,19,37)        -33.009          calculate D2E/DX2 analytically  !
 ! D87   D(18,16,19,83)         55.8962         calculate D2E/DX2 analytically  !
 ! D88   D(16,19,37,34)        -31.0476         calculate D2E/DX2 analytically  !
 ! D89   D(16,19,37,43)        137.782          calculate D2E/DX2 analytically  !
 ! D90   D(83,19,37,34)       -146.3916         calculate D2E/DX2 analytically  !
 ! D91   D(83,19,37,43)         22.438          calculate D2E/DX2 analytically  !
 ! D92   D(16,19,83,84)        -40.9252         calculate D2E/DX2 analytically  !
 ! D93   D(37,19,83,84)         85.2496         calculate D2E/DX2 analytically  !
 ! D94   D(36,32,33,34)        -50.6348         calculate D2E/DX2 analytically  !
 ! D95   D(36,32,33,38)         61.259          calculate D2E/DX2 analytically  !
 ! D96   D(36,32,33,44)       -177.4713         calculate D2E/DX2 analytically  !
 ! D97   D(39,32,33,34)         68.9075         calculate D2E/DX2 analytically  !
 ! D98   D(39,32,33,38)       -179.1987         calculate D2E/DX2 analytically  !
 ! D99   D(39,32,33,44)        -57.929          calculate D2E/DX2 analytically  !
 ! D100  D(45,32,33,34)       -168.5137         calculate D2E/DX2 analytically  !
 ! D101  D(45,32,33,38)        -56.6199         calculate D2E/DX2 analytically  !
 ! D102  D(45,32,33,44)         64.6498         calculate D2E/DX2 analytically  !
 ! D103  D(33,32,36,35)         51.0656         calculate D2E/DX2 analytically  !
 ! D104  D(33,32,36,41)        -69.5367         calculate D2E/DX2 analytically  !
 ! D105  D(33,32,36,46)        169.1772         calculate D2E/DX2 analytically  !
 ! D106  D(39,32,36,35)        -68.818          calculate D2E/DX2 analytically  !
 ! D107  D(39,32,36,41)        170.5797         calculate D2E/DX2 analytically  !
 ! D108  D(39,32,36,46)         49.2936         calculate D2E/DX2 analytically  !
 ! D109  D(45,32,36,35)        170.4065         calculate D2E/DX2 analytically  !
 ! D110  D(45,32,36,41)         49.8042         calculate D2E/DX2 analytically  !
 ! D111  D(45,32,36,46)        -71.4818         calculate D2E/DX2 analytically  !
 ! D112  D(33,32,45,67)        -95.839          calculate D2E/DX2 analytically  !
 ! D113  D(36,32,45,67)        145.8412         calculate D2E/DX2 analytically  !
 ! D114  D(39,32,45,67)         26.096          calculate D2E/DX2 analytically  !
 ! D115  D(32,33,34,37)       -164.484          calculate D2E/DX2 analytically  !
 ! D116  D(32,33,34,42)         41.165          calculate D2E/DX2 analytically  !
 ! D117  D(32,33,34,53)        -67.7605         calculate D2E/DX2 analytically  !
 ! D118  D(38,33,34,37)         80.5149         calculate D2E/DX2 analytically  !
 ! D119  D(38,33,34,42)        -73.8362         calculate D2E/DX2 analytically  !
 ! D120  D(38,33,34,53)        177.2383         calculate D2E/DX2 analytically  !
 ! D121  D(44,33,34,37)        -38.5802         calculate D2E/DX2 analytically  !
 ! D122  D(44,33,34,42)        167.0687         calculate D2E/DX2 analytically  !
 ! D123  D(44,33,34,53)         58.1432         calculate D2E/DX2 analytically  !
 ! D124  D(32,33,44,60)         75.5776         calculate D2E/DX2 analytically  !
 ! D125  D(32,33,44,63)       -149.5297         calculate D2E/DX2 analytically  !
 ! D126  D(34,33,44,60)        -51.0416         calculate D2E/DX2 analytically  !
 ! D127  D(34,33,44,63)         83.8511         calculate D2E/DX2 analytically  !
 ! D128  D(38,33,44,60)       -165.1354         calculate D2E/DX2 analytically  !
 ! D129  D(38,33,44,63)        -30.2427         calculate D2E/DX2 analytically  !
 ! D130  D(33,34,37,19)        -80.9007         calculate D2E/DX2 analytically  !
 ! D131  D(33,34,37,43)        111.7157         calculate D2E/DX2 analytically  !
 ! D132  D(42,34,37,19)         75.0622         calculate D2E/DX2 analytically  !
 ! D133  D(42,34,37,43)        -92.3214         calculate D2E/DX2 analytically  !
 ! D134  D(53,34,37,19)        177.0698         calculate D2E/DX2 analytically  !
 ! D135  D(53,34,37,43)          9.6862         calculate D2E/DX2 analytically  !
 ! D136  D(33,34,42,35)        -28.0564         calculate D2E/DX2 analytically  !
 ! D137  D(37,34,42,35)        176.6073         calculate D2E/DX2 analytically  !
 ! D138  D(53,34,42,35)         80.6369         calculate D2E/DX2 analytically  !
 ! D139  D(33,34,53,51)       -128.7546         calculate D2E/DX2 analytically  !
 ! D140  D(37,34,53,51)         -9.0633         calculate D2E/DX2 analytically  !
 ! D141  D(42,34,53,51)        106.4575         calculate D2E/DX2 analytically  !
 ! D142  D(40,35,36,32)         78.0606         calculate D2E/DX2 analytically  !
 ! D143  D(40,35,36,41)       -162.049          calculate D2E/DX2 analytically  !
 ! D144  D(40,35,36,46)        -44.0922         calculate D2E/DX2 analytically  !
 ! D145  D(42,35,36,32)        -38.5144         calculate D2E/DX2 analytically  !
 ! D146  D(42,35,36,41)         81.3761         calculate D2E/DX2 analytically  !
 ! D147  D(42,35,36,46)       -160.6671         calculate D2E/DX2 analytically  !
 ! D148  D(47,35,36,32)       -158.2822         calculate D2E/DX2 analytically  !
 ! D149  D(47,35,36,41)        -38.3918         calculate D2E/DX2 analytically  !
 ! D150  D(47,35,36,46)         79.565          calculate D2E/DX2 analytically  !
 ! D151  D(36,35,42,34)         26.1262         calculate D2E/DX2 analytically  !
 ! D152  D(40,35,42,34)        -92.5656         calculate D2E/DX2 analytically  !
 ! D153  D(47,35,42,34)        148.8508         calculate D2E/DX2 analytically  !
 ! D154  D(36,35,47,48)         67.2423         calculate D2E/DX2 analytically  !
 ! D155  D(36,35,47,49)        -50.6694         calculate D2E/DX2 analytically  !
 ! D156  D(36,35,47,50)       -174.6202         calculate D2E/DX2 analytically  !
 ! D157  D(40,35,47,48)       -171.2833         calculate D2E/DX2 analytically  !
 ! D158  D(40,35,47,49)         70.805          calculate D2E/DX2 analytically  !
 ! D159  D(40,35,47,50)        -53.1459         calculate D2E/DX2 analytically  !
 ! D160  D(42,35,47,48)        -57.8219         calculate D2E/DX2 analytically  !
 ! D161  D(42,35,47,49)       -175.7336         calculate D2E/DX2 analytically  !
 ! D162  D(42,35,47,50)         60.3156         calculate D2E/DX2 analytically  !
 ! D163  D(32,36,46,71)         94.7654         calculate D2E/DX2 analytically  !
 ! D164  D(35,36,46,71)       -142.1477         calculate D2E/DX2 analytically  !
 ! D165  D(41,36,46,71)        -25.0548         calculate D2E/DX2 analytically  !
 ! D166  D(19,37,43,51)       -176.2402         calculate D2E/DX2 analytically  !
 ! D167  D(34,37,43,51)         -9.3086         calculate D2E/DX2 analytically  !
 ! D168  D(37,43,51,52)        130.1883         calculate D2E/DX2 analytically  !
 ! D169  D(37,43,51,53)          0.03           calculate D2E/DX2 analytically  !
 ! D170  D(37,43,51,54)       -112.5251         calculate D2E/DX2 analytically  !
 ! D171  D(33,44,60,56)        106.3646         calculate D2E/DX2 analytically  !
 ! D172  D(63,44,60,56)        -31.1446         calculate D2E/DX2 analytically  !
 ! D173  D(33,44,63,64)       -169.7664         calculate D2E/DX2 analytically  !
 ! D174  D(33,44,63,65)        -49.4087         calculate D2E/DX2 analytically  !
 ! D175  D(33,44,63,66)         71.9003         calculate D2E/DX2 analytically  !
 ! D176  D(60,44,63,64)        -27.8456         calculate D2E/DX2 analytically  !
 ! D177  D(60,44,63,65)         92.5121         calculate D2E/DX2 analytically  !
 ! D178  D(60,44,63,66)       -146.1789         calculate D2E/DX2 analytically  !
 ! D179  D(32,45,67,68)        -63.0333         calculate D2E/DX2 analytically  !
 ! D180  D(32,45,67,69)         58.9372         calculate D2E/DX2 analytically  !
 ! D181  D(32,45,67,70)        178.5314         calculate D2E/DX2 analytically  !
 ! D182  D(36,46,71,72)        -62.1406         calculate D2E/DX2 analytically  !
 ! D183  D(36,46,71,73)         59.6379         calculate D2E/DX2 analytically  !
 ! D184  D(36,46,71,74)        178.1101         calculate D2E/DX2 analytically  !
 ! D185  D(35,47,50,75)         76.1696         calculate D2E/DX2 analytically  !
 ! D186  D(48,47,50,75)       -164.9718         calculate D2E/DX2 analytically  !
 ! D187  D(49,47,50,75)        -45.9553         calculate D2E/DX2 analytically  !
 ! D188  D(47,50,75,76)        174.9911         calculate D2E/DX2 analytically  !
 ! D189  D(47,50,75,77)        -66.1013         calculate D2E/DX2 analytically  !
 ! D190  D(47,50,75,78)         55.9027         calculate D2E/DX2 analytically  !
 ! D191  D(43,51,53,34)          4.1027         calculate D2E/DX2 analytically  !
 ! D192  D(52,51,53,34)       -126.7917         calculate D2E/DX2 analytically  !
 ! D193  D(54,51,53,34)        117.5099         calculate D2E/DX2 analytically  !
 ! D194  D(43,51,54,55)        -90.2537         calculate D2E/DX2 analytically  !
 ! D195  D(43,51,54,56)         87.8122         calculate D2E/DX2 analytically  !
 ! D196  D(52,51,54,55)         32.0946         calculate D2E/DX2 analytically  !
 ! D197  D(52,51,54,56)       -149.8396         calculate D2E/DX2 analytically  !
 ! D198  D(53,51,54,55)        152.0944         calculate D2E/DX2 analytically  !
 ! D199  D(53,51,54,56)        -29.8398         calculate D2E/DX2 analytically  !
 ! D200  D(51,54,55,57)        177.3429         calculate D2E/DX2 analytically  !
 ! D201  D(51,54,55,58)         -3.7914         calculate D2E/DX2 analytically  !
 ! D202  D(56,54,55,57)         -0.6756         calculate D2E/DX2 analytically  !
 ! D203  D(56,54,55,58)        178.1901         calculate D2E/DX2 analytically  !
 ! D204  D(51,54,56,59)       -177.1341         calculate D2E/DX2 analytically  !
 ! D205  D(51,54,56,60)          2.7705         calculate D2E/DX2 analytically  !
 ! D206  D(55,54,56,59)          0.8946         calculate D2E/DX2 analytically  !
 ! D207  D(55,54,56,60)       -179.2008         calculate D2E/DX2 analytically  !
 ! D208  D(54,55,57,61)          0.0289         calculate D2E/DX2 analytically  !
 ! D209  D(54,55,57,93)       -177.6018         calculate D2E/DX2 analytically  !
 ! D210  D(58,55,57,61)       -178.8286         calculate D2E/DX2 analytically  !
 ! D211  D(58,55,57,93)          3.5407         calculate D2E/DX2 analytically  !
 ! D212  D(54,56,59,61)         -0.4712         calculate D2E/DX2 analytically  !
 ! D213  D(54,56,59,97)        177.7158         calculate D2E/DX2 analytically  !
 ! D214  D(60,56,59,61)        179.6255         calculate D2E/DX2 analytically  !
 ! D215  D(60,56,59,97)         -2.1875         calculate D2E/DX2 analytically  !
 ! D216  D(54,56,60,44)        -75.2851         calculate D2E/DX2 analytically  !
 ! D217  D(59,56,60,44)        104.6173         calculate D2E/DX2 analytically  !
 ! D218  D(55,57,61,59)          0.3777         calculate D2E/DX2 analytically  !
 ! D219  D(55,57,61,62)        179.5512         calculate D2E/DX2 analytically  !
 ! D220  D(93,57,61,59)        178.0098         calculate D2E/DX2 analytically  !
 ! D221  D(93,57,61,62)         -2.8167         calculate D2E/DX2 analytically  !
 ! D222  D(55,57,93,94)        -30.3675         calculate D2E/DX2 analytically  !
 ! D223  D(55,57,93,95)       -151.2039         calculate D2E/DX2 analytically  !
 ! D224  D(55,57,93,96)         89.2657         calculate D2E/DX2 analytically  !
 ! D225  D(61,57,93,94)        151.9737         calculate D2E/DX2 analytically  !
 ! D226  D(61,57,93,95)         31.1373         calculate D2E/DX2 analytically  !
 ! D227  D(61,57,93,96)        -88.3931         calculate D2E/DX2 analytically  !
 ! D228  D(56,59,61,57)         -0.1537         calculate D2E/DX2 analytically  !
 ! D229  D(56,59,61,62)       -179.3258         calculate D2E/DX2 analytically  !
 ! D230  D(97,59,61,57)       -178.2868         calculate D2E/DX2 analytically  !
 ! D231  D(97,59,61,62)          2.541          calculate D2E/DX2 analytically  !
 ! D232  D(56,59,97,98)        -73.2573         calculate D2E/DX2 analytically  !
 ! D233  D(56,59,97,99)        166.6277         calculate D2E/DX2 analytically  !
 ! D234  D(56,59,97,100)        45.5116         calculate D2E/DX2 analytically  !
 ! D235  D(61,59,97,98)        104.9244         calculate D2E/DX2 analytically  !
 ! D236  D(61,59,97,99)        -15.1906         calculate D2E/DX2 analytically  !
 ! D237  D(61,59,97,100)      -136.3067         calculate D2E/DX2 analytically  !
 ! D238  D(19,83,84,85)       -103.0857         calculate D2E/DX2 analytically  !
 ! D239  D(19,83,84,89)         38.4245         calculate D2E/DX2 analytically  !
 ! D240  D(83,84,85,86)       -154.417          calculate D2E/DX2 analytically  !
 ! D241  D(83,84,85,87)        -34.6124         calculate D2E/DX2 analytically  !
 ! D242  D(83,84,85,88)         84.6396         calculate D2E/DX2 analytically  !
 ! D243  D(89,84,85,86)         62.0657         calculate D2E/DX2 analytically  !
 ! D244  D(89,84,85,87)       -178.1297         calculate D2E/DX2 analytically  !
 ! D245  D(89,84,85,88)        -58.8777         calculate D2E/DX2 analytically  !
 ! D246  D(83,84,89,90)        -89.7702         calculate D2E/DX2 analytically  !
 ! D247  D(83,84,89,91)         30.0471         calculate D2E/DX2 analytically  !
 ! D248  D(83,84,89,92)        149.1429         calculate D2E/DX2 analytically  !
 ! D249  D(85,84,89,90)         54.951          calculate D2E/DX2 analytically  !
 ! D250  D(85,84,89,91)        174.7683         calculate D2E/DX2 analytically  !
 ! D251  D(85,84,89,92)        -66.1359         calculate D2E/DX2 analytically  !
 --------------------------------------------------------------------------------
 Trust Radius=1.00D-02 FncErr=1.00D-07 GrdErr=1.00D-06 EigMax=2.50D+02 EigMin=1.00D-04
 Number of steps in this run=    562 maximum allowed number of steps=    600.
 Search for a saddle point of order  1.
 Step   0 in ReCalcFC=30 IGetFC= 4 compute analytic Hessian.
 GradGradGradGradGradGradGradGradGradGradGradGradGradGradGradGradGradGrad

 Leave Link  103 at Sat May 25 14:26:49 2019, MaxMem=  6442450944 cpu:               4.4 elap:               0.2
 (Enter /home/ekwan/sw/g16/l202.exe)
 Stoichiometry    C30H47F6NaO15S
 Framework group  C1[X(C30H47F6NaO15S)]
 Deg. of freedom   294
 Full point group                 C1      NOp   1
 Largest Abelian subgroup         C1      NOp   1
 Largest concise Abelian subgroup C1      NOp   1
                         Standard orientation:                         
 ---------------------------------------------------------------------
 Center     Atomic      Atomic             Coordinates (Angstroms)
 Number     Number       Type             X           Y           Z
 ---------------------------------------------------------------------
      1          6           0        4.110416   -2.381229   -1.445106
      2          6           0        4.082132   -2.144453    0.063637
      3          6           0        4.488514   -0.706878    0.382207
      4          6           0        3.657521    0.126718   -1.712417
      5          6           0        3.329499   -1.293215   -2.184440
      6          1           0        4.371601   -0.514633    1.457224
      7          1           0        3.051983   -2.263552    0.425319
      8          1           0        5.156997   -2.372272   -1.774538
      9          1           0        4.678106    0.381678   -2.024453
     10          1           0        2.265264   -1.460418   -2.006051
     11          8           0        3.601110    0.193587   -0.261106
     12          8           0        5.823527   -0.517435    0.007057
     13          8           0        4.937369   -3.035474    0.759729
     14          8           0        3.530352   -3.663082   -1.689536
     15          8           0        3.605726   -1.394588   -3.582955
     16          6           0        2.679215    1.175827   -2.280409
     17          1           0        3.044671    1.371993   -3.314142
     18          1           0        2.900424    2.106067   -1.712310
     19          8           0        1.352557    0.817749   -2.246219
     20          6           0        4.251319   -4.123414    1.365748
     21          1           0        3.503366   -3.765398    2.089287
     22          1           0        3.752545   -4.748017    0.616701
     23          1           0        5.003547   -4.714724    1.894580
     24          6           0        4.150287   -4.395732   -2.736665
     25          1           0        4.084678   -3.867558   -3.693702
     26          1           0        5.208856   -4.590053   -2.509943
     27          1           0        3.622656   -5.350776   -2.807624
     28          6           0        2.433789   -1.424517   -4.390969
     29          1           0        1.895850   -2.376511   -4.267587
     30          1           0        1.761219   -0.599137   -4.131139
     31          1           0        2.762619   -1.337154   -5.430565
     32          6           0        0.833056   -0.228443    2.300885
     33          6           0        0.639927   -0.328833    0.791531
     34          6           0        0.351028    1.001572    0.168546
     35          6           0        1.516861    2.204768    1.890046
     36          6           0        1.849231    0.879076    2.589392
     37          1           0       -0.046311    1.034090   -0.823500
     38          1           0        1.611977   -0.590931    0.350798
     39          1           0       -0.120471    0.018609    2.783516
     40          1           0        0.723553    2.702096    2.452937
     41          1           0        2.829492    0.530431    2.244860
     42          8           0        0.979464    2.066101    0.536424
     43          8           0       -2.037375    1.665507   -1.456834
     44          8           0       -0.330617   -1.296595    0.473761
     45          8           0        1.359010   -1.443601    2.808140
     46          8           0        1.900494    1.201353    3.968152
     47          6           0        2.758156    3.077616    1.752444
     48          1           0        3.439841    2.584373    1.053405
     49          1           0        3.236207    3.142333    2.740322
     50          8           0        2.498461    4.361898    1.225265
     51         16           0       -2.573117    1.747283   -0.063100
     52          8           0       -3.267952    3.007691    0.252643
     53          8           0       -1.516617    1.374024    0.965040
     54          6           0       -3.791805    0.434569    0.061811
     55          6           0       -5.121016    0.698070   -0.261473
     56          6           0       -3.377113   -0.836717    0.441772
     57          6           0       -6.044587   -0.345986   -0.213131
     58          1           0       -5.429239    1.702350   -0.526900
     59          6           0       -4.314234   -1.869106    0.479847
     60          1           0       -2.338421   -1.011177    0.700736
     61          6           0       -5.647742   -1.634035    0.153037
     62          1           0       -6.372602   -2.437464    0.195061
     63          6           0       -0.128079   -1.953691   -0.782698
     64          1           0       -1.037545   -2.525347   -0.973779
     65          1           0        0.048521   -1.228356   -1.583158
     66          1           0        0.726337   -2.640035   -0.723931
     67          6           0        0.374356   -2.338884    3.323381
     68          1           0       -0.143215   -1.894280    4.184551
     69          1           0       -0.361093   -2.610079    2.560393
     70          1           0        0.912832   -3.231179    3.650427
     71          6           0        2.919878    0.517654    4.694285
     72          1           0        2.763553   -0.564533    4.675863
     73          1           0        3.914093    0.745880    4.284286
     74          1           0        2.864373    0.884824    5.721437
     75          6           0        1.908914    5.262265    2.152900
     76          1           0        1.845893    6.230626    1.652287
     77          1           0        0.897299    4.953143    2.448248
     78          1           0        2.527070    5.358488    3.056862
     79          6           0        6.344846    0.744576    0.409060
     80          1           0        7.408780    0.737669    0.164902
     81          1           0        5.853507    1.569898   -0.119190
     82          1           0        6.220694    0.891632    1.491570
     83         11           0       -0.275933    2.168300   -2.890597
     84          8           0        0.188266    4.296363   -2.133539
     85          6           0       -0.495774    4.822636   -0.998443
     86          1           0       -0.518933    5.920830   -1.038061
     87          1           0       -1.513101    4.431737   -1.016639
     88          1           0        0.000977    4.503467   -0.075256
     89          6           0        1.548707    4.722206   -2.170215
     90          1           0        2.058423    4.466093   -1.234445
     91          1           0        2.027757    4.207945   -3.006393
     92          1           0        1.606903    5.808511   -2.329422
     93          6           0       -7.473533   -0.094145   -0.610787
     94          9           0       -7.851275    1.175253   -0.350415
     95          9           0       -8.327310   -0.916455    0.036513
     96          9           0       -7.661204   -0.297413   -1.936151
     97          6           0       -3.835610   -3.247495    0.842598
     98          9           0       -3.128427   -3.805524   -0.173073
     99          9           0       -4.850538   -4.087319    1.126283
    100          9           0       -3.011866   -3.223172    1.915390
 ---------------------------------------------------------------------
 Rotational constants (GHZ):           0.0649401           0.0339074           0.0297630
 Leave Link  202 at Sat May 25 14:26:49 2019, MaxMem=  6442450944 cpu:               4.9 elap:               0.2
 (Enter /home/ekwan/sw/g16/l301.exe)
 Standard basis: 6-31G(d) (6D, 7F)
 Ernie: Thresh=  0.10000D-02 Tol=  0.10000D-05 Strict=F.
 There are   897 symmetry adapted cartesian basis functions of A   symmetry.
 There are   897 symmetry adapted basis functions of A   symmetry.
   897 basis functions,  1720 primitive gaussians,   897 cartesian basis functions
   214 alpha electrons      214 beta electrons
       nuclear repulsion energy      9423.5568231175 Hartrees.
 IExCor=  402 DFT=T Ex+Corr=B3LYP ExCW=0 ScaHFX=  0.200000
 ScaDFX=  0.800000  0.720000  1.000000  0.810000 ScalE2=  1.000000  1.000000
 IRadAn=      5 IRanWt=     -1 IRanGd=            0 ICorTp=0 IEmpDi=141
 NAtoms=  100 NActive=  100 NUniq=  100 SFac= 1.00D+00 NAtFMM=   60 NAOKFM=T Big=T
 Integral buffers will be    131072 words long.
 Raffenetti 2 integral format.
 Two-electron integral symmetry is turned on.
 R6Disp:  Grimme-D3(BJ) Dispersion energy=       -0.2285875789 Hartrees.
 Nuclear repulsion after empirical dispersion term =     9423.3282355386 Hartrees.
 Force inversion solution in PCM.
 ------------------------------------------------------------------------------
 Polarizable Continuum Model (PCM)
 =================================
 Model                : PCM.
 Atomic radii         : UFF (Universal Force Field).
 Polarization charges : Total charges.
 Charge compensation  : None.
 Solution method      : Matrix inversion.
 Cavity type          : Scaled VdW (van der Waals Surface) (Alpha=1.100).
 Cavity algorithm     : GePol (No added spheres)
                        Default sphere list used, NSphG=  100.
                        Lebedev-Laikov grids with approx.  5.0 points / Ang**2.
                        Smoothing algorithm: York/Karplus (Gamma=1.0000).
                        Polarization charges: spherical gaussians, with
                                              point-specific exponents (IZeta= 3).
                        Self-potential: point-specific (ISelfS= 7).
                        Self-field    : sphere-specific E.n sum rule (ISelfD= 2).
 1st derivatives      : Analytical E(r).r(x)/FMM algorithm (CHGder, D1EAlg=3).
                        Cavity 1st derivative terms included.
 2nd derivatives      : Analytical E(r).r(xy)/FMM algorithm (CHGder, D2EAlg=3).
                        Cavity 2nd derivative terms included.
 Solvent              : TetraHydroFuran, Eps=   7.425700 Eps(inf)=   1.974025
 ------------------------------------------------------------------------------
 GePol: Number of generator spheres                  =     100
 GePol: Total number of spheres                      =     100
 GePol: Number of exposed spheres                    =     100 (100.00%)
 GePol: Number of points                             =    6233
 GePol: Average weight of points                     =       0.12
 GePol: Minimum weight of points                     =   0.10D-11
 GePol: Maximum weight of points                     =    0.21593
 GePol: Number of points with low weight             =     454
 GePol: Fraction of low-weight points (<1% of avg)   =       7.28%
 GePol: Cavity surface area                          =    768.405 Ang**2
 GePol: Cavity volume                                =    975.868 Ang**3
 Leave Link  301 at Sat May 25 14:26:50 2019, MaxMem=  6442450944 cpu:               8.4 elap:               0.3
[...]
 8,-0.00007931,-0.00044206,-0.00153862,-0.00012499,-0.00158097,-0.00028
 209,-0.00037545,-0.00183037,-0.00215082,-0.00072423,-0.00011296,-0.000
 69827,0.00029675,0.00603587,-0.00528392,0.00370944,0.00018021,-0.00059
 448,-0.00031660,0.00006752,0.00002353,0.00004503,-0.03753281,-0.030839
 23,0.01207705,0.00065464,0.00060893,0.00011915,-0.00202976,-0.00074475
 ,-0.00014099,0.00102940,-0.00195177,0.00107259,0.00016010,-0.00015090,
 -0.00024645,0.00007492,-0.00006885,-0.00009863,-0.00002788,-0.00000163
 ,0.00000681,-0.00010368,0.00002472,0.00002578,0.00012098,0.00005043,0.
 00020445,0.00000783,-0.00000844,-0.00001926,0.00012192,-0.00005234,-0.
 00006695,-0.00005593,0.00001596,-0.00004448,0.00008436,-0.00004404,0.0
 0004963,-0.00000176,0.00001009,0.00000653,-0.00001755,0.00000286,0.000
 00185,-0.00000819,-0.00000061,-0.00001539,0.00001039,0.00003676,0.0000
 2943,0.00000152,-0.00000726,0.00000077,-0.00000804,-0.00000065,0.00000
 062,-0.00000669,-0.00000221,-0.00001125,0.00001743,0.00001924,0.000013
 67,-0.00000669,-0.00000155,0.00000020,0.00000241,0.00000064,-0.0000034
 0,0.00000183,-0.00000329,-0.00000341,0.00014956,0.00007817,-0.00018544
 ,-0.00008417,-0.00004780,0.00003286,0.00005577,0.00001586,-0.00001028,
 -0.00002170,-0.00002928,0.00001361,-0.00001352,0.00004965,-0.00004074,
 0.00001062,0.00001552,0.00001177,0.00006774,0.00003137,-0.00001287,-0.
 00000080,-0.00000055,-0.00000089,-0.00000912,0.00000326,0.00000404,-0.
 00000837,-0.00001771,0.00000221,-0.00235138,0.00011666,-0.00063354,0.0
 0064276,-0.00039360,0.00009626,0.00077853,0.00019457,-0.00006971,0.000
 62973,0.00002677,0.00063530,-0.08451672,-0.17645711,0.03498674,-0.0027
 2047,0.01885642,0.00574968,0.14673024,0.19826524,-0.00001326,0.0000041
 2,-0.00000683,-0.00002466,0.00001257,-0.00001138,-0.00004266,0.0000095
 9,-0.00002776,-0.00000165,-0.00000804,-0.00000683,-0.00003488,0.000000
 03,0.00000472,0.00000260,0.00000193,0.00000586,0.00000253,0.00000241,-
 0.00000845,0.00000639,-0.00000317,-0.00000044,0.00000890,0.00000316,0.
 00000041,0.00000214,0.00000310,0.00000593,0.00003993,-0.00000432,0.000
 02286,0.00002931,0.00000844,0.00001042,0.00001587,-0.00002331,0.000023
 87,0.00002404,-0.00001270,-0.00000064,0.00003328,0.00000160,0.00000188
 ,-0.00008074,-0.00001980,-0.00000067,0.00001987,0.00000357,-0.00001308
 ,0.00001573,0.00001239,0.00000681,0.00010546,0.00005039,-0.00003419,0.
 00000789,0.00000918,-0.00001567,-0.00000486,0.00000053,0.00000078,-0.0
 0000292,0.00000288,0.00000130,0.00000352,-0.00000264,0.00000256,-0.000
 01350,0.00000881,0.00000915,-0.00000087,-0.00000103,0.00000031,0.00000
 832,-0.00000051,0.00000028,-0.00000148,0.00000293,-0.00000156,-0.00002
 425,-0.00000727,-0.00000173,0.,0.00000950,0.00000143,-0.00000203,-0.00
 000411,0.00000265,0.00000414,0.00000120,-0.00000478,-0.00000408,0.0001
 0348,-0.00009912,-0.00008376,-0.00011092,-0.00004031,-0.00024321,-0.00
 005446,0.00005886,-0.00004665,-0.00002081,-0.00008660,-0.00001373,-0.0
 0001252,-0.00001271,-0.00000575,-0.00001401,0.00000098,0.00000048,0.00
 000128,0.00000170,0.00000245,0.00000372,0.00000159,0.00000102,-0.00000
 073,0.00000832,-0.00000070,0.00000013,0.00000031,0.00012299,0.00011728
 ,0.00006457,0.00030854,0.00019396,-0.00019603,0.00017736,0.00006454,0.
 00016449,-0.00007937,-0.00013726,0.00008106,0.00001913,-0.00000090,0.0
 0005774,-0.00000525,-0.00001483,0.00000670,-0.00000359,-0.00000059,-0.
 00000142,0.00000658,0.00000633,0.00000341,0.00000250,0.00001626,0.0000
 1201,-0.00081399,-0.00062884,-0.00029305,0.00007426,0.00040528,0.00011
 139,0.00040109,0.00007843,0.00017013,0.00097776,0.00046393,-0.00019200
 ,-0.00011416,0.00014286,-0.00006724,-0.00217239,0.00223100,0.00012426,
 0.00009696,0.00028540,0.00015856,-0.00000388,0.00000644,-0.00001729,0.
 01070898,0.01072883,0.00625532,-0.00011637,0.00002872,-0.00002578,0.00
 040993,0.00018626,-0.00040421,-0.00003034,0.00091654,-0.00053527,-0.00
 028109,-0.00018109,-0.00030456,-0.00019066,-0.00010522,0.00033788,0.00
 005912,0.00003281,0.00004771,0.00007829,0.00002829,0.00002141,0.000139
 92,0.00010641,0.00006736,-0.00000578,0.00000725,0.00001435,0.00014517,
 -0.00001055,-0.00007595,-0.00001739,-0.00000726,-0.00000937,-0.0000150
 0,0.00001840,-0.00001426,0.00000441,-0.00000524,-0.00000029,0.00000068
 ,-0.00000345,0.00000207,0.00000410,0.00000011,0.00000517,0.00000261,-0
 .00001150,-0.00001275,-0.00000071,0.00000106,0.00000024,-0.00000058,-0
 .00000023,-0.00000056,0.00000237,0.00000108,0.00000357,-0.00000730,-0.
 00001036,-0.00001007,0.00000219,0.00000100,0.00000002,-0.00000050,-0.0
 0000014,0.00000090,-0.00000053,0.00000148,0.00000346,-0.00004946,-0.00
 004626,0.00003629,0.00002022,0.00002001,0.00000259,-0.00001072,-0.0000
 0807,-0.00000780,0.00000582,0.00000946,-0.00000298,0.00000386,-0.00001
 321,0.00000787,-0.00000067,-0.00000427,-0.00000124,-0.00001969,-0.0000
 0977,0.00000180,0.00000083,-0.00000056,-0.00000059,0.00000129,-0.00000
 080,0.00000038,0.00000211,0.00000580,-0.00000091,0.00067489,-0.0000957
 8,0.00005738,-0.00018125,0.00013435,-0.00000269,-0.00024262,-0.0000553
 9,0.00005143,-0.00016873,0.00001154,-0.00011465,0.02675915,0.03483311,
 -0.08177117,0.04704857,0.01517614,-0.02010543,-0.04998886,-0.04258858,
 0.09014831,0.00000233,0.00000506,-0.00001324,0.00005087,0.00000611,-0.
 00003752,0.00004800,0.00003684,-0.00002567,0.00001358,0.00001229,-0.00
 005188,0.00002268,0.00000947,-0.00003745,0.00000622,0.00000313,0.00001
 178,-0.00000824,-0.00000630,-0.00000469,-0.00000625,0.00000141,0.00000
 663,-0.00000570,-0.00000466,0.00000851,-0.00000479,0.00000491,-0.00000
 798,-0.00003485,-0.00003410,0.00005995,-0.00004901,-0.00003571,0.00001
 415,-0.00004847,-0.00003851,0.00004311,-0.00002366,0.00000474,0.000042
 23,0.00001522,-0.00000779,0.00006356,-0.00002001,0.00000105,-0.0000141
 5,-0.00000085,-0.00000323,0.00000801,0.00000184,-0.00000162,-0.0000006
 8,0.00004464,-0.00004915,0.00004881,0.00005641,0.00002237,-0.00004114,
 -0.00000832,0.00000942,0.00002915,0.00000730,-0.00000717,-0.00001030,-
 0.00001213,0.00000151,-0.00000111,0.00001914,-0.00001726,-0.00003452,-
 0.00000370,-0.00000131,0.00001003,-0.00000643,0.00000221,0.00000302,-0
 .00000133,-0.00000046,-0.00000302,-0.00003165,0.00000674,-0.00002302,0
 .00000181,0.00000113,-0.00000074,0.00000036,-0.00000370,-0.00000266,-0
 .00000033,-0.00000028,0.00000723,-0.00009170,0.00037520,-0.00018942,0.
 00029191,0.00021617,0.00021973,-0.00061356,0.00020511,0.00006869,-0.00
 009806,0.00001905,-0.00009614,0.00005717,0.00007478,0.00006403,-0.0000
 0445,-0.00002647,-0.00002663,-0.00002374,-0.00006823,-0.00000334,0.000
 02270,0.00003142,0.00001574,0.00000055,-0.00000750,0.00000504,-0.00000
 502,-0.00000941,-0.00000683,0.00019467,-0.00003010,0.00007040,0.000568
 27,0.00027027,-0.00028193,-0.00012515,-0.00053006,0.00026118,-0.000579
 73,-0.00070887,0.00009066,-0.00004821,-0.00005203,-0.00004952,0.000032
 63,0.00003525,0.00000020,-0.00000127,-0.00000031,-0.00000107,0.0000050
 6,0.00000417,0.00000255,0.00000124,-0.00006194,0.00001748,-0.00176276,
 -0.00096532,-0.00038527,0.00033111,0.00053889,0.00010074,0.00099646,-0
 .00003514,0.00039319,0.00004456,0.00100522,0.00097061,-0.00023871,0.00
 028851,-0.00037533,-0.00206181,-0.00145597,0.00079199,-0.00084582,0.00
 088974,0.00083327,0.00010601,-0.00002828,-0.00011510,-0.01250190,0.005
 33358,-0.02604551,0.00077466,0.00068066,-0.00082810,0.00206108,0.00259
 225,-0.00124338,0.00067660,-0.00058922,-0.00032247,0.00007411,-0.00013
 069,-0.00031628,-0.00006182,0.00001498,-0.00010994,-0.00003540,-0.0000
 0710,0.00005244,0.00002738,0.00003202,0.00000776,0.00092981,0.00060747
 ,0.00078067,-0.00004269,-0.00004749,-0.00010249,-0.00034050,-0.0001752
 7,-0.00045042,-0.00016847,-0.00002753,-0.00012280,0.00004581,0.0000191
 5,0.00001430,0.00001559,-0.00000776,0.00002290,-0.00001510,-0.00000586
 ,0.00000587,-0.00000164,-0.00000718,-0.00000979,-0.00000960,0.00001369
 ,0.00001272,-0.00000086,-0.00000636,0.00000007,0.00000015,0.00000201,-
 0.00000566,0.00000335,-0.00000013,-0.00000178,0.00000997,0.00002583,0.
 00000179,-0.00000492,-0.00000239,-0.00000026,0.00000209,-0.00000515,0.
 00000031,0.00000069,-0.00000202,0.00000010,-0.00009699,-0.00000598,0.0
 0002183,0.00004393,0.00001064,0.00000409,-0.00003135,-0.00000174,-0.00
 001331,0.00000948,0.00000620,-0.00000201,0.00000444,-0.00001671,0.0000
 1269,0.00000016,-0.00000025,0.00000165,-0.00003338,-0.00000535,-0.0000
 0447,0.00000450,0.00000169,0.00000179,0.00000276,0.00000084,-0.0000033
 2,0.00000521,0.00000238,0.00000072,0.00148943,-0.00004510,0.00060283,-
 0.00059656,0.00047674,-0.00008947,-0.00042852,-0.00002031,0.00001108,-
 0.00033169,0.00000964,-0.00037458,-0.14036934,0.01437793,-0.08941259,0
 .01909411,-0.00281489,0.00246982,-0.05348386,-0.02608156,-0.03342905,0
 .18710222,-0.00000591,-0.00004136,-0.00000487,0.00001998,-0.00002151,0
 .00001702,0.00005604,-0.00004463,0.00002056,-0.00000259,-0.00000348,-0
 .00002032,0.00000892,-0.00001324,-0.00001445,0.00000225,0.00000210,0.0
 0000047,-0.00000286,-0.00001161,0.00000002,-0.00000020,0.00000645,0.00
 000049,-0.00000920,0.00000309,0.00000288,0.00000240,-0.00001135,-0.000
 00281,-0.00006389,0.00002889,-0.00000310,-0.00003078,0.00001100,-0.000
 00056,-0.00000083,0.00005589,-0.00002712,0.00000927,0.00004735,0.00000
 500,-0.00000791,0.00002080,0.00001302,0.00011330,0.00002368,0.00001923
 ,-0.00003653,-0.00000502,0.00001925,-0.00001535,-0.00000286,-0.0000062
 7,-0.00013482,-0.00000250,0.00010129,-0.00002607,-0.00003650,0.0000120
 3,0.00000287,-0.00000496,-0.00000640,-0.00000091,0.00000672,0.00000836
 ,0.00000194,0.00000326,-0.00000110,-0.00000168,-0.00001490,-0.00000450
 ,-0.00000063,-0.00000038,-0.00000160,0.00000047,0.00000147,0.00000221,
 0.00000073,0.00000867,0.00000399,-0.00000341,-0.00002038,-0.00000165,0
 .00000410,0.00000741,0.00000130,0.00000011,-0.00000049,-0.00000995,-0.
 00000104,0.00000286,0.00000267,0.00010184,-0.00009901,0.00006547,0.000
 05652,0.00013625,0.00016362,0.00064413,0.00002263,-0.00022532,0.000080
 43,0.00002258,0.00011353,0.00002822,0.00002384,0.00004009,0.00000132,0
 .00000398,-0.00001770,-0.00002015,-0.00002247,-0.00002396,-0.00000352,
 0.00001421,0.00003155,-0.00000079,0.00000909,-0.00000911,-0.00001146,-
 0.00000525,-0.00000543,-0.00024380,-0.00017074,-0.00006897,-0.00057969
 ,-0.00034615,0.00051814,-0.00039437,0.00007916,0.00015706,-0.00004281,
 0.00012688,-0.00006769,-0.00005561,0.00000941,-0.00008256,0.00002246,0
 .00003165,-0.00001141,0.00000118,-0.00000186,0.00000271,-0.00000924,-0
 .00000959,-0.00000545,-0.00001745,-0.00002893,-0.00000638,0.00150880,0
 .00152777,-0.00008373,-0.00021799,-0.00066039,-0.00004934,-0.00096248,
 -0.00022569,-0.00019051,0.00025715,0.00075275,-0.00040321,0.00095758,-
 0.00033195,0.00042776,0.00004741,-0.00121924,0.00116574,0.00169782,-0.
 00145056,-0.00067045,0.00005883,0.00002871,0.00004120,0.02419321,0.001
 78665,0.02596889,0.00115638,-0.00064382,0.00056269,-0.00281422,-0.0034
 2613,0.00191869,0.00015633,0.00019038,0.00042083,-0.00002005,-0.000261
 23,-0.00036294,-0.00003006,-0.00009353,0.00009110,0.00001837,0.0000350
 5,0.00004185,-0.00005462,0.00003464,0.00004277,-0.00003389,-0.00000008
 ,0.00001115,0.00001709,0.00000528,0.00000784,-0.00025711,-0.00018198,0
 .00000446,-0.00004501,0.00000323,-0.00003496,0.00004724,-0.00003174,0.
 00002899,-0.00000209,0.00000758,0.00000064,-0.00000954,0.00000225,0.00
 000081,-0.00000414,0.00000096,-0.00000697,0.00001038,0.00001699,0.0000
 1209,0.00000086,-0.00000321,0.00000053,-0.00000578,-0.00000093,0.00000
 120,-0.00000415,-0.00000101,-0.00000577,0.00000606,0.00000116,0.000004
 26,-0.00000231,0.00000010,0.00000030,0.00000093,0.00000206,-0.00000226
 ,0.00000100,-0.00000112,-0.00000072,0.00009260,0.00003058,-0.00010656,
 -0.00005294,-0.00002371,0.00002074,0.00003381,0.00000738,-0.00000950,-
 0.00001165,-0.00001500,0.00000789,-0.00000804,0.00002744,-0.00002090,0
 .00000648,0.00000861,0.00000677,0.00004175,0.00001673,-0.00000732,-0.0
 0000091,-0.00000081,-0.00000130,-0.00000546,0.00000165,0.00000345,-0.0
 0000538,-0.00000932,0.00000102,-0.00185790,-0.00018868,-0.00076461,0.0
 0069660,-0.00047829,0.00013845,0.00055639,0.00014018,-0.00003310,0.000
 44565,0.00001996,0.00049756,0.01024650,-0.07911659,0.01523888,-0.00712
 341,0.00788233,-0.02846678,-0.03406810,0.00138619,-0.02227686,0.005907
 01,0.07465828,-0.00001999,-0.00000245,-0.00002035,0.00000100,0.0000177
 4,-0.00003813,-0.00001844,0.00002856,-0.00005742,0.00000549,-0.0000049
 9,-0.00004849,-0.00003396,0.00000329,-0.00002243,0.00000877,0.00000587
 ,0.00001765,-0.00000343,-0.00000307,-0.00001677,0.00000515,-0.00000191
 ,0.00000376,0.00000663,0.00000248,0.00000643,-0.00000012,0.00000301,0.
 00000279,0.00002523,-0.00002003,0.00007279,0.00000284,-0.00000862,0.00
 002635,-0.00000937,-0.00004789,0.00006026,0.00002203,-0.00000190,0.000
 03008,0.00005671,0.00000291,0.00004984,-0.00009904,-0.00002194,-0.0000
 0453,0.00001765,0.00000163,-0.00000786,0.00002004,0.00001648,0.0000079
 3,0.00014251,0.00004207,0.00001089,0.00004503,0.00001949,-0.00005082,-
 0.00001344,0.00000641,0.00001983,0.,0.00000165,-0.00000250,-0.00000229
 ,-0.00000217,0.00000267,-0.00000718,-0.00000322,-0.00001174,-0.0000039
 6,-0.00000255,0.00000694,0.00000798,0.00000117,0.00000303,-0.00000291,
 0.00000647,-0.00000323,-0.00005777,-0.00001185,-0.00001864,0.00000245,
 0.00001667,0.00000199,-0.00000254,-0.00000866,-0.00000080,0.00000548,0
 .00000231,-0.00000122,-0.00003683,0.00037792,-0.00029485,0.00000306,-0
 .00008803,-0.00003087,-0.00049550,0.00003161,0.00007343,-0.00011189,-0
 .00001962,-0.00017145,0.00002171,0.00002845,0.00003594,-0.00001130,-0.
 00003830,-0.00001593,0.00000161,-0.00001349,0.00000595,0.00001606,0.00
 002902,0.00002304,0.00000227,-0.00000107,0.00001442,-0.00001003,-0.000
 00773,-0.00000611,0.00022627,0.00013506,0.00012552,0.00054156,0.000346
 92,-0.00023002,0.00024005,-0.00004580,0.00043566,-0.00053761,-0.000633
 77,0.00019942,-0.00002177,-0.00003052,0.00004065,0.00002177,0.00001250
 ,0.00000731,-0.00000681,-0.00000221,-0.00000177,0.00001111,0.00000988,
 0.00000532,-0.00000238,-0.00002636,0.00002984,-0.00159769,-0.00121784,
 -0.00052289,0.00024023,0.00061687,0.00016144,0.00091113,0.00007027,0.0
 0044239,-0.00014497,0.00065608,0.00043634,0.00000520,0.00031584,-0.000
 26275,-0.00138886,-0.00138392,0.00071760,-0.00172485,0.00020985,0.0001
 6874,0.00005167,-0.00000053,-0.00005366,-0.02358731,0.00393234,-0.0161
 3936,0.00012750,0.00058822,-0.00097673,0.00195847,0.00461913,-0.001615
 59,0.00031410,-0.00030919,-0.00009970,-0.00035786,-0.00031593,-0.00043
 103,-0.00022826,-0.00007234,0.00027229,0.00004316,0.00002851,0.0000866
 8,0.00010225,0.00004948,0.00004030,0.00077868,0.00053817,0.00069646,-0
 .00000387,-0.00000257,0.00000418,0.00069782,-0.00003137,-0.00066087,-0
 .00015082,-0.00001680,-0.00008169,0.00002386,0.00003452,-0.00000370,0.
 00001673,-0.00001259,0.00001395,-0.00001340,-0.00000959,0.00000842,0.0
 0000525,-0.00000403,-0.00000004,0.00000315,-0.00000285,-0.00000855,-0.
 00000154,-0.00000400,0.00000094,-0.00000376,0.00000056,-0.00000436,0.0
 0000453,0.00000141,0.00000238,-0.00000235,0.00000198,-0.00001367,-0.00
 000082,-0.00000002,0.,0.00000095,-0.00000319,0.00000096,-0.00000005,0.
 00000058,0.00000540,-0.00010187,-0.00006250,0.00002771,0.00003917,0.00
 002817,0.00001583,-0.00002337,-0.00001106,-0.00002458,0.00000990,0.000
 01232,-0.00000290,0.00000487,-0.00002046,0.00001112,0.00000263,-0.0000
 0364,0.00000171,-0.00003604,-0.00001182,-0.00000285,0.00000382,-0.0000
 0022,-0.00000036,0.00000150,-0.00000007,-0.00000020,0.00000442,0.00000
 679,-0.00000065,0.00165146,0.00005589,0.00040103,-0.00067462,0.0005551
 2,-0.00003070,-0.00049450,-0.00005632,0.00006172,-0.00037952,0.0000027
 5,-0.00036905,-0.08788816,0.02093165,-0.18281393,-0.01100149,-0.021558
 88,-0.07626117,-0.02358932,-0.01438220,0.00634749,0.14644098,0.0061360
 1,0.27019206\\0.00000037,-0.00000011,0.00000089,-0.00000039,-0.0000006
 2,0.00000078,-0.00000020,-0.00000081,0.00000155,0.00000094,0.00000014,
 0.00000127,0.00000083,0.00000019,0.00000085,-0.00000082,-0.00000110,0.
 00000159,-0.00000067,-0.00000055,0.00000039,0.00000040,-0.00000027,0.0
 0000140,0.00000113,-0.00000012,0.00000204,0.00000079,0.00000041,0.0000
 0019,0.00000018,-0.00000044,0.00000141,-0.00000015,-0.00000099,0.00000
 231,-0.00000093,-0.00000093,0.00000103,0.00000016,0.00000008,0.0000001
 9,0.00000152,0.00000062,0.00000092,0.00000087,0.00000029,0.00000124,0.
 00000206,0.00000065,0.00000150,0.00000141,0.00000019,0.00000165,0.0000
 0158,0.00000059,0.00000047,-0.00000148,-0.00000111,0.00000040,-0.00000
 178,-0.00000113,0.00000012,-0.00000122,-0.00000073,-0.00000007,-0.0000
 0185,-0.00000137,0.00000058,0.00000057,0.00000022,0.00000022,0.0000011
 3,0.00000055,0.00000038,0.00000038,-0.00000004,0.00000071,0.00000039,0
 .00000036,-0.00000032,0.00000190,0.00000117,0.00000031,0.00000173,0.00
 000116,-0.00000027,0.00000202,0.00000110,0.00000024,0.00000251,0.00000
 134,0.00000050,-0.00000120,-0.00000071,-0.00000014,-0.00000050,-0.0000
 0027,-0.00000024,0.00000018,0.00000007,-0.00000003,-0.00000049,-0.0000
 0070,0.00000092,-0.00000113,-0.00000097,0.00000073,0.00000067,0.000000
 46,-0.00000018,-0.00000027,-0.00000019,0.00000014,-0.00000140,-0.00000
 063,-0.00000052,-0.00000072,-0.00000070,0.00000075,-0.00000097,-0.0000
 0106,0.00000110,0.00000014,-0.00000009,0.00000063,0.00000110,0.0000010
 2,-0.00000098,-0.00000041,0.00000017,-0.00000101,-0.00000164,-0.000000
 94,-0.00000025,-0.00000178,-0.00000137,0.00000087,-0.00000022,-0.00000
 086,0.00000184,0.,-0.00000081,0.00000206,-0.00000074,-0.00000129,0.000
 00215,0.00000026,-0.00000069,0.00000213,0.00000054,0.00000090,-0.00000
 171,0.00000034,0.00000096,-0.00000106,-0.00000007,0.00000011,-0.000000
 56,0.00000028,0.00000094,-0.00000216,-0.00000007,0.00000133,-0.0000029
 5,-0.00000025,0.00000044,-0.00000236,-0.00000015,0.00000108,-0.0000035
 6,0.00000064,0.00000155,-0.00000270,-0.00000089,0.00000092,-0.00000331
 ,-0.00000046,0.00000048,-0.00000197,-0.00000032,0.00000140,-0.00000386
 ,-0.00000048,0.00000145,-0.00000444,0.00000005,0.00000048,-0.00000130,
 0.,0.00000070,-0.00000177,0.00000060,0.00000069,-0.00000080,-0.0000001
 3,0.00000029,-0.00000091,-0.00000214,-0.00000094,-0.00000098,-0.000002
 45,-0.00000107,-0.00000114,-0.00000179,-0.00000052,-0.00000150,-0.0000
 0244,-0.00000112,-0.00000103,-0.00000217,-0.00000187,0.00000121,-0.000
 00246,-0.00000181,0.00000072,-0.00000200,-0.00000189,0.00000171,-0.000
 00270,-0.00000214,0.00000123,-0.00000005,-0.00000081,0.00000215,0.0000
 0041,-0.00000068,0.00000239,-0.00000024,-0.00000075,0.00000151,-0.0000
 0047,-0.00000125,0.00000246,-0.00000007,-0.00000118,0.00000293,0.00000
 009,-0.00000129,0.00000349,0.00000040,-0.00000090,0.00000297,-0.000000
 55,-0.00000147,0.00000295,0.00000188,0.00000114,0.,0.00000199,0.000000
 84,0.00000093,0.00000146,0.00000058,0.00000079,0.00000171,0.00000065,0
 .00000110,0.00000141,0.00000082,0.00000013,0.00000094,0.00000024,0.000
 00092,0.00000206,0.00000054,0.00000178,0.00000151,0.00000019,0.0000019
 2,0.00000236,0.00000076,0.00000187,0.00000233,0.00000062,0.00000214,0.
 00000034,0.00000175,-0.00000428,0.00000042,0.00000183,-0.00000408,-0.0
 0000006,0.00000194,-0.00000506,0.00000094,0.00000232,-0.00000435,-0.00
 000109,0.00000051,-0.00000347,-0.00000064,0.00000090,-0.00000323,-0.00
 000128,0.00000089,-0.00000422,-0.00000153,0.00000021,-0.00000296\\\@


 PENOTUS DIED A HUNDRED YEARS OLD WANTING BUT TWO...
 AND HE USED TO SAY BEFORE HE DIED, HAVING SPENT HIS
 WHOLE LIFE IN VAINLY SEARCHING AFTER THE PHILOSOPHER'S
 STONE, THAT IF HE HAD A MORTAL ENEMY HE DID NOT DARE
 TO ENCOUNTER OPENLY, HE WOULD ADVISE HIM ABOVE ALL
 THINGS TO GIVE HIMSELF UP TO THE STUDY AND PRACTICE
 OF ALCHEMY.  --  NICOLAS LEMERY, M.D.
 "A COURSE OF CHYMISTRY", WALTER KETTILBY, LONDON, 1686
 Job cpu time:       4 days 12 hours 54 minutes 48.3 seconds.
 Elapsed time:       0 days  3 hours 34 minutes  8.1 seconds.
 File lengths (MBytes):  RWF=   9772 Int=      0 D2E=      0 Chk=    107 Scr=      1
 Normal termination of Gaussian 16 at Sat May 25 21:47:27 2019.
