 Entering Gaussian System, Link 0=g16
 Input=clay_new-glu_gluC6-FADL-Na2_1Me2O-bisCF3-ts-b3lyp_d3bj-631gd-pcm_thf.gjf
 Output=clay_new-glu_gluC6-FADL-Na2_1Me2O-bisCF3-ts-b3lyp_d3bj-631gd-pcm_thf.out
 Initial command:
 /home/ekwan/sw/g16/l1.exe "/scratch/users/ekwan/clay_new-glu_gluC6-FADL-Na2_1Me2O-bisCF3-ts-b3lyp_d3bj-631gd-pcm_thf/Gau-31335.inp" -scrdir="/scratch/users/ekwan/clay_new-glu_gluC6-FADL-Na2_1Me2O-bisCF3-ts-b3lyp_d3bj-631gd-pcm_thf/"
 Entering Link 1 = /home/ekwan/sw/g16/l1.exe PID=     31336.
  
 Copyright (c) 1988,1990,1992,1993,1995,1998,2003,2009,2016,
            Gaussian, Inc.  All Rights Reserved.
  
 This is part of the Gaussian(R) 16 program.  It is based on
 the Gaussian(R) 09 system (copyright 2009, Gaussian, Inc.),
 the Gaussian(R) 03 system (copyright 2003, Gaussian, Inc.),
 the Gaussian(R) 98 system (copyright 1998, Gaussian, Inc.),
 the Gaussian(R) 94 system (copyright 1995, Gaussian, Inc.),
 the Gaussian 92(TM) system (copyright 1992, Gaussian, Inc.),
 the Gaussian 90(TM) system (copyright 1990, Gaussian, Inc.),
 the Gaussian 88(TM) system (copyright 1988, Gaussian, Inc.),
 the Gaussian 86(TM) system (copyright 1986, Carnegie Mellon
 University), and the Gaussian 82(TM) system (copyright 1983,
 Carnegie Mellon University). Gaussian is a federally registered
 trademark of Gaussian, Inc.
  
 This software contains proprietary and confidential information,
 including trade secrets, belonging to Gaussian, Inc.
  
 This software is provided under written license and may be
 used, copied, transmitted, or stored only in accord with that
 written license.
  
 The following legend is applicable only to US Government
 contracts under FAR:
  
                    RESTRICTED RIGHTS LEGEND
  
 Use, reproduction and disclosure by the US Government is
 subject to restrictions as set forth in subparagraphs (a)
 and (c) of the Commercial Computer Software - Restricted
 Rights clause in FAR 52.227-19.
  
 Gaussian, Inc.
 340 Quinnipiac St., Bldg. 40, Wallingford CT 06492
  
  
 ---------------------------------------------------------------
 Warning -- This program may not be used in any manner that
 competes with the business of Gaussian, Inc. or will provide
 assistance to any competitor of Gaussian, Inc.  The licensee
 of this program is prohibited from giving any competitor of
 Gaussian, Inc. access to this program.  By using this program,
 the user acknowledges that Gaussian, Inc. is engaged in the
 business of creating and licensing software in the field of
 computational chemistry and represents and warrants to the
 licensee that it is not a competitor of Gaussian, Inc. and that
 it will not use this program in any manner prohibited above.
 ---------------------------------------------------------------
  

 Cite this work as:
 Gaussian 16, Revision A.03,
 M. J. Frisch, G. W. Trucks, H. B. Schlegel, G. E. Scuseria, 
 M. A. Robb, J. R. Cheeseman, G. Scalmani, V. Barone, 
 G. A. Petersson, H. Nakatsuji, X. Li, M. Caricato, A. V. Marenich, 
 J. Bloino, B. G. Janesko, R. Gomperts, B. Mennucci, H. P. Hratchian, 
 J. V. Ortiz, A. F. Izmaylov, J. L. Sonnenberg, D. Williams-Young, 
 F. Ding, F. Lipparini, F. Egidi, J. Goings, B. Peng, A. Petrone, 
 T. Henderson, D. Ranasinghe, V. G. Zakrzewski, J. Gao, N. Rega, 
 G. Zheng, W. Liang, M. Hada, M. Ehara, K. Toyota, R. Fukuda, 
 J. Hasegawa, M. Ishida, T. Nakajima, Y. Honda, O. Kitao, H. Nakai, 
 T. Vreven, K. Throssell, J. A. Montgomery, Jr., J. E. Peralta, 
 F. Ogliaro, M. J. Bearpark, J. J. Heyd, E. N. Brothers, K. N. Kudin, 
 V. N. Staroverov, T. A. Keith, R. Kobayashi, J. Normand, 
 K. Raghavachari, A. P. Rendell, J. C. Burant, S. S. Iyengar, 
 J. Tomasi, M. Cossi, J. M. Millam, M. Klene, C. Adamo, R. Cammi, 
 J. W. Ochterski, R. L. Martin, K. Morokuma, O. Farkas, 
 J. B. Foresman, and D. J. Fox, Gaussian, Inc., Wallingford CT, 2016.
 
 ******************************************
 Gaussian 16:  AS64L-G16RevA.03 25-Dec-2016
                30-May-2019 
 ******************************************
 %mem=48GB
 %nprocshared=32
 Will use up to   32 processors via shared memory.
 ----------------------------------------------------------------------
 #p opt=(ts,noeigentest,calcfc,maxstep=5,modredundant,recalc=30) freq=n
 oraman b3lyp 6-31g* pop=none scrf=(solvent=tetrahydrofuran,pcm) empiri
 caldispersion=gd3bj
 ----------------------------------------------------------------------
 1/5=1,8=5,10=4,11=1,18=120,26=3,38=1,71=30/1,3;
 2/9=110,12=2,17=6,18=5,40=1/2;
 3/5=1,6=6,7=1,11=2,25=1,30=1,70=2201,71=2,72=20,74=-5,124=41,140=1/1,2,3;
 4//1;
 5/5=2,38=5,53=20/2;
 8/6=4,10=90,11=11/1;
 11/6=1,8=1,9=11,15=111,16=1/1,2,10;
 10/6=1,13=1/2;
 7/10=1,18=20,25=1/1,2,3,16;
 1/5=1,8=5,10=4,11=1,18=20,26=3,71=30/3(2);
 2/9=110/2;
 99//99;
 2/9=110/2;
 3/5=1,6=6,7=1,11=2,25=1,30=1,70=2205,71=1,72=20,74=-5,124=41/1,2,3;
 4/5=5,16=3,69=1/1;
 5/5=2,38=5,53=20/2;
 7//1,2,3,16;
 1/5=1,8=5,11=1,18=20,26=3,71=30/3(-5);
 2/9=110/2;
 99/9=1/99;
 Leave Link    1 at Thu May 30 18:50:08 2019, MaxMem=  6442450944 cpu:               7.5 elap:               0.3
 (Enter /home/ekwan/sw/g16/l101.exe)
 -----
 title
 -----
 Symbolic Z-matrix:
 Charge =  0 Multiplicity = 1
 C                    -5.23659   0.46138   0.53068 
 C                    -4.86241   0.39125  -0.94861 
 C                    -4.13557   1.67186  -1.40058 
 C                    -3.39991   2.16885   0.82233 
 C                    -4.04325   0.89589   1.37577 
 H                    -3.68226   1.53594  -2.39127 
 H                    -4.16574  -0.44116  -1.09988 
 H                    -6.05073   1.18761   0.64968 
 H                    -4.12813   2.98957   0.87832 
 H                    -3.29823   0.09663   1.35548 
 O                    -3.03511   1.95216  -0.55582 
 O                    -5.07321   2.71552  -1.44021 
 O                    -6.05638   0.14743  -1.67388 
 O                    -5.67578  -0.83208   0.94614 
 O                    -4.48086   1.11273   2.71656 
 C                    -2.12942   2.57504   1.57164 
 H                    -2.46483   2.88879   2.5821 
 H                    -1.78671   3.51488   1.07442 
 O                    -1.1607    1.59319   1.61383 
 C                    -5.84264  -0.12265  -3.04906 
 H                    -5.58024   0.78552  -3.60944 
 H                    -5.04935  -0.86949  -3.19161 
 H                    -6.78192  -0.51778  -3.44504 
 C                    -6.81912  -0.82054   1.78748 
 H                    -6.63136  -0.26099   2.71022 
 H                    -7.68548  -0.38361   1.27066 
 H                    -7.04096  -1.86347   2.0298 
 C                    -3.64953   0.48273   3.68302 
 H                    -3.74379  -0.61223   3.62786 
 H                    -2.59716   0.75567   3.53987 
 H                    -3.99134   0.81848   4.66592 
 C                     0.43593  -2.19573   0.89806 
 C                     0.124    -0.70201   1.04558 
 C                    -0.85106  -0.2498   -0.00231 
 C                    -1.79436  -2.47674  -0.23482 
 C                    -0.88631  -2.96321   0.89764 
 H                    -0.89333   0.74216  -0.40762 
 H                    -0.42056  -0.5392    1.98585 
 H                     0.94869  -2.36367  -0.0538 
 H                    -1.37958  -2.8162   -1.18709 
 H                    -1.38372  -2.82028   1.86825 
 O                    -1.82175  -1.00747  -0.37457 
 O                     0.9466    1.79936  -1.6396 
 O                     1.28167   0.10998   1.0333 
 O                     1.22625  -2.65432   1.98159 
 O                    -0.67996  -4.33929   0.64027 
 C                    -3.2256   -2.94932  -0.10796 
 H                    -3.75807  -2.37244   0.66069 
 H                    -3.1981   -4.00474   0.20215 
 O                    -3.85032  -2.81746  -1.3691 
 S                     1.39211   0.49515  -2.22379 
 O                     1.62844   0.53931  -3.6796 
 O                     0.51741  -0.6539   -1.80108 
 C                     2.97856   0.13838  -1.45308 
 C                     3.67198   1.1353   -0.7826 
 C                     3.47499  -1.16339  -1.51343 
 C                     4.87541   0.82073  -0.14667 
 H                     3.25964   2.13267  -0.71008 
 C                     4.67383  -1.46244  -0.87352 
 H                     2.91312  -1.9384   -2.01973 
 C                     5.38274  -0.47403  -0.18409 
 H                     6.30699  -0.71674   0.32676 
 C                     1.7834    0.40602   2.34709 
 H                     1.0515    1.01028   2.89586 
 H                     1.99045  -0.51282   2.89931 
 H                     2.70895   0.96423   2.19866 
 C                     2.57775  -2.94505   1.63707 
 H                     2.62978  -3.64348   0.79301 
 H                     3.13036  -2.03465   1.38287 
 H                     3.03128  -3.40899   2.51548 
 C                    -0.65656  -5.16181   1.80514 
 H                     0.15257  -4.86959   2.48047 
 H                    -1.61456  -5.11162   2.34128 
 H                    -0.49634  -6.18359   1.4546 
 C                    -5.20933  -3.24193  -1.33828 
 H                    -5.58278  -3.17168  -2.36197 
 H                    -5.28469  -4.28606  -0.99921 
 H                    -5.80294  -2.59489  -0.68417 
 C                    -4.54925   3.9195   -1.9885 
 H                    -5.38323   4.62033  -2.0644 
 H                    -3.76868   4.34743  -1.34884 
 H                    -4.12918   3.74361  -2.98922 
 Na                    0.60479   2.44869   0.53295 
 O                     2.31277   3.97257   0.45866 
 C                     2.53502   4.72074  -0.7361 
 H                     3.60969   4.7933   -0.94542 
 H                     2.03891   4.17913  -1.54344 
 H                     2.11328   5.73053  -0.64704 
 C                     2.92819   4.56583   1.5981 
 H                     2.51265   5.56413   1.78848 
 H                     2.72224   3.91493   2.44988 
 H                     4.01155   4.64245   1.45484 
 C                     5.56006   1.88688   0.65961 
 F                     5.55128   3.08185   0.02441 
 F                     6.84113   1.58226   0.93914 
 F                     4.93091   2.08333   1.85052 
 C                     5.21084  -2.86665  -0.86809 
 F                     4.33916  -3.75043  -1.39705 
 F                     5.47754  -3.27718   0.39753 
 F                     6.36582  -2.96989  -1.55968 
 
 Add virtual bond connecting atoms C34        and O53        Dist= 4.34D+00.
 Add virtual bond connecting atoms H37        and O19        Dist= 4.18D+00.
 Add virtual bond connecting atoms H38        and O19        Dist= 4.32D+00.
 The following ModRedundant input section has been read:
 
 ITRead=  0  0  0  0  0  0  0  0  0  0  0  0  0  0  0  0  0  0  0  0
 ITRead=  0  0  0  0  0  0  0  0  0  0  0  0  0  0  0  0  0  0  0  0
 ITRead=  0  0  0  0  0  0  0  0  0  0  0  0  0  0  0  0  0  0  0  0
 ITRead=  0  0  0  0  0  0  0  0  0  0  0  0  0  0  0  0  0  0  0  0
 ITRead=  0  0  0  0  0  0  0  0  0  0  0  0  0  0  0  0  0  0  0  0
 MicOpt= -1 -1 -1 -1 -1 -1 -1 -1 -1 -1 -1 -1 -1 -1 -1 -1 -1 -1 -1 -1
 MicOpt= -1 -1 -1 -1 -1 -1 -1 -1 -1 -1 -1 -1 -1 -1 -1 -1 -1 -1 -1 -1
 MicOpt= -1 -1 -1 -1 -1 -1 -1 -1 -1 -1 -1 -1 -1 -1 -1 -1 -1 -1 -1 -1
 MicOpt= -1 -1 -1 -1 -1 -1 -1 -1 -1 -1 -1 -1 -1 -1 -1 -1 -1 -1 -1 -1
 MicOpt= -1 -1 -1 -1 -1 -1 -1 -1 -1 -1 -1 -1 -1 -1 -1 -1 -1 -1 -1 -1
 NAtoms=    100 NQM=      100 NQMF=       0 NMMI=      0 NMMIF=      0
                NMic=       0 NMicF=      0.
                    Isotopes and Nuclear Properties:
 (Nuclear quadrupole moments (NQMom) in fm**2, nuclear magnetic moments (NMagM)
  in nuclear magnetons)

  Atom         1           2           3           4           5           6           7           8           9          10
 IAtWgt=          12          12          12          12          12           1           1           1           1           1
 AtmWgt=  12.0000000  12.0000000  12.0000000  12.0000000  12.0000000   1.0078250   1.0078250   1.0078250   1.0078250   1.0078250
 NucSpn=           0           0           0           0           0           1           1           1           1           1
 AtZEff=   0.0000000   0.0000000   0.0000000   0.0000000   0.0000000   0.0000000   0.0000000   0.0000000   0.0000000   0.0000000
 NQMom=    0.0000000   0.0000000   0.0000000   0.0000000   0.0000000   0.0000000   0.0000000   0.0000000   0.0000000   0.0000000
 NMagM=    0.0000000   0.0000000   0.0000000   0.0000000   0.0000000   2.7928460   2.7928460   2.7928460   2.7928460   2.7928460
 AtZNuc=   6.0000000   6.0000000   6.0000000   6.0000000   6.0000000   1.0000000   1.0000000   1.0000000   1.0000000   1.0000000

  Atom        11          12          13          14          15          16          17          18          19          20
 IAtWgt=          16          16          16          16          16          12           1           1          16          12
 AtmWgt=  15.9949146  15.9949146  15.9949146  15.9949146  15.9949146  12.0000000   1.0078250   1.0078250  15.9949146  12.0000000
 NucSpn=           0           0           0           0           0           0           1           1           0           0
 AtZEff=   0.0000000   0.0000000   0.0000000   0.0000000   0.0000000   0.0000000   0.0000000   0.0000000   0.0000000   0.0000000
 NQMom=    0.0000000   0.0000000   0.0000000   0.0000000   0.0000000   0.0000000   0.0000000   0.0000000   0.0000000   0.0000000
 NMagM=    0.0000000   0.0000000   0.0000000   0.0000000   0.0000000   0.0000000   2.7928460   2.7928460   0.0000000   0.0000000
 AtZNuc=   8.0000000   8.0000000   8.0000000   8.0000000   8.0000000   6.0000000   1.0000000   1.0000000   8.0000000   6.0000000

  Atom        21          22          23          24          25          26          27          28          29          30
 IAtWgt=           1           1           1          12           1           1           1          12           1           1
 AtmWgt=   1.0078250   1.0078250   1.0078250  12.0000000   1.0078250   1.0078250   1.0078250  12.0000000   1.0078250   1.0078250
 NucSpn=           1           1           1           0           1           1           1           0           1           1
 AtZEff=   0.0000000   0.0000000   0.0000000   0.0000000   0.0000000   0.0000000   0.0000000   0.0000000   0.0000000   0.0000000
 NQMom=    0.0000000   0.0000000   0.0000000   0.0000000   0.0000000   0.0000000   0.0000000   0.0000000   0.0000000   0.0000000
 NMagM=    2.7928460   2.7928460   2.7928460   0.0000000   2.7928460   2.7928460   2.7928460   0.0000000   2.7928460   2.7928460
 AtZNuc=   1.0000000   1.0000000   1.0000000   6.0000000   1.0000000   1.0000000   1.0000000   6.0000000   1.0000000   1.0000000

  Atom        31          32          33          34          35          36          37          38          39          40
 IAtWgt=           1          12          12          12          12          12           1           1           1           1
 AtmWgt=   1.0078250  12.0000000  12.0000000  12.0000000  12.0000000  12.0000000   1.0078250   1.0078250   1.0078250   1.0078250
 NucSpn=           1           0           0           0           0           0           1           1           1           1
 AtZEff=   0.0000000   0.0000000   0.0000000   0.0000000   0.0000000   0.0000000   0.0000000   0.0000000   0.0000000   0.0000000
 NQMom=    0.0000000   0.0000000   0.0000000   0.0000000   0.0000000   0.0000000   0.0000000   0.0000000   0.0000000   0.0000000
 NMagM=    2.7928460   0.0000000   0.0000000   0.0000000   0.0000000   0.0000000   2.7928460   2.7928460   2.7928460   2.7928460
 AtZNuc=   1.0000000   6.0000000   6.0000000   6.0000000   6.0000000   6.0000000   1.0000000   1.0000000   1.0000000   1.0000000

  Atom        41          42          43          44          45          46          47          48          49          50
 IAtWgt=           1          16          16          16          16          16          12           1           1          16
 AtmWgt=   1.0078250  15.9949146  15.9949146  15.9949146  15.9949146  15.9949146  12.0000000   1.0078250   1.0078250  15.9949146
 NucSpn=           1           0           0           0           0           0           0           1           1           0
 AtZEff=   0.0000000   0.0000000   0.0000000   0.0000000   0.0000000   0.0000000   0.0000000   0.0000000   0.0000000   0.0000000
 NQMom=    0.0000000   0.0000000   0.0000000   0.0000000   0.0000000   0.0000000   0.0000000   0.0000000   0.0000000   0.0000000
 NMagM=    2.7928460   0.0000000   0.0000000   0.0000000   0.0000000   0.0000000   0.0000000   2.7928460   2.7928460   0.0000000
 AtZNuc=   1.0000000   8.0000000   8.0000000   8.0000000   8.0000000   8.0000000   6.0000000   1.0000000   1.0000000   8.0000000

  Atom        51          52          53          54          55          56          57          58          59          60
 IAtWgt=          32          16          16          12          12          12          12           1          12           1
 AtmWgt=  31.9720718  15.9949146  15.9949146  12.0000000  12.0000000  12.0000000  12.0000000   1.0078250  12.0000000   1.0078250
 NucSpn=           0           0           0           0           0           0           0           1           0           1
 AtZEff=   0.0000000   0.0000000   0.0000000   0.0000000   0.0000000   0.0000000   0.0000000   0.0000000   0.0000000   0.0000000
 NQMom=    0.0000000   0.0000000   0.0000000   0.0000000   0.0000000   0.0000000   0.0000000   0.0000000   0.0000000   0.0000000
 NMagM=    0.0000000   0.0000000   0.0000000   0.0000000   0.0000000   0.0000000   0.0000000   2.7928460   0.0000000   2.7928460
 AtZNuc=  16.0000000   8.0000000   8.0000000   6.0000000   6.0000000   6.0000000   6.0000000   1.0000000   6.0000000   1.0000000

  Atom        61          62          63          64          65          66          67          68          69          70
 IAtWgt=          12           1          12           1           1           1          12           1           1           1
 AtmWgt=  12.0000000   1.0078250  12.0000000   1.0078250   1.0078250   1.0078250  12.0000000   1.0078250   1.0078250   1.0078250
 NucSpn=           0           1           0           1           1           1           0           1           1           1
 AtZEff=   0.0000000   0.0000000   0.0000000   0.0000000   0.0000000   0.0000000   0.0000000   0.0000000   0.0000000   0.0000000
 NQMom=    0.0000000   0.0000000   0.0000000   0.0000000   0.0000000   0.0000000   0.0000000   0.0000000   0.0000000   0.0000000
 NMagM=    0.0000000   2.7928460   0.0000000   2.7928460   2.7928460   2.7928460   0.0000000   2.7928460   2.7928460   2.7928460
 AtZNuc=   6.0000000   1.0000000   6.0000000   1.0000000   1.0000000   1.0000000   6.0000000   1.0000000   1.0000000   1.0000000

  Atom        71          72          73          74          75          76          77          78          79          80
 IAtWgt=          12           1           1           1          12           1           1           1          12           1
 AtmWgt=  12.0000000   1.0078250   1.0078250   1.0078250  12.0000000   1.0078250   1.0078250   1.0078250  12.0000000   1.0078250
 NucSpn=           0           1           1           1           0           1           1           1           0           1
 AtZEff=   0.0000000   0.0000000   0.0000000   0.0000000   0.0000000   0.0000000   0.0000000   0.0000000   0.0000000   0.0000000
 NQMom=    0.0000000   0.0000000   0.0000000   0.0000000   0.0000000   0.0000000   0.0000000   0.0000000   0.0000000   0.0000000
 NMagM=    0.0000000   2.7928460   2.7928460   2.7928460   0.0000000   2.7928460   2.7928460   2.7928460   0.0000000   2.7928460
 AtZNuc=   6.0000000   1.0000000   1.0000000   1.0000000   6.0000000   1.0000000   1.0000000   1.0000000   6.0000000   1.0000000

  Atom        81          82          83          84          85          86          87          88          89          90
 IAtWgt=           1           1          23          16          12           1           1           1          12           1
 AtmWgt=   1.0078250   1.0078250  22.9897697  15.9949146  12.0000000   1.0078250   1.0078250   1.0078250  12.0000000   1.0078250
 NucSpn=           1           1           3           0           0           1           1           1           0           1
 AtZEff=   0.0000000   0.0000000   0.0000000   0.0000000   0.0000000   0.0000000   0.0000000   0.0000000   0.0000000   0.0000000
 NQMom=    0.0000000   0.0000000  10.4000000   0.0000000   0.0000000   0.0000000   0.0000000   0.0000000   0.0000000   0.0000000
 NMagM=    2.7928460   2.7928460   2.2175200   0.0000000   0.0000000   2.7928460   2.7928460   2.7928460   0.0000000   2.7928460
 AtZNuc=   1.0000000   1.0000000  11.0000000   8.0000000   6.0000000   1.0000000   1.0000000   1.0000000   6.0000000   1.0000000

  Atom        91          92          93          94          95          96          97          98          99         100
 IAtWgt=           1           1          12          19          19          19          12          19          19          19
 AtmWgt=   1.0078250   1.0078250  12.0000000  18.9984033  18.9984033  18.9984033  12.0000000  18.9984033  18.9984033  18.9984033
 NucSpn=           1           1           0           1           1           1           0           1           1           1
 AtZEff=   0.0000000   0.0000000   0.0000000   0.0000000   0.0000000   0.0000000   0.0000000   0.0000000   0.0000000   0.0000000
 NQMom=    0.0000000   0.0000000   0.0000000   0.0000000   0.0000000   0.0000000   0.0000000   0.0000000   0.0000000   0.0000000
 NMagM=    2.7928460   2.7928460   0.0000000   2.6288670   2.6288670   2.6288670   0.0000000   2.6288670   2.6288670   2.6288670
 AtZNuc=   1.0000000   1.0000000   6.0000000   9.0000000   9.0000000   9.0000000   6.0000000   9.0000000   9.0000000   9.0000000
 Leave Link  101 at Thu May 30 18:50:25 2019, MaxMem=  6442450944 cpu:             450.4 elap:              16.7
 (Enter /home/ekwan/sw/g16/l103.exe)

 GradGradGradGradGradGradGradGradGradGradGradGradGradGradGradGradGradGrad
 Berny optimization.
 Initialization pass.
                           ----------------------------
                           !    Initial Parameters    !
                           ! (Angstroms and Degrees)  !
 --------------------------                            --------------------------
 ! Name  Definition              Value          Derivative Info.                !
 --------------------------------------------------------------------------------
 ! R1    R(1,2)                  1.5275         calculate D2E/DX2 analytically  !
 ! R2    R(1,5)                  1.5255         calculate D2E/DX2 analytically  !
 ! R3    R(1,8)                  1.0975         calculate D2E/DX2 analytically  !
 ! R4    R(1,14)                 1.4278         calculate D2E/DX2 analytically  !
 ! R5    R(2,3)                  1.5403         calculate D2E/DX2 analytically  !
 ! R6    R(2,7)                  1.096          calculate D2E/DX2 analytically  !
 ! R7    R(2,13)                 1.4181         calculate D2E/DX2 analytically  !
 ! R8    R(3,6)                  1.0979         calculate D2E/DX2 analytically  !
 ! R9    R(3,11)                 1.4153         calculate D2E/DX2 analytically  !
 ! R10   R(3,12)                 1.4036         calculate D2E/DX2 analytically  !
 ! R11   R(4,5)                  1.5299         calculate D2E/DX2 analytically  !
 ! R12   R(4,9)                  1.0986         calculate D2E/DX2 analytically  !
 ! R13   R(4,11)                 1.442          calculate D2E/DX2 analytically  !
 ! R14   R(4,16)                 1.5299         calculate D2E/DX2 analytically  !
 ! R15   R(5,10)                 1.0928         calculate D2E/DX2 analytically  !
 ! R16   R(5,15)                 1.427          calculate D2E/DX2 analytically  !
 ! R17   R(12,79)                1.4229         calculate D2E/DX2 analytically  !
 ! R18   R(13,20)                1.4177         calculate D2E/DX2 analytically  !
 ! R19   R(14,24)                1.4196         calculate D2E/DX2 analytically  !
 ! R20   R(15,28)                1.422          calculate D2E/DX2 analytically  !
 ! R21   R(16,17)                1.1099         calculate D2E/DX2 analytically  !
 ! R22   R(16,18)                1.1171         calculate D2E/DX2 analytically  !
 ! R23   R(16,19)                1.3799         calculate D2E/DX2 analytically  !
 ! R24   R(19,37)                2.2095         calculate D2E/DX2 analytically  !
 ! R25   R(19,38)                2.2876         calculate D2E/DX2 analytically  !
 ! R26   R(19,83)                2.2399         calculate D2E/DX2 analytically  !
 ! R27   R(20,21)                1.0989         calculate D2E/DX2 analytically  !
 ! R28   R(20,22)                1.0988         calculate D2E/DX2 analytically  !
 ! R29   R(20,23)                1.0932         calculate D2E/DX2 analytically  !
 ! R30   R(24,25)                1.0954         calculate D2E/DX2 analytically  !
 ! R31   R(24,26)                1.0993         calculate D2E/DX2 analytically  !
 ! R32   R(24,27)                1.0935         calculate D2E/DX2 analytically  !
 ! R33   R(28,29)                1.1004         calculate D2E/DX2 analytically  !
 ! R34   R(28,30)                1.0966         calculate D2E/DX2 analytically  !
 ! R35   R(28,31)                1.0935         calculate D2E/DX2 analytically  !
 ! R36   R(32,33)                1.5331         calculate D2E/DX2 analytically  !
 ! R37   R(32,36)                1.5288         calculate D2E/DX2 analytically  !
 ! R38   R(32,39)                1.0942         calculate D2E/DX2 analytically  !
 ! R39   R(32,45)                1.4174         calculate D2E/DX2 analytically  !
 ! R40   R(33,34)                1.5011         calculate D2E/DX2 analytically  !
 ! R41   R(33,38)                1.0987         calculate D2E/DX2 analytically  !
 ! R42   R(33,44)                1.4141         calculate D2E/DX2 analytically  !
 ! R43   R(34,37)                1.0724         calculate D2E/DX2 analytically  !
 ! R44   R(34,42)                1.2864         calculate D2E/DX2 analytically  !
 ! R45   R(34,53)                2.296          calculate D2E/DX2 analytically  !
 ! R46   R(35,36)                1.5309         calculate D2E/DX2 analytically  !
 ! R47   R(35,40)                1.0927         calculate D2E/DX2 analytically  !
 ! R48   R(35,42)                1.4762         calculate D2E/DX2 analytically  !
 ! R49   R(35,47)                1.5126         calculate D2E/DX2 analytically  !
 ! R50   R(36,41)                1.1            calculate D2E/DX2 analytically  !
 ! R51   R(36,46)                1.4151         calculate D2E/DX2 analytically  !
 ! R52   R(43,51)                1.4969         calculate D2E/DX2 analytically  !
 ! R53   R(43,83)                2.2931         calculate D2E/DX2 analytically  !
 ! R54   R(44,63)                1.4372         calculate D2E/DX2 analytically  !
 ! R55   R(45,67)                1.4247         calculate D2E/DX2 analytically  !
 ! R56   R(46,71)                1.4262         calculate D2E/DX2 analytically  !
 ! R57   R(47,48)                1.0987         calculate D2E/DX2 analytically  !
 ! R58   R(47,49)                1.1004         calculate D2E/DX2 analytically  !
 ! R59   R(47,50)                1.4136         calculate D2E/DX2 analytically  !
 ! R60   R(50,75)                1.4241         calculate D2E/DX2 analytically  !
 ! R61   R(51,52)                1.4755         calculate D2E/DX2 analytically  !
 ! R62   R(51,53)                1.5047         calculate D2E/DX2 analytically  !
 ! R63   R(51,54)                1.7995         calculate D2E/DX2 analytically  !
 ! R64   R(54,55)                1.3872         calculate D2E/DX2 analytically  !
 ! R65   R(54,56)                1.3945         calculate D2E/DX2 analytically  !
 ! R66   R(55,57)                1.397          calculate D2E/DX2 analytically  !
 ! R67   R(55,58)                1.0817         calculate D2E/DX2 analytically  !
 ! R68   R(56,59)                1.3915         calculate D2E/DX2 analytically  !
 ! R69   R(56,60)                1.0829         calculate D2E/DX2 analytically  !
 ! R70   R(57,61)                1.3911         calculate D2E/DX2 analytically  !
 ! R71   R(57,93)                1.5018         calculate D2E/DX2 analytically  !
 ! R72   R(59,61)                1.3981         calculate D2E/DX2 analytically  !
 ! R73   R(59,97)                1.5034         calculate D2E/DX2 analytically  !
 ! R74   R(61,62)                1.0836         calculate D2E/DX2 analytically  !
 ! R75   R(63,64)                1.0963         calculate D2E/DX2 analytically  !
 ! R76   R(63,65)                1.0918         calculate D2E/DX2 analytically  !
 ! R77   R(63,66)                1.091          calculate D2E/DX2 analytically  !
 ! R78   R(67,68)                1.0968         calculate D2E/DX2 analytically  !
 ! R79   R(67,69)                1.0949         calculate D2E/DX2 analytically  !
 ! R80   R(67,70)                1.092          calculate D2E/DX2 analytically  !
 ! R81   R(71,72)                1.0937         calculate D2E/DX2 analytically  !
 ! R82   R(71,73)                1.099          calculate D2E/DX2 analytically  !
 ! R83   R(71,74)                1.0921         calculate D2E/DX2 analytically  !
 ! R84   R(75,76)                1.0919         calculate D2E/DX2 analytically  !
 ! R85   R(75,77)                1.1004         calculate D2E/DX2 analytically  !
 ! R86   R(75,78)                1.0949         calculate D2E/DX2 analytically  !
 ! R87   R(79,80)                1.092          calculate D2E/DX2 analytically  !
 ! R88   R(79,81)                1.0962         calculate D2E/DX2 analytically  !
 ! R89   R(79,82)                1.0995         calculate D2E/DX2 analytically  !
 ! R90   R(83,84)                2.2902         calculate D2E/DX2 analytically  !
 ! R91   R(84,85)                1.4271         calculate D2E/DX2 analytically  !
 ! R92   R(84,89)                1.4244         calculate D2E/DX2 analytically  !
 ! R93   R(85,86)                1.0973         calculate D2E/DX2 analytically  !
 ! R94   R(85,87)                1.0914         calculate D2E/DX2 analytically  !
 ! R95   R(85,88)                1.0979         calculate D2E/DX2 analytically  !
 ! R96   R(89,90)                1.098          calculate D2E/DX2 analytically  !
 ! R97   R(89,91)                1.0916         calculate D2E/DX2 analytically  !
 ! R98   R(89,92)                1.0955         calculate D2E/DX2 analytically  !
 ! R99   R(93,94)                1.3533         calculate D2E/DX2 analytically  !
 ! R100  R(93,95)                1.3461         calculate D2E/DX2 analytically  !
 ! R101  R(93,96)                1.3611         calculate D2E/DX2 analytically  !
 ! R102  R(97,98)                1.3493         calculate D2E/DX2 analytically  !
 ! R103  R(97,99)                1.357          calculate D2E/DX2 analytically  !
 ! R104  R(97,100)               1.3502         calculate D2E/DX2 analytically  !
 ! A1    A(2,1,5)              110.9746         calculate D2E/DX2 analytically  !
 ! A2    A(2,1,8)              108.4888         calculate D2E/DX2 analytically  !
 ! A3    A(2,1,14)             108.395          calculate D2E/DX2 analytically  !
 ! A4    A(5,1,8)              109.376          calculate D2E/DX2 analytically  !
 ! A5    A(5,1,14)             109.7231         calculate D2E/DX2 analytically  !
 ! A6    A(8,1,14)             109.8614         calculate D2E/DX2 analytically  !
 ! A7    A(1,2,3)              111.198          calculate D2E/DX2 analytically  !
 ! A8    A(1,2,7)              108.9206         calculate D2E/DX2 analytically  !
 ! A9    A(1,2,13)             107.274          calculate D2E/DX2 analytically  !
 ! A10   A(3,2,7)              106.9181         calculate D2E/DX2 analytically  !
 ! A11   A(3,2,13)             112.9654         calculate D2E/DX2 analytically  !
 ! A12   A(7,2,13)             109.5132         calculate D2E/DX2 analytically  !
 ! A13   A(2,3,6)              110.896          calculate D2E/DX2 analytically  !
 ! A14   A(2,3,11)             110.8805         calculate D2E/DX2 analytically  !
 ! A15   A(2,3,12)             108.1353         calculate D2E/DX2 analytically  !
 ! A16   A(6,3,11)             104.0085         calculate D2E/DX2 analytically  !
 ! A17   A(6,3,12)             110.0227         calculate D2E/DX2 analytically  !
 ! A18   A(11,3,12)            112.8931         calculate D2E/DX2 analytically  !
 ! A19   A(5,4,9)              108.9291         calculate D2E/DX2 analytically  !
 ! A20   A(5,4,11)             109.0917         calculate D2E/DX2 analytically  !
 ! A21   A(5,4,16)             113.1379         calculate D2E/DX2 analytically  !
 ! A22   A(9,4,11)             109.187          calculate D2E/DX2 analytically  !
 ! A23   A(9,4,16)             109.0958         calculate D2E/DX2 analytically  !
 ! A24   A(11,4,16)            107.3317         calculate D2E/DX2 analytically  !
 ! A25   A(1,5,4)              111.442          calculate D2E/DX2 analytically  !
 ! A26   A(1,5,10)             108.3425         calculate D2E/DX2 analytically  !
 ! A27   A(1,5,15)             108.9            calculate D2E/DX2 analytically  !
 ! A28   A(4,5,10)             108.3692         calculate D2E/DX2 analytically  !
 ! A29   A(4,5,15)             110.0247         calculate D2E/DX2 analytically  !
 ! A30   A(10,5,15)            109.7333         calculate D2E/DX2 analytically  !
 ! A31   A(3,11,4)             113.7967         calculate D2E/DX2 analytically  !
 ! A32   A(3,12,79)            113.2072         calculate D2E/DX2 analytically  !
 ! A33   A(2,13,20)            113.6984         calculate D2E/DX2 analytically  !
 ! A34   A(1,14,24)            114.3832         calculate D2E/DX2 analytically  !
 ! A35   A(5,15,28)            113.0793         calculate D2E/DX2 analytically  !
 ! A36   A(4,16,17)            105.6632         calculate D2E/DX2 analytically  !
 ! A37   A(4,16,18)            105.0778         calculate D2E/DX2 analytically  !
 ! A38   A(4,16,19)            114.1441         calculate D2E/DX2 analytically  !
 ! A39   A(17,16,18)           105.0747         calculate D2E/DX2 analytically  !
 ! A40   A(17,16,19)           112.6708         calculate D2E/DX2 analytically  !
 ! A41   A(18,16,19)           113.3816         calculate D2E/DX2 analytically  !
 ! A42   A(16,19,37)           109.3315         calculate D2E/DX2 analytically  !
 ! A43   A(16,19,38)           153.5505         calculate D2E/DX2 analytically  !
 ! A44   A(16,19,83)           105.4747         calculate D2E/DX2 analytically  !
 ! A45   A(37,19,38)            75.5584         calculate D2E/DX2 analytically  !
 ! A46   A(37,19,83)            67.0608         calculate D2E/DX2 analytically  !
 ! A47   A(38,19,83)           100.3394         calculate D2E/DX2 analytically  !
 ! A48   A(13,20,21)           111.9144         calculate D2E/DX2 analytically  !
 ! A49   A(13,20,22)           111.3573         calculate D2E/DX2 analytically  !
 ! A50   A(13,20,23)           106.8983         calculate D2E/DX2 analytically  !
 ! A51   A(21,20,22)           108.8537         calculate D2E/DX2 analytically  !
 ! A52   A(21,20,23)           108.6103         calculate D2E/DX2 analytically  !
 ! A53   A(22,20,23)           109.1249         calculate D2E/DX2 analytically  !
 ! A54   A(14,24,25)           111.43           calculate D2E/DX2 analytically  !
 ! A55   A(14,24,26)           111.0587         calculate D2E/DX2 analytically  !
 ! A56   A(14,24,27)           106.6774         calculate D2E/DX2 analytically  !
 ! A57   A(25,24,26)           109.1527         calculate D2E/DX2 analytically  !
 ! A58   A(25,24,27)           109.5922         calculate D2E/DX2 analytically  !
 ! A59   A(26,24,27)           108.8674         calculate D2E/DX2 analytically  !
 ! A60   A(15,28,29)           110.8975         calculate D2E/DX2 analytically  !
 ! A61   A(15,28,30)           111.227          calculate D2E/DX2 analytically  !
 ! A62   A(15,28,31)           106.9868         calculate D2E/DX2 analytically  !
 ! A63   A(29,28,30)           108.8648         calculate D2E/DX2 analytically  !
 ! A64   A(29,28,31)           108.8936         calculate D2E/DX2 analytically  !
 ! A65   A(30,28,31)           109.9329         calculate D2E/DX2 analytically  !
 ! A66   A(33,32,36)           108.2507         calculate D2E/DX2 analytically  !
 ! A67   A(33,32,39)           109.1848         calculate D2E/DX2 analytically  !
 ! A68   A(33,32,45)           110.8022         calculate D2E/DX2 analytically  !
 ! A69   A(36,32,39)           109.1488         calculate D2E/DX2 analytically  !
 ! A70   A(36,32,45)           108.6651         calculate D2E/DX2 analytically  !
 ! A71   A(39,32,45)           110.7362         calculate D2E/DX2 analytically  !
 ! A72   A(32,33,34)           111.0093         calculate D2E/DX2 analytically  !
 ! A73   A(32,33,38)           109.122          calculate D2E/DX2 analytically  !
 ! A74   A(32,33,44)           113.0832         calculate D2E/DX2 analytically  !
 ! A75   A(34,33,38)           103.3456         calculate D2E/DX2 analytically  !
 ! A76   A(34,33,44)           110.6542         calculate D2E/DX2 analytically  !
 ! A77   A(38,33,44)           109.1534         calculate D2E/DX2 analytically  !
 ! A78   A(33,34,37)           124.6176         calculate D2E/DX2 analytically  !
 ! A79   A(33,34,42)           120.9784         calculate D2E/DX2 analytically  !
 ! A80   A(33,34,53)            96.1265         calculate D2E/DX2 analytically  !
 ! A81   A(37,34,42)           113.934          calculate D2E/DX2 analytically  !
 ! A82   A(37,34,53)            83.696          calculate D2E/DX2 analytically  !
 ! A83   A(42,34,53)            96.8558         calculate D2E/DX2 analytically  !
 ! A84   A(36,35,40)           108.7101         calculate D2E/DX2 analytically  !
 ! A85   A(36,35,42)           113.4107         calculate D2E/DX2 analytically  !
 ! A86   A(36,35,47)           113.5735         calculate D2E/DX2 analytically  !
 ! A87   A(40,35,42)           103.5176         calculate D2E/DX2 analytically  !
 ! A88   A(40,35,47)           109.5848         calculate D2E/DX2 analytically  !
 ! A89   A(42,35,47)           107.5391         calculate D2E/DX2 analytically  !
 ! A90   A(32,36,35)           110.7124         calculate D2E/DX2 analytically  !
 ! A91   A(32,36,41)           109.0033         calculate D2E/DX2 analytically  !
 ! A92   A(32,36,46)           111.2296         calculate D2E/DX2 analytically  !
 ! A93   A(35,36,41)           110.0737         calculate D2E/DX2 analytically  !
 ! A94   A(35,36,46)           105.1275         calculate D2E/DX2 analytically  !
 ! A95   A(41,36,46)           110.6575         calculate D2E/DX2 analytically  !
 ! A96   A(19,37,34)            90.8748         calculate D2E/DX2 analytically  !
 ! A97   A(19,38,33)            99.1671         calculate D2E/DX2 analytically  !
 ! A98   A(34,42,35)           123.0128         calculate D2E/DX2 analytically  !
 ! A99   A(51,43,83)           131.3621         calculate D2E/DX2 analytically  !
 ! A100  A(33,44,63)           113.3374         calculate D2E/DX2 analytically  !
 ! A101  A(32,45,67)           114.212          calculate D2E/DX2 analytically  !
 ! A102  A(36,46,71)           114.4996         calculate D2E/DX2 analytically  !
 ! A103  A(35,47,48)           110.6839         calculate D2E/DX2 analytically  !
 ! A104  A(35,47,49)           107.4369         calculate D2E/DX2 analytically  !
 ! A105  A(35,47,50)           108.3128         calculate D2E/DX2 analytically  !
 ! A106  A(48,47,49)           108.5761         calculate D2E/DX2 analytically  !
 ! A107  A(48,47,50)           111.1618         calculate D2E/DX2 analytically  !
 ! A108  A(49,47,50)           110.6066         calculate D2E/DX2 analytically  !
 ! A109  A(47,50,75)           112.0019         calculate D2E/DX2 analytically  !
 ! A110  A(43,51,52)           113.9939         calculate D2E/DX2 analytically  !
 ! A111  A(43,51,53)           112.5006         calculate D2E/DX2 analytically  !
 ! A112  A(43,51,54)           105.5444         calculate D2E/DX2 analytically  !
 ! A113  A(52,51,53)           113.1499         calculate D2E/DX2 analytically  !
 ! A114  A(52,51,54)           106.6965         calculate D2E/DX2 analytically  !
 ! A115  A(53,51,54)           103.9323         calculate D2E/DX2 analytically  !
 ! A116  A(34,53,51)           115.605          calculate D2E/DX2 analytically  !
 ! A117  A(51,54,55)           120.3469         calculate D2E/DX2 analytically  !
 ! A118  A(51,54,56)           118.7105         calculate D2E/DX2 analytically  !
 ! A119  A(55,54,56)           120.9202         calculate D2E/DX2 analytically  !
 ! A120  A(54,55,57)           119.2627         calculate D2E/DX2 analytically  !
 ! A121  A(54,55,58)           120.2991         calculate D2E/DX2 analytically  !
 ! A122  A(57,55,58)           120.3635         calculate D2E/DX2 analytically  !
 ! A123  A(54,56,59)           119.1717         calculate D2E/DX2 analytically  !
 ! A124  A(54,56,60)           120.239          calculate D2E/DX2 analytically  !
 ! A125  A(59,56,60)           120.5465         calculate D2E/DX2 analytically  !
 ! A126  A(55,57,61)           120.7639         calculate D2E/DX2 analytically  !
 ! A127  A(55,57,93)           118.5057         calculate D2E/DX2 analytically  !
 ! A128  A(61,57,93)           120.5912         calculate D2E/DX2 analytically  !
 ! A129  A(56,59,61)           120.7766         calculate D2E/DX2 analytically  !
 ! A130  A(56,59,97)           120.6742         calculate D2E/DX2 analytically  !
 ! A131  A(61,59,97)           118.5155         calculate D2E/DX2 analytically  !
 ! A132  A(57,61,59)           119.099          calculate D2E/DX2 analytically  !
 ! A133  A(57,61,62)           120.4558         calculate D2E/DX2 analytically  !
 ! A134  A(59,61,62)           120.4387         calculate D2E/DX2 analytically  !
 ! A135  A(44,63,64)           109.7586         calculate D2E/DX2 analytically  !
 ! A136  A(44,63,65)           110.807          calculate D2E/DX2 analytically  !
 ! A137  A(44,63,66)           106.0927         calculate D2E/DX2 analytically  !
 ! A138  A(64,63,65)           109.7105         calculate D2E/DX2 analytically  !
 ! A139  A(64,63,66)           110.6366         calculate D2E/DX2 analytically  !
 ! A140  A(65,63,66)           109.7864         calculate D2E/DX2 analytically  !
 ! A141  A(45,67,68)           111.1639         calculate D2E/DX2 analytically  !
 ! A142  A(45,67,69)           111.4228         calculate D2E/DX2 analytically  !
 ! A143  A(45,67,70)           106.6276         calculate D2E/DX2 analytically  !
 ! A144  A(68,67,69)           109.079          calculate D2E/DX2 analytically  !
 ! A145  A(68,67,70)           109.1952         calculate D2E/DX2 analytically  !
 ! A146  A(69,67,70)           109.2931         calculate D2E/DX2 analytically  !
 ! A147  A(46,71,72)           111.2463         calculate D2E/DX2 analytically  !
 ! A148  A(46,71,73)           110.9665         calculate D2E/DX2 analytically  !
 ! A149  A(46,71,74)           106.251          calculate D2E/DX2 analytically  !
 ! A150  A(72,71,73)           109.3586         calculate D2E/DX2 analytically  !
 ! A151  A(72,71,74)           109.8561         calculate D2E/DX2 analytically  !
 ! A152  A(73,71,74)           109.1006         calculate D2E/DX2 analytically  !
 ! A153  A(50,75,76)           106.6733         calculate D2E/DX2 analytically  !
 ! A154  A(50,75,77)           110.7846         calculate D2E/DX2 analytically  !
 ! A155  A(50,75,78)           110.7413         calculate D2E/DX2 analytically  !
 ! A156  A(76,75,77)           109.0571         calculate D2E/DX2 analytically  !
 ! A157  A(76,75,78)           109.6707         calculate D2E/DX2 analytically  !
 ! A158  A(77,75,78)           109.847          calculate D2E/DX2 analytically  !
 ! A159  A(12,79,80)           106.7739         calculate D2E/DX2 analytically  !
 ! A160  A(12,79,81)           111.5717         calculate D2E/DX2 analytically  !
 ! A161  A(12,79,82)           110.8571         calculate D2E/DX2 analytically  !
 ! A162  A(80,79,81)           109.503          calculate D2E/DX2 analytically  !
 ! A163  A(80,79,82)           109.3423         calculate D2E/DX2 analytically  !
 ! A164  A(81,79,82)           108.7549         calculate D2E/DX2 analytically  !
 ! A165  A(19,83,43)           117.8087         calculate D2E/DX2 analytically  !
 ! A166  A(19,83,84)           149.0504         calculate D2E/DX2 analytically  !
 ! A167  A(43,83,84)            92.6664         calculate D2E/DX2 analytically  !
 ! A168  A(83,84,85)           119.4814         calculate D2E/DX2 analytically  !
 ! A169  A(83,84,89)           124.9874         calculate D2E/DX2 analytically  !
 ! A170  A(85,84,89)           112.5856         calculate D2E/DX2 analytically  !
 ! A171  A(84,85,86)           110.2983         calculate D2E/DX2 analytically  !
 ! A172  A(84,85,87)           106.758          calculate D2E/DX2 analytically  !
 ! A173  A(84,85,88)           110.7584         calculate D2E/DX2 analytically  !
 ! A174  A(86,85,87)           109.6878         calculate D2E/DX2 analytically  !
 ! A175  A(86,85,88)           109.3213         calculate D2E/DX2 analytically  !
 ! A176  A(87,85,88)           109.9859         calculate D2E/DX2 analytically  !
 ! A177  A(84,89,90)           110.7239         calculate D2E/DX2 analytically  !
 ! A178  A(84,89,91)           107.1169         calculate D2E/DX2 analytically  !
 ! A179  A(84,89,92)           110.5971         calculate D2E/DX2 analytically  !
 ! A180  A(90,89,91)           109.5999         calculate D2E/DX2 analytically  !
 ! A181  A(90,89,92)           109.4727         calculate D2E/DX2 analytically  !
 ! A182  A(91,89,92)           109.2889         calculate D2E/DX2 analytically  !
 ! A183  A(57,93,94)           111.8322         calculate D2E/DX2 analytically  !
 ! A184  A(57,93,95)           112.624          calculate D2E/DX2 analytically  !
 ! A185  A(57,93,96)           111.1898         calculate D2E/DX2 analytically  !
 ! A186  A(94,93,95)           107.6651         calculate D2E/DX2 analytically  !
 ! A187  A(94,93,96)           106.2734         calculate D2E/DX2 analytically  !
 ! A188  A(95,93,96)           106.9096         calculate D2E/DX2 analytically  !
 ! A189  A(59,97,98)           112.308          calculate D2E/DX2 analytically  !
 ! A190  A(59,97,99)           110.8634         calculate D2E/DX2 analytically  !
 ! A191  A(59,97,100)          112.0327         calculate D2E/DX2 analytically  !
 ! A192  A(98,97,99)           107.1234         calculate D2E/DX2 analytically  !
 ! A193  A(98,97,100)          107.5615         calculate D2E/DX2 analytically  !
 ! A194  A(99,97,100)          106.6477         calculate D2E/DX2 analytically  !
 ! D1    D(5,1,2,3)            -48.8514         calculate D2E/DX2 analytically  !
 ! D2    D(5,1,2,7)             68.7225         calculate D2E/DX2 analytically  !
 ! D3    D(5,1,2,13)          -172.8286         calculate D2E/DX2 analytically  !
 ! D4    D(8,1,2,3)             71.3361         calculate D2E/DX2 analytically  !
 ! D5    D(8,1,2,7)           -171.09           calculate D2E/DX2 analytically  !
 ! D6    D(8,1,2,13)           -52.6411         calculate D2E/DX2 analytically  !
 ! D7    D(14,1,2,3)          -169.4069         calculate D2E/DX2 analytically  !
 ! D8    D(14,1,2,7)           -51.833          calculate D2E/DX2 analytically  !
 ! D9    D(14,1,2,13)           66.6159         calculate D2E/DX2 analytically  !
 ! D10   D(2,1,5,4)             51.081          calculate D2E/DX2 analytically  !
 ! D11   D(2,1,5,10)           -68.0564         calculate D2E/DX2 analytically  !
 ! D12   D(2,1,5,15)           172.636          calculate D2E/DX2 analytically  !
 ! D13   D(8,1,5,4)            -68.5778         calculate D2E/DX2 analytically  !
 ! D14   D(8,1,5,10)           172.2848         calculate D2E/DX2 analytically  !
 ! D15   D(8,1,5,15)            52.9772         calculate D2E/DX2 analytically  !
 ! D16   D(14,1,5,4)           170.8469         calculate D2E/DX2 analytically  !
 ! D17   D(14,1,5,10)           51.7095         calculate D2E/DX2 analytically  !
 ! D18   D(14,1,5,15)          -67.5981         calculate D2E/DX2 analytically  !
 ! D19   D(2,1,14,24)         -137.909          calculate D2E/DX2 analytically  !
 ! D20   D(5,1,14,24)          100.7612         calculate D2E/DX2 analytically  !
 ! D21   D(8,1,14,24)          -19.5194         calculate D2E/DX2 analytically  !
 ! D22   D(1,2,3,6)            167.9158         calculate D2E/DX2 analytically  !
 ! D23   D(1,2,3,11)            52.8942         calculate D2E/DX2 analytically  !
 ! D24   D(1,2,3,12)           -71.3737         calculate D2E/DX2 analytically  !
 ! D25   D(7,2,3,6)             49.1331         calculate D2E/DX2 analytically  !
 ! D26   D(7,2,3,11)           -65.8885         calculate D2E/DX2 analytically  !
 ! D27   D(7,2,3,12)           169.8435         calculate D2E/DX2 analytically  !
 ! D28   D(13,2,3,6)           -71.4032         calculate D2E/DX2 analytically  !
 ! D29   D(13,2,3,11)          173.5752         calculate D2E/DX2 analytically  !
 ! D30   D(13,2,3,12)           49.3073         calculate D2E/DX2 analytically  !
 ! D31   D(1,2,13,20)         -171.9519         calculate D2E/DX2 analytically  !
 ! D32   D(3,2,13,20)           65.1569         calculate D2E/DX2 analytically  !
 ! D33   D(7,2,13,20)          -53.8874         calculate D2E/DX2 analytically  !
 ! D34   D(2,3,11,4)           -60.6752         calculate D2E/DX2 analytically  !
 ! D35   D(6,3,11,4)          -179.9248         calculate D2E/DX2 analytically  !
 ! D36   D(12,3,11,4)           60.839          calculate D2E/DX2 analytically  !
 ! D37   D(2,3,12,79)         -173.4001         calculate D2E/DX2 analytically  !
 ! D38   D(6,3,12,79)          -52.1469         calculate D2E/DX2 analytically  !
 ! D39   D(11,3,12,79)          63.5462         calculate D2E/DX2 analytically  !
 ! D40   D(9,4,5,1)             63.2646         calculate D2E/DX2 analytically  !
 ! D41   D(9,4,5,10)          -177.614          calculate D2E/DX2 analytically  !
 ! D42   D(9,4,5,15)           -57.6349         calculate D2E/DX2 analytically  !
 ! D43   D(11,4,5,1)           -55.8373         calculate D2E/DX2 analytically  !
 ! D44   D(11,4,5,10)           63.2842         calculate D2E/DX2 analytically  !
 ! D45   D(11,4,5,15)         -176.7368         calculate D2E/DX2 analytically  !
 ! D46   D(16,4,5,1)          -175.2252         calculate D2E/DX2 analytically  !
 ! D47   D(16,4,5,10)          -56.1038         calculate D2E/DX2 analytically  !
 ! D48   D(16,4,5,15)           63.8753         calculate D2E/DX2 analytically  !
 ! D49   D(5,4,11,3)            61.8592         calculate D2E/DX2 analytically  !
 ! D50   D(9,4,11,3)           -57.082          calculate D2E/DX2 analytically  !
 ! D51   D(16,4,11,3)         -175.2112         calculate D2E/DX2 analytically  !
 ! D52   D(5,4,16,17)          -68.3065         calculate D2E/DX2 analytically  !
 ! D53   D(5,4,16,18)         -179.1171         calculate D2E/DX2 analytically  !
 ! D54   D(5,4,16,19)           56.0516         calculate D2E/DX2 analytically  !
 ! D55   D(9,4,16,17)           53.1098         calculate D2E/DX2 analytically  !
 ! D56   D(9,4,16,18)          -57.7008         calculate D2E/DX2 analytically  !
 ! D57   D(9,4,16,19)          177.4679         calculate D2E/DX2 analytically  !
 ! D58   D(11,4,16,17)         171.2981         calculate D2E/DX2 analytically  !
 ! D59   D(11,4,16,18)          60.4876         calculate D2E/DX2 analytically  !
 ! D60   D(11,4,16,19)         -64.3438         calculate D2E/DX2 analytically  !
 ! D61   D(1,5,15,28)          131.8498         calculate D2E/DX2 analytically  !
 ! D62   D(4,5,15,28)         -105.7361         calculate D2E/DX2 analytically  !
 ! D63   D(10,5,15,28)          13.4125         calculate D2E/DX2 analytically  !
 ! D64   D(3,12,79,80)         174.3253         calculate D2E/DX2 analytically  !
 ! D65   D(3,12,79,81)         -66.0627         calculate D2E/DX2 analytically  !
 ! D66   D(3,12,79,82)          55.3108         calculate D2E/DX2 analytically  !
 ! D67   D(2,13,20,21)         -74.1283         calculate D2E/DX2 analytically  !
 ! D68   D(2,13,20,22)          47.9661         calculate D2E/DX2 analytically  !
 ! D69   D(2,13,20,23)         167.0739         calculate D2E/DX2 analytically  !
 ! D70   D(1,14,24,25)         -60.211          calculate D2E/DX2 analytically  !
 ! D71   D(1,14,24,26)          61.7139         calculate D2E/DX2 analytically  !
 ! D72   D(1,14,24,27)        -179.7906         calculate D2E/DX2 analytically  !
 ! D73   D(5,15,28,29)         -68.7239         calculate D2E/DX2 analytically  !
 ! D74   D(5,15,28,30)          52.5812         calculate D2E/DX2 analytically  !
 ! D75   D(5,15,28,31)         172.6521         calculate D2E/DX2 analytically  !
 ! D76   D(4,16,19,37)          47.1806         calculate D2E/DX2 analytically  !
 ! D77   D(4,16,19,38)         -49.2387         calculate D2E/DX2 analytically  !
 ! D78   D(4,16,19,83)         117.8233         calculate D2E/DX2 analytically  !
 ! D79   D(17,16,19,37)        167.7031         calculate D2E/DX2 analytically  !
 ! D80   D(17,16,19,38)         71.2838         calculate D2E/DX2 analytically  !
 ! D81   D(17,16,19,83)       -121.6541         calculate D2E/DX2 analytically  !
 ! D82   D(18,16,19,37)        -73.1092         calculate D2E/DX2 analytically  !
 ! D83   D(18,16,19,38)       -169.5284         calculate D2E/DX2 analytically  !
 ! D84   D(18,16,19,83)         -2.4664         calculate D2E/DX2 analytically  !
 ! D85   D(16,19,37,34)       -137.203          calculate D2E/DX2 analytically  !
 ! D86   D(38,19,37,34)         15.5995         calculate D2E/DX2 analytically  !
 ! D87   D(83,19,37,34)        123.6734         calculate D2E/DX2 analytically  !
 ! D88   D(16,19,38,33)        130.329          calculate D2E/DX2 analytically  !
 ! D89   D(37,19,38,33)         25.8636         calculate D2E/DX2 analytically  !
 ! D90   D(83,19,38,33)        -37.0007         calculate D2E/DX2 analytically  !
 ! D91   D(16,19,83,43)       -100.3176         calculate D2E/DX2 analytically  !
 ! D92   D(16,19,83,84)         68.7402         calculate D2E/DX2 analytically  !
 ! D93   D(37,19,83,43)          4.5041         calculate D2E/DX2 analytically  !
 ! D94   D(37,19,83,84)        173.5619         calculate D2E/DX2 analytically  !
 ! D95   D(38,19,83,43)         73.8642         calculate D2E/DX2 analytically  !
 ! D96   D(38,19,83,84)       -117.0779         calculate D2E/DX2 analytically  !
 ! D97   D(36,32,33,34)        -53.8466         calculate D2E/DX2 analytically  !
 ! D98   D(36,32,33,38)         59.4105         calculate D2E/DX2 analytically  !
 ! D99   D(36,32,33,44)       -178.9048         calculate D2E/DX2 analytically  !
 ! D100  D(39,32,33,34)         64.8679         calculate D2E/DX2 analytically  !
 ! D101  D(39,32,33,38)        178.1249         calculate D2E/DX2 analytically  !
 ! D102  D(39,32,33,44)        -60.1903         calculate D2E/DX2 analytically  !
 ! D103  D(45,32,33,34)       -172.9093         calculate D2E/DX2 analytically  !
 ! D104  D(45,32,33,38)        -59.6523         calculate D2E/DX2 analytically  !
 ! D105  D(45,32,33,44)         62.0325         calculate D2E/DX2 analytically  !
 ! D106  D(33,32,36,35)         58.0649         calculate D2E/DX2 analytically  !
 ! D107  D(33,32,36,41)        -63.1546         calculate D2E/DX2 analytically  !
 ! D108  D(33,32,36,46)        174.5649         calculate D2E/DX2 analytically  !
 ! D109  D(39,32,36,35)        -60.6724         calculate D2E/DX2 analytically  !
 ! D110  D(39,32,36,41)        178.1082         calculate D2E/DX2 analytically  !
 ! D111  D(39,32,36,46)         55.8276         calculate D2E/DX2 analytically  !
 ! D112  D(45,32,36,35)        178.4699         calculate D2E/DX2 analytically  !
 ! D113  D(45,32,36,41)         57.2505         calculate D2E/DX2 analytically  !
 ! D114  D(45,32,36,46)        -65.0301         calculate D2E/DX2 analytically  !
 ! D115  D(33,32,45,67)       -108.4241         calculate D2E/DX2 analytically  !
 ! D116  D(36,32,45,67)        132.7633         calculate D2E/DX2 analytically  !
 ! D117  D(39,32,45,67)         12.8887         calculate D2E/DX2 analytically  !
 ! D118  D(32,33,34,37)       -150.5878         calculate D2E/DX2 analytically  !
 ! D119  D(32,33,34,42)         37.7653         calculate D2E/DX2 analytically  !
 ! D120  D(32,33,34,53)        -64.0332         calculate D2E/DX2 analytically  !
 ! D121  D(38,33,34,37)         92.5557         calculate D2E/DX2 analytically  !
 ! D122  D(38,33,34,42)        -79.0911         calculate D2E/DX2 analytically  !
 ! D123  D(38,33,34,53)        179.1104         calculate D2E/DX2 analytically  !
 ! D124  D(44,33,34,37)        -24.1745         calculate D2E/DX2 analytically  !
 ! D125  D(44,33,34,42)        164.1786         calculate D2E/DX2 analytically  !
 ! D126  D(44,33,34,53)         62.3802         calculate D2E/DX2 analytically  !
 ! D127  D(32,33,38,19)       -166.2982         calculate D2E/DX2 analytically  !
 ! D128  D(34,33,38,19)        -48.1184         calculate D2E/DX2 analytically  !
 ! D129  D(44,33,38,19)         69.6666         calculate D2E/DX2 analytically  !
 ! D130  D(32,33,44,63)        -94.2311         calculate D2E/DX2 analytically  !
 ! D131  D(34,33,44,63)        140.5188         calculate D2E/DX2 analytically  !
 ! D132  D(38,33,44,63)         27.4361         calculate D2E/DX2 analytically  !
 ! D133  D(33,34,37,19)        -56.6232         calculate D2E/DX2 analytically  !
 ! D134  D(42,34,37,19)        115.5448         calculate D2E/DX2 analytically  !
 ! D135  D(53,34,37,19)       -149.7309         calculate D2E/DX2 analytically  !
 ! D136  D(33,34,42,35)        -23.6769         calculate D2E/DX2 analytically  !
 ! D137  D(37,34,42,35)        163.8391         calculate D2E/DX2 analytically  !
 ! D138  D(53,34,42,35)         77.7172         calculate D2E/DX2 analytically  !
 ! D139  D(33,34,53,51)        -90.156          calculate D2E/DX2 analytically  !
 ! D140  D(37,34,53,51)         34.106          calculate D2E/DX2 analytically  !
 ! D141  D(42,34,53,51)        147.5473         calculate D2E/DX2 analytically  !
 ! D142  D(40,35,36,32)         71.1971         calculate D2E/DX2 analytically  !
 ! D143  D(40,35,36,41)       -168.2181         calculate D2E/DX2 analytically  !
 ! D144  D(40,35,36,46)        -49.0175         calculate D2E/DX2 analytically  !
 ! D145  D(42,35,36,32)        -43.3574         calculate D2E/DX2 analytically  !
 ! D146  D(42,35,36,41)         77.2274         calculate D2E/DX2 analytically  !
 ! D147  D(42,35,36,46)       -163.572          calculate D2E/DX2 analytically  !
 ! D148  D(47,35,36,32)       -166.5331         calculate D2E/DX2 analytically  !
 ! D149  D(47,35,36,41)        -45.9484         calculate D2E/DX2 analytically  !
 ! D150  D(47,35,36,46)         73.2522         calculate D2E/DX2 analytically  !
 ! D151  D(36,35,42,34)         26.1176         calculate D2E/DX2 analytically  !
 ! D152  D(40,35,42,34)        -91.502          calculate D2E/DX2 analytically  !
 ! D153  D(47,35,42,34)        152.5509         calculate D2E/DX2 analytically  !
 ! D154  D(36,35,47,48)         76.2046         calculate D2E/DX2 analytically  !
 ! D155  D(36,35,47,49)        -42.187          calculate D2E/DX2 analytically  !
 ! D156  D(36,35,47,50)       -161.6942         calculate D2E/DX2 analytically  !
 ! D157  D(40,35,47,48)       -162.0111         calculate D2E/DX2 analytically  !
 ! D158  D(40,35,47,49)         79.5972         calculate D2E/DX2 analytically  !
 ! D159  D(40,35,47,50)        -39.91           calculate D2E/DX2 analytically  !
 ! D160  D(42,35,47,48)        -50.1326         calculate D2E/DX2 analytically  !
 ! D161  D(42,35,47,49)       -168.5242         calculate D2E/DX2 analytically  !
 ! D162  D(42,35,47,50)         71.9686         calculate D2E/DX2 analytically  !
 ! D163  D(32,36,46,71)         98.4706         calculate D2E/DX2 analytically  !
 ! D164  D(35,36,46,71)       -141.6574         calculate D2E/DX2 analytically  !
 ! D165  D(41,36,46,71)        -22.8477         calculate D2E/DX2 analytically  !
 ! D166  D(83,43,51,52)       -173.6175         calculate D2E/DX2 analytically  !
 ! D167  D(83,43,51,53)         55.8295         calculate D2E/DX2 analytically  !
 ! D168  D(83,43,51,54)        -56.8595         calculate D2E/DX2 analytically  !
 ! D169  D(51,43,83,19)        -70.8165         calculate D2E/DX2 analytically  !
 ! D170  D(51,43,83,84)        114.7918         calculate D2E/DX2 analytically  !
 ! D171  D(33,44,63,64)        -64.7721         calculate D2E/DX2 analytically  !
 ! D172  D(33,44,63,65)         56.5513         calculate D2E/DX2 analytically  !
 ! D173  D(33,44,63,66)        175.6642         calculate D2E/DX2 analytically  !
 ! D174  D(32,45,67,68)        -53.6691         calculate D2E/DX2 analytically  !
 ! D175  D(32,45,67,69)         68.2301         calculate D2E/DX2 analytically  !
 ! D176  D(32,45,67,70)       -172.588          calculate D2E/DX2 analytically  !
 ! D177  D(36,46,71,72)        -60.7413         calculate D2E/DX2 analytically  !
 ! D178  D(36,46,71,73)         61.2546         calculate D2E/DX2 analytically  !
 ! D179  D(36,46,71,74)        179.7255         calculate D2E/DX2 analytically  !
 ! D180  D(35,47,50,75)       -179.9504         calculate D2E/DX2 analytically  !
 ! D181  D(48,47,50,75)        -58.1422         calculate D2E/DX2 analytically  !
 ! D182  D(49,47,50,75)         62.5552         calculate D2E/DX2 analytically  !
 ! D183  D(47,50,75,76)       -176.0427         calculate D2E/DX2 analytically  !
 ! D184  D(47,50,75,77)        -57.4718         calculate D2E/DX2 analytically  !
 ! D185  D(47,50,75,78)         64.6719         calculate D2E/DX2 analytically  !
 ! D186  D(43,51,53,34)        -15.7486         calculate D2E/DX2 analytically  !
 ! D187  D(52,51,53,34)       -146.7287         calculate D2E/DX2 analytically  !
 ! D188  D(54,51,53,34)         97.9307         calculate D2E/DX2 analytically  !
 ! D189  D(43,51,54,55)        -15.4397         calculate D2E/DX2 analytically  !
 ! D190  D(43,51,54,56)        162.8544         calculate D2E/DX2 analytically  !
 ! D191  D(52,51,54,55)        106.1672         calculate D2E/DX2 analytically  !
 ! D192  D(52,51,54,56)        -75.5388         calculate D2E/DX2 analytically  !
 ! D193  D(53,51,54,55)       -134.0119         calculate D2E/DX2 analytically  !
 ! D194  D(53,51,54,56)         44.2822         calculate D2E/DX2 analytically  !
 ! D195  D(51,54,55,57)        177.444          calculate D2E/DX2 analytically  !
 ! D196  D(51,54,55,58)          0.5759         calculate D2E/DX2 analytically  !
 ! D197  D(56,54,55,57)         -0.812          calculate D2E/DX2 analytically  !
 ! D198  D(56,54,55,58)       -177.68           calculate D2E/DX2 analytically  !
 ! D199  D(51,54,56,59)       -177.3706         calculate D2E/DX2 analytically  !
 ! D200  D(51,54,56,60)          0.2616         calculate D2E/DX2 analytically  !
 ! D201  D(55,54,56,59)          0.9133         calculate D2E/DX2 analytically  !
 ! D202  D(55,54,56,60)        178.5455         calculate D2E/DX2 analytically  !
 ! D203  D(54,55,57,61)          0.225          calculate D2E/DX2 analytically  !
 ! D204  D(54,55,57,93)       -175.5114         calculate D2E/DX2 analytically  !
 ! D205  D(58,55,57,61)        177.091          calculate D2E/DX2 analytically  !
 ! D206  D(58,55,57,93)          1.3546         calculate D2E/DX2 analytically  !
 ! D207  D(54,56,59,61)         -0.4293         calculate D2E/DX2 analytically  !
 ! D208  D(54,56,59,97)        177.4283         calculate D2E/DX2 analytically  !
 ! D209  D(60,56,59,61)       -178.0541         calculate D2E/DX2 analytically  !
 ! D210  D(60,56,59,97)         -0.1965         calculate D2E/DX2 analytically  !
 ! D211  D(55,57,61,59)          0.2457         calculate D2E/DX2 analytically  !
 ! D212  D(55,57,61,62)       -178.8316         calculate D2E/DX2 analytically  !
 ! D213  D(93,57,61,59)        175.893          calculate D2E/DX2 analytically  !
 ! D214  D(93,57,61,62)         -3.1843         calculate D2E/DX2 analytically  !
 ! D215  D(55,57,93,94)        -43.1068         calculate D2E/DX2 analytically  !
 ! D216  D(55,57,93,95)       -164.5136         calculate D2E/DX2 analytically  !
 ! D217  D(55,57,93,96)         75.518          calculate D2E/DX2 analytically  !
 ! D218  D(61,57,93,94)        141.1492         calculate D2E/DX2 analytically  !
 ! D219  D(61,57,93,95)         19.7424         calculate D2E/DX2 analytically  !
 ! D220  D(61,57,93,96)       -100.226          calculate D2E/DX2 analytically  !
 ! D221  D(56,59,61,57)         -0.1414         calculate D2E/DX2 analytically  !
 ! D222  D(56,59,61,62)        178.9361         calculate D2E/DX2 analytically  !
 ! D223  D(97,59,61,57)       -178.0444         calculate D2E/DX2 analytically  !
 ! D224  D(97,59,61,62)          1.0331         calculate D2E/DX2 analytically  !
 ! D225  D(56,59,97,98)         -7.0143         calculate D2E/DX2 analytically  !
 ! D226  D(56,59,97,99)       -126.8132         calculate D2E/DX2 analytically  !
 ! D227  D(56,59,97,100)       114.1755         calculate D2E/DX2 analytically  !
 ! D228  D(61,59,97,98)        170.8909         calculate D2E/DX2 analytically  !
 ! D229  D(61,59,97,99)         51.092          calculate D2E/DX2 analytically  !
 ! D230  D(61,59,97,100)       -67.9193         calculate D2E/DX2 analytically  !
 ! D231  D(19,83,84,85)       -132.9278         calculate D2E/DX2 analytically  !
 ! D232  D(19,83,84,89)         26.1689         calculate D2E/DX2 analytically  !
 ! D233  D(43,83,84,85)         37.3961         calculate D2E/DX2 analytically  !
 ! D234  D(43,83,84,89)       -163.5072         calculate D2E/DX2 analytically  !
 ! D235  D(83,84,85,86)       -138.3307         calculate D2E/DX2 analytically  !
 ! D236  D(83,84,85,87)        -19.2193         calculate D2E/DX2 analytically  !
 ! D237  D(83,84,85,88)        100.5073         calculate D2E/DX2 analytically  !
 ! D238  D(89,84,85,86)         60.1263         calculate D2E/DX2 analytically  !
 ! D239  D(89,84,85,87)        179.2377         calculate D2E/DX2 analytically  !
 ! D240  D(89,84,85,88)        -61.0357         calculate D2E/DX2 analytically  !
 ! D241  D(83,84,89,90)        -98.5724         calculate D2E/DX2 analytically  !
 ! D242  D(83,84,89,91)         20.8862         calculate D2E/DX2 analytically  !
 ! D243  D(83,84,89,92)        139.8975         calculate D2E/DX2 analytically  !
 ! D244  D(85,84,89,90)         61.7703         calculate D2E/DX2 analytically  !
 ! D245  D(85,84,89,91)       -178.771          calculate D2E/DX2 analytically  !
 ! D246  D(85,84,89,92)        -59.7597         calculate D2E/DX2 analytically  !
 --------------------------------------------------------------------------------
 Trust Radius=5.00D-02 FncErr=1.00D-07 GrdErr=1.00D-06 EigMax=2.50D+02 EigMin=1.00D-04
 Number of steps in this run=    554 maximum allowed number of steps=    600.
 Search for a saddle point of order  1.
 Step   0 in ReCalcFC=30 IGetFC= 4 compute analytic Hessian.
 GradGradGradGradGradGradGradGradGradGradGradGradGradGradGradGradGradGrad

 Leave Link  103 at Thu May 30 18:50:25 2019, MaxMem=  6442450944 cpu:               4.1 elap:               0.2
 (Enter /home/ekwan/sw/g16/l202.exe)
 Stoichiometry    C30H47F6NaO15S
 Framework group  C1[X(C30H47F6NaO15S)]
 Deg. of freedom   294
 Full point group                 C1      NOp   1
 Largest Abelian subgroup         C1      NOp   1
 Largest concise Abelian subgroup C1      NOp   1
                         Standard orientation:                         
 ---------------------------------------------------------------------
 Center     Atomic      Atomic             Coordinates (Angstroms)
 Number     Number       Type             X           Y           Z
 ---------------------------------------------------------------------
      1          6           0       -5.236591   -0.461375   -0.530676
      2          6           0       -4.862409   -0.391246    0.948608
      3          6           0       -4.135566   -1.671856    1.400575
      4          6           0       -3.399908   -2.168849   -0.822330
      5          6           0       -4.043254   -0.895893   -1.375767
      6          1           0       -3.682263   -1.535936    2.391268
      7          1           0       -4.165739    0.441159    1.099877
      8          1           0       -6.050731   -1.187609   -0.649676
      9          1           0       -4.128129   -2.989567   -0.878320
     10          1           0       -3.298229   -0.096628   -1.355480
     11          8           0       -3.035106   -1.952158    0.555816
     12          8           0       -5.073209   -2.715518    1.440210
     13          8           0       -6.056383   -0.147427    1.673879
     14          8           0       -5.675779    0.832083   -0.946142
     15          8           0       -4.480858   -1.112726   -2.716557
     16          6           0       -2.129419   -2.575038   -1.571642
     17          1           0       -2.464828   -2.888791   -2.582098
     18          1           0       -1.786713   -3.514883   -1.074425
     19          8           0       -1.160701   -1.593188   -1.613825
     20          6           0       -5.842638    0.122648    3.049057
     21          1           0       -5.580243   -0.785515    3.609441
     22          1           0       -5.049346    0.869493    3.191613
     23          1           0       -6.781916    0.517776    3.445040
     24          6           0       -6.819123    0.820536   -1.787477
     25          1           0       -6.631363    0.260991   -2.710216
     26          1           0       -7.685475    0.383610   -1.270661
     27          1           0       -7.040960    1.863466   -2.029797
     28          6           0       -3.649528   -0.482733   -3.683022
     29          1           0       -3.743792    0.612225   -3.627862
     30          1           0       -2.597162   -0.755666   -3.539872
     31          1           0       -3.991342   -0.818477   -4.665922
     32          6           0        0.435925    2.195730   -0.898059
     33          6           0        0.123997    0.702014   -1.045576
     34          6           0       -0.851059    0.249799    0.002306
     35          6           0       -1.794357    2.476738    0.234823
     36          6           0       -0.886308    2.963206   -0.897635
     37          1           0       -0.893327   -0.742163    0.407616
     38          1           0       -0.420564    0.539197   -1.985853
     39          1           0        0.948694    2.363670    0.053799
     40          1           0       -1.379577    2.816195    1.187090
     41          1           0       -1.383718    2.820281   -1.868251
     42          8           0       -1.821753    1.007467    0.374567
     43          8           0        0.946595   -1.799363    1.639603
     44          8           0        1.281674   -0.109979   -1.033296
     45          8           0        1.226248    2.654323   -1.981585
     46          8           0       -0.679960    4.339285   -0.640273
     47          6           0       -3.225602    2.949321    0.107956
     48          1           0       -3.758071    2.372444   -0.660689
     49          1           0       -3.198097    4.004741   -0.202145
     50          8           0       -3.850315    2.817457    1.369096
     51         16           0        1.392111   -0.495147    2.223791
     52          8           0        1.628440   -0.539310    3.679600
     53          8           0        0.517411    0.653903    1.801079
     54          6           0        2.978562   -0.138377    1.453084
     55          6           0        3.671980   -1.135298    0.782603
     56          6           0        3.474986    1.163389    1.513433
     57          6           0        4.875406   -0.820727    0.146672
     58          1           0        3.259643   -2.132670    0.710077
     59          6           0        4.673827    1.462437    0.873519
     60          1           0        2.913119    1.938395    2.019727
     61          6           0        5.382744    0.474034    0.184092
     62          1           0        6.306987    0.716744   -0.326758
     63          6           0        1.783398   -0.406016   -2.347086
     64          1           0        1.051502   -1.010278   -2.895859
     65          1           0        1.990453    0.512818   -2.899313
     66          1           0        2.708946   -0.964227   -2.198658
     67          6           0        2.577753    2.945045   -1.637071
     68          1           0        2.629782    3.643476   -0.793011
     69          1           0        3.130355    2.034653   -1.382867
     70          1           0        3.031278    3.408990   -2.515479
     71          6           0       -0.656560    5.161815   -1.805144
     72          1           0        0.152573    4.869594   -2.480470
     73          1           0       -1.614561    5.111623   -2.341282
     74          1           0       -0.496340    6.183594   -1.454600
     75          6           0       -5.209329    3.241934    1.338281
     76          1           0       -5.582782    3.171676    2.361968
     77          1           0       -5.284694    4.286055    0.999206
     78          1           0       -5.802938    2.594892    0.684170
     79          6           0       -4.549251   -3.919502    1.988504
     80          1           0       -5.383226   -4.620325    2.064401
     81          1           0       -3.768684   -4.347425    1.348839
     82          1           0       -4.129178   -3.743607    2.989215
     83         11           0        0.604789   -2.448686   -0.532946
     84          8           0        2.312770   -3.972572   -0.458664
     85          6           0        2.535024   -4.720738    0.736101
     86          1           0        3.609694   -4.793302    0.945420
     87          1           0        2.038911   -4.179133    1.543436
     88          1           0        2.113280   -5.730527    0.647035
     89          6           0        2.928192   -4.565826   -1.598100
     90          1           0        2.512649   -5.564133   -1.788477
     91          1           0        2.722237   -3.914926   -2.449878
     92          1           0        4.011549   -4.642450   -1.454844
     93          6           0        5.560065   -1.886881   -0.659610
     94          9           0        5.551284   -3.081847   -0.024414
     95          9           0        6.841127   -1.582261   -0.939138
     96          9           0        4.930910   -2.083332   -1.850522
     97          6           0        5.210844    2.866645    0.868086
     98          9           0        4.339156    3.750426    1.397054
     99          9           0        5.477535    3.277180   -0.397532
    100          9           0        6.365819    2.969892    1.559684
 ---------------------------------------------------------------------
 Rotational constants (GHZ):           0.0757078           0.0352628           0.0297293
 Leave Link  202 at Thu May 30 18:50:26 2019, MaxMem=  6442450944 cpu:               4.7 elap:               0.2
 (Enter /home/ekwan/sw/g16/l301.exe)
 Standard basis: 6-31G(d) (6D, 7F)
 Ernie: Thresh=  0.10000D-02 Tol=  0.10000D-05 Strict=F.
 There are   897 symmetry adapted cartesian basis functions of A   symmetry.
 There are   897 symmetry adapted basis functions of A   symmetry.
   897 basis functions,  1720 primitive gaussians,   897 cartesian basis functions
   214 alpha electrons      214 beta electrons
       nuclear repulsion energy      9573.0454741218 Hartrees.
 IExCor=  402 DFT=T Ex+Corr=B3LYP ExCW=0 ScaHFX=  0.200000
 ScaDFX=  0.800000  0.720000  1.000000  0.810000 ScalE2=  1.000000  1.000000
 IRadAn=      5 IRanWt=     -1 IRanGd=            0 ICorTp=0 IEmpDi=141
 NAtoms=  100 NActive=  100 NUniq=  100 SFac= 1.00D+00 NAtFMM=   60 NAOKFM=T Big=T
 Integral buffers will be    131072 words long.
 Raffenetti 2 integral format.
 Two-electron integral symmetry is turned on.
 R6Disp:  Grimme-D3(BJ) Dispersion energy=       -0.2353724885 Hartrees.
 Nuclear repulsion after empirical dispersion term =     9572.8101016334 Hartrees.
 Force inversion solution in PCM.
 ------------------------------------------------------------------------------
 Polarizable Continuum Model (PCM)
 =================================
 Model                : PCM.
 Atomic radii         : UFF (Universal Force Field).
 Polarization charges : Total charges.
 Charge compensation  : None.
 Solution method      : Matrix inversion.
 Cavity type          : Scaled VdW (van der Waals Surface) (Alpha=1.100).
 Cavity algorithm     : GePol (No added spheres)
                        Default sphere list used, NSphG=  100.
                        Lebedev-Laikov grids with approx.  5.0 points / Ang**2.
                        Smoothing algorithm: York/Karplus (Gamma=1.0000).
                        Polarization charges: spherical gaussians, with
                                              point-specific exponents (IZeta= 3).
                        Self-potential: point-specific (ISelfS= 7).
                        Self-field    : sphere-specific E.n sum rule (ISelfD= 2).
 1st derivatives      : Analytical E(r).r(x)/FMM algorithm (CHGder, D1EAlg=3).
                        Cavity 1st derivative terms included.
 2nd derivatives      : Analytical E(r).r(xy)/FMM algorithm (CHGder, D2EAlg=3).
                        Cavity 2nd derivative terms included.
 Solvent              : TetraHydroFuran, Eps=   7.425700 Eps(inf)=   1.974025
 ------------------------------------------------------------------------------
 GePol: Number of generator spheres                  =     100
 GePol: Total number of spheres                      =     100
 GePol: Number of exposed spheres                    =     100 (100.00%)
 GePol: Number of points                             =    5979
 GePol: Average weight of points                     =       0.13
 GePol: Minimum weight of points                     =   0.38D-11
 GePol: Maximum weight of points                     =    0.21593
 GePol: Number of points with low weight             =     423
 GePol: Fraction of low-weight points (<1% of avg)   =       7.07%
 GePol: Cavity surface area                          =    751.166 Ang**2
 GePol: Cavity volume                                =    970.080 Ang**3
 Leave Link  301 at Thu May 30 18:50:26 2019, MaxMem=  6442450944 cpu:               6.6 elap:               0.3
 (Enter /home/ekwan/sw/g16/l302.exe)
 NPDir=0 NMtPBC=     1 NCelOv=     1 NCel=       1 NClECP=     1 NCelD=      1
         NCelK=      1 NCelE2=     1 NClLst=     1 CellRange=     0.0.
 One-electron integrals computed using PRISM.
 One-electron integral symmetry used in STVInt
 NBasis=   897 RedAO= T EigKep=  3.73D-04  NBF=   897
 NBsUse=   897 1.00D-06 EigRej= -1.00D+00 NBFU=   897
 Precomputing XC quadrature grid using
 IXCGrd= 4 IRadAn=           5 IRanWt=          -1 IRanGd=           0 AccXCQ= 0.00D+00.
 Generated NRdTot=       0 NPtTot=           0 NUsed=           0 NTot=          32
 NSgBfM=   826   822   822   822   826 MxSgAt=   100 MxSgA2=   100.
 Leave Link  302 at Thu May 30 18:50:49 2019, MaxMem=  6442450944 cpu:             627.3 elap:              22.8
 (Enter /home/ekwan/sw/g16/l303.exe)
 DipDrv:  MaxL=1.
[...]
 022646,0.00011375,-0.00028783,-0.00031213,0.00043251,-0.00010190,-0.00
 003036,0.00015577,-0.00004323,-0.00002034,-0.00000659,-0.00001350,0.00
 000019,-0.00000071,0.00000401,0.00001271,0.00001385,0.00000020,0.00002
 704,0.00002307,0.00000030,-0.00291042,-0.00010459,-0.00178983,0.000562
 81,-0.00005591,0.00089667,0.00130151,0.00051443,-0.00010544,0.00230543
 ,-0.00112979,-0.00088238,0.00097401,-0.00057824,0.00065818,-0.00339892
 ,-0.00482511,-0.00071367,0.00014138,0.00042501,-0.00007838,-0.00008092
 ,0.00010500,0.00007737,0.01612578,-0.01372628,0.03886672,-0.00019783,0
 .00002880,0.00053945,0.00083136,-0.00052414,0.00097440,0.00021042,-0.0
 0076254,0.00055558,0.00003090,0.00001074,0.00020733,0.00002616,0.00000
 197,-0.00004815,-0.00000548,0.00001141,-0.00005186,-0.00001415,0.00001
 893,0.00009193,0.00038067,-0.00104053,-0.00041831,0.00029600,0.0001988
 2,0.00025818,0.00030576,0.00014014,0.00000145,0.00005241,0.00006715,-0
 .00018338,0.00002536,-0.00004821,0.00007226,-0.00000098,-0.00000858,-0
 .00002500,-0.00001126,0.00000758,-0.00001033,0.00000981,0.00002000,-0.
 00000306,-0.00002439,-0.00001642,0.00000205,0.00000221,-0.00000023,0.0
 0000138,0.00000328,0.00000794,-0.00000292,0.00000141,-0.00000049,-0.00
 000081,-0.00000708,0.00000379,-0.00000108,0.00000492,-0.00000282,0.000
 00052,-0.00000147,0.00000284,0.00000495,-0.00000264,-0.00000258,-0.000
 00396,-0.00025321,0.00017441,0.00023312,0.00006781,-0.00028498,-0.0001
 4137,-0.00001236,0.00010547,-0.00006480,0.00000673,0.00003462,-0.00000
 317,-0.00002592,0.00004314,-0.00003227,0.00001622,-0.00004781,-0.00001
 813,0.00003485,0.00005246,0.00017592,0.00000900,-0.00004528,-0.0000290
 7,-0.00000766,0.00001401,-0.00000784,-0.00000659,0.00003114,-0.0000005
 1,0.00104335,0.00150052,0.00132994,-0.00022054,-0.00066473,-0.00013226
 ,-0.00053011,-0.00027385,-0.00035262,-0.00002652,-0.00040920,-0.000697
 86,0.01732944,-0.10736093,0.06247512,-0.01131456,0.01531158,-0.0265694
 0,-0.01714268,0.10071944,0.00000914,0.00001196,-0.00001084,0.00000734,
 0.00000024,-0.00000418,0.00002755,-0.00000813,-0.00002052,0.00001075,-
 0.00000374,-0.00003147,0.00000430,0.00000321,-0.00003193,-0.00000055,-
 0.00000312,0.00001128,0.00000142,0.00000371,-0.00000024,-0.00000142,-0
 .00000128,0.00000127,-0.00000604,0.00000157,0.00000275,0.00000253,0.00
 000211,-0.00000228,-0.00002134,0.00000117,0.00003544,-0.00001868,0.000
 00677,0.00001354,-0.00001109,0.00000226,0.00002054,-0.00001414,-0.0000
 1469,0.00002085,0.00000719,-0.00001554,0.00005130,0.00002949,-0.000021
 61,-0.00000230,-0.00001502,0.00001480,0.00001198,-0.00000337,-0.000003
 49,0.00000313,-0.00001443,0.00002433,0.00009121,0.00001141,-0.00000584
 ,-0.00001627,0.00000046,-0.00000354,0.00000254,-0.00000203,0.00000633,
 -0.00000063,-0.00000297,-0.00000029,0.00000029,0.00001055,0.00000198,-
 0.00001292,-0.00000155,0.00000284,0.00000289,-0.00000044,-0.00000069,0
 .00000199,-0.00000318,-0.00000270,0.00000018,-0.00001906,0.00002251,-0
 .00002302,-0.00000156,-0.00000792,0.00000101,0.00000287,0.00000312,-0.
 00000844,-0.00000233,-0.00000071,0.00000454,-0.00041749,0.00032290,-0.
 00087540,0.00011075,0.00007107,0.00014678,0.00024732,-0.00006271,-0.00
 046109,0.00006659,0.00015268,-0.00011224,0.00001127,-0.00007924,0.0000
 8354,0.00002668,0.00000376,0.00004295,-0.00001662,0.00000964,0.0000140
 5,-0.00000192,0.00005503,0.00001913,0.00001451,-0.00000205,0.00001023,
 -0.00002057,-0.00000542,0.00001275,-0.00011214,-0.00011402,0.00008760,
 -0.00074161,0.00054714,0.00003018,-0.00002494,-0.00012010,0.00021975,0
 .00136048,-0.00024794,0.00020393,0.00003946,-0.00002949,0.00007500,-0.
 00002001,-0.00002097,0.00000447,-0.00000173,0.00000400,0.00000164,-0.0
 0000831,-0.00000797,-0.00000142,0.00001955,-0.00000079,0.00003714,0.00
 188589,0.00000600,0.00077248,-0.00038427,0.00006395,-0.00042975,-0.000
 88682,-0.00029613,0.00022148,-0.00117658,-0.00011520,0.00015815,0.0003
 1216,0.00042356,0.00002608,0.00115281,0.00364895,0.00043247,-0.0006065
 4,0.00122602,0.00083812,0.00016717,-0.00000944,-0.00004770,-0.00955493
 ,0.01316156,-0.01734721,0.00070124,-0.00033670,-0.00009082,-0.00202476
 ,-0.00229928,-0.00061215,0.00137576,0.00076910,-0.00036788,-0.00006079
 ,0.00006163,-0.00019188,0.00000006,-0.00002542,0.00004272,-0.00002249,
 -0.00001616,0.00009111,-0.00000254,0.00001570,-0.00005533,-0.00090070,
 -0.00060353,0.00038507,-0.00011002,-0.00015458,-0.00048983,0.00002141,
 0.00091737,-0.00017629,-0.00022543,-0.00009863,0.00039746,-0.00005863,
 0.00001436,-0.00008142,0.00001083,-0.00001652,0.00004360,0.00001861,-0
 .00000185,0.00001171,0.00000036,0.00000778,0.00000358,0.00000726,0.000
 00214,0.00000087,0.00000610,-0.00000013,0.00000241,0.00000007,-0.00000
 324,-0.00000146,-0.00000100,0.00000218,0.00000030,0.00000693,0.0000001
 7,-0.00001042,-0.00000368,0.00000144,-0.00000013,0.00000172,-0.0000013
 0,-0.00000268,0.00000057,0.00000262,0.00000662,0.00013579,-0.00005997,
 -0.00019696,-0.00003702,0.00015679,0.00013612,0.00001228,-0.00004851,0
 .00000462,-0.00000966,-0.00002460,0.00000105,0.00002026,-0.00002659,0.
 00002271,-0.00001125,0.00002556,0.00001484,-0.00003139,-0.00003035,-0.
 00013412,-0.00000182,0.00002570,0.00002088,-0.00000123,-0.00001028,0.0
 0001210,0.00000660,-0.00001271,-0.00000040,-0.00078435,-0.00060158,-0.
 00111504,0.00015738,0.00035879,0.00016570,0.00038778,0.00008984,0.0002
 8411,0.00000764,0.00022878,0.00057522,-0.03527568,0.06686074,-0.205710
 02,-0.03850171,-0.01407358,-0.04894988,0.05373185,-0.08343844,0.336014
 09,0.00002854,0.00001409,0.00000113,0.00004146,-0.00000474,0.00001511,
 0.00008861,-0.00002930,0.00004994,0.00001130,-0.00000315,-0.00000806,0
 .00003226,-0.00001058,-0.00003388,-0.00000297,-0.00000212,0.00000012,0
 .00000170,0.00000570,0.00000718,-0.00000991,0.00000025,0.00000205,-0.0
 0002255,0.00000980,-0.00000458,0.00000436,0.00001741,-0.00001177,-0.00
 007952,0.00001553,-0.00003009,-0.00004563,0.00004975,-0.00002223,-0.00
 004144,-0.00000144,-0.00002892,-0.00005207,-0.00001671,0.00002005,-0.0
 0003378,0.00000382,0.00003058,0.00015440,-0.00017545,0.00003177,-0.000
 04600,0.00005057,0.00002768,-0.00001321,0.00005336,-0.00001541,-0.0001
 9942,0.00026170,0.00009437,0.00000859,-0.00000508,0.00001787,0.0000023
 6,0.00000168,-0.00000226,-0.00000059,0.00000444,0.00000132,-0.00000622
 ,-0.00000194,-0.00000371,0.00003596,0.00000132,-0.00002074,-0.00000143
 ,0.00000191,0.00000293,-0.00000931,0.00000373,-0.00000050,-0.00000229,
 -0.00000343,0.00000256,0.00001468,0.00000426,-0.00000808,0.00000395,-0
 .00000184,-0.00000074,-0.00000086,-0.00000145,-0.00001222,-0.00000605,
 0.00000190,0.00000866,0.00023518,-0.00014473,0.00001188,0.00016506,0.0
 0007091,-0.00000063,0.00051107,-0.00008437,-0.00028787,0.00004046,0.00
 005485,0.00001198,0.00008559,0.00013996,-0.00000506,0.00000296,-0.0000
 1680,0.00002234,-0.00003006,-0.00002868,0.00000671,0.00007212,0.000052
 51,0.00001195,0.00002392,-0.00000202,0.00001553,-0.00003684,-0.0000218
 9,0.00001810,-0.00024325,-0.00013032,0.00000283,-0.00092285,0.00069952
 ,-0.00010475,-0.00024243,0.00004611,0.00029208,-0.00074254,0.00016533,
 0.00026032,-0.00007568,-0.00017937,0.00007802,0.00007340,0.00003137,0.
 00002650,-0.00000650,-0.00000122,-0.00000645,-0.00000159,-0.00000821,-
 0.00000501,-0.00011271,-0.00002213,-0.00003791,0.00256553,-0.00031980,
 0.00160311,-0.00046391,0.00010106,-0.00097572,-0.00112329,-0.00018348,
 -0.00005582,0.00011513,0.00102325,-0.00140669,-0.00011169,0.00067889,0
 .00031096,0.00110198,0.00233781,0.00193881,0.00030355,0.00195513,-0.00
 096781,0.00001479,-0.00015338,0.00018416,-0.02622715,0.01195018,0.0182
 9142,-0.00000287,-0.00060194,0.00098442,-0.00220210,-0.00095238,-0.001
 87058,-0.00007483,-0.00003104,0.00147253,-0.00003772,-0.00008198,-0.00
 022408,-0.00004073,0.00002222,0.00004716,0.00000514,-0.00002530,-0.000
 00169,0.00002116,-0.00002274,-0.00009169,0.00050404,-0.00021576,-0.000
 44615,0.00029380,0.00041384,-0.00009604,0.00001589,-0.00024175,-0.0001
 9932,-0.00003163,-0.00002251,0.00012554,0.00003718,0.00009456,-0.00010
 742,0.00000217,0.00001639,-0.00001065,-0.00003166,-0.00000074,0.000020
 65,0.00000350,-0.00001609,0.00000114,0.00006718,0.00002543,-0.00000495
 ,-0.00000993,-0.00000271,-0.00000763,-0.00000664,-0.00000993,0.0000041
 6,-0.00000667,-0.00000207,0.00000434,-0.00000109,-0.00002070,0.0000134
 7,-0.00000559,0.00000531,-0.00000151,0.00000278,-0.00000185,-0.0000040
 0,0.00000434,0.00000256,0.00000008,0.00024024,-0.00024688,-0.00017607,
 -0.00005170,0.00031629,0.00010200,-0.00000655,-0.00012125,0.00010424,0
 .00000407,-0.00002851,0.00000384,0.00001943,-0.00004250,0.00003200,-0.
 00001319,0.00004927,0.00001172,-0.00004578,-0.00005458,-0.00016316,-0.
 00000954,0.00004571,0.00002871,0.00000893,-0.00001251,0.00000166,0.000
 00998,-0.00003088,0.00000010,-0.00143902,-0.00135678,-0.00122568,0.000
 32119,0.00080493,0.00012311,0.00067319,0.00022473,0.00031154,0.0001103
 2,0.00041063,0.00061592,-0.20917834,0.03348974,0.07997856,-0.06761285,
 -0.02640256,0.00975532,0.00249569,-0.00666596,0.03002768,0.30114307,-0
 .00002025,-0.00001701,0.00000181,-0.00002286,-0.00000443,-0.00001038,-
 0.00005815,0.00000611,-0.00002900,-0.00000794,-0.00000072,0.00000951,-
 0.00001717,-0.00000005,0.00002512,0.00000115,0.00000148,-0.00000127,-0
 .00000195,-0.00000530,-0.00000361,0.00000489,0.00000141,-0.00000085,0.
 00001354,-0.00000454,0.00000199,-0.00000494,-0.00000979,0.00000612,0.0
 0005359,0.00000009,0.00001426,0.00003090,-0.00001692,0.00000901,0.0000
 2514,0.00000918,0.00001732,0.00002984,0.00002273,-0.00001288,0.0000179
 9,0.00000691,-0.00002581,-0.00009496,0.00009910,-0.00001372,0.00002830
 ,-0.00003015,-0.00001776,0.00000911,-0.00002343,0.00000540,0.00012837,
 -0.00013158,-0.00007463,-0.00000223,-0.00000376,-0.00001072,-0.0000017
 1,0.00000147,0.00000035,-0.00000185,-0.00000206,0.00000032,0.00000413,
 0.00000111,0.00000229,-0.00001904,-0.00000250,0.00001181,0.00000073,-0
 .00000156,-0.00000094,0.00000413,-0.00000156,-0.00000069,0.00000266,0.
 00000317,-0.00000197,-0.00000542,-0.00001298,0.00000909,-0.00000057,0.
 00000551,-0.00000021,0.00000054,-0.00000061,0.00000892,0.00000327,-0.0
 0000045,-0.00000488,0.00005671,-0.00006169,0.00015610,-0.00019777,-0.0
 0013588,-0.00003829,-0.00041987,0.00001830,0.00029853,-0.00003714,-0.0
 0014463,0.00001566,-0.00003010,-0.00010042,-0.00002895,-0.00001706,0.0
 0000715,-0.00002645,0.00002990,0.00002771,-0.00001202,-0.00002880,-0.0
 0008207,-0.00000715,-0.00001074,0.00000316,-0.00000660,0.00001512,0.00
 001696,-0.00000145,0.00022668,0.00018622,-0.00001112,0.00086354,-0.000
 50339,0.00006728,0.00023395,0.00007724,-0.00023953,-0.00005214,0.00013
 870,-0.00004513,-0.00001031,0.00014071,-0.00002187,-0.00002780,-0.0000
 1105,-0.00001519,-0.00000006,0.00000028,0.00000466,0.00000973,0.000011
 05,0.00000018,0.00003548,0.00002197,0.00001226,-0.00254441,-0.00010986
 ,-0.00122468,0.00050456,-0.00001027,0.00082510,0.00104563,0.00036318,-
 0.00005003,0.00010918,-0.00178089,0.00150011,0.00089531,-0.00059804,0.
 00033630,-0.00141005,-0.00233673,-0.00310253,-0.00024079,0.00007491,0.
 00062797,0.00000241,0.00016372,-0.00008121,0.03424419,-0.00242498,-0.0
 1513961,0.00049254,0.00017385,-0.00046794,0.00078642,0.00034944,0.0009
 8745,0.00011221,-0.00001065,-0.00020770,0.00002264,0.00001937,0.000176
 83,0.00002702,-0.00000392,-0.00004251,-0.00000535,0.00001020,-0.000033
 04,-0.00001226,0.00002029,0.00008486,-0.00004955,-0.00026986,-0.000165
 83,0.00018015,0.00009812,-0.00005558,0.00000221,0.00001660,0.00015311,
 0.00003156,0.00006053,-0.00004496,0.00000591,-0.00004307,0.00004975,-0
 .00000011,-0.00000886,-0.00001028,-0.00000238,0.00000523,-0.00000720,0
 .00000574,0.00001860,-0.00000344,-0.00002462,-0.00001579,0.00000199,0.
 00000410,-0.00000017,0.00000239,0.00000340,0.00000697,-0.00000331,0.00
 000140,0.00000021,-0.00000091,-0.00000492,0.00000463,-0.00000440,0.000
 00399,-0.00000258,0.00000054,-0.00000101,0.00000242,0.00000422,-0.0000
 0256,-0.00000191,-0.00000204,-0.00023641,0.00016526,0.00017714,0.00006
 321,-0.00026600,-0.00011454,-0.00000979,0.00009870,-0.00007091,0.00000
 504,0.00002995,-0.00000164,-0.00002319,0.00003596,-0.00002678,0.000014
 11,-0.00004355,-0.00001400,0.00003136,0.00004734,0.00015174,0.00000796
 ,-0.00004079,-0.00002594,-0.00000755,0.00001186,-0.00000517,-0.0000057
 8,0.00002820,-0.00000034,0.00088874,0.00126220,0.00107814,-0.00020571,
 -0.00058308,-0.00011371,-0.00044139,-0.00023513,-0.00028612,-0.0000249
 1,-0.00034605,-0.00054848,0.03174832,-0.08241156,-0.01869552,-0.038377
 50,0.00516449,0.00965583,-0.01138349,0.01288209,0.01374286,-0.01696416
 ,0.07093026,-0.00001161,-0.00000424,-0.00000411,-0.00001816,0.00000097
 ,-0.00000947,-0.00003682,0.00000990,-0.00003348,-0.00000241,0.,-0.0000
 0588,-0.00001426,0.00000500,0.00000670,0.00000112,-0.00000005,0.000003
 77,-0.00000056,-0.00000200,-0.00000358,0.00000428,-0.00000030,-0.00000
 052,0.00000928,-0.00000415,0.00000301,-0.00000181,-0.00000790,0.000005
 07,0.00003474,-0.00000566,0.00002748,0.00001728,-0.00002089,0.00001579
 ,0.00001712,0.00000328,0.00002274,0.00002056,0.00000548,-0.00000254,0.
 00001878,-0.00000546,0.00000112,-0.00006845,0.00008039,-0.00001694,0.0
 0001849,-0.00002069,-0.00000990,0.00000542,-0.00002636,0.00000841,0.00
 009496,-0.00011854,-0.00002368,0.00000059,-0.00000082,-0.00001556,-0.0
 0000113,-0.00000181,0.00000193,-0.00000091,0.00000024,-0.00000070,0.00
 000214,0.00000088,0.00000198,-0.00001356,-0.00000015,0.00000549,0.0000
 0013,-0.00000002,-0.00000026,0.00000420,-0.00000198,0.00000077,0.00000
 025,0.00000090,-0.00000129,-0.00001304,0.00000365,-0.00000317,-0.00000
 202,-0.00000098,0.00000053,0.00000141,0.00000135,0.00000362,0.00000214
 ,-0.00000098,-0.00000264,-0.00019075,0.00012693,-0.00021434,-0.0000616
 2,-0.00003116,0.00003538,-0.00020928,0.00001745,0.00004453,-0.00000402
 ,-0.00000647,-0.00003359,-0.00003508,-0.00008664,0.00001831,0.00000177
 ,0.00000787,-0.00000216,0.00001101,0.00001791,-0.00000104,-0.00003398,
 -0.00001810,0.00000105,-0.00000770,0.00000112,-0.00000475,0.00001102,0
 .00000946,-0.00000352,0.00010658,0.00005393,0.00002074,0.00040504,-0.0
 0031562,0.00006050,0.00011999,-0.00003941,-0.00009078,0.00062574,-0.00
 012151,-0.00005017,0.00004003,0.00007827,-0.00000892,-0.00003977,-0.00
 001885,-0.00001471,0.00000192,0.00000182,0.00000410,0.00000007,0.00000
 245,0.00000169,0.00005473,0.00001161,0.00002979,-0.00108461,0.00003056
 ,-0.00076415,0.00017550,-0.00001856,0.00051115,0.00040794,0.00009441,0
 .00006846,0.00077265,-0.00067732,0.00055282,0.00036891,0.00000122,0.00
 018048,-0.00027311,-0.00209048,-0.00181726,-0.00012384,0.00008733,-0.0
 0013351,-0.00001488,0.00002739,-0.00000840,0.01442242,-0.00318904,0.00
 459393,-0.00001878,0.00007631,-0.00010564,-0.00037328,0.00052478,0.000
 96082,0.00007204,0.00022376,-0.00002633,0.00000699,0.00005074,0.000056
 13,0.00001904,-0.00001692,-0.00001331,-0.00001002,0.00000491,0.0000182
 4,-0.00001178,0.00001541,0.00002751,-0.00062403,-0.00002836,0.00031653
 ,-0.00013159,-0.00016751,-0.00012755,-0.00002936,0.00029961,0.00005004
 ,-0.00003745,-0.00000573,0.00004951,-0.00003092,-0.00003603,0.00002221
 ,0.00000218,-0.00001099,0.00001563,0.00001757,-0.00000006,-0.00000538,
 -0.00000155,0.00001032,-0.00000047,-0.00002760,-0.00001139,0.00000185,
 0.00000662,0.00000090,0.00000427,0.00000316,0.00000375,-0.00000260,0.0
 0000243,0.00000155,-0.00000169,0.00000225,0.00000932,-0.00001040,0.000
 00166,-0.00000207,0.00000064,-0.00000073,0.00000080,0.00000147,-0.0000
 0209,-0.00000033,0.00000210,-0.00008104,0.00010654,0.00004794,0.000015
 22,-0.00011014,-0.00000927,0.00000702,0.00004859,-0.00004991,-0.000005
 55,0.00000678,-0.00000286,-0.00000277,0.00001611,-0.00001097,0.0000029
 9,-0.00001770,-0.00000234,0.00001101,0.00001695,0.00004091,0.00000501,
 -0.00001551,-0.00000798,-0.00000539,0.00000310,0.00000282,-0.00000234,
 0.00001237,-0.00000107,0.00049080,0.00058257,0.00024594,-0.00009882,-0
 .00028001,0.00002314,-0.00021738,-0.00010516,-0.00008869,-0.00004337,-
 0.00016652,-0.00019987,0.07864177,-0.01926689,-0.11464192,0.00017859,0
 .00522588,0.01604104,0.04523701,0.00817556,-0.06432497,-0.13848240,0.0
 1097908,0.15875418\\0.00000036,0.00000197,0.00000250,-0.00000056,0.000
 00188,0.00000234,-0.00000033,0.00000164,0.00000194,0.00000127,0.000001
 18,0.00000161,0.00000095,0.00000140,0.00000196,-0.00000076,0.00000142,
 0.00000174,-0.00000091,0.00000156,0.00000192,0.00000079,0.00000232,0.0
 0000306,0.00000171,0.00000145,0.00000206,0.00000073,0.00000104,0.00000
 144,0.00000046,0.00000108,0.00000137,0.00000032,0.00000198,0.00000258,
 -0.00000099,0.00000246,0.00000301,0.00000004,0.00000218,0.00000274,0.0
 0000188,0.00000156,0.00000220,0.00000187,0.00000066,0.00000089,0.00000
 261,0.00000064,0.00000112,0.00000212,0.00000042,0.00000073,0.00000149,
 0.00000010,0.00000040,-0.00000192,0.00000243,0.00000294,-0.00000181,0.
 00000233,0.00000276,-0.00000230,0.00000207,0.00000238,-0.00000229,0.00
 000285,0.00000337,0.00000050,0.00000262,0.00000340,0.00000129,0.000002
 49,0.00000330,0.00000042,0.00000302,0.00000390,0.00000019,0.00000270,0
 .00000347,0.00000213,0.00000114,0.00000165,0.00000165,0.00000116,0.000
 00167,0.00000220,0.00000068,0.00000109,0.00000286,0.00000123,0.0000018
 7,-0.00000065,-0.00000062,-0.00000077,0.00000019,-0.00000047,-0.000000
 51,-0.00000007,0.00000008,0.00000003,-0.00000127,0.00000040,0.00000055
 ,-0.00000088,0.00000004,-0.00000006,-0.00000005,0.00000018,0.00000012,
 0.00000071,-0.00000020,-0.00000018,-0.00000121,-0.00000070,-0.00000103
 ,-0.00000206,0.00000038,0.00000024,-0.00000033,0.00000021,0.00000024,-
 0.00000089,0.00000043,0.00000053,-0.00000029,-0.00000045,-0.00000073,0
 .00000053,-0.00000092,-0.00000114,-0.00000018,-0.00000093,-0.00000126,
 -0.00000169,0.00000002,-0.00000021,-0.00000150,0.00000110,0.00000129,-
 0.00000082,0.00000135,0.00000161,-0.00000179,0.00000110,0.00000120,-0.
 00000221,0.00000145,0.00000157,-0.00000114,-0.00000122,-0.00000146,-0.
 00000198,-0.00000079,-0.00000116,-0.00000142,-0.00000035,-0.00000070,-
 0.00000091,-0.00000144,-0.00000203,0.00000003,-0.00000188,-0.00000240,
 -0.00000158,-0.00000178,-0.00000247,0.00000013,-0.00000244,-0.00000313
 ,0.00000040,-0.00000171,-0.00000213,-0.00000121,-0.00000236,-0.0000030
 8,-0.00000212,-0.00000150,-0.00000213,-0.00000041,-0.00000258,-0.00000
 342,-0.00000028,-0.00000312,-0.00000400,0.00000139,-0.00000123,-0.0000
 0137,0.00000194,-0.00000090,-0.00000094,0.00000127,-0.00000133,-0.0000
 0155,0.00000152,-0.00000161,-0.00000186,-0.00000056,-0.00000152,-0.000
 00198,-0.00000128,-0.00000151,-0.00000206,-0.00000024,-0.00000175,-0.0
 0000226,-0.00000021,-0.00000177,-0.00000227,-0.00000139,-0.00000008,-0
 .00000032,-0.00000089,-0.00000050,-0.00000072,-0.00000107,0.00000030,0
 .00000028,-0.00000204,-0.00000016,-0.00000041,-0.00000229,0.00000206,0
 .00000237,-0.00000286,0.00000227,0.00000259,-0.00000258,0.00000207,0.0
 0000237,-0.00000165,0.00000228,0.00000274,0.00000044,0.00000172,0.0000
 0237,0.00000076,0.00000217,0.00000284,0.00000104,0.00000144,0.00000192
 ,-0.00000015,0.00000167,0.00000208,0.00000102,-0.00000052,-0.00000073,
 0.00000196,-0.00000143,-0.00000145,0.00000160,-0.00000141,-0.00000161,
 0.00000144,-0.00000186,-0.00000220,0.00000083,-0.00000115,-0.00000136,
 0.00000203,-0.00000120,-0.00000132,0.00000280,-0.00000167,-0.00000183,
 0.00000333,-0.00000149,-0.00000156,0.00000297,-0.00000161,-0.00000176,
 0.00000274,-0.00000215,-0.00000244,0.00000110,-0.00000292,-0.00000339,
 0.00000124,-0.00000271,-0.00000340,0.00000107,-0.00000335,-0.00000419,
 0.00000183,-0.00000256,-0.00000310,-0.00000183,-0.00000260,-0.00000351
 ,-0.00000259,-0.00000216,-0.00000302,-0.00000135,-0.00000274,-0.000003
 62,-0.00000234,-0.00000304,-0.00000411\\\@


 IF YOU GIVE A BOY AND A PIG EVERYTHING THEY WANT,
 YOU'LL GET A BAD BOY AND A GOOD PIG.
 Job cpu time:       4 days 11 hours 54 minutes 28.2 seconds.
 Elapsed time:       0 days  3 hours 39 minutes 56.9 seconds.
 File lengths (MBytes):  RWF=   9721 Int=      0 D2E=      0 Chk=    105 Scr=      1
 Normal termination of Gaussian 16 at Fri May 31 02:32:00 2019.
