 Entering Gaussian System, Link 0=g16
 Input=clay_new-glu_gluC6-ECDR-Na2_1Me2O-bisCF3-ts-b3lyp_d3bj-631gd-pcm_thf.gjf
 Output=clay_new-glu_gluC6-ECDR-Na2_1Me2O-bisCF3-ts-b3lyp_d3bj-631gd-pcm_thf.out
 Initial command:
 /home/ekwan/sw/g16/l1.exe "/scratch/users/ekwan/clay_new-glu_gluC6-ECDR-Na2_1Me2O-bisCF3-ts-b3lyp_d3bj-631gd-pcm_thf/Gau-22591.inp" -scrdir="/scratch/users/ekwan/clay_new-glu_gluC6-ECDR-Na2_1Me2O-bisCF3-ts-b3lyp_d3bj-631gd-pcm_thf/"
 Entering Link 1 = /home/ekwan/sw/g16/l1.exe PID=     22592.
  
 Copyright (c) 1988,1990,1992,1993,1995,1998,2003,2009,2016,
            Gaussian, Inc.  All Rights Reserved.
  
 This is part of the Gaussian(R) 16 program.  It is based on
 the Gaussian(R) 09 system (copyright 2009, Gaussian, Inc.),
 the Gaussian(R) 03 system (copyright 2003, Gaussian, Inc.),
 the Gaussian(R) 98 system (copyright 1998, Gaussian, Inc.),
 the Gaussian(R) 94 system (copyright 1995, Gaussian, Inc.),
 the Gaussian 92(TM) system (copyright 1992, Gaussian, Inc.),
 the Gaussian 90(TM) system (copyright 1990, Gaussian, Inc.),
 the Gaussian 88(TM) system (copyright 1988, Gaussian, Inc.),
 the Gaussian 86(TM) system (copyright 1986, Carnegie Mellon
 University), and the Gaussian 82(TM) system (copyright 1983,
 Carnegie Mellon University). Gaussian is a federally registered
 trademark of Gaussian, Inc.
  
 This software contains proprietary and confidential information,
 including trade secrets, belonging to Gaussian, Inc.
  
 This software is provided under written license and may be
 used, copied, transmitted, or stored only in accord with that
 written license.
  
 The following legend is applicable only to US Government
 contracts under FAR:
  
                    RESTRICTED RIGHTS LEGEND
  
 Use, reproduction and disclosure by the US Government is
 subject to restrictions as set forth in subparagraphs (a)
 and (c) of the Commercial Computer Software - Restricted
 Rights clause in FAR 52.227-19.
  
 Gaussian, Inc.
 340 Quinnipiac St., Bldg. 40, Wallingford CT 06492
  
  
 ---------------------------------------------------------------
 Warning -- This program may not be used in any manner that
 competes with the business of Gaussian, Inc. or will provide
 assistance to any competitor of Gaussian, Inc.  The licensee
 of this program is prohibited from giving any competitor of
 Gaussian, Inc. access to this program.  By using this program,
 the user acknowledges that Gaussian, Inc. is engaged in the
 business of creating and licensing software in the field of
 computational chemistry and represents and warrants to the
 licensee that it is not a competitor of Gaussian, Inc. and that
 it will not use this program in any manner prohibited above.
 ---------------------------------------------------------------
  

 Cite this work as:
 Gaussian 16, Revision A.03,
 M. J. Frisch, G. W. Trucks, H. B. Schlegel, G. E. Scuseria, 
 M. A. Robb, J. R. Cheeseman, G. Scalmani, V. Barone, 
 G. A. Petersson, H. Nakatsuji, X. Li, M. Caricato, A. V. Marenich, 
 J. Bloino, B. G. Janesko, R. Gomperts, B. Mennucci, H. P. Hratchian, 
 J. V. Ortiz, A. F. Izmaylov, J. L. Sonnenberg, D. Williams-Young, 
 F. Ding, F. Lipparini, F. Egidi, J. Goings, B. Peng, A. Petrone, 
 T. Henderson, D. Ranasinghe, V. G. Zakrzewski, J. Gao, N. Rega, 
 G. Zheng, W. Liang, M. Hada, M. Ehara, K. Toyota, R. Fukuda, 
 J. Hasegawa, M. Ishida, T. Nakajima, Y. Honda, O. Kitao, H. Nakai, 
 T. Vreven, K. Throssell, J. A. Montgomery, Jr., J. E. Peralta, 
 F. Ogliaro, M. J. Bearpark, J. J. Heyd, E. N. Brothers, K. N. Kudin, 
 V. N. Staroverov, T. A. Keith, R. Kobayashi, J. Normand, 
 K. Raghavachari, A. P. Rendell, J. C. Burant, S. S. Iyengar, 
 J. Tomasi, M. Cossi, J. M. Millam, M. Klene, C. Adamo, R. Cammi, 
 J. W. Ochterski, R. L. Martin, K. Morokuma, O. Farkas, 
 J. B. Foresman, and D. J. Fox, Gaussian, Inc., Wallingford CT, 2016.
 
 ******************************************
 Gaussian 16:  AS64L-G16RevA.03 25-Dec-2016
                30-May-2019 
 ******************************************
 %mem=48GB
 %nprocshared=32
 Will use up to   32 processors via shared memory.
 ----------------------------------------------------------------------
 #p opt=(ts,noeigentest,calcfc,maxstep=5,modredundant,recalc=30) freq=n
 oraman b3lyp 6-31g* pop=none scrf=(solvent=tetrahydrofuran,pcm) empiri
 caldispersion=gd3bj
 ----------------------------------------------------------------------
 1/5=1,8=5,10=4,11=1,18=120,26=3,38=1,71=30/1,3;
 2/9=110,12=2,17=6,18=5,40=1/2;
 3/5=1,6=6,7=1,11=2,25=1,30=1,70=2201,71=2,72=20,74=-5,124=41,140=1/1,2,3;
 4//1;
 5/5=2,38=5,53=20/2;
 8/6=4,10=90,11=11/1;
 11/6=1,8=1,9=11,15=111,16=1/1,2,10;
 10/6=1,13=1/2;
 7/10=1,18=20,25=1/1,2,3,16;
 1/5=1,8=5,10=4,11=1,18=20,26=3,71=30/3(2);
 2/9=110/2;
 99//99;
 2/9=110/2;
 3/5=1,6=6,7=1,11=2,25=1,30=1,70=2205,71=1,72=20,74=-5,124=41/1,2,3;
 4/5=5,16=3,69=1/1;
 5/5=2,38=5,53=20/2;
 7//1,2,3,16;
 1/5=1,8=5,11=1,18=20,26=3,71=30/3(-5);
 2/9=110/2;
 99/9=1/99;
 Leave Link    1 at Thu May 30 18:50:08 2019, MaxMem=  6442450944 cpu:               4.9 elap:               0.2
 (Enter /home/ekwan/sw/g16/l101.exe)
 -----
 title
 -----
 Symbolic Z-matrix:
 Charge =  0 Multiplicity = 1
 C                    -2.39054  -2.1646   -2.06189 
 C                    -3.12267  -0.94187  -1.50686 
 C                    -3.77422  -1.25825  -0.15672 
 C                    -2.22356  -3.03012   0.31111 
 C                    -1.4763   -2.78018  -1.00175 
 H                    -4.13885  -0.33393   0.3065 
 H                    -2.38547  -0.14727  -1.33681 
 H                    -3.13973  -2.90699  -2.36558 
 H                    -3.02924  -3.75173   0.12904 
 H                    -0.65313  -2.08631  -0.80378 
 O                    -2.81291  -1.77762   0.75258 
 O                    -4.83128  -2.14876  -0.3661 
 O                    -4.14983  -0.4973   -2.37898 
 O                    -1.63414  -1.74578  -3.19822 
 O                    -0.97678  -4.0204   -1.50612 
 C                    -1.33109  -3.53703   1.45042 
 H                    -0.95313  -4.52665   1.11965 
 H                    -2.02401  -3.76238   2.29363 
 O                    -0.33841  -2.65469   1.81567 
 C                    -3.79708   0.58873  -3.22278 
 H                    -3.47795   1.46112  -2.63722 
 H                    -3.00283   0.31513  -3.92407 
 H                    -4.69968   0.85174  -3.78129 
 C                    -1.62681  -2.67425  -4.27435 
 H                    -1.19289  -3.63319  -3.97358 
 H                    -2.64384  -2.8441   -4.65566 
 H                    -1.02057  -2.22837  -5.06738 
 C                     0.41511  -4.20646  -1.31193 
 H                     0.99971  -3.54231  -1.96618 
 H                     0.70024  -4.02647  -0.26918 
 H                     0.64093  -5.24299  -1.57527 
 C                     3.91818  -1.60632   0.18255 
 C                     2.82126  -2.22094   1.06139 
 C                     1.61772  -1.33217   1.1233 
 C                     2.09138  -0.29335  -0.99877 
 C                     3.29999  -1.22082  -1.1652 
 H                     1.0098   -1.29423   2.00517 
 H                     2.4868   -3.13921   0.54993 
 H                     4.31087  -0.70667   0.66988 
 H                     2.45153   0.69377  -0.70871 
 H                     3.00006  -2.14133  -1.68692 
 O                     1.19255  -0.67189   0.10502 
 O                     2.05687   2.23374   3.7955 
 O                     3.2961   -2.5194    2.34584 
 O                     4.94336  -2.54438  -0.0667 
 O                     4.20979  -0.47878  -1.95581 
 C                     1.25461  -0.16867  -2.25205 
 H                     0.7928   -1.1265   -2.52666 
 H                     1.94584   0.12941  -3.05255 
 O                     0.26332   0.81478  -2.04227 
 S                     1.56407   1.28366   2.7813 
 O                     0.40732   0.44656   3.22992 
 O                     2.65427   0.45378   2.15741 
 C                     0.91523   2.2514    1.40829 
 C                     1.80754   2.83059   0.50726 
 C                    -0.45688   2.3734    1.22675 
 C                     1.30999   3.52382  -0.59304 
 H                     2.87621   2.71183   0.6473 
 C                    -0.93831   3.07329   0.11928 
 H                    -1.1472    1.91219   1.92263 
 C                    -0.06412   3.65886  -0.79022 
 H                    -0.44171   4.187    -1.65599 
 C                     2.60255  -3.61529   2.95918 
 H                     1.51772  -3.45818   2.92802 
 H                     2.84896  -4.55518   2.44429 
 H                     2.95776  -3.66279   3.99015 
 C                     6.04641  -2.46186   0.83433 
 H                     6.51787  -1.47096   0.78436 
 H                     5.73352  -2.66286   1.86295 
 H                     6.76496  -3.21807   0.51043 
 C                     4.93812  -1.25142  -2.90822 
 H                     5.55944  -2.00399  -2.41523 
 H                     4.25695  -1.74664  -3.61434 
 H                     5.56883  -0.54664  -3.45418 
 C                    -0.24995   1.32014  -3.26566 
 H                    -1.04222   2.02501  -3.00803 
 H                     0.53427   1.84682  -3.82722 
 H                    -0.67019   0.51443  -3.87739 
 C                    -5.61659  -2.37331   0.79994 
 H                    -6.44301  -3.0211    0.50227 
 H                    -5.0334   -2.86209   1.5889 
 H                    -6.01899  -1.42639   1.18745 
 Na                   -1.43549  -0.77803   2.43122 
 O                    -2.71973   0.96676   3.34653 
 C                    -4.07542   1.2278    2.9989 
 H                    -4.18096   2.23322   2.57363 
 H                    -4.36705   0.48639   2.25438 
 H                    -4.72712   1.1331    3.8774 
 C                    -2.26011   1.82679   4.38938 
 H                    -2.85446   1.67667   5.30025 
 H                    -1.21676   1.57148   4.57052 
 H                    -2.33685   2.87826   4.08059 
 C                     2.26553   3.99376  -1.65174 
 F                     3.43362   4.42015  -1.12956 
 F                     1.75477   4.99642  -2.39531 
 F                     2.56777   2.98144  -2.50856 
 C                    -2.42399   3.141    -0.08315 
 F                    -3.03107   3.94682   0.81678 
 F                    -2.99125   1.91283   0.06434 
 F                    -2.75698   3.58443  -1.31445 
 
 Add virtual bond connecting atoms H37        and O19        Dist= 3.64D+00.
 Add virtual bond connecting atoms H87        and H6         Dist= 4.02D+00.
 Add virtual bond connecting atoms O52        and H37        Dist= 4.18D+00.
 Add virtual bond connecting atoms O52        and Na83       Dist= 4.45D+00.
 Add virtual bond connecting atoms O53        and C34        Dist= 4.36D+00.
 Add virtual bond connecting atoms H60        and O84        Dist= 4.39D+00.
 The following ModRedundant input section has been read:
 
 ITRead=  0  0  0  0  0  0  0  0  0  0  0  0  0  0  0  0  0  0  0  0
 ITRead=  0  0  0  0  0  0  0  0  0  0  0  0  0  0  0  0  0  0  0  0
 ITRead=  0  0  0  0  0  0  0  0  0  0  0  0  0  0  0  0  0  0  0  0
 ITRead=  0  0  0  0  0  0  0  0  0  0  0  0  0  0  0  0  0  0  0  0
 ITRead=  0  0  0  0  0  0  0  0  0  0  0  0  0  0  0  0  0  0  0  0
 MicOpt= -1 -1 -1 -1 -1 -1 -1 -1 -1 -1 -1 -1 -1 -1 -1 -1 -1 -1 -1 -1
 MicOpt= -1 -1 -1 -1 -1 -1 -1 -1 -1 -1 -1 -1 -1 -1 -1 -1 -1 -1 -1 -1
 MicOpt= -1 -1 -1 -1 -1 -1 -1 -1 -1 -1 -1 -1 -1 -1 -1 -1 -1 -1 -1 -1
 MicOpt= -1 -1 -1 -1 -1 -1 -1 -1 -1 -1 -1 -1 -1 -1 -1 -1 -1 -1 -1 -1
 MicOpt= -1 -1 -1 -1 -1 -1 -1 -1 -1 -1 -1 -1 -1 -1 -1 -1 -1 -1 -1 -1
 NAtoms=    100 NQM=      100 NQMF=       0 NMMI=      0 NMMIF=      0
                NMic=       0 NMicF=      0.
                    Isotopes and Nuclear Properties:
 (Nuclear quadrupole moments (NQMom) in fm**2, nuclear magnetic moments (NMagM)
  in nuclear magnetons)

  Atom         1           2           3           4           5           6           7           8           9          10
 IAtWgt=          12          12          12          12          12           1           1           1           1           1
 AtmWgt=  12.0000000  12.0000000  12.0000000  12.0000000  12.0000000   1.0078250   1.0078250   1.0078250   1.0078250   1.0078250
 NucSpn=           0           0           0           0           0           1           1           1           1           1
 AtZEff=   0.0000000   0.0000000   0.0000000   0.0000000   0.0000000   0.0000000   0.0000000   0.0000000   0.0000000   0.0000000
 NQMom=    0.0000000   0.0000000   0.0000000   0.0000000   0.0000000   0.0000000   0.0000000   0.0000000   0.0000000   0.0000000
 NMagM=    0.0000000   0.0000000   0.0000000   0.0000000   0.0000000   2.7928460   2.7928460   2.7928460   2.7928460   2.7928460
 AtZNuc=   6.0000000   6.0000000   6.0000000   6.0000000   6.0000000   1.0000000   1.0000000   1.0000000   1.0000000   1.0000000

  Atom        11          12          13          14          15          16          17          18          19          20
 IAtWgt=          16          16          16          16          16          12           1           1          16          12
 AtmWgt=  15.9949146  15.9949146  15.9949146  15.9949146  15.9949146  12.0000000   1.0078250   1.0078250  15.9949146  12.0000000
 NucSpn=           0           0           0           0           0           0           1           1           0           0
 AtZEff=   0.0000000   0.0000000   0.0000000   0.0000000   0.0000000   0.0000000   0.0000000   0.0000000   0.0000000   0.0000000
 NQMom=    0.0000000   0.0000000   0.0000000   0.0000000   0.0000000   0.0000000   0.0000000   0.0000000   0.0000000   0.0000000
 NMagM=    0.0000000   0.0000000   0.0000000   0.0000000   0.0000000   0.0000000   2.7928460   2.7928460   0.0000000   0.0000000
 AtZNuc=   8.0000000   8.0000000   8.0000000   8.0000000   8.0000000   6.0000000   1.0000000   1.0000000   8.0000000   6.0000000

  Atom        21          22          23          24          25          26          27          28          29          30
 IAtWgt=           1           1           1          12           1           1           1          12           1           1
 AtmWgt=   1.0078250   1.0078250   1.0078250  12.0000000   1.0078250   1.0078250   1.0078250  12.0000000   1.0078250   1.0078250
 NucSpn=           1           1           1           0           1           1           1           0           1           1
 AtZEff=   0.0000000   0.0000000   0.0000000   0.0000000   0.0000000   0.0000000   0.0000000   0.0000000   0.0000000   0.0000000
 NQMom=    0.0000000   0.0000000   0.0000000   0.0000000   0.0000000   0.0000000   0.0000000   0.0000000   0.0000000   0.0000000
 NMagM=    2.7928460   2.7928460   2.7928460   0.0000000   2.7928460   2.7928460   2.7928460   0.0000000   2.7928460   2.7928460
 AtZNuc=   1.0000000   1.0000000   1.0000000   6.0000000   1.0000000   1.0000000   1.0000000   6.0000000   1.0000000   1.0000000

  Atom        31          32          33          34          35          36          37          38          39          40
 IAtWgt=           1          12          12          12          12          12           1           1           1           1
 AtmWgt=   1.0078250  12.0000000  12.0000000  12.0000000  12.0000000  12.0000000   1.0078250   1.0078250   1.0078250   1.0078250
 NucSpn=           1           0           0           0           0           0           1           1           1           1
 AtZEff=   0.0000000   0.0000000   0.0000000   0.0000000   0.0000000   0.0000000   0.0000000   0.0000000   0.0000000   0.0000000
 NQMom=    0.0000000   0.0000000   0.0000000   0.0000000   0.0000000   0.0000000   0.0000000   0.0000000   0.0000000   0.0000000
 NMagM=    2.7928460   0.0000000   0.0000000   0.0000000   0.0000000   0.0000000   2.7928460   2.7928460   2.7928460   2.7928460
 AtZNuc=   1.0000000   6.0000000   6.0000000   6.0000000   6.0000000   6.0000000   1.0000000   1.0000000   1.0000000   1.0000000

  Atom        41          42          43          44          45          46          47          48          49          50
 IAtWgt=           1          16          16          16          16          16          12           1           1          16
 AtmWgt=   1.0078250  15.9949146  15.9949146  15.9949146  15.9949146  15.9949146  12.0000000   1.0078250   1.0078250  15.9949146
 NucSpn=           1           0           0           0           0           0           0           1           1           0
 AtZEff=   0.0000000   0.0000000   0.0000000   0.0000000   0.0000000   0.0000000   0.0000000   0.0000000   0.0000000   0.0000000
 NQMom=    0.0000000   0.0000000   0.0000000   0.0000000   0.0000000   0.0000000   0.0000000   0.0000000   0.0000000   0.0000000
 NMagM=    2.7928460   0.0000000   0.0000000   0.0000000   0.0000000   0.0000000   0.0000000   2.7928460   2.7928460   0.0000000
 AtZNuc=   1.0000000   8.0000000   8.0000000   8.0000000   8.0000000   8.0000000   6.0000000   1.0000000   1.0000000   8.0000000

  Atom        51          52          53          54          55          56          57          58          59          60
 IAtWgt=          32          16          16          12          12          12          12           1          12           1
 AtmWgt=  31.9720718  15.9949146  15.9949146  12.0000000  12.0000000  12.0000000  12.0000000   1.0078250  12.0000000   1.0078250
 NucSpn=           0           0           0           0           0           0           0           1           0           1
 AtZEff=   0.0000000   0.0000000   0.0000000   0.0000000   0.0000000   0.0000000   0.0000000   0.0000000   0.0000000   0.0000000
 NQMom=    0.0000000   0.0000000   0.0000000   0.0000000   0.0000000   0.0000000   0.0000000   0.0000000   0.0000000   0.0000000
 NMagM=    0.0000000   0.0000000   0.0000000   0.0000000   0.0000000   0.0000000   0.0000000   2.7928460   0.0000000   2.7928460
 AtZNuc=  16.0000000   8.0000000   8.0000000   6.0000000   6.0000000   6.0000000   6.0000000   1.0000000   6.0000000   1.0000000

  Atom        61          62          63          64          65          66          67          68          69          70
 IAtWgt=          12           1          12           1           1           1          12           1           1           1
 AtmWgt=  12.0000000   1.0078250  12.0000000   1.0078250   1.0078250   1.0078250  12.0000000   1.0078250   1.0078250   1.0078250
 NucSpn=           0           1           0           1           1           1           0           1           1           1
 AtZEff=   0.0000000   0.0000000   0.0000000   0.0000000   0.0000000   0.0000000   0.0000000   0.0000000   0.0000000   0.0000000
 NQMom=    0.0000000   0.0000000   0.0000000   0.0000000   0.0000000   0.0000000   0.0000000   0.0000000   0.0000000   0.0000000
 NMagM=    0.0000000   2.7928460   0.0000000   2.7928460   2.7928460   2.7928460   0.0000000   2.7928460   2.7928460   2.7928460
 AtZNuc=   6.0000000   1.0000000   6.0000000   1.0000000   1.0000000   1.0000000   6.0000000   1.0000000   1.0000000   1.0000000

  Atom        71          72          73          74          75          76          77          78          79          80
 IAtWgt=          12           1           1           1          12           1           1           1          12           1
 AtmWgt=  12.0000000   1.0078250   1.0078250   1.0078250  12.0000000   1.0078250   1.0078250   1.0078250  12.0000000   1.0078250
 NucSpn=           0           1           1           1           0           1           1           1           0           1
 AtZEff=   0.0000000   0.0000000   0.0000000   0.0000000   0.0000000   0.0000000   0.0000000   0.0000000   0.0000000   0.0000000
 NQMom=    0.0000000   0.0000000   0.0000000   0.0000000   0.0000000   0.0000000   0.0000000   0.0000000   0.0000000   0.0000000
 NMagM=    0.0000000   2.7928460   2.7928460   2.7928460   0.0000000   2.7928460   2.7928460   2.7928460   0.0000000   2.7928460
 AtZNuc=   6.0000000   1.0000000   1.0000000   1.0000000   6.0000000   1.0000000   1.0000000   1.0000000   6.0000000   1.0000000

  Atom        81          82          83          84          85          86          87          88          89          90
 IAtWgt=           1           1          23          16          12           1           1           1          12           1
 AtmWgt=   1.0078250   1.0078250  22.9897697  15.9949146  12.0000000   1.0078250   1.0078250   1.0078250  12.0000000   1.0078250
 NucSpn=           1           1           3           0           0           1           1           1           0           1
 AtZEff=   0.0000000   0.0000000   0.0000000   0.0000000   0.0000000   0.0000000   0.0000000   0.0000000   0.0000000   0.0000000
 NQMom=    0.0000000   0.0000000  10.4000000   0.0000000   0.0000000   0.0000000   0.0000000   0.0000000   0.0000000   0.0000000
 NMagM=    2.7928460   2.7928460   2.2175200   0.0000000   0.0000000   2.7928460   2.7928460   2.7928460   0.0000000   2.7928460
 AtZNuc=   1.0000000   1.0000000  11.0000000   8.0000000   6.0000000   1.0000000   1.0000000   1.0000000   6.0000000   1.0000000

  Atom        91          92          93          94          95          96          97          98          99         100
 IAtWgt=           1           1          12          19          19          19          12          19          19          19
 AtmWgt=   1.0078250   1.0078250  12.0000000  18.9984033  18.9984033  18.9984033  12.0000000  18.9984033  18.9984033  18.9984033
 NucSpn=           1           1           0           1           1           1           0           1           1           1
 AtZEff=   0.0000000   0.0000000   0.0000000   0.0000000   0.0000000   0.0000000   0.0000000   0.0000000   0.0000000   0.0000000
 NQMom=    0.0000000   0.0000000   0.0000000   0.0000000   0.0000000   0.0000000   0.0000000   0.0000000   0.0000000   0.0000000
 NMagM=    2.7928460   2.7928460   0.0000000   2.6288670   2.6288670   2.6288670   0.0000000   2.6288670   2.6288670   2.6288670
 AtZNuc=   1.0000000   1.0000000   6.0000000   9.0000000   9.0000000   9.0000000   6.0000000   9.0000000   9.0000000   9.0000000
 Leave Link  101 at Thu May 30 18:50:09 2019, MaxMem=  6442450944 cpu:              15.4 elap:               0.6
 (Enter /home/ekwan/sw/g16/l103.exe)

 GradGradGradGradGradGradGradGradGradGradGradGradGradGradGradGradGradGrad
 Berny optimization.
 Initialization pass.
                           ----------------------------
                           !    Initial Parameters    !
                           ! (Angstroms and Degrees)  !
 --------------------------                            --------------------------
 ! Name  Definition              Value          Derivative Info.                !
 --------------------------------------------------------------------------------
 ! R1    R(1,2)                  1.5294         calculate D2E/DX2 analytically  !
 ! R2    R(1,5)                  1.5293         calculate D2E/DX2 analytically  !
 ! R3    R(1,8)                  1.0976         calculate D2E/DX2 analytically  !
 ! R4    R(1,14)                 1.4279         calculate D2E/DX2 analytically  !
 ! R5    R(2,3)                  1.5322         calculate D2E/DX2 analytically  !
 ! R6    R(2,7)                  1.0972         calculate D2E/DX2 analytically  !
 ! R7    R(2,13)                 1.4189         calculate D2E/DX2 analytically  !
 ! R8    R(3,6)                  1.0963         calculate D2E/DX2 analytically  !
 ! R9    R(3,11)                 1.4215         calculate D2E/DX2 analytically  !
 ! R10   R(3,12)                 1.3979         calculate D2E/DX2 analytically  !
 ! R11   R(4,5)                  1.5312         calculate D2E/DX2 analytically  !
 ! R12   R(4,9)                  1.0968         calculate D2E/DX2 analytically  !
 ! R13   R(4,11)                 1.4529         calculate D2E/DX2 analytically  !
 ! R14   R(4,16)                 1.5335         calculate D2E/DX2 analytically  !
 ! R15   R(5,10)                 1.0947         calculate D2E/DX2 analytically  !
 ! R16   R(5,15)                 1.429          calculate D2E/DX2 analytically  !
 ! R17   R(6,87)                 2.1259         calculate D2E/DX2 analytically  !
 ! R18   R(12,79)                1.4236         calculate D2E/DX2 analytically  !
 ! R19   R(13,20)                1.4198         calculate D2E/DX2 analytically  !
 ! R20   R(14,24)                1.4213         calculate D2E/DX2 analytically  !
 ! R21   R(15,28)                1.4176         calculate D2E/DX2 analytically  !
 ! R22   R(16,17)                1.1098         calculate D2E/DX2 analytically  !
 ! R23   R(16,18)                1.1144         calculate D2E/DX2 analytically  !
 ! R24   R(16,19)                1.3774         calculate D2E/DX2 analytically  !
 ! R25   R(19,37)                1.9247         calculate D2E/DX2 analytically  !
 ! R26   R(19,83)                2.2593         calculate D2E/DX2 analytically  !
 ! R27   R(20,21)                1.0981         calculate D2E/DX2 analytically  !
 ! R28   R(20,22)                1.0943         calculate D2E/DX2 analytically  !
 ! R29   R(20,23)                1.0935         calculate D2E/DX2 analytically  !
 ! R30   R(24,25)                1.0947         calculate D2E/DX2 analytically  !
 ! R31   R(24,26)                1.0994         calculate D2E/DX2 analytically  !
 ! R32   R(24,27)                1.0933         calculate D2E/DX2 analytically  !
 ! R33   R(28,29)                1.1004         calculate D2E/DX2 analytically  !
 ! R34   R(28,30)                1.0959         calculate D2E/DX2 analytically  !
 ! R35   R(28,31)                1.093          calculate D2E/DX2 analytically  !
 ! R36   R(32,33)                1.5341         calculate D2E/DX2 analytically  !
 ! R37   R(32,36)                1.5321         calculate D2E/DX2 analytically  !
 ! R38   R(32,39)                1.0959         calculate D2E/DX2 analytically  !
 ! R39   R(32,45)                1.4118         calculate D2E/DX2 analytically  !
 ! R40   R(33,34)                1.4974         calculate D2E/DX2 analytically  !
 ! R41   R(33,38)                1.103          calculate D2E/DX2 analytically  !
 ! R42   R(33,44)                1.4016         calculate D2E/DX2 analytically  !
 ! R43   R(34,37)                1.0718         calculate D2E/DX2 analytically  !
 ! R44   R(34,42)                1.2859         calculate D2E/DX2 analytically  !
 ! R45   R(34,53)                2.3094         calculate D2E/DX2 analytically  !
 ! R46   R(35,36)                1.5325         calculate D2E/DX2 analytically  !
 ! R47   R(35,40)                1.0901         calculate D2E/DX2 analytically  !
 ! R48   R(35,42)                1.4729         calculate D2E/DX2 analytically  !
 ! R49   R(35,47)                1.5121         calculate D2E/DX2 analytically  !
 ! R50   R(36,41)                1.0998         calculate D2E/DX2 analytically  !
 ! R51   R(36,46)                1.4154         calculate D2E/DX2 analytically  !
 ! R52   R(37,52)                2.2121         calculate D2E/DX2 analytically  !
 ! R53   R(43,51)                1.4745         calculate D2E/DX2 analytically  !
 ! R54   R(44,63)                1.4346         calculate D2E/DX2 analytically  !
 ! R55   R(45,67)                1.4267         calculate D2E/DX2 analytically  !
 ! R56   R(46,71)                1.4264         calculate D2E/DX2 analytically  !
 ! R57   R(47,48)                1.0982         calculate D2E/DX2 analytically  !
 ! R58   R(47,49)                1.0988         calculate D2E/DX2 analytically  !
 ! R59   R(47,50)                1.412          calculate D2E/DX2 analytically  !
 ! R60   R(50,75)                1.4197         calculate D2E/DX2 analytically  !
 ! R61   R(51,52)                1.4967         calculate D2E/DX2 analytically  !
 ! R62   R(51,53)                1.5055         calculate D2E/DX2 analytically  !
 ! R63   R(51,54)                1.8007         calculate D2E/DX2 analytically  !
 ! R64   R(52,83)                2.3523         calculate D2E/DX2 analytically  !
 ! R65   R(54,55)                1.3941         calculate D2E/DX2 analytically  !
 ! R66   R(54,56)                1.3894         calculate D2E/DX2 analytically  !
 ! R67   R(55,57)                1.3924         calculate D2E/DX2 analytically  !
 ! R68   R(55,58)                1.0843         calculate D2E/DX2 analytically  !
 ! R69   R(56,59)                1.3957         calculate D2E/DX2 analytically  !
 ! R70   R(56,60)                1.0833         calculate D2E/DX2 analytically  !
 ! R71   R(57,61)                1.3947         calculate D2E/DX2 analytically  !
 ! R72   R(57,93)                1.5016         calculate D2E/DX2 analytically  !
 ! R73   R(59,61)                1.3908         calculate D2E/DX2 analytically  !
 ! R74   R(59,97)                1.5009         calculate D2E/DX2 analytically  !
 ! R75   R(60,84)                2.3225         calculate D2E/DX2 analytically  !
 ! R76   R(61,62)                1.0822         calculate D2E/DX2 analytically  !
 ! R77   R(63,64)                1.0966         calculate D2E/DX2 analytically  !
 ! R78   R(63,65)                1.0996         calculate D2E/DX2 analytically  !
 ! R79   R(63,66)                1.0915         calculate D2E/DX2 analytically  !
 ! R80   R(67,68)                1.0985         calculate D2E/DX2 analytically  !
 ! R81   R(67,69)                1.0938         calculate D2E/DX2 analytically  !
 ! R82   R(67,70)                1.0923         calculate D2E/DX2 analytically  !
 ! R83   R(71,72)                1.0934         calculate D2E/DX2 analytically  !
 ! R84   R(71,73)                1.099          calculate D2E/DX2 analytically  !
 ! R85   R(71,74)                1.0921         calculate D2E/DX2 analytically  !
 ! R86   R(75,76)                1.0913         calculate D2E/DX2 analytically  !
 ! R87   R(75,77)                1.099          calculate D2E/DX2 analytically  !
 ! R88   R(75,78)                1.0954         calculate D2E/DX2 analytically  !
 ! R89   R(79,80)                1.0914         calculate D2E/DX2 analytically  !
 ! R90   R(79,81)                1.0961         calculate D2E/DX2 analytically  !
 ! R91   R(79,82)                1.0994         calculate D2E/DX2 analytically  !
 ! R92   R(84,85)                1.4237         calculate D2E/DX2 analytically  !
 ! R93   R(84,89)                1.4277         calculate D2E/DX2 analytically  !
 ! R94   R(85,86)                1.0968         calculate D2E/DX2 analytically  !
 ! R95   R(85,87)                1.0904         calculate D2E/DX2 analytically  !
 ! R96   R(85,88)                1.0979         calculate D2E/DX2 analytically  !
 ! R97   R(89,90)                1.0979         calculate D2E/DX2 analytically  !
 ! R98   R(89,91)                1.0893         calculate D2E/DX2 analytically  !
 ! R99   R(89,92)                1.0986         calculate D2E/DX2 analytically  !
 ! R100  R(93,94)                1.3487         calculate D2E/DX2 analytically  !
 ! R101  R(93,95)                1.3487         calculate D2E/DX2 analytically  !
 ! R102  R(93,96)                1.3602         calculate D2E/DX2 analytically  !
 ! R103  R(97,98)                1.3519         calculate D2E/DX2 analytically  !
 ! R104  R(97,99)                1.3609         calculate D2E/DX2 analytically  !
 ! R105  R(97,100)               1.3504         calculate D2E/DX2 analytically  !
 ! A1    A(2,1,5)              110.8802         calculate D2E/DX2 analytically  !
 ! A2    A(2,1,8)              108.3252         calculate D2E/DX2 analytically  !
 ! A3    A(2,1,14)             107.9316         calculate D2E/DX2 analytically  !
 ! A4    A(5,1,8)              109.124          calculate D2E/DX2 analytically  !
 ! A5    A(5,1,14)             110.6752         calculate D2E/DX2 analytically  !
 ! A6    A(8,1,14)             109.8653         calculate D2E/DX2 analytically  !
 ! A7    A(1,2,3)              110.9938         calculate D2E/DX2 analytically  !
 ! A8    A(1,2,7)              108.2766         calculate D2E/DX2 analytically  !
 ! A9    A(1,2,13)             111.9606         calculate D2E/DX2 analytically  !
 ! A10   A(3,2,7)              107.3795         calculate D2E/DX2 analytically  !
 ! A11   A(3,2,13)             107.3662         calculate D2E/DX2 analytically  !
 ! A12   A(7,2,13)             110.7788         calculate D2E/DX2 analytically  !
 ! A13   A(2,3,6)              109.8567         calculate D2E/DX2 analytically  !
 ! A14   A(2,3,11)             110.5818         calculate D2E/DX2 analytically  !
 ! A15   A(2,3,12)             108.73           calculate D2E/DX2 analytically  !
 ! A16   A(6,3,11)             105.2299         calculate D2E/DX2 analytically  !
 ! A17   A(6,3,12)             110.4185         calculate D2E/DX2 analytically  !
 ! A18   A(11,3,12)            111.9889         calculate D2E/DX2 analytically  !
 ! A19   A(5,4,9)              108.8781         calculate D2E/DX2 analytically  !
 ! A20   A(5,4,11)             108.5284         calculate D2E/DX2 analytically  !
 ! A21   A(5,4,16)             114.0142         calculate D2E/DX2 analytically  !
 ! A22   A(9,4,11)             108.6412         calculate D2E/DX2 analytically  !
 ! A23   A(9,4,16)             109.4731         calculate D2E/DX2 analytically  !
 ! A24   A(11,4,16)            107.1748         calculate D2E/DX2 analytically  !
 ! A25   A(1,5,4)              111.6133         calculate D2E/DX2 analytically  !
 ! A26   A(1,5,10)             108.6498         calculate D2E/DX2 analytically  !
 ! A27   A(1,5,15)             108.2793         calculate D2E/DX2 analytically  !
 ! A28   A(4,5,10)             108.3847         calculate D2E/DX2 analytically  !
 ! A29   A(4,5,15)             109.3633         calculate D2E/DX2 analytically  !
 ! A30   A(10,5,15)            110.555          calculate D2E/DX2 analytically  !
 ! A31   A(3,6,87)             138.4344         calculate D2E/DX2 analytically  !
 ! A32   A(3,11,4)             113.2605         calculate D2E/DX2 analytically  !
 ! A33   A(3,12,79)            113.26           calculate D2E/DX2 analytically  !
 ! A34   A(2,13,20)            115.1558         calculate D2E/DX2 analytically  !
 ! A35   A(1,14,24)            114.4351         calculate D2E/DX2 analytically  !
 ! A36   A(5,15,28)            114.1275         calculate D2E/DX2 analytically  !
 ! A37   A(4,16,17)            105.7564         calculate D2E/DX2 analytically  !
 ! A38   A(4,16,18)            105.4936         calculate D2E/DX2 analytically  !
 ! A39   A(4,16,19)            113.8718         calculate D2E/DX2 analytically  !
 ! A40   A(17,16,18)           104.8896         calculate D2E/DX2 analytically  !
 ! A41   A(17,16,19)           113.8785         calculate D2E/DX2 analytically  !
 ! A42   A(18,16,19)           112.1474         calculate D2E/DX2 analytically  !
 ! A43   A(16,19,83)           104.7367         calculate D2E/DX2 analytically  !
 ! A44   A(37,19,83)            74.1086         calculate D2E/DX2 analytically  !
 ! A45   A(13,20,21)           111.2836         calculate D2E/DX2 analytically  !
 ! A46   A(13,20,22)           111.7118         calculate D2E/DX2 analytically  !
 ! A47   A(13,20,23)           106.4054         calculate D2E/DX2 analytically  !
 ! A48   A(21,20,22)           109.2349         calculate D2E/DX2 analytically  !
 ! A49   A(21,20,23)           108.733          calculate D2E/DX2 analytically  !
 ! A50   A(22,20,23)           109.3845         calculate D2E/DX2 analytically  !
 ! A51   A(14,24,25)           111.485          calculate D2E/DX2 analytically  !
 ! A52   A(14,24,26)           111.024          calculate D2E/DX2 analytically  !
 ! A53   A(14,24,27)           106.5975         calculate D2E/DX2 analytically  !
 ! A54   A(25,24,26)           109.0662         calculate D2E/DX2 analytically  !
 ! A55   A(25,24,27)           109.6801         calculate D2E/DX2 analytically  !
 ! A56   A(26,24,27)           108.9301         calculate D2E/DX2 analytically  !
 ! A57   A(15,28,29)           111.1588         calculate D2E/DX2 analytically  !
 ! A58   A(15,28,30)           111.3601         calculate D2E/DX2 analytically  !
 ! A59   A(15,28,31)           107.1155         calculate D2E/DX2 analytically  !
 ! A60   A(29,28,30)           109.1699         calculate D2E/DX2 analytically  !
 ! A61   A(29,28,31)           108.6237         calculate D2E/DX2 analytically  !
 ! A62   A(30,28,31)           109.3435         calculate D2E/DX2 analytically  !
 ! A63   A(33,32,36)           108.4367         calculate D2E/DX2 analytically  !
 ! A64   A(33,32,39)           109.2901         calculate D2E/DX2 analytically  !
 ! A65   A(33,32,45)           110.7427         calculate D2E/DX2 analytically  !
 ! A66   A(36,32,39)           109.2204         calculate D2E/DX2 analytically  !
 ! A67   A(36,32,45)           107.7518         calculate D2E/DX2 analytically  !
 ! A68   A(39,32,45)           111.3317         calculate D2E/DX2 analytically  !
 ! A69   A(32,33,34)           111.1366         calculate D2E/DX2 analytically  !
 ! A70   A(32,33,38)           106.5414         calculate D2E/DX2 analytically  !
 ! A71   A(32,33,44)           111.5972         calculate D2E/DX2 analytically  !
 ! A72   A(34,33,38)           105.6389         calculate D2E/DX2 analytically  !
 ! A73   A(34,33,44)           111.1501         calculate D2E/DX2 analytically  !
 ! A74   A(38,33,44)           110.5121         calculate D2E/DX2 analytically  !
 ! A75   A(33,34,37)           120.725          calculate D2E/DX2 analytically  !
 ! A76   A(33,34,42)           122.5322         calculate D2E/DX2 analytically  !
 ! A77   A(33,34,53)            96.7056         calculate D2E/DX2 analytically  !
 ! A78   A(37,34,42)           116.4764         calculate D2E/DX2 analytically  !
 ! A79   A(37,34,53)            81.8808         calculate D2E/DX2 analytically  !
 ! A80   A(42,34,53)            96.0788         calculate D2E/DX2 analytically  !
 ! A81   A(36,35,40)           108.4435         calculate D2E/DX2 analytically  !
 ! A82   A(36,35,42)           114.0229         calculate D2E/DX2 analytically  !
 ! A83   A(36,35,47)           113.3479         calculate D2E/DX2 analytically  !
 ! A84   A(40,35,42)           103.5877         calculate D2E/DX2 analytically  !
 ! A85   A(40,35,47)           109.1907         calculate D2E/DX2 analytically  !
 ! A86   A(42,35,47)           107.7348         calculate D2E/DX2 analytically  !
 ! A87   A(32,36,35)           112.0222         calculate D2E/DX2 analytically  !
 ! A88   A(32,36,41)           108.4673         calculate D2E/DX2 analytically  !
 ! A89   A(32,36,46)           111.3413         calculate D2E/DX2 analytically  !
 ! A90   A(35,36,41)           110.0585         calculate D2E/DX2 analytically  !
 ! A91   A(35,36,46)           104.4954         calculate D2E/DX2 analytically  !
 ! A92   A(41,36,46)           110.4336         calculate D2E/DX2 analytically  !
 ! A93   A(19,37,34)           106.9351         calculate D2E/DX2 analytically  !
 ! A94   A(19,37,52)           114.8332         calculate D2E/DX2 analytically  !
 ! A95   A(34,37,52)           129.6354         calculate D2E/DX2 analytically  !
 ! A96   A(34,42,35)           121.5737         calculate D2E/DX2 analytically  !
 ! A97   A(33,44,63)           112.9968         calculate D2E/DX2 analytically  !
 ! A98   A(32,45,67)           114.2995         calculate D2E/DX2 analytically  !
 ! A99   A(36,46,71)           114.6578         calculate D2E/DX2 analytically  !
 ! A100  A(35,47,48)           111.594          calculate D2E/DX2 analytically  !
 ! A101  A(35,47,49)           106.1445         calculate D2E/DX2 analytically  !
 ! A102  A(35,47,50)           108.8311         calculate D2E/DX2 analytically  !
 ! A103  A(48,47,49)           108.5993         calculate D2E/DX2 analytically  !
 ! A104  A(48,47,50)           110.4496         calculate D2E/DX2 analytically  !
 ! A105  A(49,47,50)           111.1566         calculate D2E/DX2 analytically  !
 ! A106  A(47,50,75)           111.944          calculate D2E/DX2 analytically  !
 ! A107  A(43,51,52)           114.3633         calculate D2E/DX2 analytically  !
 ! A108  A(43,51,53)           113.466          calculate D2E/DX2 analytically  !
 ! A109  A(43,51,54)           107.3737         calculate D2E/DX2 analytically  !
 ! A110  A(52,51,53)           112.0604         calculate D2E/DX2 analytically  !
 ! A111  A(52,51,54)           104.5152         calculate D2E/DX2 analytically  !
 ! A112  A(53,51,54)           103.9573         calculate D2E/DX2 analytically  !
 ! A113  A(37,52,51)            93.6515         calculate D2E/DX2 analytically  !
 ! A114  A(37,52,83)            67.4            calculate D2E/DX2 analytically  !
 ! A115  A(51,52,83)           142.6419         calculate D2E/DX2 analytically  !
 ! A116  A(34,53,51)           106.6685         calculate D2E/DX2 analytically  !
 ! A117  A(51,54,55)           119.0411         calculate D2E/DX2 analytically  !
 ! A118  A(51,54,56)           120.1745         calculate D2E/DX2 analytically  !
 ! A119  A(55,54,56)           120.7408         calculate D2E/DX2 analytically  !
 ! A120  A(54,55,57)           119.2656         calculate D2E/DX2 analytically  !
 ! A121  A(54,55,58)           120.1221         calculate D2E/DX2 analytically  !
 ! A122  A(57,55,58)           120.5806         calculate D2E/DX2 analytically  !
 ! A123  A(54,56,59)           119.2303         calculate D2E/DX2 analytically  !
 ! A124  A(54,56,60)           120.53           calculate D2E/DX2 analytically  !
 ! A125  A(59,56,60)           120.2248         calculate D2E/DX2 analytically  !
 ! A126  A(55,57,61)           120.7944         calculate D2E/DX2 analytically  !
 ! A127  A(55,57,93)           119.0502         calculate D2E/DX2 analytically  !
 ! A128  A(61,57,93)           119.7998         calculate D2E/DX2 analytically  !
 ! A129  A(56,59,61)           120.8776         calculate D2E/DX2 analytically  !
 ! A130  A(56,59,97)           118.1025         calculate D2E/DX2 analytically  !
 ! A131  A(61,59,97)           120.9958         calculate D2E/DX2 analytically  !
 ! A132  A(57,61,59)           119.0811         calculate D2E/DX2 analytically  !
 ! A133  A(57,61,62)           120.2727         calculate D2E/DX2 analytically  !
 ! A134  A(59,61,62)           120.6207         calculate D2E/DX2 analytically  !
 ! A135  A(44,63,64)           110.8954         calculate D2E/DX2 analytically  !
 ! A136  A(44,63,65)           110.1452         calculate D2E/DX2 analytically  !
 ! A137  A(44,63,66)           106.2447         calculate D2E/DX2 analytically  !
 ! A138  A(64,63,65)           109.3189         calculate D2E/DX2 analytically  !
 ! A139  A(64,63,66)           110.7946         calculate D2E/DX2 analytically  !
 ! A140  A(65,63,66)           109.3993         calculate D2E/DX2 analytically  !
 ! A141  A(45,67,68)           110.8112         calculate D2E/DX2 analytically  !
 ! A142  A(45,67,69)           111.2318         calculate D2E/DX2 analytically  !
 ! A143  A(45,67,70)           106.3372         calculate D2E/DX2 analytically  !
 ! A144  A(68,67,69)           109.3493         calculate D2E/DX2 analytically  !
 ! A145  A(68,67,70)           109.1887         calculate D2E/DX2 analytically  !
 ! A146  A(69,67,70)           109.8664         calculate D2E/DX2 analytically  !
 ! A147  A(46,71,72)           111.2194         calculate D2E/DX2 analytically  !
 ! A148  A(46,71,73)           110.8924         calculate D2E/DX2 analytically  !
 ! A149  A(46,71,74)           106.2083         calculate D2E/DX2 analytically  !
 ! A150  A(72,71,73)           109.3755         calculate D2E/DX2 analytically  !
 ! A151  A(72,71,74)           109.9643         calculate D2E/DX2 analytically  !
 ! A152  A(73,71,74)           109.1208         calculate D2E/DX2 analytically  !
 ! A153  A(50,75,76)           106.7957         calculate D2E/DX2 analytically  !
 ! A154  A(50,75,77)           110.6672         calculate D2E/DX2 analytically  !
 ! A155  A(50,75,78)           110.9838         calculate D2E/DX2 analytically  !
 ! A156  A(76,75,77)           109.2166         calculate D2E/DX2 analytically  !
 ! A157  A(76,75,78)           109.1713         calculate D2E/DX2 analytically  !
 ! A158  A(77,75,78)           109.9316         calculate D2E/DX2 analytically  !
 ! A159  A(12,79,80)           106.7332         calculate D2E/DX2 analytically  !
 ! A160  A(12,79,81)           111.4929         calculate D2E/DX2 analytically  !
 ! A161  A(12,79,82)           110.7772         calculate D2E/DX2 analytically  !
 ! A162  A(80,79,81)           109.5421         calculate D2E/DX2 analytically  !
 ! A163  A(80,79,82)           109.2795         calculate D2E/DX2 analytically  !
 ! A164  A(81,79,82)           108.9719         calculate D2E/DX2 analytically  !
 ! A165  A(19,83,52)            98.3096         calculate D2E/DX2 analytically  !
 ! A166  A(60,84,85)           114.8597         calculate D2E/DX2 analytically  !
 ! A167  A(60,84,89)            89.1195         calculate D2E/DX2 analytically  !
 ! A168  A(85,84,89)           111.9907         calculate D2E/DX2 analytically  !
 ! A169  A(84,85,86)           110.7568         calculate D2E/DX2 analytically  !
 ! A170  A(84,85,87)           107.2606         calculate D2E/DX2 analytically  !
 ! A171  A(84,85,88)           110.7338         calculate D2E/DX2 analytically  !
 ! A172  A(86,85,87)           109.4403         calculate D2E/DX2 analytically  !
 ! A173  A(86,85,88)           109.4026         calculate D2E/DX2 analytically  !
 ! A174  A(87,85,88)           109.2038         calculate D2E/DX2 analytically  !
 ! A175  A(6,87,85)            149.235          calculate D2E/DX2 analytically  !
 ! A176  A(84,89,90)           110.4465         calculate D2E/DX2 analytically  !
 ! A177  A(84,89,91)           106.7754         calculate D2E/DX2 analytically  !
 ! A178  A(84,89,92)           110.4109         calculate D2E/DX2 analytically  !
 ! A179  A(90,89,91)           110.3954         calculate D2E/DX2 analytically  !
 ! A180  A(90,89,92)           109.0415         calculate D2E/DX2 analytically  !
 ! A181  A(91,89,92)           109.7542         calculate D2E/DX2 analytically  !
 ! A182  A(57,93,94)           112.1549         calculate D2E/DX2 analytically  !
 ! A183  A(57,93,95)           112.3572         calculate D2E/DX2 analytically  !
 ! A184  A(57,93,96)           110.6464         calculate D2E/DX2 analytically  !
 ! A185  A(94,93,95)           107.8429         calculate D2E/DX2 analytically  !
 ! A186  A(94,93,96)           106.6623         calculate D2E/DX2 analytically  !
 ! A187  A(95,93,96)           106.8656         calculate D2E/DX2 analytically  !
 ! A188  A(59,97,98)           112.4322         calculate D2E/DX2 analytically  !
 ! A189  A(59,97,99)           110.9327         calculate D2E/DX2 analytically  !
 ! A190  A(59,97,100)          112.4492         calculate D2E/DX2 analytically  !
 ! A191  A(98,97,99)           106.1772         calculate D2E/DX2 analytically  !
 ! A192  A(98,97,100)          107.487          calculate D2E/DX2 analytically  !
 ! A193  A(99,97,100)          107.0009         calculate D2E/DX2 analytically  !
 ! A194  L(16,19,37,83,-1)     178.8452         calculate D2E/DX2 analytically  !
 ! A195  L(56,60,84,1,-1)      179.1157         calculate D2E/DX2 analytically  !
 ! A196  L(16,19,37,83,-2)     190.6737         calculate D2E/DX2 analytically  !
 ! A197  L(56,60,84,1,-2)      182.8968         calculate D2E/DX2 analytically  !
 ! D1    D(5,1,2,3)            -49.418          calculate D2E/DX2 analytically  !
 ! D2    D(5,1,2,7)             68.2062         calculate D2E/DX2 analytically  !
 ! D3    D(5,1,2,13)          -169.3813         calculate D2E/DX2 analytically  !
 ! D4    D(8,1,2,3)             70.2991         calculate D2E/DX2 analytically  !
 ! D5    D(8,1,2,7)           -172.0767         calculate D2E/DX2 analytically  !
 ! D6    D(8,1,2,13)           -49.6643         calculate D2E/DX2 analytically  !
 ! D7    D(14,1,2,3)          -170.792          calculate D2E/DX2 analytically  !
 ! D8    D(14,1,2,7)           -53.1678         calculate D2E/DX2 analytically  !
 ! D9    D(14,1,2,13)           69.2446         calculate D2E/DX2 analytically  !
 ! D10   D(2,1,5,4)             51.0923         calculate D2E/DX2 analytically  !
 ! D11   D(2,1,5,10)           -68.3645         calculate D2E/DX2 analytically  !
 ! D12   D(2,1,5,15)           171.5203         calculate D2E/DX2 analytically  !
 ! D13   D(8,1,5,4)            -68.1458         calculate D2E/DX2 analytically  !
 ! D14   D(8,1,5,10)           172.3974         calculate D2E/DX2 analytically  !
 ! D15   D(8,1,5,15)            52.2822         calculate D2E/DX2 analytically  !
 ! D16   D(14,1,5,4)           170.8387         calculate D2E/DX2 analytically  !
 ! D17   D(14,1,5,10)           51.3819         calculate D2E/DX2 analytically  !
 ! D18   D(14,1,5,15)          -68.7333         calculate D2E/DX2 analytically  !
 ! D19   D(2,1,14,24)         -140.8899         calculate D2E/DX2 analytically  !
 ! D20   D(5,1,14,24)           97.6088         calculate D2E/DX2 analytically  !
 ! D21   D(8,1,14,24)          -22.9664         calculate D2E/DX2 analytically  !
 ! D22   D(1,2,3,6)            170.0506         calculate D2E/DX2 analytically  !
 ! D23   D(1,2,3,11)            54.3319         calculate D2E/DX2 analytically  !
 ! D24   D(1,2,3,12)           -69.0108         calculate D2E/DX2 analytically  !
 ! D25   D(7,2,3,6)             51.8814         calculate D2E/DX2 analytically  !
 ! D26   D(7,2,3,11)           -63.8373         calculate D2E/DX2 analytically  !
 ! D27   D(7,2,3,12)           172.82           calculate D2E/DX2 analytically  !
 ! D28   D(13,2,3,6)           -67.2863         calculate D2E/DX2 analytically  !
 ! D29   D(13,2,3,11)          176.995          calculate D2E/DX2 analytically  !
 ! D30   D(13,2,3,12)           53.6523         calculate D2E/DX2 analytically  !
 ! D31   D(1,2,13,20)          -98.0772         calculate D2E/DX2 analytically  !
 ! D32   D(3,2,13,20)          139.86           calculate D2E/DX2 analytically  !
 ! D33   D(7,2,13,20)           22.8978         calculate D2E/DX2 analytically  !
 ! D34   D(2,3,6,87)          -146.316          calculate D2E/DX2 analytically  !
 ! D35   D(11,3,6,87)          -27.2581         calculate D2E/DX2 analytically  !
 ! D36   D(12,3,6,87)           93.7676         calculate D2E/DX2 analytically  !
 ! D37   D(2,3,11,4)           -62.2046         calculate D2E/DX2 analytically  !
 ! D38   D(6,3,11,4)           179.223          calculate D2E/DX2 analytically  !
 ! D39   D(12,3,11,4)           59.2313         calculate D2E/DX2 analytically  !
 ! D40   D(2,3,12,79)         -172.2336         calculate D2E/DX2 analytically  !
 ! D41   D(6,3,12,79)          -51.641          calculate D2E/DX2 analytically  !
 ! D42   D(11,3,12,79)          65.2705         calculate D2E/DX2 analytically  !
 ! D43   D(9,4,5,1)             62.3255         calculate D2E/DX2 analytically  !
 ! D44   D(9,4,5,10)          -178.061          calculate D2E/DX2 analytically  !
 ! D45   D(9,4,5,15)           -57.4653         calculate D2E/DX2 analytically  !
 ! D46   D(11,4,5,1)           -55.7661         calculate D2E/DX2 analytically  !
 ! D47   D(11,4,5,10)           63.8474         calculate D2E/DX2 analytically  !
 ! D48   D(11,4,5,15)         -175.5569         calculate D2E/DX2 analytically  !
 ! D49   D(16,4,5,1)          -175.1237         calculate D2E/DX2 analytically  !
 ! D50   D(16,4,5,10)          -55.5102         calculate D2E/DX2 analytically  !
 ! D51   D(16,4,5,15)           65.0855         calculate D2E/DX2 analytically  !
 ! D52   D(5,4,11,3)            62.4012         calculate D2E/DX2 analytically  !
 ! D53   D(9,4,11,3)           -55.8407         calculate D2E/DX2 analytically  !
 ! D54   D(16,4,11,3)         -174.0376         calculate D2E/DX2 analytically  !
 ! D55   D(5,4,16,17)          -63.9032         calculate D2E/DX2 analytically  !
 ! D56   D(5,4,16,18)         -174.7132         calculate D2E/DX2 analytically  !
 ! D57   D(5,4,16,19)           61.8868         calculate D2E/DX2 analytically  !
 ! D58   D(9,4,16,17)           58.3215         calculate D2E/DX2 analytically  !
 ! D59   D(9,4,16,18)          -52.4886         calculate D2E/DX2 analytically  !
 ! D60   D(9,4,16,19)         -175.8886         calculate D2E/DX2 analytically  !
 ! D61   D(11,4,16,17)         175.9762         calculate D2E/DX2 analytically  !
 ! D62   D(11,4,16,18)          65.1662         calculate D2E/DX2 analytically  !
 ! D63   D(11,4,16,19)         -58.2338         calculate D2E/DX2 analytically  !
 ! D64   D(1,5,15,28)          134.4215         calculate D2E/DX2 analytically  !
 ! D65   D(4,5,15,28)         -103.7581         calculate D2E/DX2 analytically  !
 ! D66   D(10,5,15,28)          15.5048         calculate D2E/DX2 analytically  !
 ! D67   D(3,6,87,85)          112.5034         calculate D2E/DX2 analytically  !
 ! D68   D(3,12,79,80)         176.1135         calculate D2E/DX2 analytically  !
 ! D69   D(3,12,79,81)         -64.2972         calculate D2E/DX2 analytically  !
 ! D70   D(3,12,79,82)          57.2435         calculate D2E/DX2 analytically  !
 ! D71   D(2,13,20,21)         -58.2731         calculate D2E/DX2 analytically  !
 ! D72   D(2,13,20,22)          64.1161         calculate D2E/DX2 analytically  !
 ! D73   D(2,13,20,23)        -176.5665         calculate D2E/DX2 analytically  !
 ! D74   D(1,14,24,25)         -60.502          calculate D2E/DX2 analytically  !
 ! D75   D(1,14,24,26)          61.326          calculate D2E/DX2 analytically  !
 ! D76   D(1,14,24,27)         179.83           calculate D2E/DX2 analytically  !
 ! D77   D(5,15,28,29)         -71.0913         calculate D2E/DX2 analytically  !
 ! D78   D(5,15,28,30)          50.877          calculate D2E/DX2 analytically  !
 ! D79   D(5,15,28,31)         170.3869         calculate D2E/DX2 analytically  !
 ! D80   D(4,16,19,83)          58.8314         calculate D2E/DX2 analytically  !
 ! D81   D(17,16,19,83)       -179.792          calculate D2E/DX2 analytically  !
 ! D82   D(18,16,19,83)        -60.8726         calculate D2E/DX2 analytically  !
 ! D83   D(4,16,37,34)         -68.0027         calculate D2E/DX2 analytically  !
 ! D84   D(4,16,37,52)          80.2753         calculate D2E/DX2 analytically  !
 ! D85   D(17,16,37,34)         49.7635         calculate D2E/DX2 analytically  !
 ! D86   D(17,16,37,52)       -161.9584         calculate D2E/DX2 analytically  !
 ! D87   D(18,16,37,34)        173.0755         calculate D2E/DX2 analytically  !
 ! D88   D(18,16,37,52)        -38.6465         calculate D2E/DX2 analytically  !
 ! D89   D(83,19,37,34)       -131.4264         calculate D2E/DX2 analytically  !
 ! D90   D(83,19,37,52)         19.6973         calculate D2E/DX2 analytically  !
 ! D91   D(16,19,83,52)        173.7738         calculate D2E/DX2 analytically  !
 ! D92   D(37,19,83,52)        -16.8999         calculate D2E/DX2 analytically  !
 ! D93   D(36,32,33,34)        -51.4584         calculate D2E/DX2 analytically  !
 ! D94   D(36,32,33,38)         63.1438         calculate D2E/DX2 analytically  !
 ! D95   D(36,32,33,44)       -176.1452         calculate D2E/DX2 analytically  !
 ! D96   D(39,32,33,34)         67.5105         calculate D2E/DX2 analytically  !
 ! D97   D(39,32,33,38)       -177.8873         calculate D2E/DX2 analytically  !
 ! D98   D(39,32,33,44)        -57.1764         calculate D2E/DX2 analytically  !
 ! D99   D(45,32,33,34)       -169.4874         calculate D2E/DX2 analytically  !
 ! D100  D(45,32,33,38)        -54.8852         calculate D2E/DX2 analytically  !
 ! D101  D(45,32,33,44)         65.8258         calculate D2E/DX2 analytically  !
 ! D102  D(33,32,36,35)         55.1744         calculate D2E/DX2 analytically  !
 ! D103  D(33,32,36,41)        -66.5032         calculate D2E/DX2 analytically  !
 ! D104  D(33,32,36,46)        171.7844         calculate D2E/DX2 analytically  !
 ! D105  D(39,32,36,35)        -63.8384         calculate D2E/DX2 analytically  !
 ! D106  D(39,32,36,41)        174.4841         calculate D2E/DX2 analytically  !
 ! D107  D(39,32,36,46)         52.7716         calculate D2E/DX2 analytically  !
 ! D108  D(45,32,36,35)        175.0898         calculate D2E/DX2 analytically  !
 ! D109  D(45,32,36,41)         53.4123         calculate D2E/DX2 analytically  !
 ! D110  D(45,32,36,46)        -68.3002         calculate D2E/DX2 analytically  !
 ! D111  D(33,32,45,67)        -94.607          calculate D2E/DX2 analytically  !
 ! D112  D(36,32,45,67)        146.9473         calculate D2E/DX2 analytically  !
 ! D113  D(39,32,45,67)         27.2046         calculate D2E/DX2 analytically  !
 ! D114  D(32,33,34,37)       -147.8088         calculate D2E/DX2 analytically  !
 ! D115  D(32,33,34,42)         38.3309         calculate D2E/DX2 analytically  !
 ! D116  D(32,33,34,53)        -63.2917         calculate D2E/DX2 analytically  !
 ! D117  D(38,33,34,37)         97.0277         calculate D2E/DX2 analytically  !
 ! D118  D(38,33,34,42)        -76.8326         calculate D2E/DX2 analytically  !
 ! D119  D(38,33,34,53)       -178.4552         calculate D2E/DX2 analytically  !
 ! D120  D(44,33,34,37)        -22.8703         calculate D2E/DX2 analytically  !
 ! D121  D(44,33,34,42)        163.2695         calculate D2E/DX2 analytically  !
 ! D122  D(44,33,34,53)         61.6468         calculate D2E/DX2 analytically  !
 ! D123  D(32,33,44,63)       -151.5931         calculate D2E/DX2 analytically  !
 ! D124  D(34,33,44,63)         83.7275         calculate D2E/DX2 analytically  !
 ! D125  D(38,33,44,63)        -33.2312         calculate D2E/DX2 analytically  !
 ! D126  D(33,34,37,19)        -89.3432         calculate D2E/DX2 analytically  !
 ! D127  D(33,34,37,52)        125.3435         calculate D2E/DX2 analytically  !
 ! D128  D(42,34,37,19)         84.8752         calculate D2E/DX2 analytically  !
 ! D129  D(42,34,37,52)        -60.4381         calculate D2E/DX2 analytically  !
 ! D130  D(53,34,37,19)        177.652          calculate D2E/DX2 analytically  !
 ! D131  D(53,34,37,52)         32.3387         calculate D2E/DX2 analytically  !
 ! D132  D(33,34,42,35)        -25.0941         calculate D2E/DX2 analytically  !
 ! D133  D(37,34,42,35)        160.8013         calculate D2E/DX2 analytically  !
 ! D134  D(53,34,42,35)         76.8649         calculate D2E/DX2 analytically  !
 ! D135  D(33,34,53,51)       -159.791          calculate D2E/DX2 analytically  !
 ! D136  D(37,34,53,51)        -39.6007         calculate D2E/DX2 analytically  !
 ! D137  D(42,34,53,51)         76.3563         calculate D2E/DX2 analytically  !
 ! D138  D(40,35,36,32)         72.9285         calculate D2E/DX2 analytically  !
 ! D139  D(40,35,36,41)       -166.3115         calculate D2E/DX2 analytically  !
 ! D140  D(40,35,36,46)        -47.7382         calculate D2E/DX2 analytically  !
 ! D141  D(42,35,36,32)        -41.8924         calculate D2E/DX2 analytically  !
 ! D142  D(42,35,36,41)         78.8676         calculate D2E/DX2 analytically  !
 ! D143  D(42,35,36,46)       -162.5591         calculate D2E/DX2 analytically  !
 ! D144  D(47,35,36,32)       -165.647          calculate D2E/DX2 analytically  !
 ! D145  D(47,35,36,41)        -44.887          calculate D2E/DX2 analytically  !
 ! D146  D(47,35,36,46)         73.6863         calculate D2E/DX2 analytically  !
 ! D147  D(36,35,42,34)         26.1267         calculate D2E/DX2 analytically  !
 ! D148  D(40,35,42,34)        -91.5234         calculate D2E/DX2 analytically  !
 ! D149  D(47,35,42,34)        152.8598         calculate D2E/DX2 analytically  !
 ! D150  D(36,35,47,48)         64.3745         calculate D2E/DX2 analytically  !
 ! D151  D(36,35,47,49)        -53.7691         calculate D2E/DX2 analytically  !
 ! D152  D(36,35,47,50)       -173.4855         calculate D2E/DX2 analytically  !
 ! D153  D(40,35,47,48)       -174.6212         calculate D2E/DX2 analytically  !
 ! D154  D(40,35,47,49)         67.2352         calculate D2E/DX2 analytically  !
 ! D155  D(40,35,47,50)        -52.4812         calculate D2E/DX2 analytically  !
 ! D156  D(42,35,47,48)        -62.7525         calculate D2E/DX2 analytically  !
 ! D157  D(42,35,47,49)        179.1039         calculate D2E/DX2 analytically  !
 ! D158  D(42,35,47,50)         59.3875         calculate D2E/DX2 analytically  !
 ! D159  D(32,36,46,71)         96.323          calculate D2E/DX2 analytically  !
 ! D160  D(35,36,46,71)       -142.5579         calculate D2E/DX2 analytically  !
 ! D161  D(41,36,46,71)        -24.24           calculate D2E/DX2 analytically  !
 ! D162  D(19,37,52,51)       -166.4457         calculate D2E/DX2 analytically  !
 ! D163  D(19,37,52,83)        -19.7089         calculate D2E/DX2 analytically  !
 ! D164  D(34,37,52,51)        -23.3069         calculate D2E/DX2 analytically  !
 ! D165  D(34,37,52,83)        123.4299         calculate D2E/DX2 analytically  !
 ! D166  D(33,44,63,64)        -51.8652         calculate D2E/DX2 analytically  !
 ! D167  D(33,44,63,65)         69.2821         calculate D2E/DX2 analytically  !
 ! D168  D(33,44,63,66)       -172.3329         calculate D2E/DX2 analytically  !
 ! D169  D(32,45,67,68)        -60.0066         calculate D2E/DX2 analytically  !
 ! D170  D(32,45,67,69)         61.8593         calculate D2E/DX2 analytically  !
 ! D171  D(32,45,67,70)       -178.5503         calculate D2E/DX2 analytically  !
 ! D172  D(36,46,71,72)        -61.9464         calculate D2E/DX2 analytically  !
 ! D173  D(36,46,71,73)         60.0007         calculate D2E/DX2 analytically  !
 ! D174  D(36,46,71,74)        178.4306         calculate D2E/DX2 analytically  !
 ! D175  D(35,47,50,75)        159.6356         calculate D2E/DX2 analytically  !
 ! D176  D(48,47,50,75)        -77.5337         calculate D2E/DX2 analytically  !
 ! D177  D(49,47,50,75)         43.0842         calculate D2E/DX2 analytically  !
 ! D178  D(47,50,75,76)        176.8285         calculate D2E/DX2 analytically  !
 ! D179  D(47,50,75,77)        -64.4005         calculate D2E/DX2 analytically  !
 ! D180  D(47,50,75,78)         57.9367         calculate D2E/DX2 analytically  !
 ! D181  D(43,51,52,37)       -147.956          calculate D2E/DX2 analytically  !
 ! D182  D(43,51,52,83)        155.4805         calculate D2E/DX2 analytically  !
 ! D183  D(53,51,52,37)        -17.0225         calculate D2E/DX2 analytically  !
 ! D184  D(53,51,52,83)        -73.586          calculate D2E/DX2 analytically  !
 ! D185  D(54,51,52,37)         94.9247         calculate D2E/DX2 analytically  !
 ! D186  D(54,51,52,83)         38.3612         calculate D2E/DX2 analytically  !
 ! D187  D(43,51,53,34)        163.3895         calculate D2E/DX2 analytically  !
 ! D188  D(52,51,53,34)         32.0009         calculate D2E/DX2 analytically  !
 ! D189  D(54,51,53,34)        -80.2945         calculate D2E/DX2 analytically  !
 ! D190  D(43,51,54,55)         77.4            calculate D2E/DX2 analytically  !
 ! D191  D(43,51,54,56)       -104.9797         calculate D2E/DX2 analytically  !
 ! D192  D(52,51,54,55)       -160.7635         calculate D2E/DX2 analytically  !
 ! D193  D(52,51,54,56)         16.8568         calculate D2E/DX2 analytically  !
 ! D194  D(53,51,54,55)        -43.1105         calculate D2E/DX2 analytically  !
 ! D195  D(53,51,54,56)        134.5098         calculate D2E/DX2 analytically  !
 ! D196  D(37,52,83,19)         15.2778         calculate D2E/DX2 analytically  !
 ! D197  D(51,52,83,19)         79.7096         calculate D2E/DX2 analytically  !
 ! D198  D(51,54,55,57)        176.8348         calculate D2E/DX2 analytically  !
 ! D199  D(51,54,55,58)         -1.1312         calculate D2E/DX2 analytically  !
 ! D200  D(56,54,55,57)         -0.7716         calculate D2E/DX2 analytically  !
 ! D201  D(56,54,55,58)       -178.7376         calculate D2E/DX2 analytically  !
 ! D202  D(51,54,56,59)       -176.892          calculate D2E/DX2 analytically  !
 ! D203  D(51,54,56,60)          1.7037         calculate D2E/DX2 analytically  !
 ! D204  D(55,54,56,59)          0.6874         calculate D2E/DX2 analytically  !
 ! D205  D(55,54,56,60)        179.2831         calculate D2E/DX2 analytically  !
 ! D206  D(54,55,57,61)          0.896          calculate D2E/DX2 analytically  !
 ! D207  D(54,55,57,93)       -172.2434         calculate D2E/DX2 analytically  !
 ! D208  D(58,55,57,61)        178.8524         calculate D2E/DX2 analytically  !
 ! D209  D(58,55,57,93)          5.7131         calculate D2E/DX2 analytically  !
 ! D210  D(54,56,59,61)         -0.7286         calculate D2E/DX2 analytically  !
 ! D211  D(54,56,59,97)        177.5058         calculate D2E/DX2 analytically  !
 ! D212  D(60,56,59,61)       -179.3287         calculate D2E/DX2 analytically  !
 ! D213  D(60,56,59,97)         -1.0942         calculate D2E/DX2 analytically  !
 ! D214  D(54,56,84,85)        178.9493         calculate D2E/DX2 analytically  !
 ! D215  D(54,56,84,89)         64.9952         calculate D2E/DX2 analytically  !
 ! D216  D(59,56,84,85)         -2.4714         calculate D2E/DX2 analytically  !
 ! D217  D(59,56,84,89)       -116.4255         calculate D2E/DX2 analytically  !
 ! D218  D(55,57,61,59)         -0.9336         calculate D2E/DX2 analytically  !
 ! D219  D(55,57,61,62)       -179.1053         calculate D2E/DX2 analytically  !
 ! D220  D(93,57,61,59)        172.1547         calculate D2E/DX2 analytically  !
 ! D221  D(93,57,61,62)         -6.017          calculate D2E/DX2 analytically  !
 ! D222  D(55,57,93,94)        -37.638          calculate D2E/DX2 analytically  !
 ! D223  D(55,57,93,95)       -159.3192         calculate D2E/DX2 analytically  !
 ! D224  D(55,57,93,96)         81.3259         calculate D2E/DX2 analytically  !
 ! D225  D(61,57,93,94)        149.1531         calculate D2E/DX2 analytically  !
 ! D226  D(61,57,93,95)         27.4719         calculate D2E/DX2 analytically  !
 ! D227  D(61,57,93,96)        -91.883          calculate D2E/DX2 analytically  !
 ! D228  D(56,59,61,57)          0.8484         calculate D2E/DX2 analytically  !
 ! D229  D(56,59,61,62)        179.0136         calculate D2E/DX2 analytically  !
 ! D230  D(97,59,61,57)       -177.3348         calculate D2E/DX2 analytically  !
 ! D231  D(97,59,61,62)          0.8304         calculate D2E/DX2 analytically  !
 ! D232  D(56,59,97,98)         71.8383         calculate D2E/DX2 analytically  !
 ! D233  D(56,59,97,99)        -46.8882         calculate D2E/DX2 analytically  !
 ! D234  D(56,59,97,100)      -166.6742         calculate D2E/DX2 analytically  !
 ! D235  D(61,59,97,98)       -109.9294         calculate D2E/DX2 analytically  !
 ! D236  D(61,59,97,99)        131.3441         calculate D2E/DX2 analytically  !
 ! D237  D(61,59,97,100)        11.5581         calculate D2E/DX2 analytically  !
 ! D238  D(60,84,85,86)        -35.0334         calculate D2E/DX2 analytically  !
 ! D239  D(60,84,85,87)         84.3382         calculate D2E/DX2 analytically  !
 ! D240  D(60,84,85,88)       -156.5895         calculate D2E/DX2 analytically  !
 ! D241  D(89,84,85,86)         64.6872         calculate D2E/DX2 analytically  !
 ! D242  D(89,84,85,87)       -175.9411         calculate D2E/DX2 analytically  !
 ! D243  D(89,84,85,88)        -56.8689         calculate D2E/DX2 analytically  !
 ! D244  D(60,84,89,90)        177.7598         calculate D2E/DX2 analytically  !
 ! D245  D(60,84,89,91)        -62.1842         calculate D2E/DX2 analytically  !
 ! D246  D(60,84,89,92)         57.0795         calculate D2E/DX2 analytically  !
 ! D247  D(85,84,89,90)         61.1937         calculate D2E/DX2 analytically  !
 ! D248  D(85,84,89,91)       -178.7503         calculate D2E/DX2 analytically  !
 ! D249  D(85,84,89,92)        -59.4866         calculate D2E/DX2 analytically  !
 ! D250  D(84,85,87,6)         -65.2907         calculate D2E/DX2 analytically  !
 ! D251  D(86,85,87,6)          54.9224         calculate D2E/DX2 analytically  !
 ! D252  D(88,85,87,6)         174.657          calculate D2E/DX2 analytically  !
 --------------------------------------------------------------------------------
 Trust Radius=5.00D-02 FncErr=1.00D-07 GrdErr=1.00D-06 EigMax=2.50D+02 EigMin=1.00D-04
 Number of steps in this run=    564 maximum allowed number of steps=    600.
 Search for a saddle point of order  1.
 Step   0 in ReCalcFC=30 IGetFC= 4 compute analytic Hessian.
 GradGradGradGradGradGradGradGradGradGradGradGradGradGradGradGradGradGrad

 Leave Link  103 at Thu May 30 18:50:09 2019, MaxMem=  6442450944 cpu:               4.2 elap:               0.2
 (Enter /home/ekwan/sw/g16/l202.exe)
 Stoichiometry    C30H47F6NaO15S
 Framework group  C1[X(C30H47F6NaO15S)]
 Deg. of freedom   294
 Full point group                 C1      NOp   1
 Largest Abelian subgroup         C1      NOp   1
 Largest concise Abelian subgroup C1      NOp   1
                         Standard orientation:                         
 ---------------------------------------------------------------------
 Center     Atomic      Atomic             Coordinates (Angstroms)
 Number     Number       Type             X           Y           Z
 ---------------------------------------------------------------------
      1          6           0       -2.390537   -2.164605   -2.061893
      2          6           0       -3.122671   -0.941867   -1.506864
      3          6           0       -3.774222   -1.258250   -0.156719
      4          6           0       -2.223562   -3.030119    0.311109
      5          6           0       -1.476298   -2.780183   -1.001752
      6          1           0       -4.138848   -0.333932    0.306499
      7          1           0       -2.385471   -0.147269   -1.336809
      8          1           0       -3.139731   -2.906992   -2.365575
      9          1           0       -3.029245   -3.751732    0.129038
     10          1           0       -0.653125   -2.086307   -0.803775
     11          8           0       -2.812905   -1.777623    0.752580
     12          8           0       -4.831279   -2.148757   -0.366103
     13          8           0       -4.149833   -0.497302   -2.378980
     14          8           0       -1.634140   -1.745776   -3.198217
     15          8           0       -0.976784   -4.020398   -1.506119
     16          6           0       -1.331094   -3.537027    1.450419
     17          1           0       -0.953131   -4.526650    1.119652
     18          1           0       -2.024014   -3.762376    2.293632
     19          8           0       -0.338413   -2.654688    1.815671
     20          6           0       -3.797078    0.588733   -3.222778
     21          1           0       -3.477947    1.461118   -2.637219
     22          1           0       -3.002830    0.315129   -3.924071
     23          1           0       -4.699683    0.851744   -3.781285
     24          6           0       -1.626809   -2.674250   -4.274355
     25          1           0       -1.192894   -3.633191   -3.973583
     26          1           0       -2.643844   -2.844099   -4.655663
     27          1           0       -1.020571   -2.228373   -5.067379
     28          6           0        0.415112   -4.206458   -1.311931
     29          1           0        0.999707   -3.542310   -1.966176
     30          1           0        0.700237   -4.026475   -0.269182
     31          1           0        0.640925   -5.242986   -1.575272
     32          6           0        3.918182   -1.606323    0.182545
     33          6           0        2.821257   -2.220944    1.061394
     34          6           0        1.617724   -1.332173    1.123296
     35          6           0        2.091380   -0.293351   -0.998771
     36          6           0        3.299992   -1.220824   -1.165200
     37          1           0        1.009797   -1.294232    2.005170
     38          1           0        2.486795   -3.139205    0.549929
     39          1           0        4.310869   -0.706670    0.669879
     40          1           0        2.451534    0.693770   -0.708710
     41          1           0        3.000056   -2.141326   -1.686921
     42          8           0        1.192549   -0.671886    0.105021
     43          8           0        2.056874    2.233743    3.795502
     44          8           0        3.296101   -2.519398    2.345842
     45          8           0        4.943363   -2.544384   -0.066704
     46          8           0        4.209793   -0.478782   -1.955812
     47          6           0        1.254606   -0.168668   -2.252053
     48          1           0        0.792798   -1.126495   -2.526656
     49          1           0        1.945837    0.129406   -3.052553
     50          8           0        0.263323    0.814781   -2.042266
     51         16           0        1.564066    1.283663    2.781295
     52          8           0        0.407316    0.446563    3.229915
     53          8           0        2.654266    0.453776    2.157413
     54          6           0        0.915225    2.251395    1.408290
     55          6           0        1.807538    2.830586    0.507259
     56          6           0       -0.456882    2.373395    1.226754
     57          6           0        1.309993    3.523823   -0.593044
     58          1           0        2.876206    2.711834    0.647302
     59          6           0       -0.938306    3.073287    0.119282
     60          1           0       -1.147198    1.912185    1.922626
     61          6           0       -0.064120    3.658861   -0.790217
     62          1           0       -0.441710    4.186999   -1.655992
     63          6           0        2.602549   -3.615289    2.959181
     64          1           0        1.517724   -3.458184    2.928023
     65          1           0        2.848958   -4.555184    2.444293
     66          1           0        2.957756   -3.662791    3.990154
     67          6           0        6.046405   -2.461856    0.834328
     68          1           0        6.517871   -1.470955    0.784356
     69          1           0        5.733520   -2.662857    1.862950
     70          1           0        6.764961   -3.218066    0.510425
     71          6           0        4.938119   -1.251422   -2.908223
     72          1           0        5.559441   -2.003990   -2.415230
     73          1           0        4.256952   -1.746643   -3.614338
     74          1           0        5.568831   -0.546635   -3.454183
     75          6           0       -0.249949    1.320135   -3.265659
     76          1           0       -1.042219    2.025010   -3.008032
     77          1           0        0.534268    1.846820   -3.827222
     78          1           0       -0.670192    0.514431   -3.877386
     79          6           0       -5.616585   -2.373305    0.799937
     80          1           0       -6.443013   -3.021099    0.502271
     81          1           0       -5.033400   -2.862090    1.588902
     82          1           0       -6.018992   -1.426385    1.187445
     83         11           0       -1.435493   -0.778033    2.431219
     84          8           0       -2.719732    0.966759    3.346533
     85          6           0       -4.075421    1.227797    2.998897
     86          1           0       -4.180964    2.233223    2.573629
     87          1           0       -4.367045    0.486387    2.254384
     88          1           0       -4.727118    1.133102    3.877399
     89          6           0       -2.260107    1.826792    4.389381
     90          1           0       -2.854462    1.676669    5.300248
     91          1           0       -1.216757    1.571479    4.570521
     92          1           0       -2.336846    2.878255    4.080587
     93          6           0        2.265527    3.993758   -1.651738
     94          9           0        3.433621    4.420150   -1.129558
     95          9           0        1.754772    4.996422   -2.395309
     96          9           0        2.567766    2.981443   -2.508559
     97          6           0       -2.423992    3.140996   -0.083149
     98          9           0       -3.031072    3.946819    0.816777
     99          9           0       -2.991248    1.912827    0.064341
    100          9           0       -2.756982    3.584428   -1.314449
 ---------------------------------------------------------------------
 Rotational constants (GHZ):           0.0578609           0.0501313           0.0437725
 Leave Link  202 at Thu May 30 18:50:09 2019, MaxMem=  6442450944 cpu:               3.4 elap:               0.2
 (Enter /home/ekwan/sw/g16/l301.exe)
 Standard basis: 6-31G(d) (6D, 7F)
 Ernie: Thresh=  0.10000D-02 Tol=  0.10000D-05 Strict=F.
 There are   897 symmetry adapted cartesian basis functions of A   symmetry.
 There are   897 symmetry adapted basis functions of A   symmetry.
   897 basis functions,  1720 primitive gaussians,   897 cartesian basis functions
   214 alpha electrons      214 beta electrons
       nuclear repulsion energy      9969.5127201915 Hartrees.
 IExCor=  402 DFT=T Ex+Corr=B3LYP ExCW=0 ScaHFX=  0.200000
 ScaDFX=  0.800000  0.720000  1.000000  0.810000 ScalE2=  1.000000  1.000000
 IRadAn=      5 IRanWt=     -1 IRanGd=            0 ICorTp=0 IEmpDi=141
 NAtoms=  100 NActive=  100 NUniq=  100 SFac= 1.00D+00 NAtFMM=   60 NAOKFM=T Big=T
 Integral buffers will be    131072 words long.
 Raffenetti 2 integral format.
 Two-electron integral symmetry is turned on.
 R6Disp:  Grimme-D3(BJ) Dispersion energy=       -0.2406925516 Hartrees.
 Nuclear repulsion after empirical dispersion term =     9969.2720276400 Hartrees.
 Force inversion solution in PCM.
 ------------------------------------------------------------------------------
 Polarizable Continuum Model (PCM)
 =================================
 Model                : PCM.
 Atomic radii         : UFF (Universal Force Field).
 Polarization charges : Total charges.
 Charge compensation  : None.
 Solution method      : Matrix inversion.
 Cavity type          : Scaled VdW (van der Waals Surface) (Alpha=1.100).
 Cavity algorithm     : GePol (No added spheres)
                        Default sphere list used, NSphG=  100.
                        Lebedev-Laikov grids with approx.  5.0 points / Ang**2.
                        Smoothing algorithm: York/Karplus (Gamma=1.0000).
                        Polarization charges: spherical gaussians, with
                                              point-specific exponents (IZeta= 3).
                        Self-potential: point-specific (ISelfS= 7).
                        Self-field    : sphere-specific E.n sum rule (ISelfD= 2).
 1st derivatives      : Analytical E(r).r(x)/FMM algorithm (CHGder, D1EAlg=3).
                        Cavity 1st derivative terms included.
 2nd derivatives      : Analytical E(r).r(xy)/FMM algorithm (CHGder, D2EAlg=3).
                        Cavity 2nd derivative terms included.
 Solvent              : TetraHydroFuran, Eps=   7.425700 Eps(inf)=   1.974025
 ------------------------------------------------------------------------------
 GePol: Number of generator spheres                  =     100
 GePol: Total number of spheres                      =     100
 GePol: Number of exposed spheres                    =     100 (100.00%)
 GePol: Number of points                             =    5871
 GePol: Average weight of points                     =       0.12
 GePol: Minimum weight of points                     =   0.12D-11
 GePol: Maximum weight of points                     =    0.21593
 GePol: Number of points with low weight             =     450
 GePol: Fraction of low-weight points (<1% of avg)   =       7.66%
 GePol: Cavity surface area                          =    717.423 Ang**2
[...]
 000083,-0.00006347,-0.00003487,0.00003994,0.00004674,0.00004830,-0.000
 00532,-0.00002691,0.00014836,0.00031987,-0.00001736,0.00011450,-0.0014
 1487,0.00110060,0.00047430,0.00060136,-0.00027051,-0.00027005,0.000734
 99,-0.00008633,-0.00109599,0.00099466,0.00001914,-0.00015940,0.0000904
 3,-0.00046670,0.00165806,-0.00019961,0.00286085,-0.00040174,-0.0000271
 2,0.00106031,0.00001238,-0.00002040,-0.00011769,-0.01559643,-0.0141565
 9,0.00452260,-0.00016949,-0.00053903,-0.00143835,-0.00262923,0.0005016
 6,-0.00302130,0.00061797,-0.00001032,-0.00037186,-0.00002227,-0.000014
 37,0.00001572,-0.00002287,0.00001102,-0.00002625,0.00000354,0.00000212
 ,-0.00000262,0.00001028,-0.00000104,0.00000649,-0.00002719,-0.00001654
 ,-0.00001364,0.00000673,0.00000852,-0.00000015,-0.00000153,-0.00000055
 ,0.00000052,0.00000175,0.00000053,0.00000184,-0.00000907,-0.00000457,-
 0.00000376,-0.00000111,-0.00000094,-0.00000033,0.00000345,0.00000173,0
 .00000364,0.00000633,0.00000132,-0.00000550,0.00014677,-0.00024199,0.0
 0013215,-0.00008463,-0.00021392,-0.00012373,0.00006347,0.00003006,-0.0
 0005973,-0.00009086,0.00007300,0.00008981,0.00042836,0.00023120,-0.000
 73875,-0.00011884,-0.00008446,0.00005940,-0.00000259,-0.00002484,0.000
 12152,0.00003452,0.00007514,0.00009742,-0.00071718,0.00060306,-0.00101
 424,0.00012343,0.00042408,0.00117140,-0.00026491,-0.00049714,-0.000513
 01,-0.00000763,-0.00057357,-0.00024774,0.00024239,0.00076559,0.0001381
 0,0.00029218,0.00004254,0.00046851,-0.00034691,-0.00072124,-0.00048887
 ,0.00003304,0.00014748,0.00013963,0.00003876,0.00003445,0.00008881,-0.
 00003001,0.00018141,0.00002859,0.00068190,0.00039847,-0.00103538,-0.00
 051878,-0.00022996,0.00013192,-0.00018209,-0.00013892,0.00023345,-0.00
 025348,0.00021583,0.00049108,-0.07690831,-0.18461634,0.00921204,-0.002
 71195,-0.07228371,-0.02796723,0.10699533,0.31293543,-0.00025128,-0.000
 11322,0.00004873,0.00073227,0.00009030,-0.00028995,0.00013739,-0.00020
 385,-0.00055781,0.00008115,-0.00009582,-0.00005033,-0.00003797,0.00001
 140,-0.00009239,-0.00025970,0.00013274,0.00015934,-0.00012611,-0.00111
 077,-0.00059667,0.00004024,-0.00006279,-0.00002846,-0.00000063,0.00002
 445,0.00001253,0.00000411,-0.00000947,-0.00000162,-0.00006360,0.000083
 19,0.00005477,0.00001442,0.00018619,0.00017856,-0.00019942,-0.00050155
 ,0.00037104,0.00003416,-0.00005389,0.00001990,0.00003922,-0.00002178,0
 .00004663,-0.00003414,-0.00002396,-0.00000495,-0.00000264,0.00001924,0
 .00000054,0.00000254,-0.00000597,0.00001055,-0.00000952,0.00006961,0.0
 0001640,0.00059258,0.00165402,0.00000640,-0.00043161,-0.00094104,-0.00
 070591,-0.00013641,-0.00020476,-0.00017513,-0.00008793,-0.00020420,-0.
 00015382,-0.00000758,0.00004388,0.00006061,0.00000305,-0.00001640,-0.0
 0000734,-0.00000359,0.00000022,-0.00000482,-0.00000002,0.00000219,-0.0
 0000529,-0.00001511,-0.00000367,-0.00000873,-0.00000084,0.00000349,0.0
 0000278,0.00000738,-0.00000423,0.00000376,0.00000493,-0.00000150,0.000
 00089,0.00001393,-0.00000046,-0.00002047,0.00000192,-0.00000303,0.0000
 0566,-0.00000496,-0.00003241,-0.00005590,0.00003953,0.00000945,-0.0000
 9630,-0.00000336,-0.00000581,0.00000538,0.00002124,-0.00001720,0.00000
 014,-0.00000395,0.00000308,-0.00000191,0.00000397,-0.00000024,-0.00000
 021,-0.00000819,-0.00000435,0.00000349,-0.00000075,0.00000188,0.000001
 14,-0.00000993,-0.00001302,0.00010078,-0.00009113,-0.00002495,-0.00004
 667,-0.00000808,0.00000587,0.00000694,-0.00000715,0.00000415,0.0000123
 9,-0.00000462,-0.00000177,0.00002085,-0.00006405,0.00006236,0.00001258
 ,0.00000593,-0.00001282,-0.00000312,0.00000441,-0.00000421,-0.00000053
 ,0.00011514,-0.00011306,0.00008418,0.00043507,-0.00002219,-0.00002243,
 -0.00022759,0.00003212,-0.00002235,-0.00011707,0.00005885,0.00008635,0
 .00055664,-0.00081238,0.00007008,-0.00005852,-0.00000269,0.00019715,-0
 .00055394,0.00025810,-0.00146481,-0.00034373,-0.00066298,0.00042383,-0
 .00003372,0.00003097,0.00009238,0.00007917,0.00022162,0.01086312,-0.00
 038670,-0.00026213,0.00084383,-0.00116235,0.00019667,-0.00076823,-0.00
 037671,0.00003703,0.00032193,0.00000334,-0.00000531,-0.00000123,0.0000
 0036,-0.00000255,0.00000161,-0.00000193,0.00000319,0.00000198,0.000000
 52,-0.00000070,0.00000004,0.00000187,-0.00000097,-0.00000116,-0.000000
 06,-0.00000027,-0.00000069,0.00000079,-0.00000116,0.00000110,-0.000000
 67,0.00000078,0.00000039,-0.00000188,-0.00000386,-0.00000656,0.0000010
 9,-0.00000021,0.00000050,0.00000079,0.00000296,0.00000082,-0.00000162,
 0.00000035,0.00000037,-0.00023179,0.00021050,-0.00006975,-0.00003368,-
 0.00005302,0.00013160,0.00006063,-0.00003234,0.00000336,0.00001928,-0.
 00001218,0.00001848,0.00000146,-0.00005525,-0.00000018,0.00000033,0.00
 000946,0.00000876,-0.00000055,-0.00000578,0.00000247,-0.00002408,0.000
 00444,-0.00000743,0.00019692,-0.00045176,0.00017974,0.00001471,0.00025
 236,-0.00064383,0.00058122,-0.00100507,-0.00075545,-0.00000941,0.00103
 749,-0.00033942,-0.00003670,-0.00028676,-0.00017070,-0.00020477,0.0004
 0397,-0.00038531,0.00023294,0.00030296,0.00047177,-0.00000505,-0.00006
 741,-0.00011494,-0.00002552,-0.00002139,-0.00003324,0.00002130,-0.0000
 4629,0.00000906,-0.00000194,0.00011431,-0.00022240,-0.00006369,-0.0000
 3800,0.00003791,0.00002030,-0.00004466,0.00006007,-0.00004579,0.000039
 47,0.00011553,0.00529844,0.01409405,-0.07128168,-0.00507693,-0.0373146
 6,0.00350823,-0.01313573,-0.02675379,0.08128193,-0.00004884,0.00003130
 ,0.00003984,-0.00027321,0.00018923,-0.00018688,-0.00013766,0.00016543,
 -0.00013710,-0.00001430,0.00005755,0.00003896,-0.00006299,-0.00003483,
 -0.00006167,0.00002567,-0.00001016,-0.00003267,-0.00005911,0.00004936,
 0.00001383,0.00001200,0.00000082,0.00000253,0.00001467,0.00000537,0.00
 000264,0.00001233,0.00000093,-0.00000351,0.00015997,-0.00010146,0.0001
 1789,0.00004033,-0.00006629,0.00006261,0.00007254,-0.00063007,0.000319
 60,0.00010129,-0.00003825,0.00001535,0.00008683,-0.00001388,0.00003025
 ,-0.00014584,-0.00015074,-0.00016254,0.00001877,0.00004055,0.00003131,
 0.00007079,0.00004266,0.00000398,0.00023787,0.00025746,0.00010516,0.00
 054033,0.00094818,0.00016883,-0.00037831,-0.00030607,-0.00023022,-0.00
 007936,-0.00019945,-0.00017882,-0.00004979,-0.00007461,-0.00005984,-0.
 00001042,0.00000873,0.00000179,0.00000242,-0.00000915,-0.00000334,0.00
 000877,0.00000924,0.00000422,-0.00000269,-0.00000099,-0.00000804,-0.00
 005663,-0.00001849,-0.00001325,0.00000563,-0.00000775,-0.00001891,0.00
 000737,-0.00001090,0.00001017,0.00000948,0.00000831,0.00000341,0.00009
 473,-0.00006525,-0.00003183,0.00000227,-0.00005533,0.00008828,-0.00023
 338,-0.00076238,-0.00008521,-0.00002880,-0.00012686,-0.00012078,0.0001
 3228,0.00000870,-0.00006811,0.00002399,-0.00001580,0.00002530,-0.00001
 696,0.00002153,-0.00001165,0.00004160,0.00000381,-0.00000200,0.0001075
 4,-0.00005207,-0.00005531,-0.00003017,0.00003239,0.00001764,-0.0000624
 9,0.00033664,0.00001675,-0.00050862,-0.00002260,-0.00111291,-0.0000151
 7,0.00012535,-0.00007375,-0.00013438,0.00009105,0.00000203,-0.00011134
 ,0.00004050,0.00011007,0.00010650,-0.00014481,-0.00004214,-0.00001823,
 0.00006222,0.00002448,-0.00001907,-0.00000335,0.00001463,0.00011051,0.
 00023928,0.00033615,0.00090233,-0.00178510,0.00273500,0.00019829,0.000
 80811,-0.00078023,-0.00093491,0.00127117,-0.00029298,-0.00114976,0.001
 84539,-0.00175893,-0.00054682,0.00039284,-0.00062656,-0.00676383,-0.00
 265828,0.00191054,0.00021198,0.00020983,-0.00051436,-0.00004859,0.0000
 2047,-0.00002141,-0.00934880,0.01553108,-0.04033021,0.00016737,-0.0002
 0227,0.00010717,-0.00201964,-0.00020293,-0.00099587,-0.00272644,0.0004
 2340,-0.00133141,-0.00003215,-0.00008704,0.00004466,0.00000692,-0.0000
 0279,0.00000304,0.00000044,0.00002411,0.00000366,-0.00000048,0.0000065
 0,-0.00001054,0.00005841,-0.00000285,0.00004072,-0.00000257,-0.0000033
 8,-0.00000825,-0.00000176,-0.00000612,-0.00000754,-0.00001510,0.000008
 06,-0.00000102,0.00005328,-0.00006433,-0.00009253,-0.00000855,0.000014
 80,0.00000507,0.00000469,0.00001382,0.00001490,-0.00001013,-0.00000055
 ,0.00001121,0.00000754,-0.00002830,-0.00013643,-0.00044975,0.00013344,
 -0.00018093,-0.00000862,0.00000363,0.00001990,-0.00005258,0.00007439,0
 .00009835,-0.00000145,0.00003790,-0.00002665,-0.00000265,-0.00000086,0
 .00000264,0.00000441,-0.00001446,0.00001194,-0.00000187,-0.00000567,-0
 .00000795,-0.00026158,-0.00029471,0.00004934,0.00041485,0.00007818,-0.
 00015009,-0.00033750,0.00009214,-0.00013751,0.00006195,-0.00007123,-0.
 00009264,0.00002376,0.00003894,0.00000492,0.00006789,-0.00001445,0.000
 00807,-0.00001722,0.00003537,0.00009838,0.00004414,0.00001203,-0.00002
 775,-0.00001086,-0.00000760,0.00008845,-0.00003790,0.00001040,0.000019
 34,0.00142135,0.00073422,-0.00154682,-0.00064285,-0.00027656,0.0002108
 9,-0.00019873,-0.00040543,0.00052562,-0.00040672,0.00013782,0.00063489
 ,-0.10529139,0.01932428,-0.05618419,0.01511896,-0.00272183,0.01839219,
 0.01494028,-0.00837608,0.01460972,0.09807363,-0.00021208,0.00003339,0.
 00014030,0.00029974,0.00035476,0.00018405,0.00011774,0.00079353,0.0000
 9517,-0.00007223,0.00025878,0.00007918,-0.00006364,0.00010008,-0.00000
 674,0.00029053,0.00001456,-0.00020069,-0.00022515,0.00001440,0.0001895
 8,0.00001916,-0.00005673,-0.00003974,-0.00000861,-0.00004439,-0.000020
 56,-0.00001940,0.00000615,0.00000071,0.00007899,-0.00040209,0.00005194
 ,-0.00031092,-0.00042865,0.00007142,-0.00022213,-0.00049656,-0.0000140
 9,0.00009462,-0.00010540,-0.00020151,0.00013686,-0.00014872,-0.0000436
 6,0.00000911,0.00005054,-0.00005516,0.00002108,-0.00004007,0.00000398,
 -0.00002063,-0.00001011,0.00002251,0.00003955,-0.00011964,0.00005863,0
 .00031689,0.00097754,0.00019510,-0.00045010,-0.00198130,-0.00060363,-0
 .00006406,-0.00016145,-0.00019308,-0.00012215,-0.00016993,-0.00018823,
 0.00000963,0.00010420,0.00014751,0.00000132,-0.00002625,-0.00001146,-0
 .00001703,-0.00001493,-0.00001553,0.00001119,-0.00000426,-0.00002818,-
 0.00009172,0.00001170,-0.00000302,0.00001681,0.00001551,0.00000484,0.0
 0000749,0.00000941,0.00000557,0.00001528,-0.00001750,-0.00000390,-0.00
 005649,0.00001925,0.00001476,-0.00000736,0.00001810,-0.00005259,-0.000
 04918,0.00017591,-0.00004539,-0.00003569,-0.00000350,0.00006090,-0.000
 06315,-0.00000347,0.00003925,-0.00001974,0.00000736,-0.00000982,0.0000
 0642,-0.00000363,0.00000435,-0.00000815,0.00000030,-0.00000022,-0.0000
 2616,0.00001311,0.00001569,0.00000637,-0.00000680,-0.00000281,0.000096
 79,-0.00009797,0.00001837,0.00014000,0.00010070,0.00023997,0.00002372,
 -0.00004423,0.00003984,0.00007740,-0.00003575,0.00000288,0.00006921,-0
 .00000823,-0.00005351,-0.00011198,0.00008442,0.00001450,-0.00000075,-0
 .00002097,0.00000158,0.00002424,-0.00000133,-0.00001686,0.00006267,-0.
 00004898,-0.00012117,-0.00038227,0.00010022,-0.00077652,0.00010196,-0.
 00012563,0.00023279,0.00029544,-0.00026706,0.00013508,0.00018465,-0.00
 052337,-0.00008705,0.00001350,-0.00000518,0.00010439,0.00111840,0.0017
 8090,0.00016242,0.00038654,0.00028216,-0.00047033,0.00000033,0.0000529
 7,-0.00007430,0.00447481,0.00514372,0.01119370,-0.00023049,0.00015494,
 -0.00026018,-0.00147629,-0.00121460,0.00102884,0.00013154,0.00056337,-
 0.00112155,0.00000638,0.00003213,-0.00001354,-0.00001079,0.00000435,-0
 .00000871,0.00000102,-0.00000943,-0.00000257,0.00000310,-0.00000313,0.
 00000646,-0.00003524,-0.00000512,-0.00002269,0.00000345,0.00000454,0.0
 0000360,0.00000051,0.00000246,0.00000363,0.00000733,-0.00000339,0.0000
 0125,-0.00002880,0.00002733,0.00004159,0.00000373,-0.00000717,-0.00000
 269,-0.00000091,-0.00000559,-0.00000548,0.00000716,0.00000082,-0.00000
 712,-0.00004657,0.00010762,-0.00000444,0.00010010,-0.00032866,0.000269
 43,0.00007800,-0.00002997,-0.00004102,0.00000483,-0.00001367,-0.000013
 97,0.00011922,0.00005412,-0.00019030,-0.00003276,-0.00002450,0.0000145
 1,-0.00000108,-0.00000132,0.00003283,0.00000650,0.00001816,0.00002827,
 -0.00012947,0.00027123,-0.00029117,-0.00008564,0.00006373,0.00039215,0
 .00008933,0.00002494,-0.00018029,0.00001368,-0.00021049,-0.00008990,0.
 00008652,0.00018853,-0.00003464,0.00004478,-0.00003037,0.00016234,-0.0
 0011292,-0.00023185,-0.00025469,-0.00001225,0.00003688,0.00006565,0.00
 001867,0.00001433,-0.00000287,0.00000661,0.00004565,0.00000397,-0.0001
 3782,-0.00037480,0.00046165,0.00011872,0.00007760,-0.00007913,-0.00003
 090,0.00018111,-0.00017703,0.00007554,0.00003582,-0.00013751,0.0231817
 7,-0.08989695,0.05490794,-0.00289551,0.01396158,-0.02222481,-0.0008442
 0,-0.04038247,0.05205861,-0.02390453,0.11180262,0.00019680,0.00002517,
 -0.00008716,-0.00082809,0.00028970,-0.00058140,0.00001159,-0.00076421,
 -0.00054203,0.00010414,-0.00019687,-0.00007582,0.00000360,-0.00005339,
 -0.00009880,-0.00033275,-0.00000859,0.00023312,0.00023525,-0.00002277,
 -0.00022831,-0.00002490,0.00003329,0.00003642,0.00000709,0.00004168,0.
 00002555,0.00001949,-0.00001338,-0.00001637,-0.00001028,0.00026415,0.0
 0022974,0.00019179,0.00036510,0.00016452,0.00001117,-0.00147494,0.0009
 5694,-0.00001105,-0.00013708,0.00019222,-0.00000538,0.00003635,0.00009
 092,-0.00010508,-0.00010779,-0.00005249,-0.00000472,0.00005637,0.00001
 169,0.00004024,0.00001699,0.00000191,0.00007240,0.00023435,0.00005740,
 0.00087096,0.00222108,0.00033733,-0.00042221,-0.00037979,-0.00077936,-
 0.00011962,-0.00027454,-0.00022183,-0.00013856,-0.00023566,-0.00016019
 ,-0.00002507,0.00001643,0.00001242,0.00000849,-0.00001725,-0.00000668,
 0.00000390,0.00001199,-0.00000098,-0.00001284,0.00000983,0.00001451,0.
 00001411,-0.00000740,-0.00002632,-0.00001263,-0.00000822,-0.00000177,0
 .00000616,-0.00001369,0.00000745,-0.00000020,0.00000713,0.00000504,0.0
 0008227,-0.00004057,-0.00006916,0.00000747,-0.00003074,0.00005517,-0.0
 0014502,-0.00045621,-0.00016817,0.00004508,-0.00009664,-0.00030460,0.0
 0007745,0.00001506,0.00000295,0.00004460,-0.00003087,0.00001166,-0.000
 01522,0.00001740,-0.00000884,0.00003136,0.00000099,-0.00000049,0.00006
 063,-0.00003561,-0.00003192,-0.00002317,0.00002556,0.00001107,-0.00004
 631,0.00014862,0.00021815,-0.00040447,-0.00004105,-0.00073643,-0.00002
 361,0.00007749,-0.00002319,-0.00007940,0.00005378,0.00003266,-0.000061
 30,0.00000966,0.00010754,-0.00016803,0.00019376,0.00008513,0.00002799,
 -0.00002404,-0.00000021,-0.00001058,-0.00000903,-0.00000506,0.00051702
 ,-0.00030192,0.00053355,0.00094235,-0.00119285,0.00158997,-0.00015575,
 0.00052187,-0.00048608,-0.00072171,0.00089453,-0.00004537,0.00005907,0
 .00100296,-0.00133645,-0.00018850,-0.00015996,0.00018910,-0.00543123,-
 0.00126122,0.00170137,-0.00108092,-0.00025535,0.00079675,-0.00001803,-
 0.00011931,0.00013374,-0.00965496,0.01203971,-0.02213884,0.00043859,-0
 .00025647,0.00049052,0.00350490,0.00210486,-0.00242186,-0.00076622,-0.
 00143575,0.00156949,-0.00001077,-0.00005474,0.00002173,0.00000957,-0.0
 0000640,0.00000301,-0.00000286,0.00001814,0.00000528,-0.00000010,0.000
 00196,-0.00000523,0.00003260,-0.00000505,0.00001724,-0.00000120,-0.000
 00223,-0.00000586,0.00000091,-0.00000559,-0.00000108,-0.00000846,0.000
 00593,0.00000052,0.00002155,-0.00003844,-0.00006081,-0.00000099,0.0000
 0637,0.00000434,0.00000384,0.00001524,0.00000978,-0.00000992,0.0000001
 7,0.00000608,-0.00125505,0.00117015,-0.00051417,-0.00005022,0.00002005
 ,0.00072219,0.00022078,-0.00019166,-0.00004131,0.00019204,-0.00011527,
 0.00000038,-0.00003862,-0.00006109,0.00006754,0.00001567,0.00002078,0.
 00000075,-0.00000048,-0.00001255,-0.00000469,-0.00002443,-0.00000113,-
 0.00001712,0.00007323,-0.00058373,0.00022312,0.00005515,0.00018697,-0.
 00057875,0.00009051,-0.00063762,0.00027762,-0.00041307,0.00018342,0.00
 025655,-0.00007425,-0.00007900,0.00002685,-0.00000218,0.00018950,-0.00
 026309,0.00012632,0.00006473,0.00047156,0.00005354,0.00000786,-0.00012
 164,-0.00002900,-0.00000869,0.00001726,-0.00000484,0.00003635,0.000013
 59,0.00042505,0.00055000,-0.00131722,-0.00029792,-0.00014723,0.0002262
 0,0.00001335,-0.00032559,0.00043343,-0.00022139,0.00011612,0.00051747,
 -0.06656850,0.05074124,-0.21498066,0.00735683,-0.01090237,-0.07613555,
 0.00703013,0.04307839,-0.02076119,0.06670505,-0.09450767,0.33223603\\-
 0.00000062,0.00000046,-0.00000005,0.00000282,0.00000046,-0.00000090,0.
 00000284,-0.00000087,-0.00000299,-0.00000033,-0.00000014,-0.00000098,-
 0.00000175,0.00000030,-0.00000487,-0.00000024,-0.00000202,-0.00000301,
 -0.00000060,-0.00000145,-0.00000014,0.00000057,0.00000127,-0.00000134,
 0.00000037,-0.00000130,-0.00000217,0.00000078,0.00000020,0.00000211,-0
 .00000061,0.00000161,0.00000368,-0.00000025,0.00000052,-0.00000211,0.0
 0000015,0.00000165,-0.00000279,0.00000101,0.00000208,-0.00000189,0.000
 00213,0.00000093,-0.00000188,0.00000009,0.00000161,-0.00000021,-0.0000
 0025,-0.00000074,-0.00000175,-0.00000020,-0.00000009,-0.00000191,-0.00
 000448,0.00000052,-0.00000103,-0.00000037,0.00000118,-0.00000089,-0.00
 000038,-0.00000141,-0.00000139,-0.00000071,0.00000067,0.00000160,0.000
 00114,0.00000229,-0.00000138,0.00000156,0.00000073,-0.00000100,0.00000
 083,0.00000185,-0.00000169,0.00000128,0.00000175,-0.00000155,0.0000014
 5,0.00000203,-0.00000109,0.00000618,0.00000085,-0.00000479,-0.00000216
 ,0.00000064,-0.00000119,-0.00000405,-0.00000095,-0.00000133,0.00000089
 ,0.00000087,-0.00000150,-0.00000120,0.00000281,-0.00000038,0.00000991,
 0.00000010,0.00000037,0.00000075,-0.00000740,0.00000193,-0.00000029,0.
 00000476,-0.00000347,0.00000228,-0.00000019,-0.00000229,-0.00000170,0.
 00000307,0.00000058,-0.00000836,-0.00000016,0.00000190,0.00000005,-0.0
 0000014,0.00000078,0.00000231,-0.00000244,0.00000281,0.00000001,0.0000
 0171,0.00000542,-0.00000395,0.00000342,0.00000037,0.00000023,-0.000001
 47,0.00000006,0.00000138,-0.00000208,-0.00000134,-0.00000074,-0.000000
 35,0.00000061,-0.00000030,0.00000147,0.00000139,0.00000136,-0.00000120
 ,0.00000306,0.00000059,0.00000044,-0.00000429,0.00000056,0.00000089,0.
 00000024,-0.00000170,-0.00000217,-0.00000071,0.00000237,0.00000156,0.0
 0000026,-0.00000612,-0.00000543,0.00000219,0.00000160,-0.00000196,0.00
 000181,-0.00000072,0.00000275,0.00000153,-0.00000047,-0.00000090,0.000
 00284,-0.00000115,-0.00000220,0.00000249,0.00000042,-0.00000040,0.0000
 0159,-0.00000130,0.00000049,0.00000180,-0.00000031,-0.00000034,-0.0000
 0013,0.00000135,0.00000038,-0.00000008,-0.00000078,0.00000208,0.000003
 08,0.00000032,0.00000057,0.00000159,-0.00000137,-0.00000300,-0.0000002
 1,-0.00000077,-0.00000139,0.00000060,0.00000006,-0.00000094,-0.0000008
 3,-0.00000067,-0.00000153,-0.00000015,0.00000029,0.00000016,0.00000047
 ,-0.00000043,-0.00000060,0.00000158,-0.00000070,-0.00000078,0.00000098
 ,-0.00000026,-0.00000008,0.00000090,0.00000140,0.00000073,0.00000084,0
 .00000041,0.00000138,0.00000075,0.00000084,0.00000145,0.00000083,0.000
 00077,0.00000134,0.00000165,0.00000354,0.00000388,-0.00000141,0.000000
 42,0.00000210,0.00000100,0.00000065,0.00000134,0.00000086,0.00000378,-
 0.00000056,0.00000413,-0.00000008,-0.00000036,-0.00000188,0.00000011,-
 0.00000052,-0.00000274,-0.00000036,-0.00000037,-0.00000231,-0.00000033
 ,-0.00000027,-0.00000201,-0.00000103,-0.00000872,-0.00000379,-0.000003
 99,0.00000772,0.00000102,-0.00000307,-0.00000475,-0.00000196,-0.000000
 78,-0.00000171,-0.00000045,-0.00000062,-0.00000026,-0.00000154,-0.0000
 0073,-0.00000161,-0.00000072,0.00000374,-0.00000316,0.00000217,-0.0000
 0172,-0.00000269,0.00000016,-0.00000146,-0.00000165,0.00000085,-0.0000
 0166,-0.00000178,0.00000121,0.00000054,0.00000126,0.00000252,-0.000000
 40,0.00000038,0.00000255,0.00000058,0.00000078,0.00000279,0.00000056,0
 .00000108,0.00000244,-0.00000039,-0.00000271,0.00000177,-0.00000063,0.
 00000019,0.00000047,-0.00000016,0.00000129,0.00000154,0.00000046,0.000
 00122,0.00000034\\\@


 BE CAREFUL NOT TO BECOME TOO GOOD OF A SONGBIRD OR 
 THEY'LL THROW YOU INTO A CAGE.

                                    -- SNOOPY TO WOODSTOCK
 Job cpu time:       4 days 22 hours 27 minutes  3.6 seconds.
 Elapsed time:       0 days  4 hours  0 minutes  2.8 seconds.
 File lengths (MBytes):  RWF=   9715 Int=      0 D2E=      0 Chk=     86 Scr=      1
 Normal termination of Gaussian 16 at Fri May 31 03:00:01 2019.
