 Entering Gaussian System, Link 0=g16
 Input=clay_new-glu_gluC6-ACDR-Na2_1Me2O-bisCF3-ts-b3lyp_d3bj-631gd-pcm_thf.gjf
 Output=clay_new-glu_gluC6-ACDR-Na2_1Me2O-bisCF3-ts-b3lyp_d3bj-631gd-pcm_thf.out
 Initial command:
 /home/ekwan/sw/g16/l1.exe "/scratch/users/ekwan/clay_new-glu_gluC6-ACDR-Na2_1Me2O-bisCF3-ts-b3lyp_d3bj-631gd-pcm_thf/Gau-32965.inp" -scrdir="/scratch/users/ekwan/clay_new-glu_gluC6-ACDR-Na2_1Me2O-bisCF3-ts-b3lyp_d3bj-631gd-pcm_thf/"
 Entering Link 1 = /home/ekwan/sw/g16/l1.exe PID=     32966.
  
 Copyright (c) 1988,1990,1992,1993,1995,1998,2003,2009,2016,
            Gaussian, Inc.  All Rights Reserved.
  
 This is part of the Gaussian(R) 16 program.  It is based on
 the Gaussian(R) 09 system (copyright 2009, Gaussian, Inc.),
 the Gaussian(R) 03 system (copyright 2003, Gaussian, Inc.),
 the Gaussian(R) 98 system (copyright 1998, Gaussian, Inc.),
 the Gaussian(R) 94 system (copyright 1995, Gaussian, Inc.),
 the Gaussian 92(TM) system (copyright 1992, Gaussian, Inc.),
 the Gaussian 90(TM) system (copyright 1990, Gaussian, Inc.),
 the Gaussian 88(TM) system (copyright 1988, Gaussian, Inc.),
 the Gaussian 86(TM) system (copyright 1986, Carnegie Mellon
 University), and the Gaussian 82(TM) system (copyright 1983,
 Carnegie Mellon University). Gaussian is a federally registered
 trademark of Gaussian, Inc.
  
 This software contains proprietary and confidential information,
 including trade secrets, belonging to Gaussian, Inc.
  
 This software is provided under written license and may be
 used, copied, transmitted, or stored only in accord with that
 written license.
  
 The following legend is applicable only to US Government
 contracts under FAR:
  
                    RESTRICTED RIGHTS LEGEND
  
 Use, reproduction and disclosure by the US Government is
 subject to restrictions as set forth in subparagraphs (a)
 and (c) of the Commercial Computer Software - Restricted
 Rights clause in FAR 52.227-19.
  
 Gaussian, Inc.
 340 Quinnipiac St., Bldg. 40, Wallingford CT 06492
  
  
 ---------------------------------------------------------------
 Warning -- This program may not be used in any manner that
 competes with the business of Gaussian, Inc. or will provide
 assistance to any competitor of Gaussian, Inc.  The licensee
 of this program is prohibited from giving any competitor of
 Gaussian, Inc. access to this program.  By using this program,
 the user acknowledges that Gaussian, Inc. is engaged in the
 business of creating and licensing software in the field of
 computational chemistry and represents and warrants to the
 licensee that it is not a competitor of Gaussian, Inc. and that
 it will not use this program in any manner prohibited above.
 ---------------------------------------------------------------
  

 Cite this work as:
 Gaussian 16, Revision A.03,
 M. J. Frisch, G. W. Trucks, H. B. Schlegel, G. E. Scuseria, 
 M. A. Robb, J. R. Cheeseman, G. Scalmani, V. Barone, 
 G. A. Petersson, H. Nakatsuji, X. Li, M. Caricato, A. V. Marenich, 
 J. Bloino, B. G. Janesko, R. Gomperts, B. Mennucci, H. P. Hratchian, 
 J. V. Ortiz, A. F. Izmaylov, J. L. Sonnenberg, D. Williams-Young, 
 F. Ding, F. Lipparini, F. Egidi, J. Goings, B. Peng, A. Petrone, 
 T. Henderson, D. Ranasinghe, V. G. Zakrzewski, J. Gao, N. Rega, 
 G. Zheng, W. Liang, M. Hada, M. Ehara, K. Toyota, R. Fukuda, 
 J. Hasegawa, M. Ishida, T. Nakajima, Y. Honda, O. Kitao, H. Nakai, 
 T. Vreven, K. Throssell, J. A. Montgomery, Jr., J. E. Peralta, 
 F. Ogliaro, M. J. Bearpark, J. J. Heyd, E. N. Brothers, K. N. Kudin, 
 V. N. Staroverov, T. A. Keith, R. Kobayashi, J. Normand, 
 K. Raghavachari, A. P. Rendell, J. C. Burant, S. S. Iyengar, 
 J. Tomasi, M. Cossi, J. M. Millam, M. Klene, C. Adamo, R. Cammi, 
 J. W. Ochterski, R. L. Martin, K. Morokuma, O. Farkas, 
 J. B. Foresman, and D. J. Fox, Gaussian, Inc., Wallingford CT, 2016.
 
 ******************************************
 Gaussian 16:  AS64L-G16RevA.03 25-Dec-2016
                31-May-2019 
 ******************************************
 %mem=48GB
 %nprocshared=32
 Will use up to   32 processors via shared memory.
 ----------------------------------------------------------------------
 #p opt=(ts,noeigentest,calcfc,maxstep=5,modredundant,recalc=30) freq=n
 oraman b3lyp 6-31g* pop=none scrf=(solvent=tetrahydrofuran,pcm) empiri
 caldispersion=gd3bj
 ----------------------------------------------------------------------
 1/5=1,8=5,10=4,11=1,18=120,26=3,38=1,71=30/1,3;
 2/9=110,12=2,17=6,18=5,40=1/2;
 3/5=1,6=6,7=1,11=2,25=1,30=1,70=2201,71=2,72=20,74=-5,124=41,140=1/1,2,3;
 4//1;
 5/5=2,38=5,53=20/2;
 8/6=4,10=90,11=11/1;
 11/6=1,8=1,9=11,15=111,16=1/1,2,10;
 10/6=1,13=1/2;
 7/10=1,18=20,25=1/1,2,3,16;
 1/5=1,8=5,10=4,11=1,18=20,26=3,71=30/3(2);
 2/9=110/2;
 99//99;
 2/9=110/2;
 3/5=1,6=6,7=1,11=2,25=1,30=1,70=2205,71=1,72=20,74=-5,124=41/1,2,3;
 4/5=5,16=3,69=1/1;
 5/5=2,38=5,53=20/2;
 7//1,2,3,16;
 1/5=1,8=5,11=1,18=20,26=3,71=30/3(-5);
 2/9=110/2;
 99/9=1/99;
 Leave Link    1 at Fri May 31 18:19:36 2019, MaxMem=  6442450944 cpu:               5.8 elap:               0.2
 (Enter /home/ekwan/sw/g16/l101.exe)
 -----
 title
 -----
 Symbolic Z-matrix:
 Charge =  0 Multiplicity = 1
 C                    -2.9713   -0.011    -1.87356 
 C                    -3.81388  -0.72748  -0.81683 
 C                    -3.6577   -2.25022  -0.93498 
 C                    -1.47342  -2.05587  -1.93652 
 C                    -1.5289   -0.52583  -1.89354 
 H                    -4.10316  -2.76129  -0.07446 
 H                    -3.44564  -0.44432   0.17897 
 H                    -3.41061  -0.20579  -2.86047 
 H                    -1.88038  -2.39238  -2.89842 
 H                    -1.00556  -0.1816   -0.9892 
 O                    -2.28266  -2.59445  -0.86443 
 O                    -4.26555  -2.66975  -2.12295 
 O                    -5.15432  -0.29584  -0.96968 
 O                    -2.93371   1.39168  -1.62884 
 O                    -0.8548   -0.05695  -3.05556 
 C                    -0.05774  -2.62447  -1.73765 
 H                     0.55827  -2.17193  -2.54248 
 H                    -0.12837  -3.70681  -1.98858 
 O                     0.44683  -2.40744  -0.47935 
 C                    -6.02322  -0.70551   0.07392 
 H                    -6.20777  -1.7881    0.05535 
 H                    -5.62674  -0.42628   1.05864 
 H                    -6.97168  -0.18756  -0.08684 
 C                    -3.89946   2.14965  -2.34404 
 H                    -3.82949   1.95417  -3.4235 
 H                    -4.91527   1.92973  -2.00277 
 H                    -3.67131   3.2018   -2.15899 
 C                    -0.1386    1.15644  -2.88003 
 H                    -0.80639   2.00541  -2.70708 
 H                     0.56103   1.07968  -2.0404 
 H                     0.42748   1.32214  -3.80174 
 C                     4.8161   -0.76149   0.59197 
 C                     3.59192  -1.66152   0.35467 
 C                     2.39689  -0.80146   0.10388 
 C                     3.72635   0.6042   -1.34401 
 C                     5.01481   0.18803  -0.6039 
 H                     1.39259  -1.11115   0.3562 
 H                     3.76753  -2.2108   -0.58406 
 H                     4.64113  -0.16854   1.49548 
 H                     3.6717    1.69182  -1.34472 
 H                     5.65442  -0.3558   -1.31393 
 O                     2.46998   0.20831  -0.68314 
 O                     1.14319   0.80838   4.18854 
 O                     3.3951   -2.53785   1.43006 
 O                     5.9948   -1.53623   0.70717 
 O                     5.6308    1.41113  -0.23718 
 C                     3.6313    0.08889  -2.76744 
 H                     4.47758   0.49675  -3.3418 
 H                     2.70078   0.44885  -3.22647 
 O                     3.66125  -1.32108  -2.72926 
 S                     1.09665   0.29517   2.80611 
 O                     0.32596  -0.9779    2.65834 
 O                     2.44356   0.24561   2.14143 
 C                     0.15771   1.48096   1.83019 
 C                     0.80543   2.29443   0.90776 
 C                    -1.22221   1.5672    2.01183 
 C                     0.05221   3.1754    0.12958 
 H                     1.87706   2.21473   0.78614 
 C                    -1.95668   2.47218   1.24923 
 H                    -1.71171   0.92741   2.73719 
 C                    -1.32629   3.27376   0.29799 
 H                    -1.90696   3.94906  -0.31556 
 C                     2.85549  -3.80632   1.03444 
 H                     1.92503  -3.665     0.47126 
 H                     3.58742  -4.35724   0.4257 
 H                     2.66926  -4.35814   1.95847 
 C                     6.34577  -1.879     2.04572 
 H                     6.51558  -0.97637   2.6501 
 H                     5.57015  -2.48737   2.51781 
 H                     7.27754  -2.44603   1.98284 
 C                     6.99444   1.29857   0.15243 
 H                     7.10482   0.82509   1.1345 
 H                     7.56998   0.72003  -0.58272 
 H                     7.38345   2.31824   0.20021 
 C                     3.39913  -1.91517  -3.9927 
 H                     3.44462  -2.99605  -3.84895 
 H                     2.40009  -1.63854  -4.35639 
 H                     4.1495   -1.61318  -4.73678 
 C                    -4.30724  -4.08623  -2.26158 
 H                    -4.89283  -4.29784  -3.15826 
 H                    -3.30215  -4.50887  -2.37231 
 H                    -4.79341  -4.54889  -1.39077 
 Na                   -0.97319  -2.1058    1.16523 
 O                    -3.00165  -2.5263    2.23897 
 C                    -3.29352  -3.90531   2.44132 
 H                    -4.37668  -4.08143   2.39787 
 H                    -2.80603  -4.45985   1.63644 
 H                    -2.91154  -4.25089   3.41129 
 C                    -3.62076  -1.69543   3.21361 
 H                    -3.21611  -1.89167   4.21534 
 H                    -3.42181  -0.66127   2.93197 
 H                    -4.70677  -1.859     3.22514 
 C                    -3.43271   2.60268   1.49797 
 F                    -4.02354   1.38757   1.64729 
 F                    -4.0762    3.24684   0.50806 
 F                    -3.67844   3.28261   2.64208 
 C                     0.75255   4.02982  -0.88959 
 F                     1.74747   3.34487  -1.51282 
 F                     1.32451   5.1197   -0.33494 
 F                    -0.09037   4.46465  -1.85062 
 
 Add virtual bond connecting atoms H37        and O19        Dist= 3.42D+00.
 Add virtual bond connecting atoms O84        and Na83       Dist= 4.41D+00.
 Add virtual bond connecting atoms H91        and H60        Dist= 4.43D+00.
 Add virtual bond connecting atoms H91        and F94        Dist= 4.71D+00.
 The following ModRedundant input section has been read:
 
 ITRead=  0  0  0  0  0  0  0  0  0  0  0  0  0  0  0  0  0  0  0  0
 ITRead=  0  0  0  0  0  0  0  0  0  0  0  0  0  0  0  0  0  0  0  0
 ITRead=  0  0  0  0  0  0  0  0  0  0  0  0  0  0  0  0  0  0  0  0
 ITRead=  0  0  0  0  0  0  0  0  0  0  0  0  0  0  0  0  0  0  0  0
 ITRead=  0  0  0  0  0  0  0  0  0  0  0  0  0  0  0  0  0  0  0  0
 MicOpt= -1 -1 -1 -1 -1 -1 -1 -1 -1 -1 -1 -1 -1 -1 -1 -1 -1 -1 -1 -1
 MicOpt= -1 -1 -1 -1 -1 -1 -1 -1 -1 -1 -1 -1 -1 -1 -1 -1 -1 -1 -1 -1
 MicOpt= -1 -1 -1 -1 -1 -1 -1 -1 -1 -1 -1 -1 -1 -1 -1 -1 -1 -1 -1 -1
 MicOpt= -1 -1 -1 -1 -1 -1 -1 -1 -1 -1 -1 -1 -1 -1 -1 -1 -1 -1 -1 -1
 MicOpt= -1 -1 -1 -1 -1 -1 -1 -1 -1 -1 -1 -1 -1 -1 -1 -1 -1 -1 -1 -1
 NAtoms=    100 NQM=      100 NQMF=       0 NMMI=      0 NMMIF=      0
                NMic=       0 NMicF=      0.
                    Isotopes and Nuclear Properties:
 (Nuclear quadrupole moments (NQMom) in fm**2, nuclear magnetic moments (NMagM)
  in nuclear magnetons)

  Atom         1           2           3           4           5           6           7           8           9          10
 IAtWgt=          12          12          12          12          12           1           1           1           1           1
 AtmWgt=  12.0000000  12.0000000  12.0000000  12.0000000  12.0000000   1.0078250   1.0078250   1.0078250   1.0078250   1.0078250
 NucSpn=           0           0           0           0           0           1           1           1           1           1
 AtZEff=   0.0000000   0.0000000   0.0000000   0.0000000   0.0000000   0.0000000   0.0000000   0.0000000   0.0000000   0.0000000
 NQMom=    0.0000000   0.0000000   0.0000000   0.0000000   0.0000000   0.0000000   0.0000000   0.0000000   0.0000000   0.0000000
 NMagM=    0.0000000   0.0000000   0.0000000   0.0000000   0.0000000   2.7928460   2.7928460   2.7928460   2.7928460   2.7928460
 AtZNuc=   6.0000000   6.0000000   6.0000000   6.0000000   6.0000000   1.0000000   1.0000000   1.0000000   1.0000000   1.0000000

  Atom        11          12          13          14          15          16          17          18          19          20
 IAtWgt=          16          16          16          16          16          12           1           1          16          12
 AtmWgt=  15.9949146  15.9949146  15.9949146  15.9949146  15.9949146  12.0000000   1.0078250   1.0078250  15.9949146  12.0000000
 NucSpn=           0           0           0           0           0           0           1           1           0           0
 AtZEff=   0.0000000   0.0000000   0.0000000   0.0000000   0.0000000   0.0000000   0.0000000   0.0000000   0.0000000   0.0000000
 NQMom=    0.0000000   0.0000000   0.0000000   0.0000000   0.0000000   0.0000000   0.0000000   0.0000000   0.0000000   0.0000000
 NMagM=    0.0000000   0.0000000   0.0000000   0.0000000   0.0000000   0.0000000   2.7928460   2.7928460   0.0000000   0.0000000
 AtZNuc=   8.0000000   8.0000000   8.0000000   8.0000000   8.0000000   6.0000000   1.0000000   1.0000000   8.0000000   6.0000000

  Atom        21          22          23          24          25          26          27          28          29          30
 IAtWgt=           1           1           1          12           1           1           1          12           1           1
 AtmWgt=   1.0078250   1.0078250   1.0078250  12.0000000   1.0078250   1.0078250   1.0078250  12.0000000   1.0078250   1.0078250
 NucSpn=           1           1           1           0           1           1           1           0           1           1
 AtZEff=   0.0000000   0.0000000   0.0000000   0.0000000   0.0000000   0.0000000   0.0000000   0.0000000   0.0000000   0.0000000
 NQMom=    0.0000000   0.0000000   0.0000000   0.0000000   0.0000000   0.0000000   0.0000000   0.0000000   0.0000000   0.0000000
 NMagM=    2.7928460   2.7928460   2.7928460   0.0000000   2.7928460   2.7928460   2.7928460   0.0000000   2.7928460   2.7928460
 AtZNuc=   1.0000000   1.0000000   1.0000000   6.0000000   1.0000000   1.0000000   1.0000000   6.0000000   1.0000000   1.0000000

  Atom        31          32          33          34          35          36          37          38          39          40
 IAtWgt=           1          12          12          12          12          12           1           1           1           1
 AtmWgt=   1.0078250  12.0000000  12.0000000  12.0000000  12.0000000  12.0000000   1.0078250   1.0078250   1.0078250   1.0078250
 NucSpn=           1           0           0           0           0           0           1           1           1           1
 AtZEff=   0.0000000   0.0000000   0.0000000   0.0000000   0.0000000   0.0000000   0.0000000   0.0000000   0.0000000   0.0000000
 NQMom=    0.0000000   0.0000000   0.0000000   0.0000000   0.0000000   0.0000000   0.0000000   0.0000000   0.0000000   0.0000000
 NMagM=    2.7928460   0.0000000   0.0000000   0.0000000   0.0000000   0.0000000   2.7928460   2.7928460   2.7928460   2.7928460
 AtZNuc=   1.0000000   6.0000000   6.0000000   6.0000000   6.0000000   6.0000000   1.0000000   1.0000000   1.0000000   1.0000000

  Atom        41          42          43          44          45          46          47          48          49          50
 IAtWgt=           1          16          16          16          16          16          12           1           1          16
 AtmWgt=   1.0078250  15.9949146  15.9949146  15.9949146  15.9949146  15.9949146  12.0000000   1.0078250   1.0078250  15.9949146
 NucSpn=           1           0           0           0           0           0           0           1           1           0
 AtZEff=   0.0000000   0.0000000   0.0000000   0.0000000   0.0000000   0.0000000   0.0000000   0.0000000   0.0000000   0.0000000
 NQMom=    0.0000000   0.0000000   0.0000000   0.0000000   0.0000000   0.0000000   0.0000000   0.0000000   0.0000000   0.0000000
 NMagM=    2.7928460   0.0000000   0.0000000   0.0000000   0.0000000   0.0000000   0.0000000   2.7928460   2.7928460   0.0000000
 AtZNuc=   1.0000000   8.0000000   8.0000000   8.0000000   8.0000000   8.0000000   6.0000000   1.0000000   1.0000000   8.0000000

  Atom        51          52          53          54          55          56          57          58          59          60
 IAtWgt=          32          16          16          12          12          12          12           1          12           1
 AtmWgt=  31.9720718  15.9949146  15.9949146  12.0000000  12.0000000  12.0000000  12.0000000   1.0078250  12.0000000   1.0078250
 NucSpn=           0           0           0           0           0           0           0           1           0           1
 AtZEff=   0.0000000   0.0000000   0.0000000   0.0000000   0.0000000   0.0000000   0.0000000   0.0000000   0.0000000   0.0000000
 NQMom=    0.0000000   0.0000000   0.0000000   0.0000000   0.0000000   0.0000000   0.0000000   0.0000000   0.0000000   0.0000000
 NMagM=    0.0000000   0.0000000   0.0000000   0.0000000   0.0000000   0.0000000   0.0000000   2.7928460   0.0000000   2.7928460
 AtZNuc=  16.0000000   8.0000000   8.0000000   6.0000000   6.0000000   6.0000000   6.0000000   1.0000000   6.0000000   1.0000000

  Atom        61          62          63          64          65          66          67          68          69          70
 IAtWgt=          12           1          12           1           1           1          12           1           1           1
 AtmWgt=  12.0000000   1.0078250  12.0000000   1.0078250   1.0078250   1.0078250  12.0000000   1.0078250   1.0078250   1.0078250
 NucSpn=           0           1           0           1           1           1           0           1           1           1
 AtZEff=   0.0000000   0.0000000   0.0000000   0.0000000   0.0000000   0.0000000   0.0000000   0.0000000   0.0000000   0.0000000
 NQMom=    0.0000000   0.0000000   0.0000000   0.0000000   0.0000000   0.0000000   0.0000000   0.0000000   0.0000000   0.0000000
 NMagM=    0.0000000   2.7928460   0.0000000   2.7928460   2.7928460   2.7928460   0.0000000   2.7928460   2.7928460   2.7928460
 AtZNuc=   6.0000000   1.0000000   6.0000000   1.0000000   1.0000000   1.0000000   6.0000000   1.0000000   1.0000000   1.0000000

  Atom        71          72          73          74          75          76          77          78          79          80
 IAtWgt=          12           1           1           1          12           1           1           1          12           1
 AtmWgt=  12.0000000   1.0078250   1.0078250   1.0078250  12.0000000   1.0078250   1.0078250   1.0078250  12.0000000   1.0078250
 NucSpn=           0           1           1           1           0           1           1           1           0           1
 AtZEff=   0.0000000   0.0000000   0.0000000   0.0000000   0.0000000   0.0000000   0.0000000   0.0000000   0.0000000   0.0000000
 NQMom=    0.0000000   0.0000000   0.0000000   0.0000000   0.0000000   0.0000000   0.0000000   0.0000000   0.0000000   0.0000000
 NMagM=    0.0000000   2.7928460   2.7928460   2.7928460   0.0000000   2.7928460   2.7928460   2.7928460   0.0000000   2.7928460
 AtZNuc=   6.0000000   1.0000000   1.0000000   1.0000000   6.0000000   1.0000000   1.0000000   1.0000000   6.0000000   1.0000000

  Atom        81          82          83          84          85          86          87          88          89          90
 IAtWgt=           1           1          23          16          12           1           1           1          12           1
 AtmWgt=   1.0078250   1.0078250  22.9897697  15.9949146  12.0000000   1.0078250   1.0078250   1.0078250  12.0000000   1.0078250
 NucSpn=           1           1           3           0           0           1           1           1           0           1
 AtZEff=   0.0000000   0.0000000   0.0000000   0.0000000   0.0000000   0.0000000   0.0000000   0.0000000   0.0000000   0.0000000
 NQMom=    0.0000000   0.0000000  10.4000000   0.0000000   0.0000000   0.0000000   0.0000000   0.0000000   0.0000000   0.0000000
 NMagM=    2.7928460   2.7928460   2.2175200   0.0000000   0.0000000   2.7928460   2.7928460   2.7928460   0.0000000   2.7928460
 AtZNuc=   1.0000000   1.0000000  11.0000000   8.0000000   6.0000000   1.0000000   1.0000000   1.0000000   6.0000000   1.0000000

  Atom        91          92          93          94          95          96          97          98          99         100
 IAtWgt=           1           1          12          19          19          19          12          19          19          19
 AtmWgt=   1.0078250   1.0078250  12.0000000  18.9984033  18.9984033  18.9984033  12.0000000  18.9984033  18.9984033  18.9984033
 NucSpn=           1           1           0           1           1           1           0           1           1           1
 AtZEff=   0.0000000   0.0000000   0.0000000   0.0000000   0.0000000   0.0000000   0.0000000   0.0000000   0.0000000   0.0000000
 NQMom=    0.0000000   0.0000000   0.0000000   0.0000000   0.0000000   0.0000000   0.0000000   0.0000000   0.0000000   0.0000000
 NMagM=    2.7928460   2.7928460   0.0000000   2.6288670   2.6288670   2.6288670   0.0000000   2.6288670   2.6288670   2.6288670
 AtZNuc=   1.0000000   1.0000000   6.0000000   9.0000000   9.0000000   9.0000000   6.0000000   9.0000000   9.0000000   9.0000000
 Leave Link  101 at Fri May 31 18:19:37 2019, MaxMem=  6442450944 cpu:              17.7 elap:               0.7
 (Enter /home/ekwan/sw/g16/l103.exe)

 GradGradGradGradGradGradGradGradGradGradGradGradGradGradGradGradGradGrad
 Berny optimization.
 Initialization pass.
                           ----------------------------
                           !    Initial Parameters    !
                           ! (Angstroms and Degrees)  !
 --------------------------                            --------------------------
 ! Name  Definition              Value          Derivative Info.                !
 --------------------------------------------------------------------------------
 ! R1    R(1,2)                  1.5297         calculate D2E/DX2 analytically  !
 ! R2    R(1,5)                  1.5317         calculate D2E/DX2 analytically  !
 ! R3    R(1,8)                  1.0977         calculate D2E/DX2 analytically  !
 ! R4    R(1,14)                 1.4244         calculate D2E/DX2 analytically  !
 ! R5    R(2,3)                  1.5353         calculate D2E/DX2 analytically  !
 ! R6    R(2,7)                  1.0988         calculate D2E/DX2 analytically  !
 ! R7    R(2,13)                 1.4165         calculate D2E/DX2 analytically  !
 ! R8    R(3,6)                  1.0955         calculate D2E/DX2 analytically  !
 ! R9    R(3,11)                 1.4192         calculate D2E/DX2 analytically  !
 ! R10   R(3,12)                 1.3988         calculate D2E/DX2 analytically  !
 ! R11   R(4,5)                  1.5316         calculate D2E/DX2 analytically  !
 ! R12   R(4,9)                  1.0973         calculate D2E/DX2 analytically  !
 ! R13   R(4,11)                 1.4472         calculate D2E/DX2 analytically  !
 ! R14   R(4,16)                 1.5385         calculate D2E/DX2 analytically  !
 ! R15   R(5,10)                 1.1001         calculate D2E/DX2 analytically  !
 ! R16   R(5,15)                 1.4229         calculate D2E/DX2 analytically  !
 ! R17   R(12,79)                1.4239         calculate D2E/DX2 analytically  !
 ! R18   R(13,20)                1.4184         calculate D2E/DX2 analytically  !
 ! R19   R(14,24)                1.4208         calculate D2E/DX2 analytically  !
 ! R20   R(15,28)                1.4199         calculate D2E/DX2 analytically  !
 ! R21   R(16,17)                1.11           calculate D2E/DX2 analytically  !
 ! R22   R(16,18)                1.1133         calculate D2E/DX2 analytically  !
 ! R23   R(16,19)                1.373          calculate D2E/DX2 analytically  !
 ! R24   R(19,37)                1.8091         calculate D2E/DX2 analytically  !
 ! R25   R(19,83)                2.1936         calculate D2E/DX2 analytically  !
 ! R26   R(20,21)                1.0984         calculate D2E/DX2 analytically  !
 ! R27   R(20,22)                1.0976         calculate D2E/DX2 analytically  !
 ! R28   R(20,23)                1.0926         calculate D2E/DX2 analytically  !
 ! R29   R(24,25)                1.0992         calculate D2E/DX2 analytically  !
 ! R30   R(24,26)                1.0939         calculate D2E/DX2 analytically  !
 ! R31   R(24,27)                1.0924         calculate D2E/DX2 analytically  !
 ! R32   R(28,29)                1.0939         calculate D2E/DX2 analytically  !
 ! R33   R(28,30)                1.0956         calculate D2E/DX2 analytically  !
 ! R34   R(28,31)                1.0943         calculate D2E/DX2 analytically  !
 ! R35   R(32,33)                1.5378         calculate D2E/DX2 analytically  !
 ! R36   R(32,36)                1.5399         calculate D2E/DX2 analytically  !
 ! R37   R(32,39)                1.0948         calculate D2E/DX2 analytically  !
 ! R38   R(32,45)                1.4152         calculate D2E/DX2 analytically  !
 ! R39   R(33,34)                1.4935         calculate D2E/DX2 analytically  !
 ! R40   R(33,38)                1.1017         calculate D2E/DX2 analytically  !
 ! R41   R(33,44)                1.4011         calculate D2E/DX2 analytically  !
 ! R42   R(34,37)                1.0808         calculate D2E/DX2 analytically  !
 ! R43   R(34,42)                1.2823         calculate D2E/DX2 analytically  !
 ! R44   R(35,36)                1.5431         calculate D2E/DX2 analytically  !
 ! R45   R(35,40)                1.089          calculate D2E/DX2 analytically  !
 ! R46   R(35,42)                1.4738         calculate D2E/DX2 analytically  !
 ! R47   R(35,47)                1.5168         calculate D2E/DX2 analytically  !
 ! R48   R(36,41)                1.0995         calculate D2E/DX2 analytically  !
 ! R49   R(36,46)                1.4177         calculate D2E/DX2 analytically  !
 ! R50   R(43,51)                1.4754         calculate D2E/DX2 analytically  !
 ! R51   R(44,63)                1.4341         calculate D2E/DX2 analytically  !
 ! R52   R(45,67)                1.4256         calculate D2E/DX2 analytically  !
 ! R53   R(46,71)                1.4227         calculate D2E/DX2 analytically  !
 ! R54   R(47,48)                1.1011         calculate D2E/DX2 analytically  !
 ! R55   R(47,49)                1.0982         calculate D2E/DX2 analytically  !
 ! R56   R(47,50)                1.4108         calculate D2E/DX2 analytically  !
 ! R57   R(50,75)                1.4205         calculate D2E/DX2 analytically  !
 ! R58   R(51,52)                1.4955         calculate D2E/DX2 analytically  !
 ! R59   R(51,53)                1.5028         calculate D2E/DX2 analytically  !
 ! R60   R(51,54)                1.8            calculate D2E/DX2 analytically  !
 ! R61   R(52,83)                2.278          calculate D2E/DX2 analytically  !
 ! R62   R(54,55)                1.39           calculate D2E/DX2 analytically  !
 ! R63   R(54,56)                1.3945         calculate D2E/DX2 analytically  !
 ! R64   R(55,57)                1.3961         calculate D2E/DX2 analytically  !
 ! R65   R(55,58)                1.0815         calculate D2E/DX2 analytically  !
 ! R66   R(56,59)                1.3928         calculate D2E/DX2 analytically  !
 ! R67   R(56,60)                1.084          calculate D2E/DX2 analytically  !
 ! R68   R(57,61)                1.3922         calculate D2E/DX2 analytically  !
 ! R69   R(57,97)                1.5031         calculate D2E/DX2 analytically  !
 ! R70   R(59,61)                1.3946         calculate D2E/DX2 analytically  !
 ! R71   R(59,93)                1.5025         calculate D2E/DX2 analytically  !
 ! R72   R(60,91)                2.3423         calculate D2E/DX2 analytically  !
 ! R73   R(61,62)                1.0815         calculate D2E/DX2 analytically  !
 ! R74   R(63,64)                1.0968         calculate D2E/DX2 analytically  !
 ! R75   R(63,65)                1.0999         calculate D2E/DX2 analytically  !
 ! R76   R(63,66)                1.0923         calculate D2E/DX2 analytically  !
 ! R77   R(67,68)                1.0995         calculate D2E/DX2 analytically  !
 ! R78   R(67,69)                1.093          calculate D2E/DX2 analytically  !
 ! R79   R(67,70)                1.0926         calculate D2E/DX2 analytically  !
 ! R80   R(71,72)                1.0958         calculate D2E/DX2 analytically  !
 ! R81   R(71,73)                1.0984         calculate D2E/DX2 analytically  !
 ! R82   R(71,74)                1.0924         calculate D2E/DX2 analytically  !
 ! R83   R(75,76)                1.0913         calculate D2E/DX2 analytically  !
 ! R84   R(75,77)                1.0986         calculate D2E/DX2 analytically  !
 ! R85   R(75,78)                1.0991         calculate D2E/DX2 analytically  !
 ! R86   R(79,80)                1.0917         calculate D2E/DX2 analytically  !
 ! R87   R(79,81)                1.096          calculate D2E/DX2 analytically  !
 ! R88   R(79,82)                1.0994         calculate D2E/DX2 analytically  !
 ! R89   R(83,84)                2.3333         calculate D2E/DX2 analytically  !
 ! R90   R(84,85)                1.424          calculate D2E/DX2 analytically  !
 ! R91   R(84,89)                1.4225         calculate D2E/DX2 analytically  !
 ! R92   R(85,86)                1.0982         calculate D2E/DX2 analytically  !
 ! R93   R(85,87)                1.0922         calculate D2E/DX2 analytically  !
 ! R94   R(85,88)                1.0983         calculate D2E/DX2 analytically  !
 ! R95   R(89,90)                1.0981         calculate D2E/DX2 analytically  !
 ! R96   R(89,91)                1.0901         calculate D2E/DX2 analytically  !
 ! R97   R(89,92)                1.0983         calculate D2E/DX2 analytically  !
 ! R98   R(91,94)                2.492          calculate D2E/DX2 analytically  !
 ! R99   R(93,94)                1.3594         calculate D2E/DX2 analytically  !
 ! R100  R(93,95)                1.345          calculate D2E/DX2 analytically  !
 ! R101  R(93,96)                1.3534         calculate D2E/DX2 analytically  !
 ! R102  R(97,98)                1.3592         calculate D2E/DX2 analytically  !
 ! R103  R(97,99)                1.35           calculate D2E/DX2 analytically  !
 ! R104  R(97,100)               1.3502         calculate D2E/DX2 analytically  !
 ! A1    A(2,1,5)              111.7339         calculate D2E/DX2 analytically  !
 ! A2    A(2,1,8)              108.5136         calculate D2E/DX2 analytically  !
 ! A3    A(2,1,14)             110.9221         calculate D2E/DX2 analytically  !
 ! A4    A(5,1,8)              107.7889         calculate D2E/DX2 analytically  !
 ! A5    A(5,1,14)             107.9627         calculate D2E/DX2 analytically  !
 ! A6    A(8,1,14)             109.8641         calculate D2E/DX2 analytically  !
 ! A7    A(1,2,3)              110.8155         calculate D2E/DX2 analytically  !
 ! A8    A(1,2,7)              108.7087         calculate D2E/DX2 analytically  !
 ! A9    A(1,2,13)             107.6965         calculate D2E/DX2 analytically  !
 ! A10   A(3,2,7)              106.9315         calculate D2E/DX2 analytically  !
 ! A11   A(3,2,13)             112.9667         calculate D2E/DX2 analytically  !
 ! A12   A(7,2,13)             109.6577         calculate D2E/DX2 analytically  !
 ! A13   A(2,3,6)              111.1551         calculate D2E/DX2 analytically  !
 ! A14   A(2,3,11)             109.591          calculate D2E/DX2 analytically  !
 ! A15   A(2,3,12)             108.5786         calculate D2E/DX2 analytically  !
 ! A16   A(6,3,11)             103.9912         calculate D2E/DX2 analytically  !
 ! A17   A(6,3,12)             110.5168         calculate D2E/DX2 analytically  !
 ! A18   A(11,3,12)            112.9843         calculate D2E/DX2 analytically  !
 ! A19   A(5,4,9)              108.5119         calculate D2E/DX2 analytically  !
 ! A20   A(5,4,11)             109.3129         calculate D2E/DX2 analytically  !
 ! A21   A(5,4,16)             113.5092         calculate D2E/DX2 analytically  !
 ! A22   A(9,4,11)             109.1402         calculate D2E/DX2 analytically  !
 ! A23   A(9,4,16)             109.9521         calculate D2E/DX2 analytically  !
 ! A24   A(11,4,16)            106.3343         calculate D2E/DX2 analytically  !
 ! A25   A(1,5,4)              111.7314         calculate D2E/DX2 analytically  !
 ! A26   A(1,5,10)             109.3958         calculate D2E/DX2 analytically  !
 ! A27   A(1,5,15)             110.2454         calculate D2E/DX2 analytically  !
 ! A28   A(4,5,10)             108.5674         calculate D2E/DX2 analytically  !
 ! A29   A(4,5,15)             106.805          calculate D2E/DX2 analytically  !
 ! A30   A(10,5,15)            110.0508         calculate D2E/DX2 analytically  !
 ! A31   A(3,11,4)             114.4994         calculate D2E/DX2 analytically  !
 ! A32   A(3,12,79)            113.1888         calculate D2E/DX2 analytically  !
 ! A33   A(2,13,20)            114.3486         calculate D2E/DX2 analytically  !
 ! A34   A(1,14,24)            114.893          calculate D2E/DX2 analytically  !
 ! A35   A(5,15,28)            114.811          calculate D2E/DX2 analytically  !
 ! A36   A(4,16,17)            105.4423         calculate D2E/DX2 analytically  !
 ! A37   A(4,16,18)            105.7706         calculate D2E/DX2 analytically  !
 ! A38   A(4,16,19)            113.4664         calculate D2E/DX2 analytically  !
 ! A39   A(17,16,18)           105.554          calculate D2E/DX2 analytically  !
 ! A40   A(17,16,19)           113.3374         calculate D2E/DX2 analytically  !
 ! A41   A(18,16,19)           112.5549         calculate D2E/DX2 analytically  !
 ! A42   A(16,19,37)           136.7745         calculate D2E/DX2 analytically  !
 ! A43   A(16,19,83)           118.0948         calculate D2E/DX2 analytically  !
 ! A44   A(37,19,83)            83.894          calculate D2E/DX2 analytically  !
 ! A45   A(13,20,21)           112.034          calculate D2E/DX2 analytically  !
 ! A46   A(13,20,22)           111.4271         calculate D2E/DX2 analytically  !
 ! A47   A(13,20,23)           106.6548         calculate D2E/DX2 analytically  !
 ! A48   A(21,20,22)           109.062          calculate D2E/DX2 analytically  !
 ! A49   A(21,20,23)           108.597          calculate D2E/DX2 analytically  !
 ! A50   A(22,20,23)           108.9639         calculate D2E/DX2 analytically  !
 ! A51   A(14,24,25)           110.8661         calculate D2E/DX2 analytically  !
 ! A52   A(14,24,26)           111.5241         calculate D2E/DX2 analytically  !
 ! A53   A(14,24,27)           106.6537         calculate D2E/DX2 analytically  !
 ! A54   A(25,24,26)           109.2511         calculate D2E/DX2 analytically  !
 ! A55   A(25,24,27)           108.9252         calculate D2E/DX2 analytically  !
 ! A56   A(26,24,27)           109.5555         calculate D2E/DX2 analytically  !
 ! A57   A(15,28,29)           112.0151         calculate D2E/DX2 analytically  !
 ! A58   A(15,28,30)           110.9143         calculate D2E/DX2 analytically  !
 ! A59   A(15,28,31)           106.6312         calculate D2E/DX2 analytically  !
 ! A60   A(29,28,30)           108.8471         calculate D2E/DX2 analytically  !
 ! A61   A(29,28,31)           109.357          calculate D2E/DX2 analytically  !
 ! A62   A(30,28,31)           109.0119         calculate D2E/DX2 analytically  !
 ! A63   A(33,32,36)           110.1065         calculate D2E/DX2 analytically  !
 ! A64   A(33,32,39)           108.4885         calculate D2E/DX2 analytically  !
 ! A65   A(33,32,45)           110.804          calculate D2E/DX2 analytically  !
 ! A66   A(36,32,39)           109.1211         calculate D2E/DX2 analytically  !
 ! A67   A(36,32,45)           107.0556         calculate D2E/DX2 analytically  !
 ! A68   A(39,32,45)           111.2503         calculate D2E/DX2 analytically  !
 ! A69   A(32,33,34)           109.0155         calculate D2E/DX2 analytically  !
 ! A70   A(32,33,38)           107.2408         calculate D2E/DX2 analytically  !
 ! A71   A(32,33,44)           111.065          calculate D2E/DX2 analytically  !
 ! A72   A(34,33,38)           105.7574         calculate D2E/DX2 analytically  !
 ! A73   A(34,33,44)           112.126          calculate D2E/DX2 analytically  !
 ! A74   A(38,33,44)           111.3791         calculate D2E/DX2 analytically  !
 ! A75   A(33,34,37)           122.634          calculate D2E/DX2 analytically  !
 ! A76   A(33,34,42)           120.7239         calculate D2E/DX2 analytically  !
 ! A77   A(37,34,42)           114.953          calculate D2E/DX2 analytically  !
 ! A78   A(36,35,40)           108.1545         calculate D2E/DX2 analytically  !
 ! A79   A(36,35,42)           115.106          calculate D2E/DX2 analytically  !
 ! A80   A(36,35,47)           114.2554         calculate D2E/DX2 analytically  !
 ! A81   A(40,35,42)           103.0499         calculate D2E/DX2 analytically  !
 ! A82   A(40,35,47)           109.6059         calculate D2E/DX2 analytically  !
 ! A83   A(42,35,47)           106.0295         calculate D2E/DX2 analytically  !
 ! A84   A(32,36,35)           115.5338         calculate D2E/DX2 analytically  !
 ! A85   A(32,36,41)           105.7584         calculate D2E/DX2 analytically  !
 ! A86   A(32,36,46)           112.7783         calculate D2E/DX2 analytically  !
 ! A87   A(35,36,41)           108.0222         calculate D2E/DX2 analytically  !
 ! A88   A(35,36,46)           104.7257         calculate D2E/DX2 analytically  !
 ! A89   A(41,36,46)           109.937          calculate D2E/DX2 analytically  !
 ! A90   A(19,37,34)           125.6788         calculate D2E/DX2 analytically  !
 ! A91   A(34,42,35)           122.3672         calculate D2E/DX2 analytically  !
 ! A92   A(33,44,63)           113.2242         calculate D2E/DX2 analytically  !
 ! A93   A(32,45,67)           114.3992         calculate D2E/DX2 analytically  !
 ! A94   A(36,46,71)           114.7746         calculate D2E/DX2 analytically  !
 ! A95   A(35,47,48)           108.391          calculate D2E/DX2 analytically  !
 ! A96   A(35,47,49)           109.5107         calculate D2E/DX2 analytically  !
 ! A97   A(35,47,50)           108.2284         calculate D2E/DX2 analytically  !
 ! A98   A(48,47,49)           108.1658         calculate D2E/DX2 analytically  !
 ! A99   A(48,47,50)           111.5917         calculate D2E/DX2 analytically  !
 ! A100  A(49,47,50)           110.9078         calculate D2E/DX2 analytically  !
 ! A101  A(47,50,75)           112.9533         calculate D2E/DX2 analytically  !
 ! A102  A(43,51,52)           113.889          calculate D2E/DX2 analytically  !
 ! A103  A(43,51,53)           113.4303         calculate D2E/DX2 analytically  !
 ! A104  A(43,51,54)           107.1767         calculate D2E/DX2 analytically  !
 ! A105  A(52,51,53)           112.9613         calculate D2E/DX2 analytically  !
 ! A106  A(52,51,54)           103.7915         calculate D2E/DX2 analytically  !
 ! A107  A(53,51,54)           104.4444         calculate D2E/DX2 analytically  !
 ! A108  A(51,52,83)           141.2745         calculate D2E/DX2 analytically  !
 ! A109  A(51,54,55)           120.1483         calculate D2E/DX2 analytically  !
 ! A110  A(51,54,56)           119.0973         calculate D2E/DX2 analytically  !
 ! A111  A(55,54,56)           120.7543         calculate D2E/DX2 analytically  !
 ! A112  A(54,55,57)           119.195          calculate D2E/DX2 analytically  !
 ! A113  A(54,55,58)           119.5541         calculate D2E/DX2 analytically  !
 ! A114  A(57,55,58)           121.2288         calculate D2E/DX2 analytically  !
 ! A115  A(54,56,59)           119.3849         calculate D2E/DX2 analytically  !
 ! A116  A(54,56,60)           119.8346         calculate D2E/DX2 analytically  !
 ! A117  A(59,56,60)           120.7792         calculate D2E/DX2 analytically  !
 ! A118  A(55,57,61)           120.7552         calculate D2E/DX2 analytically  !
 ! A119  A(55,57,97)           119.0306         calculate D2E/DX2 analytically  !
 ! A120  A(61,57,97)           120.2121         calculate D2E/DX2 analytically  !
 ! A121  A(56,59,61)           120.5684         calculate D2E/DX2 analytically  !
 ! A122  A(56,59,93)           118.9351         calculate D2E/DX2 analytically  !
 ! A123  A(61,59,93)           120.4682         calculate D2E/DX2 analytically  !
 ! A124  A(56,60,91)           141.78           calculate D2E/DX2 analytically  !
 ! A125  A(57,61,59)           119.3063         calculate D2E/DX2 analytically  !
 ! A126  A(57,61,62)           120.4714         calculate D2E/DX2 analytically  !
 ! A127  A(59,61,62)           120.2101         calculate D2E/DX2 analytically  !
 ! A128  A(44,63,64)           110.2971         calculate D2E/DX2 analytically  !
 ! A129  A(44,63,65)           110.2009         calculate D2E/DX2 analytically  !
 ! A130  A(44,63,66)           106.1191         calculate D2E/DX2 analytically  !
 ! A131  A(64,63,65)           110.1755         calculate D2E/DX2 analytically  !
 ! A132  A(64,63,66)           110.7842         calculate D2E/DX2 analytically  !
 ! A133  A(65,63,66)           109.1851         calculate D2E/DX2 analytically  !
 ! A134  A(45,67,68)           110.9011         calculate D2E/DX2 analytically  !
 ! A135  A(45,67,69)           111.3882         calculate D2E/DX2 analytically  !
 ! A136  A(45,67,70)           106.3021         calculate D2E/DX2 analytically  !
 ! A137  A(68,67,69)           109.2166         calculate D2E/DX2 analytically  !
 ! A138  A(68,67,70)           109.0255         calculate D2E/DX2 analytically  !
 ! A139  A(69,67,70)           109.9496         calculate D2E/DX2 analytically  !
 ! A140  A(46,71,72)           112.0965         calculate D2E/DX2 analytically  !
 ! A141  A(46,71,73)           111.1391         calculate D2E/DX2 analytically  !
 ! A142  A(46,71,74)           106.2274         calculate D2E/DX2 analytically  !
 ! A143  A(72,71,73)           108.6311         calculate D2E/DX2 analytically  !
 ! A144  A(72,71,74)           109.1619         calculate D2E/DX2 analytically  !
 ! A145  A(73,71,74)           109.5322         calculate D2E/DX2 analytically  !
 ! A146  A(50,75,76)           106.8201         calculate D2E/DX2 analytically  !
 ! A147  A(50,75,77)           110.9126         calculate D2E/DX2 analytically  !
 ! A148  A(50,75,78)           111.1771         calculate D2E/DX2 analytically  !
 ! A149  A(76,75,77)           109.3236         calculate D2E/DX2 analytically  !
 ! A150  A(76,75,78)           109.4421         calculate D2E/DX2 analytically  !
 ! A151  A(77,75,78)           109.1204         calculate D2E/DX2 analytically  !
 ! A152  A(12,79,80)           106.769          calculate D2E/DX2 analytically  !
 ! A153  A(12,79,81)           111.5077         calculate D2E/DX2 analytically  !
 ! A154  A(12,79,82)           110.7616         calculate D2E/DX2 analytically  !
 ! A155  A(80,79,81)           109.5241         calculate D2E/DX2 analytically  !
 ! A156  A(80,79,82)           109.3787         calculate D2E/DX2 analytically  !
 ! A157  A(81,79,82)           108.8617         calculate D2E/DX2 analytically  !
 ! A158  A(19,83,52)           100.9702         calculate D2E/DX2 analytically  !
 ! A159  A(19,83,84)           152.0028         calculate D2E/DX2 analytically  !
 ! A160  A(52,83,84)           106.4629         calculate D2E/DX2 analytically  !
 ! A161  A(83,84,85)           114.714          calculate D2E/DX2 analytically  !
 ! A162  A(83,84,89)           126.0427         calculate D2E/DX2 analytically  !
 ! A163  A(85,84,89)           112.2754         calculate D2E/DX2 analytically  !
 ! A164  A(84,85,86)           110.5985         calculate D2E/DX2 analytically  !
 ! A165  A(84,85,87)           107.1855         calculate D2E/DX2 analytically  !
 ! A166  A(84,85,88)           111.0343         calculate D2E/DX2 analytically  !
 ! A167  A(86,85,87)           109.2457         calculate D2E/DX2 analytically  !
 ! A168  A(86,85,88)           109.118          calculate D2E/DX2 analytically  !
 ! A169  A(87,85,88)           109.6239         calculate D2E/DX2 analytically  !
 ! A170  A(84,89,90)           111.1176         calculate D2E/DX2 analytically  !
 ! A171  A(84,89,91)           107.3166         calculate D2E/DX2 analytically  !
 ! A172  A(84,89,92)           110.5209         calculate D2E/DX2 analytically  !
 ! A173  A(90,89,91)           109.7539         calculate D2E/DX2 analytically  !
 ! A174  A(90,89,92)           109.1589         calculate D2E/DX2 analytically  !
 ! A175  A(91,89,92)           108.932          calculate D2E/DX2 analytically  !
 ! A176  A(60,91,89)           142.9549         calculate D2E/DX2 analytically  !
 ! A177  A(60,91,94)            64.8991         calculate D2E/DX2 analytically  !
 ! A178  A(89,91,94)           150.3499         calculate D2E/DX2 analytically  !
 ! A179  A(59,93,94)           111.5625         calculate D2E/DX2 analytically  !
 ! A180  A(59,93,95)           112.9396         calculate D2E/DX2 analytically  !
 ! A181  A(59,93,96)           111.2198         calculate D2E/DX2 analytically  !
 ! A182  A(94,93,95)           107.5188         calculate D2E/DX2 analytically  !
 ! A183  A(94,93,96)           106.0991         calculate D2E/DX2 analytically  !
 ! A184  A(95,93,96)           107.1406         calculate D2E/DX2 analytically  !
 ! A185  A(91,94,93)           133.361          calculate D2E/DX2 analytically  !
 ! A186  A(57,97,98)           111.4391         calculate D2E/DX2 analytically  !
 ! A187  A(57,97,99)           112.1929         calculate D2E/DX2 analytically  !
 ! A188  A(57,97,100)          112.0115         calculate D2E/DX2 analytically  !
 ! A189  A(98,97,99)           106.5642         calculate D2E/DX2 analytically  !
 ! A190  A(98,97,100)          107.0313         calculate D2E/DX2 analytically  !
 ! A191  A(99,97,100)          107.2722         calculate D2E/DX2 analytically  !
 ! D1    D(5,1,2,3)            -49.6844         calculate D2E/DX2 analytically  !
 ! D2    D(5,1,2,7)             67.5539         calculate D2E/DX2 analytically  !
 ! D3    D(5,1,2,13)          -173.7043         calculate D2E/DX2 analytically  !
 ! D4    D(8,1,2,3)             69.0224         calculate D2E/DX2 analytically  !
 ! D5    D(8,1,2,7)           -173.7393         calculate D2E/DX2 analytically  !
 ! D6    D(8,1,2,13)           -54.9975         calculate D2E/DX2 analytically  !
 ! D7    D(14,1,2,3)          -170.204          calculate D2E/DX2 analytically  !
 ! D8    D(14,1,2,7)           -52.9657         calculate D2E/DX2 analytically  !
 ! D9    D(14,1,2,13)           65.7761         calculate D2E/DX2 analytically  !
 ! D10   D(2,1,5,4)             49.04           calculate D2E/DX2 analytically  !
 ! D11   D(2,1,5,10)           -71.2075         calculate D2E/DX2 analytically  !
 ! D12   D(2,1,5,15)           167.6431         calculate D2E/DX2 analytically  !
 ! D13   D(8,1,5,4)            -70.0967         calculate D2E/DX2 analytically  !
 ! D14   D(8,1,5,10)           169.6557         calculate D2E/DX2 analytically  !
 ! D15   D(8,1,5,15)            48.5063         calculate D2E/DX2 analytically  !
 ! D16   D(14,1,5,4)           171.2729         calculate D2E/DX2 analytically  !
 ! D17   D(14,1,5,10)           51.0253         calculate D2E/DX2 analytically  !
 ! D18   D(14,1,5,15)          -70.1241         calculate D2E/DX2 analytically  !
 ! D19   D(2,1,14,24)          -94.9353         calculate D2E/DX2 analytically  !
 ! D20   D(5,1,14,24)          142.334          calculate D2E/DX2 analytically  !
 ! D21   D(8,1,14,24)           25.0363         calculate D2E/DX2 analytically  !
 ! D22   D(1,2,3,6)            169.4049         calculate D2E/DX2 analytically  !
 ! D23   D(1,2,3,11)            55.0177         calculate D2E/DX2 analytically  !
 ! D24   D(1,2,3,12)           -68.8231         calculate D2E/DX2 analytically  !
 ! D25   D(7,2,3,6)             51.0821         calculate D2E/DX2 analytically  !
 ! D26   D(7,2,3,11)           -63.305          calculate D2E/DX2 analytically  !
 ! D27   D(7,2,3,12)           172.8541         calculate D2E/DX2 analytically  !
 ! D28   D(13,2,3,6)           -69.6436         calculate D2E/DX2 analytically  !
 ! D29   D(13,2,3,11)          175.9693         calculate D2E/DX2 analytically  !
 ! D30   D(13,2,3,12)           52.1284         calculate D2E/DX2 analytically  !
 ! D31   D(1,2,13,20)         -170.3402         calculate D2E/DX2 analytically  !
 ! D32   D(3,2,13,20)           66.9526         calculate D2E/DX2 analytically  !
 ! D33   D(7,2,13,20)          -52.2082         calculate D2E/DX2 analytically  !
 ! D34   D(2,3,11,4)           -62.6188         calculate D2E/DX2 analytically  !
 ! D35   D(6,3,11,4)           178.4694         calculate D2E/DX2 analytically  !
 ! D36   D(12,3,11,4)           58.5997         calculate D2E/DX2 analytically  !
 ! D37   D(2,3,12,79)         -173.5242         calculate D2E/DX2 analytically  !
 ! D38   D(6,3,12,79)          -51.3629         calculate D2E/DX2 analytically  !
 ! D39   D(11,3,12,79)          64.6857         calculate D2E/DX2 analytically  !
 ! D40   D(9,4,5,1)             66.4252         calculate D2E/DX2 analytically  !
 ! D41   D(9,4,5,10)          -172.8433         calculate D2E/DX2 analytically  !
 ! D42   D(9,4,5,15)           -54.2061         calculate D2E/DX2 analytically  !
 ! D43   D(11,4,5,1)           -52.5041         calculate D2E/DX2 analytically  !
 ! D44   D(11,4,5,10)           68.2274         calculate D2E/DX2 analytically  !
 ! D45   D(11,4,5,15)         -173.1355         calculate D2E/DX2 analytically  !
 ! D46   D(16,4,5,1)          -171.022          calculate D2E/DX2 analytically  !
 ! D47   D(16,4,5,10)          -50.2905         calculate D2E/DX2 analytically  !
 ! D48   D(16,4,5,15)           68.3467         calculate D2E/DX2 analytically  !
 ! D49   D(5,4,11,3)            61.2432         calculate D2E/DX2 analytically  !
 ! D50   D(9,4,11,3)           -57.2954         calculate D2E/DX2 analytically  !
 ! D51   D(16,4,11,3)         -175.8574         calculate D2E/DX2 analytically  !
 ! D52   D(5,4,16,17)          -57.6441         calculate D2E/DX2 analytically  !
 ! D53   D(5,4,16,18)         -169.18           calculate D2E/DX2 analytically  !
 ! D54   D(5,4,16,19)           66.9638         calculate D2E/DX2 analytically  !
 ! D55   D(9,4,16,17)           64.1095         calculate D2E/DX2 analytically  !
 ! D56   D(9,4,16,18)          -47.4264         calculate D2E/DX2 analytically  !
 ! D57   D(9,4,16,19)         -171.2826         calculate D2E/DX2 analytically  !
 ! D58   D(11,4,16,17)        -177.8639         calculate D2E/DX2 analytically  !
 ! D59   D(11,4,16,18)          70.6001         calculate D2E/DX2 analytically  !
 ! D60   D(11,4,16,19)         -53.2561         calculate D2E/DX2 analytically  !
 ! D61   D(1,5,15,28)           92.7559         calculate D2E/DX2 analytically  !
 ! D62   D(4,5,15,28)         -145.6678         calculate D2E/DX2 analytically  !
 ! D63   D(10,5,15,28)         -28.0019         calculate D2E/DX2 analytically  !
 ! D64   D(3,12,79,80)         173.9312         calculate D2E/DX2 analytically  !
 ! D65   D(3,12,79,81)         -66.4707         calculate D2E/DX2 analytically  !
 ! D66   D(3,12,79,82)          54.9287         calculate D2E/DX2 analytically  !
 ! D67   D(2,13,20,21)         -69.613          calculate D2E/DX2 analytically  !
 ! D68   D(2,13,20,22)          52.8878         calculate D2E/DX2 analytically  !
 ! D69   D(2,13,20,23)         171.6902         calculate D2E/DX2 analytically  !
 ! D70   D(1,14,24,25)         -54.51           calculate D2E/DX2 analytically  !
 ! D71   D(1,14,24,26)          67.471          calculate D2E/DX2 analytically  !
 ! D72   D(1,14,24,27)        -172.9553         calculate D2E/DX2 analytically  !
 ! D73   D(5,15,28,29)         -67.6589         calculate D2E/DX2 analytically  !
 ! D74   D(5,15,28,30)          54.1808         calculate D2E/DX2 analytically  !
 ! D75   D(5,15,28,31)         172.7433         calculate D2E/DX2 analytically  !
 ! D76   D(4,16,19,37)         -88.7014         calculate D2E/DX2 analytically  !
 ! D77   D(4,16,19,83)          24.3723         calculate D2E/DX2 analytically  !
 ! D78   D(17,16,19,37)         31.5261         calculate D2E/DX2 analytically  !
 ! D79   D(17,16,19,83)        144.5997         calculate D2E/DX2 analytically  !
 ! D80   D(18,16,19,37)        151.2235         calculate D2E/DX2 analytically  !
 ! D81   D(18,16,19,83)        -95.7029         calculate D2E/DX2 analytically  !
 ! D82   D(16,19,37,34)        -63.0453         calculate D2E/DX2 analytically  !
 ! D83   D(83,19,37,34)        171.6636         calculate D2E/DX2 analytically  !
 ! D84   D(16,19,83,52)       -157.2968         calculate D2E/DX2 analytically  !
 ! D85   D(16,19,83,84)         34.3128         calculate D2E/DX2 analytically  !
 ! D86   D(37,19,83,52)        -16.6188         calculate D2E/DX2 analytically  !
 ! D87   D(37,19,83,84)        174.9908         calculate D2E/DX2 analytically  !
 ! D88   D(36,32,33,34)        -56.1721         calculate D2E/DX2 analytically  !
 ! D89   D(36,32,33,38)         57.8885         calculate D2E/DX2 analytically  !
 ! D90   D(36,32,33,44)        179.7961         calculate D2E/DX2 analytically  !
 ! D91   D(39,32,33,34)         63.1826         calculate D2E/DX2 analytically  !
 ! D92   D(39,32,33,38)        177.2431         calculate D2E/DX2 analytically  !
 ! D93   D(39,32,33,44)        -60.8493         calculate D2E/DX2 analytically  !
 ! D94   D(45,32,33,34)       -174.4148         calculate D2E/DX2 analytically  !
 ! D95   D(45,32,33,38)        -60.3543         calculate D2E/DX2 analytically  !
 ! D96   D(45,32,33,44)         61.5533         calculate D2E/DX2 analytically  !
 ! D97   D(33,32,36,35)         30.6412         calculate D2E/DX2 analytically  !
 ! D98   D(33,32,36,41)        -88.7693         calculate D2E/DX2 analytically  !
 ! D99   D(33,32,36,46)        151.0474         calculate D2E/DX2 analytically  !
 ! D100  D(39,32,36,35)        -88.3273         calculate D2E/DX2 analytically  !
 ! D101  D(39,32,36,41)        152.2621         calculate D2E/DX2 analytically  !
 ! D102  D(39,32,36,46)         32.0789         calculate D2E/DX2 analytically  !
 ! D103  D(45,32,36,35)        151.1674         calculate D2E/DX2 analytically  !
 ! D104  D(45,32,36,41)         31.7569         calculate D2E/DX2 analytically  !
 ! D105  D(45,32,36,46)        -88.4263         calculate D2E/DX2 analytically  !
 ! D106  D(33,32,45,67)        -93.598          calculate D2E/DX2 analytically  !
 ! D107  D(36,32,45,67)        146.3209         calculate D2E/DX2 analytically  !
 ! D108  D(39,32,45,67)         27.1814         calculate D2E/DX2 analytically  !
 ! D109  D(32,33,34,37)       -150.8928         calculate D2E/DX2 analytically  !
 ! D110  D(32,33,34,42)         44.6699         calculate D2E/DX2 analytically  !
 ! D111  D(38,33,34,37)         94.0843         calculate D2E/DX2 analytically  !
 ! D112  D(38,33,34,42)        -70.353          calculate D2E/DX2 analytically  !
 ! D113  D(44,33,34,37)        -27.4903         calculate D2E/DX2 analytically  !
 ! D114  D(44,33,34,42)        168.0725         calculate D2E/DX2 analytically  !
 ! D115  D(32,33,44,63)       -146.8523         calculate D2E/DX2 analytically  !
 ! D116  D(34,33,44,63)         90.9042         calculate D2E/DX2 analytically  !
 ! D117  D(38,33,44,63)        -27.389          calculate D2E/DX2 analytically  !
 ! D118  D(33,34,37,19)        -70.2375         calculate D2E/DX2 analytically  !
 ! D119  D(42,34,37,19)         95.0256         calculate D2E/DX2 analytically  !
 ! D120  D(33,34,42,35)         -2.036          calculate D2E/DX2 analytically  !
 ! D121  D(37,34,42,35)       -167.6058         calculate D2E/DX2 analytically  !
 ! D122  D(40,35,36,32)        123.6876         calculate D2E/DX2 analytically  !
 ! D123  D(40,35,36,41)       -118.1531         calculate D2E/DX2 analytically  !
 ! D124  D(40,35,36,46)         -1.0066         calculate D2E/DX2 analytically  !
 ! D125  D(42,35,36,32)          9.1012         calculate D2E/DX2 analytically  !
 ! D126  D(42,35,36,41)        127.2605         calculate D2E/DX2 analytically  !
 ! D127  D(42,35,36,46)       -115.5929         calculate D2E/DX2 analytically  !
 ! D128  D(47,35,36,32)       -113.964          calculate D2E/DX2 analytically  !
 ! D129  D(47,35,36,41)          4.1953         calculate D2E/DX2 analytically  !
 ! D130  D(47,35,36,46)        121.3419         calculate D2E/DX2 analytically  !
 ! D131  D(36,35,42,34)        -26.1936         calculate D2E/DX2 analytically  !
 ! D132  D(40,35,42,34)       -143.6979         calculate D2E/DX2 analytically  !
 ! D133  D(47,35,42,34)        101.1532         calculate D2E/DX2 analytically  !
 ! D134  D(36,35,47,48)        -60.8609         calculate D2E/DX2 analytically  !
 ! D135  D(36,35,47,49)       -178.6598         calculate D2E/DX2 analytically  !
 ! D136  D(36,35,47,50)         60.3227         calculate D2E/DX2 analytically  !
 ! D137  D(40,35,47,48)         60.6916         calculate D2E/DX2 analytically  !
 ! D138  D(40,35,47,49)        -57.1073         calculate D2E/DX2 analytically  !
 ! D139  D(40,35,47,50)       -178.1248         calculate D2E/DX2 analytically  !
 ! D140  D(42,35,47,48)        171.2848         calculate D2E/DX2 analytically  !
 ! D141  D(42,35,47,49)         53.4859         calculate D2E/DX2 analytically  !
 ! D142  D(42,35,47,50)        -67.5316         calculate D2E/DX2 analytically  !
 ! D143  D(32,36,46,71)         68.999          calculate D2E/DX2 analytically  !
 ! D144  D(35,36,46,71)       -164.5778         calculate D2E/DX2 analytically  !
 ! D145  D(41,36,46,71)        -48.753          calculate D2E/DX2 analytically  !
 ! D146  D(33,44,63,64)        -55.1665         calculate D2E/DX2 analytically  !
 ! D147  D(33,44,63,65)         66.6986         calculate D2E/DX2 analytically  !
 ! D148  D(33,44,63,66)       -175.2136         calculate D2E/DX2 analytically  !
 ! D149  D(32,45,67,68)        -60.1526         calculate D2E/DX2 analytically  !
 ! D150  D(32,45,67,69)         61.7145         calculate D2E/DX2 analytically  !
 ! D151  D(32,45,67,70)       -178.5284         calculate D2E/DX2 analytically  !
 ! D152  D(36,46,71,72)        -72.3693         calculate D2E/DX2 analytically  !
 ! D153  D(36,46,71,73)         49.4102         calculate D2E/DX2 analytically  !
 ! D154  D(36,46,71,74)        168.4793         calculate D2E/DX2 analytically  !
 ! D155  D(35,47,50,75)        172.0967         calculate D2E/DX2 analytically  !
 ! D156  D(48,47,50,75)        -68.7221         calculate D2E/DX2 analytically  !
 ! D157  D(49,47,50,75)         51.9495         calculate D2E/DX2 analytically  !
 ! D158  D(47,50,75,76)       -179.8897         calculate D2E/DX2 analytically  !
 ! D159  D(47,50,75,77)        -60.839          calculate D2E/DX2 analytically  !
 ! D160  D(47,50,75,78)         60.7678         calculate D2E/DX2 analytically  !
 ! D161  D(43,51,52,83)        148.6432         calculate D2E/DX2 analytically  !
 ! D162  D(53,51,52,83)        -80.0597         calculate D2E/DX2 analytically  !
 ! D163  D(54,51,52,83)         32.4565         calculate D2E/DX2 analytically  !
 ! D164  D(43,51,54,55)        107.9939         calculate D2E/DX2 analytically  !
 ! D165  D(43,51,54,56)        -72.145          calculate D2E/DX2 analytically  !
 ! D166  D(52,51,54,55)       -131.187          calculate D2E/DX2 analytically  !
 ! D167  D(52,51,54,56)         48.6742         calculate D2E/DX2 analytically  !
 ! D168  D(53,51,54,55)        -12.6301         calculate D2E/DX2 analytically  !
 ! D169  D(53,51,54,56)        167.231          calculate D2E/DX2 analytically  !
 ! D170  D(51,52,83,19)         61.7251         calculate D2E/DX2 analytically  !
 ! D171  D(51,52,83,84)       -123.9282         calculate D2E/DX2 analytically  !
 ! D172  D(51,54,55,57)        177.8687         calculate D2E/DX2 analytically  !
 ! D173  D(51,54,55,58)         -0.4414         calculate D2E/DX2 analytically  !
 ! D174  D(56,54,55,57)         -1.9902         calculate D2E/DX2 analytically  !
 ! D175  D(56,54,55,58)        179.6998         calculate D2E/DX2 analytically  !
 ! D176  D(51,54,56,59)       -179.2892         calculate D2E/DX2 analytically  !
 ! D177  D(51,54,56,60)          0.3001         calculate D2E/DX2 analytically  !
 ! D178  D(55,54,56,59)          0.5711         calculate D2E/DX2 analytically  !
 ! D179  D(55,54,56,60)       -179.8396         calculate D2E/DX2 analytically  !
 ! D180  D(54,55,57,61)          1.9683         calculate D2E/DX2 analytically  !
 ! D181  D(54,55,57,97)       -178.5599         calculate D2E/DX2 analytically  !
 ! D182  D(58,55,57,61)       -179.7509         calculate D2E/DX2 analytically  !
 ! D183  D(58,55,57,97)         -0.2791         calculate D2E/DX2 analytically  !
 ! D184  D(54,56,59,61)          0.905          calculate D2E/DX2 analytically  !
 ! D185  D(54,56,59,93)       -177.1696         calculate D2E/DX2 analytically  !
 ! D186  D(60,56,59,61)       -178.6802         calculate D2E/DX2 analytically  !
 ! D187  D(60,56,59,93)          3.2451         calculate D2E/DX2 analytically  !
 ! D188  D(54,56,60,91)       -124.0502         calculate D2E/DX2 analytically  !
 ! D189  D(59,56,60,91)         55.5332         calculate D2E/DX2 analytically  !
 ! D190  D(55,57,61,59)         -0.5244         calculate D2E/DX2 analytically  !
 ! D191  D(55,57,61,62)       -179.2574         calculate D2E/DX2 analytically  !
 ! D192  D(97,57,61,59)       -179.99           calculate D2E/DX2 analytically  !
 ! D193  D(97,57,61,62)          1.2771         calculate D2E/DX2 analytically  !
 ! D194  D(55,57,97,98)         38.7497         calculate D2E/DX2 analytically  !
 ! D195  D(55,57,97,99)        -80.6555         calculate D2E/DX2 analytically  !
 ! D196  D(55,57,97,100)       158.6276         calculate D2E/DX2 analytically  !
 ! D197  D(61,57,97,98)       -141.7756         calculate D2E/DX2 analytically  !
 ! D198  D(61,57,97,99)         98.8192         calculate D2E/DX2 analytically  !
 ! D199  D(61,57,97,100)       -21.8977         calculate D2E/DX2 analytically  !
 ! D200  D(56,59,61,57)         -0.9257         calculate D2E/DX2 analytically  !
 ! D201  D(56,59,61,62)        177.8106         calculate D2E/DX2 analytically  !
 ! D202  D(93,59,61,57)        177.1193         calculate D2E/DX2 analytically  !
 ! D203  D(93,59,61,62)         -4.1444         calculate D2E/DX2 analytically  !
 ! D204  D(56,59,93,94)        -43.5863         calculate D2E/DX2 analytically  !
 ! D205  D(56,59,93,95)       -164.8323         calculate D2E/DX2 analytically  !
 ! D206  D(56,59,93,96)         74.6616         calculate D2E/DX2 analytically  !
 ! D207  D(61,59,93,94)        138.3371         calculate D2E/DX2 analytically  !
 ! D208  D(61,59,93,95)         17.0911         calculate D2E/DX2 analytically  !
 ! D209  D(61,59,93,96)       -103.4151         calculate D2E/DX2 analytically  !
 ! D210  D(56,60,91,89)        120.3125         calculate D2E/DX2 analytically  !
 ! D211  D(56,60,91,94)        -46.1851         calculate D2E/DX2 analytically  !
 ! D212  D(19,83,84,85)         51.9025         calculate D2E/DX2 analytically  !
 ! D213  D(19,83,84,89)       -159.7795         calculate D2E/DX2 analytically  !
 ! D214  D(52,83,84,85)       -116.2089         calculate D2E/DX2 analytically  !
 ! D215  D(52,83,84,89)         32.1091         calculate D2E/DX2 analytically  !
 ! D216  D(83,84,85,86)       -147.9857         calculate D2E/DX2 analytically  !
 ! D217  D(83,84,85,87)        -28.9845         calculate D2E/DX2 analytically  !
 ! D218  D(83,84,85,88)         90.7227         calculate D2E/DX2 analytically  !
 ! D219  D(89,84,85,86)         59.3315         calculate D2E/DX2 analytically  !
 ! D220  D(89,84,85,87)        178.3327         calculate D2E/DX2 analytically  !
 ! D221  D(89,84,85,88)        -61.96           calculate D2E/DX2 analytically  !
 ! D222  D(83,84,89,90)        -83.8859         calculate D2E/DX2 analytically  !
 ! D223  D(83,84,89,91)         36.1096         calculate D2E/DX2 analytically  !
 ! D224  D(83,84,89,92)        154.7674         calculate D2E/DX2 analytically  !
 ! D225  D(85,84,89,90)         65.0782         calculate D2E/DX2 analytically  !
 ! D226  D(85,84,89,91)       -174.9263         calculate D2E/DX2 analytically  !
 ! D227  D(85,84,89,92)        -56.2684         calculate D2E/DX2 analytically  !
 ! D228  D(84,89,91,60)        -67.9253         calculate D2E/DX2 analytically  !
 ! D229  D(84,89,91,94)         86.772          calculate D2E/DX2 analytically  !
 ! D230  D(90,89,91,60)         52.9353         calculate D2E/DX2 analytically  !
 ! D231  D(90,89,91,94)       -152.3674         calculate D2E/DX2 analytically  !
 ! D232  D(92,89,91,60)        172.3961         calculate D2E/DX2 analytically  !
 ! D233  D(92,89,91,94)        -32.9066         calculate D2E/DX2 analytically  !
 ! D234  D(60,91,94,93)        -13.009          calculate D2E/DX2 analytically  !
 ! D235  D(89,91,94,93)       -176.4897         calculate D2E/DX2 analytically  !
 ! D236  D(59,93,94,91)         45.3002         calculate D2E/DX2 analytically  !
 ! D237  D(95,93,94,91)        169.6479         calculate D2E/DX2 analytically  !
 ! D238  D(96,93,94,91)        -75.9731         calculate D2E/DX2 analytically  !
 --------------------------------------------------------------------------------
 Trust Radius=5.00D-02 FncErr=1.00D-07 GrdErr=1.00D-06 EigMax=2.50D+02 EigMin=1.00D-04
 Number of steps in this run=    543 maximum allowed number of steps=    600.
 Search for a saddle point of order  1.
 Step   0 in ReCalcFC=30 IGetFC= 4 compute analytic Hessian.
 GradGradGradGradGradGradGradGradGradGradGradGradGradGradGradGradGradGrad

 Leave Link  103 at Fri May 31 18:19:37 2019, MaxMem=  6442450944 cpu:               4.9 elap:               0.2
 (Enter /home/ekwan/sw/g16/l202.exe)
 Stoichiometry    C30H47F6NaO15S
 Framework group  C1[X(C30H47F6NaO15S)]
 Deg. of freedom   294
 Full point group                 C1      NOp   1
 Largest Abelian subgroup         C1      NOp   1
 Largest concise Abelian subgroup C1      NOp   1
                         Standard orientation:                         
 ---------------------------------------------------------------------
 Center     Atomic      Atomic             Coordinates (Angstroms)
 Number     Number       Type             X           Y           Z
 ---------------------------------------------------------------------
      1          6           0       -2.971302   -0.010999   -1.873560
      2          6           0       -3.813884   -0.727476   -0.816832
      3          6           0       -3.657700   -2.250222   -0.934975
      4          6           0       -1.473417   -2.055869   -1.936520
      5          6           0       -1.528901   -0.525834   -1.893543
      6          1           0       -4.103165   -2.761292   -0.074458
      7          1           0       -3.445641   -0.444323    0.178971
      8          1           0       -3.410612   -0.205793   -2.860469
      9          1           0       -1.880377   -2.392375   -2.898420
     10          1           0       -1.005564   -0.181597   -0.989204
     11          8           0       -2.282658   -2.594453   -0.864428
     12          8           0       -4.265547   -2.669746   -2.122948
     13          8           0       -5.154322   -0.295841   -0.969681
     14          8           0       -2.933708    1.391684   -1.628838
     15          8           0       -0.854802   -0.056945   -3.055556
     16          6           0       -0.057738   -2.624468   -1.737650
     17          1           0        0.558267   -2.171934   -2.542482
     18          1           0       -0.128373   -3.706809   -1.988582
     19          8           0        0.446829   -2.407441   -0.479347
     20          6           0       -6.023217   -0.705507    0.073924
     21          1           0       -6.207765   -1.788097    0.055354
     22          1           0       -5.626743   -0.426281    1.058640
     23          1           0       -6.971681   -0.187559   -0.086840
     24          6           0       -3.899459    2.149646   -2.344041
     25          1           0       -3.829488    1.954170   -3.423504
     26          1           0       -4.915270    1.929727   -2.002770
     27          1           0       -3.671309    3.201797   -2.158990
     28          6           0       -0.138604    1.156441   -2.880029
     29          1           0       -0.806389    2.005408   -2.707084
     30          1           0        0.561028    1.079683   -2.040400
     31          1           0        0.427482    1.322137   -3.801738
     32          6           0        4.816098   -0.761493    0.591974
     33          6           0        3.591918   -1.661519    0.354668
     34          6           0        2.396889   -0.801461    0.103876
     35          6           0        3.726353    0.604204   -1.344012
     36          6           0        5.014809    0.188033   -0.603898
     37          1           0        1.392594   -1.111153    0.356202
     38          1           0        3.767526   -2.210800   -0.584057
     39          1           0        4.641130   -0.168536    1.495475
     40          1           0        3.671700    1.691818   -1.344722
     41          1           0        5.654421   -0.355796   -1.313933
     42          8           0        2.469982    0.208309   -0.683136
     43          8           0        1.143193    0.808384    4.188541
     44          8           0        3.395097   -2.537846    1.430058
     45          8           0        5.994800   -1.536234    0.707167
     46          8           0        5.630803    1.411130   -0.237177
     47          6           0        3.631296    0.088889   -2.767440
     48          1           0        4.477579    0.496752   -3.341803
     49          1           0        2.700777    0.448847   -3.226473
     50          8           0        3.661252   -1.321079   -2.729259
     51         16           0        1.096652    0.295167    2.806110
     52          8           0        0.325956   -0.977899    2.658338
     53          8           0        2.443558    0.245609    2.141432
     54          6           0        0.157708    1.480955    1.830188
     55          6           0        0.805434    2.294432    0.907756
     56          6           0       -1.222212    1.567201    2.011833
     57          6           0        0.052213    3.175399    0.129584
     58          1           0        1.877064    2.214727    0.786138
     59          6           0       -1.956679    2.472177    1.249234
     60          1           0       -1.711706    0.927410    2.737191
     61          6           0       -1.326289    3.273760    0.297989
     62          1           0       -1.906958    3.949058   -0.315559
     63          6           0        2.855490   -3.806324    1.034440
     64          1           0        1.925025   -3.665002    0.471264
     65          1           0        3.587418   -4.357240    0.425703
     66          1           0        2.669256   -4.358143    1.958474
     67          6           0        6.345768   -1.879004    2.045722
     68          1           0        6.515581   -0.976374    2.650095
     69          1           0        5.570150   -2.487372    2.517814
     70          1           0        7.277545   -2.446030    1.982842
     71          6           0        6.994443    1.298565    0.152433
     72          1           0        7.104823    0.825094    1.134500
     73          1           0        7.569981    0.720028   -0.582719
     74          1           0        7.383451    2.318239    0.200211
     75          6           0        3.399129   -1.915170   -3.992695
     76          1           0        3.444616   -2.996048   -3.848950
     77          1           0        2.400093   -1.638539   -4.356393
     78          1           0        4.149502   -1.613180   -4.736779
     79          6           0       -4.307241   -4.086227   -2.261575
     80          1           0       -4.892825   -4.297835   -3.158255
     81          1           0       -3.302145   -4.508872   -2.372306
     82          1           0       -4.793410   -4.548892   -1.390772
     83         11           0       -0.973187   -2.105804    1.165227
     84          8           0       -3.001655   -2.526295    2.238965
     85          6           0       -3.293521   -3.905312    2.441321
     86          1           0       -4.376683   -4.081428    2.397873
     87          1           0       -2.806034   -4.459846    1.636440
     88          1           0       -2.911535   -4.250885    3.411293
     89          6           0       -3.620759   -1.695430    3.213611
     90          1           0       -3.216111   -1.891673    4.215341
     91          1           0       -3.421811   -0.661265    2.931970
     92          1           0       -4.706769   -1.858999    3.225145
     93          6           0       -3.432710    2.602683    1.497968
     94          9           0       -4.023536    1.387572    1.647291
     95          9           0       -4.076195    3.246840    0.508055
     96          9           0       -3.678441    3.282614    2.642081
     97          6           0        0.752552    4.029817   -0.889592
     98          9           0        1.747472    3.344873   -1.512823
     99          9           0        1.324508    5.119698   -0.334937
    100          9           0       -0.090371    4.464648   -1.850616
 ---------------------------------------------------------------------
 Rotational constants (GHZ):           0.0686939           0.0422762           0.0379651
 Leave Link  202 at Fri May 31 18:19:37 2019, MaxMem=  6442450944 cpu:               4.9 elap:               0.2
 (Enter /home/ekwan/sw/g16/l301.exe)
 Standard basis: 6-31G(d) (6D, 7F)
 Ernie: Thresh=  0.10000D-02 Tol=  0.10000D-05 Strict=F.
 There are   897 symmetry adapted cartesian basis functions of A   symmetry.
 There are   897 symmetry adapted basis functions of A   symmetry.
   897 basis functions,  1720 primitive gaussians,   897 cartesian basis functions
   214 alpha electrons      214 beta electrons
       nuclear repulsion energy      9826.7583869443 Hartrees.
 IExCor=  402 DFT=T Ex+Corr=B3LYP ExCW=0 ScaHFX=  0.200000
 ScaDFX=  0.800000  0.720000  1.000000  0.810000 ScalE2=  1.000000  1.000000
 IRadAn=      5 IRanWt=     -1 IRanGd=            0 ICorTp=0 IEmpDi=141
 NAtoms=  100 NActive=  100 NUniq=  100 SFac= 1.00D+00 NAtFMM=   60 NAOKFM=T Big=T
 Integral buffers will be    131072 words long.
 Raffenetti 2 integral format.
 Two-electron integral symmetry is turned on.
 R6Disp:  Grimme-D3(BJ) Dispersion energy=       -0.2358538658 Hartrees.
 Nuclear repulsion after empirical dispersion term =     9826.5225330785 Hartrees.
 Force inversion solution in PCM.
 ------------------------------------------------------------------------------
 Polarizable Continuum Model (PCM)
 =================================
 Model                : PCM.
 Atomic radii         : UFF (Universal Force Field).
 Polarization charges : Total charges.
 Charge compensation  : None.
 Solution method      : Matrix inversion.
 Cavity type          : Scaled VdW (van der Waals Surface) (Alpha=1.100).
 Cavity algorithm     : GePol (No added spheres)
                        Default sphere list used, NSphG=  100.
                        Lebedev-Laikov grids with approx.  5.0 points / Ang**2.
                        Smoothing algorithm: York/Karplus (Gamma=1.0000).
                        Polarization charges: spherical gaussians, with
                                              point-specific exponents (IZeta= 3).
                        Self-potential: point-specific (ISelfS= 7).
                        Self-field    : sphere-specific E.n sum rule (ISelfD= 2).
 1st derivatives      : Analytical E(r).r(x)/FMM algorithm (CHGder, D1EAlg=3).
                        Cavity 1st derivative terms included.
 2nd derivatives      : Analytical E(r).r(xy)/FMM algorithm (CHGder, D2EAlg=3).
                        Cavity 2nd derivative terms included.
 Solvent              : TetraHydroFuran, Eps=   7.425700 Eps(inf)=   1.974025
 ------------------------------------------------------------------------------
 GePol: Number of generator spheres                  =     100
 GePol: Total number of spheres                      =     100
 GePol: Number of exposed spheres                    =     100 (100.00%)
 GePol: Number of points                             =    6087
 GePol: Average weight of points                     =       0.12
 GePol: Minimum weight of points                     =   0.17D-11
 GePol: Maximum weight of points                     =    0.21593
 GePol: Number of points with low weight             =     464
 GePol: Fraction of low-weight points (<1% of avg)   =       7.62%
 GePol: Cavity surface area                          =    746.782 Ang**2
 GePol: Cavity volume                                =    973.900 Ang**3
 Leave Link  301 at Fri May 31 18:19:38 2019, MaxMem=  6442450944 cpu:               8.0 elap:               0.3
 (Enter /home/ekwan/sw/g16/l302.exe)
 NPDir=0 NMtPBC=     1 NCelOv=     1 NCel=       1 NClECP=     1 NCelD=      1
         NCelK=      1 NCelE2=     1 NClLst=     1 CellRange=     0.0.
 One-electron integrals computed using PRISM.
 One-electron integral symmetry used in STVInt
 NBasis=   897 RedAO= T EigKep=  3.86D-04  NBF=   897
 NBsUse=   897 1.00D-06 EigRej= -1.00D+00 NBFU=   897
 Precomputing XC quadrature grid using
 IXCGrd= 4 IRadAn=           5 IRanWt=          -1 IRanGd=           0 AccXCQ= 0.00D+00.
 Generated NRdTot=       0 NPtTot=           0 NUsed=           0 NTot=          32
 NSgBfM=   831   816   816   818   831 MxSgAt=   100 MxSgA2=   100.
 Leave Link  302 at Fri May 31 18:19:56 2019, MaxMem=  6442450944 cpu:             501.2 elap:              18.0
 (Enter /home/ekwan/sw/g16/l303.exe)
 DipDrv:  MaxL=1.
 Leave Link  303 at Fri May 31 18:19:56 2019, MaxMem=  6442450944 cpu:              16.1 elap:               0.6
 (Enter /home/ekwan/sw/g16/l401.exe)
 ExpMin= 2.60D-02 ExpMax= 2.19D+04 ExpMxC= 3.30D+03 IAcc=3 IRadAn=         5 AccDes= 0.00D+00
 Harris functional with IExCor=  402 and IRadAn=       5 diagonalized for initial guess.
 HarFok:  IExCor=  402 AccDes= 0.00D+00 IRadAn=         5 IDoV= 1 UseB2=F ITyADJ=14
 ICtDFT=  3500011 ScaDFX=  1.000000  1.000000  1.000000  1.000000
 FoFCou: FMM=F IPFlag=           0 FMFlag=      100000 FMFlg1=        2001
         NFxFlg=           0 DoJE=T BraDBF=F KetDBF=T FulRan=T
         wScrn=  0.000000 ICntrl=       500 IOpCl=  0 I1Cent=   200000004 NGrid=           0
         NMat0=    1 NMatS0=      1 NMatT0=    0 NMatD0=    1 NMtDS0=    0 NMtDT0=    0
 Petite list used in FoFCou.
 Harris En= -3459.38821876722    
[...]
 98,0.00050121,-0.00016111,0.00109787,0.00004625,-0.00020060,0.00005670
 ,0.00020445,-0.00009617,0.00011496,0.00021736,0.00013305,0.00007277,-0
 .00012774,0.00019102,0.00012235,0.00005561,-0.00003052,-0.00003514,0.0
 0002064,0.00003486,0.00009936,0.00006319,-0.00021523,-0.00017631,-0.00
 191504,0.00178982,-0.00193612,0.00015722,-0.00104350,0.00040869,0.0009
 5201,-0.00055907,0.00018100,0.00002179,0.00042786,0.00113633,-0.001696
 75,0.00147585,-0.00001660,-0.00087485,-0.00047470,0.00023732,-0.025806
 80,-0.02925152,-0.00858456,0.00003982,-0.00041612,-0.00085622,-0.00116
 717,0.00026088,0.00219644,-0.00006592,-0.00014696,-0.00010152,0.002751
 63,-0.00339658,0.00145485,-0.00010103,-0.00059405,-0.00082441,0.000025
 86,0.00011758,0.00002675,-0.00002209,0.00002537,-0.00002245,0.00001365
 ,-0.00002449,-0.00001596,-0.00000508,-0.00001678,0.00001073,-0.0000415
 2,0.00000425,-0.00011670,0.00000208,0.00001214,0.00001971,-0.00000478,
 0.00000541,0.00001021,0.00001743,-0.00000969,0.00001392,-0.00014336,-0
 .00001454,-0.00002607,0.00002185,-0.00001393,0.00001210,0.00001667,-0.
 00000514,0.00000456,0.00003862,0.00002047,0.00000496,-0.00001054,0.000
 06074,0.00014420,-0.00000191,-0.00002274,-0.00001464,0.00000115,-0.000
 00014,-0.00001188,0.00001495,0.00000344,-0.00003095,0.00001933,0.00010
 620,0.00000354,-0.00000792,-0.00001449,-0.00001173,0.00000464,-0.00000
 701,0.00000263,-0.00000329,-0.00001506,0.00001228,0.00007905,0.0002005
 1,0.00002312,-0.00006120,-0.00013596,0.00003866,0.00003217,0.00011148,
 -0.00002261,-0.00001792,-0.00001395,0.00000353,0.00000259,-0.00000507,
 -0.00000624,0.00000117,-0.00001263,0.00001490,0.00002004,0.00011444,-0
 .00003717,0.00000534,-0.00002101,0.00001393,0.00003959,-0.00000065,-0.
 00000289,-0.00002381,-0.00003618,0.00000274,0.00266291,-0.00067083,-0.
 00027474,-0.00082344,-0.00034931,0.00016966,-0.00071163,0.00025069,-0.
 00011232,-0.00083372,0.00054078,0.00070986,-0.07415271,-0.20500031,-0.
 04591388,0.01142934,-0.05030869,-0.04076943,0.10373398,0.27493151,0.00
 002634,0.00000590,0.00002449,-0.00000644,0.00001122,-0.00007423,0.0000
 4811,-0.00000287,0.00000248,0.00002264,0.00007028,-0.00000582,0.000183
 22,0.00009540,-0.00037016,-0.00001107,-0.00000880,0.00000174,-0.000005
 06,-0.00001662,0.00002511,0.00000764,0.00000592,0.00000888,0.00000348,
 0.00000029,0.00000648,0.00001290,0.00000576,0.00002291,-0.00006306,-0.
 00006051,0.00006683,-0.00001849,-0.00001051,0.00000657,-0.00003501,-0.
 00000546,0.00005613,-0.00005765,-0.00001761,0.00012341,-0.00037008,-0.
 00059932,0.00004650,-0.00002309,0.00002378,-0.00006937,-0.00001936,0.0
 0000335,0.00002807,0.00000456,-0.00001737,0.00000968,0.00001844,-0.000
 01792,0.00009338,0.00000520,0.00000050,-0.00004219,-0.00000075,-0.0000
 0052,0.00000683,-0.00000126,-0.00000468,0.00001233,-0.00000351,-0.0000
 0047,0.00000323,0.00001687,0.00004618,-0.00001368,0.00001537,0.0000110
 3,0.00002271,-0.00001697,-0.00001656,0.00000258,0.00002136,-0.00001846
 ,-0.00003792,0.00003977,0.00043285,0.00035441,0.00035482,0.00010856,0.
 00003426,-0.00001246,0.00024316,-0.00018023,0.00002669,0.00000905,0.00
 001278,0.00001546,0.00001521,-0.00006152,0.00001136,0.00001972,-0.0000
 1661,0.00007695,0.00013899,-0.00045423,0.00004097,0.00030276,-0.000058
 18,-0.00013653,-0.00011321,-0.00005912,0.00000270,-0.00000969,0.000011
 79,-0.00000201,0.00001443,-0.00000076,0.00001736,-0.00000464,0.0000127
 0,-0.00032372,0.00001406,-0.00006275,0.00001460,0.00000507,0.00001525,
 -0.00003735,-0.00026622,0.00029089,-0.00010885,0.00012504,-0.00008302,
 -0.00000241,-0.00003388,0.00005326,0.00003433,-0.00002353,0.00007401,0
 .00005709,0.00003675,0.00006869,-0.00011472,0.00014681,0.00004055,0.00
 001699,-0.00000843,0.00000548,0.00003192,0.00002730,0.00006121,0.00003
 320,-0.00015692,-0.00004019,0.00043427,-0.00053003,0.00016940,-0.00003
 624,0.00021293,-0.00000713,-0.00026996,0.00021337,0.00016060,-0.000070
 38,-0.00060790,0.00016488,0.00019358,-0.00032699,0.00005738,0.00057865
 ,0.00016617,-0.00018953,0.00776150,0.01126981,0.01111063,-0.00001041,0
 .00000352,-0.00002569,-0.00003820,-0.00013853,-0.00085234,0.00001480,0
 .00000627,0.00004802,-0.00106983,0.00085318,0.00001791,0.00036631,0.00
 017718,0.00007344,0.00000390,0.00000641,0.00000023,-0.00000157,0.00000
 415,-0.00000734,-0.00000174,0.00000017,0.00000030,0.00000017,-0.000006
 44,0.00000393,-0.00000965,-0.00000965,-0.00004423,0.00000444,0.0000078
 3,0.00000653,-0.00000168,-0.00000363,0.00000399,0.00000198,-0.00000070
 ,0.00000639,-0.00004472,-0.00000022,-0.00002355,0.00001089,-0.00001064
 ,0.00001186,0.00000279,0.00000321,0.00000623,0.00001495,0.00000601,-0.
 00000383,-0.00001085,0.00002565,0.00005368,0.00000138,-0.00001495,-0.0
 0000651,0.00000585,0.00000460,-0.00000852,0.00000072,0.00000319,-0.000
 00982,0.00000678,0.00001593,-0.00000183,0.00000074,0.00000026,-0.00000
 060,-0.00000032,0.00000098,-0.00000090,-0.00000257,-0.00000275,0.00000
 431,-0.00001290,-0.00005248,-0.00007921,0.00000793,0.00003993,0.000022
 65,-0.00000653,-0.00002068,-0.00000128,0.00000373,0.00000313,-0.000001
 76,-0.00000243,0.00000589,0.00000120,0.00000082,0.00000137,0.00000038,
 0.00000461,-0.00004546,-0.00001235,-0.00000117,0.00000187,0.00000444,-
 0.00001249,0.00000030,-0.00000554,0.00000441,0.00001137,0.00000076,-0.
 00061648,0.00004597,-0.00012777,0.00014703,0.00007099,-0.00000618,0.00
 016928,-0.00006047,0.00009220,0.00018341,-0.00006605,-0.00005869,-0.02
 556012,-0.04611619,-0.08931550,0.00515600,-0.04517851,-0.01543527,0.05
 670603,0.10856794,0.12647734,-0.00002189,0.00025989,0.00004209,0.00001
 498,-0.00000862,-0.00002603,-0.00002640,0.00005058,0.00002109,0.000020
 56,0.00006937,0.00001391,0.00005021,0.00008067,-0.00017932,-0.00000291
 ,-0.00001773,-0.00000161,-0.00000398,0.00000319,0.00000259,0.00000368,
 -0.00002802,-0.00001127,0.00000945,-0.00000463,0.00000239,-0.00001760,
 0.00001084,0.00001849,0.00001611,-0.00006110,0.00002626,-0.00000275,-0
 .00004821,-0.00000689,-0.00003788,-0.00004611,0.00004243,-0.00006436,-
 0.00026782,-0.00001099,0.00012301,-0.00062021,0.00008762,-0.00008257,-
 0.00000363,-0.00012402,-0.00000931,-0.00000064,0.00001892,0.00002770,-
 0.00000063,0.00002660,0.00017070,0.00005442,0.00010577,0.00003285,0.00
 001631,-0.00003433,-0.00000607,-0.00001238,0.00000562,0.00000152,0.000
 00231,0.00000490,-0.00000399,0.00000135,0.00000206,0.00006603,0.000180
 77,0.00005899,0.00001587,-0.00000660,-0.00000488,-0.00002974,-0.000042
 04,0.00000099,0.00013947,-0.00009861,-0.00003905,-0.00121271,0.0008868
 3,-0.00028213,0.00068992,-0.00008226,0.00012505,0.00003491,-0.00031831
 ,0.00016081,0.00009801,-0.00011078,-0.00010677,0.00000561,-0.00006771,
 0.00005766,-0.00004236,-0.00006813,0.00001231,-0.00010874,-0.00043563,
 0.00038401,-0.00014143,-0.00060015,0.00001043,0.00016970,0.00008029,0.
 00004899,-0.00007402,-0.00001912,-0.00002860,0.00000668,-0.00000713,-0
 .00000846,-0.00000571,0.00000100,0.00000187,0.00058254,-0.00008607,-0.
 00002880,-0.00004321,0.00001402,-0.00001235,0.00008343,0.00048649,-0.0
 0023245,0.00009125,-0.00002099,0.00000416,0.00002313,0.00011842,-0.000
 05115,-0.00007253,0.00008640,-0.00008658,-0.00012868,0.00004259,-0.000
 03045,0.00003080,-0.00012556,-0.00023205,-0.00000291,0.00001395,0.0000
 0830,-0.00002510,-0.00001592,-0.00002701,0.00002623,0.00021903,0.00018
 922,-0.00041508,0.00000012,0.00003812,0.00011788,0.00001556,0.00002898
 ,0.00021679,0.00003630,-0.00016490,-0.00019866,-0.00048199,0.00035709,
 0.00009823,0.00021218,-0.00009998,0.00032326,-0.00038612,0.00030222,0.
 00567975,-0.00058925,-0.00071002,0.00027341,-0.00035637,0.00041745,0.0
 0145815,0.00025867,-0.00005144,0.00011906,-0.00012868,0.00003594,-0.00
 405340,0.00012541,0.00251459,0.00157090,-0.00169944,0.00153494,-0.0000
 2156,-0.00006657,-0.00001896,-0.00000074,0.00000405,0.00000475,-0.0000
 0076,0.00000935,0.00000676,0.00000290,0.00001172,-0.00000359,0.0000155
 8,-0.00001690,0.00005734,0.00000104,-0.00000105,-0.00000400,0.00000175
 ,0.00000361,-0.00001080,-0.00001051,0.00000719,-0.00000861,0.00012679,
 -0.00001513,0.00002976,-0.00001847,0.00000948,-0.00001722,-0.00002080,
 0.00001598,0.00000943,-0.00000319,-0.00000503,-0.00000401,-0.00004292,
 -0.00003611,-0.00013627,0.00000355,0.00001977,0.00001844,0.00001570,-0
 .00000400,0.00002084,-0.00000043,-0.00000136,0.00002137,-0.00000057,0.
 00003313,0.00000038,-0.00000027,-0.00000271,-0.00000175,0.00000326,-0.
 00000415,-0.00000119,-0.00000165,-0.00000464,0.00000387,-0.00005178,0.
 00000756,-0.00002120,0.00000961,-0.00001307,0.00001238,-0.00000176,0.0
 0001117,-0.00000453,0.00000146,-0.00000076,-0.00000022,-0.00000157,0.,
 -0.00000208,0.00000007,-0.00000209,0.00000429,-0.00000176,0.00000921,-
 0.00000655,0.00000097,-0.00000420,0.00000488,-0.00000502,0.00000090,-0
 .00000498,0.00000227,0.00000105,-0.00000053,0.00014585,0.00025422,-0.0
 0046209,-0.00004474,-0.00009818,0.00004900,-0.00001230,-0.00009411,0.0
 0016087,-0.00001665,0.00001395,0.00011371,-0.12596651,0.03732969,-0.07
 771731,-0.05376131,0.04113129,-0.01939253,-0.02746112,-0.01367641,-0.0
 4379722,0.20155778,0.00000973,0.00004146,0.00003175,0.00010494,0.00001
 337,0.00004586,0.00011869,0.00006867,0.00005005,0.00001540,0.00009510,
 0.00000331,0.00024703,0.00013889,-0.00018773,-0.00001255,-0.00001136,0
 .00000058,0.00000138,0.00001740,-0.00004870,-0.00001102,-0.00001934,-0
 .00002738,-0.00001366,-0.00001708,-0.00001458,-0.00003167,0.00004067,-
 0.00001538,-0.00011191,-0.00008716,0.00002422,-0.00006618,-0.00008454,
 -0.00006309,-0.00013687,-0.00000796,0.00000662,-0.00027131,0.00001390,
 -0.00021407,-0.00021525,-0.00077096,-0.00015963,0.00002981,0.00004106,
 0.00014429,-0.00000922,0.00001978,-0.00001962,-0.00001649,-0.00006357,
 -0.00003842,-0.00009312,-0.00018850,-0.00011798,0.00005323,0.00002653,
 -0.00001699,-0.00000771,-0.00001330,0.00000299,0.00000647,0.00000379,-
 0.00000455,-0.00001840,0.00000088,0.00000211,0.00018864,-0.00022883,0.
 00014967,-0.00002836,-0.00000631,-0.00005486,-0.00003351,0.00003450,-0
 .00001528,0.00000474,0.00002505,0.00005088,-0.00065842,0.00061685,0.00
 023612,0.00040928,-0.00178343,-0.00016034,-0.00002774,0.00028697,-0.00
 005465,0.00012094,-0.00004422,-0.00009877,-0.00009759,0.00004132,-0.00
 003001,0.00004494,0.00009340,-0.00004188,-0.00002704,0.00052869,0.0000
 3469,-0.00011844,0.00023903,0.00012529,-0.00015092,-0.00010322,-0.0000
 4494,0.00006408,0.00004718,0.00001482,0.00000396,-0.00001384,0.0000248
 2,-0.00002707,-0.00000818,-0.00000615,-0.00034498,0.00006327,0.0000394
 0,0.00004153,-0.00000118,0.00000580,0.00011903,-0.00033650,-0.00000067
 ,0.00030566,-0.00012006,0.00074130,0.00002116,-0.00015163,0.00002810,0
 .00013668,-0.00008195,0.00006897,0.00015332,0.00004354,0.00002381,-0.0
 0005214,0.00010207,0.00012632,0.00003599,-0.00002053,-0.00002255,-0.00
 000861,0.00001224,0.00004843,0.00002219,-0.00014764,-0.00015612,-0.001
 51118,0.00116074,-0.00138032,0.00009048,-0.00098911,0.00033454,0.00064
 419,-0.00041561,0.00006229,0.00027094,-0.00173362,0.00040934,-0.003845
 23,0.00055228,0.00273496,0.00030317,-0.00037044,0.00048083,0.01677768,
 -0.00494386,0.02632034,-0.00001787,0.00048502,-0.00025495,-0.00024343,
 -0.00011224,-0.00025676,-0.00006418,0.00003708,0.00004317,0.00119514,-
 0.00070072,0.00056811,-0.00093259,-0.00028535,0.00075575,0.00002178,0.
 00009402,0.00002336,-0.00001416,0.00001461,-0.00001368,0.00001004,-0.0
 0001881,-0.00001258,-0.00000395,-0.00001202,0.00000682,-0.00002708,0.0
 0001460,-0.00007341,-0.00000114,0.00000410,0.00001043,-0.00000306,0.00
 000347,0.00000843,0.00001397,-0.00000839,0.00000878,-0.00011450,-0.000
 00002,-0.00001669,0.00001501,-0.00000765,0.00000886,0.00001667,-0.0000
 1132,-0.00000431,0.00001631,0.00001102,0.00000596,0.00000502,0.0000426
 1,0.00011446,-0.00000215,-0.00001525,-0.00001250,-0.00000531,-0.000001
 03,-0.00000907,0.00001159,0.00000112,-0.00002278,0.00001372,0.00005621
 ,0.00000398,-0.00000586,-0.00000863,-0.00000722,0.00000167,-0.00000270
 ,0.00000277,-0.00000113,-0.00000800,0.00000577,0.00008957,0.00013364,0
 .00004084,-0.00004604,-0.00007859,0.00001649,0.00002224,0.00006610,-0.
 00001056,-0.00001266,-0.00000844,0.00000224,0.00000278,-0.00000265,-0.
 00000325,0.00000080,-0.00000649,0.00000672,0.00001539,0.00005964,-0.00
 001731,0.00000311,-0.00000812,0.00000439,0.00002494,-0.00000171,0.0000
 0319,-0.00001648,-0.00002124,0.00000118,0.00145578,-0.00031568,-0.0002
 1454,-0.00043852,-0.00015098,0.00009131,-0.00042091,0.00017118,-0.0001
 2301,-0.00041312,0.00021589,0.00032840,0.03426860,-0.10026789,0.058312
 97,0.03863834,-0.01264430,0.01130786,-0.02416986,0.01226527,-0.0290425
 2,-0.06128717,0.10941796,0.00002556,0.00005555,0.00004057,-0.00007140,
 0.00001192,-0.00015815,-0.00001148,-0.00003207,-0.00001944,0.00002364,
 0.00009171,0.00001952,0.00020454,0.00013055,-0.00064870,-0.00000977,-0
 .00001104,0.00000123,-0.00000585,-0.00003503,0.00006982,0.00002415,0.0
 0001279,0.00002917,0.00002242,0.00001233,0.00002185,0.00002013,-0.0000
 1795,0.00007625,-0.00001734,-0.00007805,0.00010627,0.00001567,0.000024
 79,0.00004823,0.00001815,-0.00001359,0.00009558,0.00001310,-0.00010422
 ,0.00033168,-0.00012901,-0.00107893,0.00030242,-0.00011012,0.00000687,
 -0.00029963,-0.00003220,-0.00000905,0.00007254,0.00003744,0.00002191,0
 .00006391,0.00021478,0.00015864,0.00030344,-0.00002071,-0.00001211,-0.
 00006502,0.00000254,0.00000527,0.00001086,-0.00000643,-0.00001074,0.00
 002451,0.00000482,-0.00000128,0.00000512,-0.00005723,0.00021667,-0.000
 09384,0.00004862,0.00002648,0.00006954,-0.00001665,-0.00005195,0.00001
 313,0.00007293,-0.00006033,-0.00011236,-0.00134529,0.00125363,0.000008
 60,0.00108123,-0.00017735,-0.00025503,0.00012586,-0.00010661,0.0000163
 7,0.00005918,0.00002636,0.00002047,0.00010655,-0.00004118,-0.00001844,
 -0.00004023,-0.00008776,0.00001560,0.00005297,-0.00051290,-0.00046481,
 0.00017203,-0.00010872,-0.00020260,0.00005404,0.00000949,-0.00000125,-
 0.00009589,-0.00006442,-0.00001698,-0.00000436,0.00002781,-0.00002672,
 0.00004630,0.00000610,0.00002004,0.00012482,-0.00002150,-0.00003107,-0
 .00003719,0.00000894,0.00000578,-0.00009299,0.00019603,0.00026741,-0.0
 0051667,0.00027145,-0.00102927,-0.00001813,0.00014649,0.00002078,-0.00
 011394,0.00007613,-0.00001209,-0.00011622,0.00000902,0.00003299,-0.000
 07935,0.00001910,-0.00016069,-0.00000693,0.00001518,0.00003265,0.00001
 143,0.00001098,0.00001460,0.00003602,0.00003395,0.00016500,0.00223302,
 -0.00197184,0.00151132,-0.00005076,0.00142747,-0.00030696,-0.00098739,
 0.00070107,0.00010366,-0.00162704,0.00200815,-0.00093332,0.00680838,0.
 00161996,-0.00394678,0.00008451,0.00030820,-0.00047749,-0.02674417,0.0
 2033879,-0.02766255,-0.00000440,-0.00047182,0.00028787,0.00031292,0.00
 058549,0.00008926,0.00008986,-0.00004072,-0.00006439,-0.00211575,0.000
 47058,-0.00078074,0.00136856,0.00035750,-0.00195005,-0.00002521,-0.000
 10540,-0.00002784,0.00000892,-0.00000402,0.00000300,-0.00001075,0.0000
 2109,0.00001441,0.00000571,0.00000761,-0.00000216,0.00002020,-0.000026
 60,0.00004035,0.00000544,0.00000359,-0.00000454,0.00000166,-0.00000623
 ,-0.00000686,-0.00001389,0.00000865,-0.00000421,0.00009134,-0.00000520
 ,-0.00000018,-0.00000781,0.00000036,-0.00000137,-0.00001732,0.00001664
 ,0.00001174,-0.00000148,-0.00000535,-0.00000876,-0.00004418,-0.0000205
 6,-0.00009460,0.00000589,0.00000323,0.00001117,0.00002045,0.00000441,0
 .00000859,-0.00000696,0.00000222,0.00001673,0.00000027,-0.00000283,-0.
 00000436,0.00000473,0.00000504,0.00000330,-0.00000047,0.00000181,-0.00
 000364,-0.00000346,-0.00000031,0.00000338,-0.00013998,-0.00016691,-0.0
 0017044,0.00005244,0.00010607,0.00002241,-0.00002585,-0.00007329,0.000
 00463,0.00001535,0.00001032,-0.00000407,-0.00000621,0.00000978,0.00000
 285,0.00000010,0.00000575,-0.00000263,-0.00000761,-0.00009951,-0.00000
 473,-0.00000401,0.00000787,0.00000433,-0.00003356,0.00000089,-0.000009
 70,0.00001913,0.00003029,0.00000012,-0.00204761,0.00027751,0.00012272,
 0.00063398,0.00028701,-0.00010433,0.00061857,-0.00020888,0.00022798,0.
 00057185,-0.00025304,-0.00038525,-0.06747455,0.05796016,-0.18527545,-0
 .00733606,0.00443038,0.01995908,-0.04087657,-0.01683978,-0.03224897,0.
 13697625,-0.07096493,0.23332759\\0.00000081,0.00000105,-0.00000121,0.0
 0000042,-0.00000078,-0.00000271,0.00000117,-0.00000056,-0.00000476,0.0
 0000164,0.00000175,-0.00000315,0.00000102,0.00000164,-0.00000108,0.000
 00083,-0.00000194,-0.00000573,-0.00000025,-0.00000203,-0.00000209,0.00
 000147,0.00000225,-0.00000173,0.00000239,0.00000293,-0.00000388,0.0000
 0034,0.00000062,-0.00000025,0.00000126,-0.00000009,-0.00000441,0.00000
 202,0.00000086,-0.00000570,0.00000036,-0.00000112,-0.00000289,0.000000
 07,0.00000073,0.00000079,0.00000152,0.00000357,0.00000002,0.00000174,0
 .00000202,-0.00000315,0.00000209,0.00000343,-0.00000211,0.00000238,0.0
 0000238,-0.00000467,0.00000094,0.00000048,-0.00000250,-0.00000007,-0.0
 0000292,-0.00000403,0.00000036,-0.00000298,-0.00000563,-0.00000080,-0.
 00000415,-0.00000337,-0.00000020,-0.00000309,-0.00000384,0.00000021,0.
 00000132,0.00000129,0.00000092,0.00000287,0.00000104,0.00000008,0.0000
 0043,0.00000036,-0.00000035,0.00000116,0.00000289,0.00000088,0.0000036
 0,0.00000210,0.00000047,0.00000310,0.00000294,0.00000047,0.00000272,0.
 00000248,0.00000141,0.00000514,0.00000271,-0.00000037,0.00000084,0.000
 00239,0.00000013,0.00000061,0.00000047,-0.00000016,0.00000012,0.000001
 25,0.00000046,0.00000310,0.00000358,-0.00000010,0.00000249,0.00000390,
 -0.00000008,-0.00000027,-0.00000018,0.00000091,0.00000198,-0.00000027,
 -0.00000116,-0.00000061,0.00000313,-0.00000027,0.00000301,0.00000518,0
 .00000060,0.00000380,0.00000349,0.00000002,0.00000180,0.00000221,-0.00
 000319,-0.00000577,0.00000243,-0.00000017,-0.00000099,-0.00000094,-0.0
 0000016,0.00000109,0.00000203,-0.00000081,0.00000218,0.00000592,0.0000
 0128,0.00000506,0.00000296,0.00000146,0.00000613,0.00000398,0.00000139
 ,0.00000524,0.00000283,0.00000185,0.00000493,0.00000095,-0.00000203,-0
 .00000388,0.00000165,-0.00000156,-0.00000400,-0.00000058,-0.00000172,-
 0.00000239,0.00000238,-0.00000204,-0.00000294,0.00000285,-0.00000178,-
 0.00000131,0.00000430,-0.00000221,-0.00000370,0.00000208,-0.00000174,-
 0.00000048,0.00000503,-0.00000166,-0.00000072,0.00000483,-0.00000212,-
 0.00000288,0.00000286,-0.00000236,-0.00000493,0.00000089,-0.00000189,-
 0.00000133,0.00000439,-0.00000174,-0.00000072,0.00000501,0.00000061,-0
 .00000060,-0.00000303,0.00000088,-0.00000027,-0.00000339,0.00000118,0.
 00000048,-0.00000337,0.00000027,-0.00000204,-0.00000392,-0.00000079,-0
 .00000066,0.00000177,-0.00000152,-0.00000144,0.00000313,-0.00000083,-0
 .00000163,0.00000044,-0.00000052,-0.00000019,0.00000153,-0.00000089,0.
 00000225,0.00000665,-0.00000135,0.00000094,0.00000600,-0.00000029,0.00
 000354,0.00000614,-0.00000140,0.00000237,0.00000827,0.00000283,0.00000
 657,-0.00000011,0.00000320,0.00000644,-0.00000153,0.00000295,0.0000067
 3,-0.00000025,0.00000317,0.00000797,0.00000083,0.00000269,0.00000105,-
 0.00000772,0.00000331,0.00000207,-0.00000836,0.00000292,0.00000161,-0.
 00000771,0.00000235,-0.00000037,-0.00000866,-0.00000017,-0.00000240,-0
 .00000293,-0.00000064,-0.00000474,-0.00000474,-0.00000020,-0.00000513,
 -0.00000686,-0.00000011,-0.00000552,-0.00000775,0.00000050,-0.00000381
 ,-0.00000734,-0.00000064,-0.00000635,-0.00000711,-0.00000157,-0.000006
 38,-0.00000395,-0.00000209,-0.00000760,-0.00000398,-0.00000182,-0.0000
 0587,-0.00000238,-0.00000151,-0.00000681,-0.00000483,-0.00000231,-0.00
 000382,0.00000215,-0.00000190,-0.00000434,0.00000015,-0.00000194,-0.00
 000277,0.00000274,-0.00000325,-0.00000558,0.00000301,-0.00000148,0.000
 00130,0.00000673,-0.00000074,0.00000243,0.00000631,-0.00000223,0.00000
 060,0.00000857,-0.00000103,0.00000217,0.00000682\\\@


 THE DIFFERENCE BETWEEN A NOOSE AND A HALO IS ONLY 12 INCHES.
 Job cpu time:       4 days 22 hours 26 minutes 37.3 seconds.
 Elapsed time:       0 days  3 hours 47 minutes 54.1 seconds.
 File lengths (MBytes):  RWF=   9742 Int=      0 D2E=      0 Chk=    107 Scr=      1
 Normal termination of Gaussian 16 at Sat Jun  1 01:59:45 2019.
