 Entering Gaussian System, Link 0=g16
 Input=clay_new-glu_gluC6-AADR-Na2_1Me2O-bisCF3-ts-b3lyp_d3bj-631gd-pcm_thf.gjf
 Output=clay_new-glu_gluC6-AADR-Na2_1Me2O-bisCF3-ts-b3lyp_d3bj-631gd-pcm_thf.out
 Initial command:
 /home/ekwan/sw/g16/l1.exe "/scratch/users/ekwan/clay_new-glu_gluC6-AADR-Na2_1Me2O-bisCF3-ts-b3lyp_d3bj-631gd-pcm_thf/Gau-61007.inp" -scrdir="/scratch/users/ekwan/clay_new-glu_gluC6-AADR-Na2_1Me2O-bisCF3-ts-b3lyp_d3bj-631gd-pcm_thf/"
 Entering Link 1 = /home/ekwan/sw/g16/l1.exe PID=     61008.
  
 Copyright (c) 1988,1990,1992,1993,1995,1998,2003,2009,2016,
            Gaussian, Inc.  All Rights Reserved.
  
 This is part of the Gaussian(R) 16 program.  It is based on
 the Gaussian(R) 09 system (copyright 2009, Gaussian, Inc.),
 the Gaussian(R) 03 system (copyright 2003, Gaussian, Inc.),
 the Gaussian(R) 98 system (copyright 1998, Gaussian, Inc.),
 the Gaussian(R) 94 system (copyright 1995, Gaussian, Inc.),
 the Gaussian 92(TM) system (copyright 1992, Gaussian, Inc.),
 the Gaussian 90(TM) system (copyright 1990, Gaussian, Inc.),
 the Gaussian 88(TM) system (copyright 1988, Gaussian, Inc.),
 the Gaussian 86(TM) system (copyright 1986, Carnegie Mellon
 University), and the Gaussian 82(TM) system (copyright 1983,
 Carnegie Mellon University). Gaussian is a federally registered
 trademark of Gaussian, Inc.
  
 This software contains proprietary and confidential information,
 including trade secrets, belonging to Gaussian, Inc.
  
 This software is provided under written license and may be
 used, copied, transmitted, or stored only in accord with that
 written license.
  
 The following legend is applicable only to US Government
 contracts under FAR:
  
                    RESTRICTED RIGHTS LEGEND
  
 Use, reproduction and disclosure by the US Government is
 subject to restrictions as set forth in subparagraphs (a)
 and (c) of the Commercial Computer Software - Restricted
 Rights clause in FAR 52.227-19.
  
 Gaussian, Inc.
 340 Quinnipiac St., Bldg. 40, Wallingford CT 06492
  
  
 ---------------------------------------------------------------
 Warning -- This program may not be used in any manner that
 competes with the business of Gaussian, Inc. or will provide
 assistance to any competitor of Gaussian, Inc.  The licensee
 of this program is prohibited from giving any competitor of
 Gaussian, Inc. access to this program.  By using this program,
 the user acknowledges that Gaussian, Inc. is engaged in the
 business of creating and licensing software in the field of
 computational chemistry and represents and warrants to the
 licensee that it is not a competitor of Gaussian, Inc. and that
 it will not use this program in any manner prohibited above.
 ---------------------------------------------------------------
  

 Cite this work as:
 Gaussian 16, Revision A.03,
 M. J. Frisch, G. W. Trucks, H. B. Schlegel, G. E. Scuseria, 
 M. A. Robb, J. R. Cheeseman, G. Scalmani, V. Barone, 
 G. A. Petersson, H. Nakatsuji, X. Li, M. Caricato, A. V. Marenich, 
 J. Bloino, B. G. Janesko, R. Gomperts, B. Mennucci, H. P. Hratchian, 
 J. V. Ortiz, A. F. Izmaylov, J. L. Sonnenberg, D. Williams-Young, 
 F. Ding, F. Lipparini, F. Egidi, J. Goings, B. Peng, A. Petrone, 
 T. Henderson, D. Ranasinghe, V. G. Zakrzewski, J. Gao, N. Rega, 
 G. Zheng, W. Liang, M. Hada, M. Ehara, K. Toyota, R. Fukuda, 
 J. Hasegawa, M. Ishida, T. Nakajima, Y. Honda, O. Kitao, H. Nakai, 
 T. Vreven, K. Throssell, J. A. Montgomery, Jr., J. E. Peralta, 
 F. Ogliaro, M. J. Bearpark, J. J. Heyd, E. N. Brothers, K. N. Kudin, 
 V. N. Staroverov, T. A. Keith, R. Kobayashi, J. Normand, 
 K. Raghavachari, A. P. Rendell, J. C. Burant, S. S. Iyengar, 
 J. Tomasi, M. Cossi, J. M. Millam, M. Klene, C. Adamo, R. Cammi, 
 J. W. Ochterski, R. L. Martin, K. Morokuma, O. Farkas, 
 J. B. Foresman, and D. J. Fox, Gaussian, Inc., Wallingford CT, 2016.
 
 ******************************************
 Gaussian 16:  AS64L-G16RevA.03 25-Dec-2016
                24-May-2019 
 ******************************************
 %mem=48GB
 %nprocshared=32
 Will use up to   32 processors via shared memory.
 ----------------------------------------------------------------------
 #p opt=(ts,noeigentest,calcfc,maxstep=3,modredundant,recalc=30) freq=n
 oraman b3lyp 6-31g* pop=none scrf=(solvent=tetrahydrofuran,pcm) empiri
 caldispersion=gd3bj
 ----------------------------------------------------------------------
 1/5=1,8=3,10=4,11=1,18=120,26=3,38=1,71=30/1,3;
 2/9=110,12=2,17=6,18=5,40=1/2;
 3/5=1,6=6,7=1,11=2,25=1,30=1,70=2201,71=2,72=20,74=-5,124=41,140=1/1,2,3;
 4//1;
 5/5=2,38=5,53=20/2;
 8/6=4,10=90,11=11/1;
 11/6=1,8=1,9=11,15=111,16=1/1,2,10;
 10/6=1,13=1/2;
 7/10=1,18=20,25=1/1,2,3,16;
 1/5=1,8=3,10=4,11=1,18=20,26=3,71=30/3(2);
 2/9=110/2;
 99//99;
 2/9=110/2;
 3/5=1,6=6,7=1,11=2,25=1,30=1,70=2205,71=1,72=20,74=-5,124=41/1,2,3;
 4/5=5,16=3,69=1/1;
 5/5=2,38=5,53=20/2;
 7//1,2,3,16;
 1/5=1,8=3,11=1,18=20,26=3,71=30/3(-5);
 2/9=110/2;
 99/9=1/99;
 Leave Link    1 at Fri May 24 19:07:07 2019, MaxMem=  6442450944 cpu:               5.3 elap:               0.2
 (Enter /home/ekwan/sw/g16/l101.exe)
 -----
 title
 -----
 Symbolic Z-matrix:
 Charge =  0 Multiplicity = 1
 C                    -5.4725   -0.03148  -0.09749 
 C                    -5.33889  -1.45501   0.44208 
 C                    -4.8898   -2.42153  -0.6644 
 C                    -3.77052  -0.67277  -1.89142 
 C                    -4.23257   0.37994  -0.88471 
 H                    -4.63999  -3.41074  -0.25524 
 H                    -4.55289  -1.45803   1.20866 
 H                    -6.34471   0.02226  -0.76178 
 H                    -4.50372  -0.74553  -2.70373 
 H                    -3.40963   0.54196  -0.18037 
 O                    -3.6688   -1.9647   -1.23582 
 O                    -5.91725  -2.53412  -1.6043 
 O                    -6.57958  -1.83553   1.01782 
 O                    -5.6113    0.90038   0.97253 
 O                    -4.51843   1.58623  -1.58694 
 C                    -2.37778  -0.34935  -2.45589 
 H                    -2.49419   0.60635  -3.00688 
 H                    -2.17334  -1.11624  -3.2366 
 O                    -1.39744  -0.31212  -1.49018 
 C                    -6.47118  -2.88655   1.96324 
 H                    -6.17583  -3.83725   1.49718 
 H                    -5.74397  -2.64107   2.75126 
 H                    -7.45873  -3.01197   2.41356 
 C                    -6.95159   1.25791   1.27379 
 H                    -7.44649   1.70881   0.4009 
 H                    -7.53535   0.39348   1.60757 
 H                    -6.90589   1.9999    2.07595 
 C                    -3.64574   2.65326  -1.25056 
 H                    -3.74392   2.9255   -0.19147 
 H                    -2.59957   2.40122  -1.4521 
 H                    -3.93409   3.50792  -1.86794 
 C                     1.97811   2.48906  -0.57669 
 C                     1.10702   1.29994  -1.00493 
 C                    -0.03405   1.08808  -0.04895 
 C                     0.00259   3.37576   0.71709 
 C                     1.06777   3.68957  -0.33639 
 H                    -0.4288    0.11639   0.14507 
 H                     0.63099   1.56948  -1.95987 
 H                     2.50206   2.23383   0.35175 
 H                     0.48687   3.26847   1.69131 
 H                     0.5755    3.96182  -1.27647 
 O                    -0.64905   2.06614   0.516 
 O                     0.4397   -1.79548   1.06826 
 O                     1.89429   0.14916  -1.1472 
 O                     2.89445   2.8268   -1.59756 
 O                     1.78846   4.78948   0.18879 
 C                    -1.07992   4.42774   0.81859 
 H                    -0.63077   5.3145    1.2876 
 H                    -1.88492   4.06323   1.47385 
 O                    -1.56801   4.7349   -0.46979 
 S                     1.41515  -1.02229   1.89317 
 O                     1.51453  -1.48469   3.29462 
 O                     1.22299   0.46752   1.78611 
 C                     3.01041  -1.32533   1.12357 
 C                     3.18506  -2.44515   0.32367 
 C                     4.04253  -0.4078    1.31213 
 C                     4.41008  -2.63876  -0.31957 
 H                     2.36297  -3.13464   0.17519 
 C                     5.25777  -0.6152    0.66784 
 H                     3.8827    0.47258   1.92162 
 C                     5.44868  -1.72773  -0.15691 
 H                     6.39089  -1.87396  -0.67179 
 C                     1.59317  -0.64597  -2.29956 
 H                     0.53384  -0.92118  -2.29583 
 H                     1.83513  -0.08889  -3.21571 
 H                     2.2362   -1.52535  -2.23641 
 C                     4.19268   2.2645   -1.42621 
 H                     4.62737   2.56815  -0.46521 
 H                     4.1645    1.17249  -1.47808 
 H                     4.81086   2.6567   -2.237 
 C                     2.07136   5.80608  -0.76952 
 H                     2.69607   5.41894  -1.58073 
 H                     1.14284   6.21887  -1.18675 
 H                     2.60764   6.59351  -0.2351 
 C                    -2.50123   5.80374  -0.45021 
 H                    -2.80699   5.97813  -1.48357 
 H                    -3.38583   5.55082   0.15098 
 H                    -2.04624   6.71892  -0.04472 
 C                    -5.66924  -3.52082  -2.60062 
 H                    -6.57179  -3.58437  -3.21128 
 H                    -4.81744  -3.24756  -3.23369 
 H                    -5.47161  -4.4991   -2.1395 
 Na                   -1.59867  -1.97275   0.00237 
 O                    -2.45455  -1.37678   2.15254 
 C                    -2.33868  -0.02805   2.59924 
 H                    -1.29144   0.23064   2.79469 
 H                    -2.73235   0.61049   1.80843 
 H                    -2.93178   0.12517   3.51075 
 C                    -2.07617  -2.30342   3.1683 
 H                    -2.72959  -2.19735   4.04491 
 H                    -2.19649  -3.30608   2.74975 
 H                    -1.03149  -2.1528    3.4628 
 C                     6.38263   0.37136   0.80951 
 F                     6.80476   0.80682  -0.404 
 F                     7.45805  -0.17458   1.41825 
 F                     6.02445   1.46154   1.52076 
 C                     4.54765  -3.79013  -1.27444 
 F                     3.93755  -3.51852  -2.45782 
 F                     3.97011  -4.91219  -0.79323 
 F                     5.83511  -4.07758  -1.55232 
 
 Add virtual bond connecting atoms H37        and O19        Dist= 3.68D+00.
 Add virtual bond connecting atoms H87        and H10        Dist= 3.97D+00.
 Add virtual bond connecting atoms O43        and H37        Dist= 4.33D+00.
 Add virtual bond connecting atoms O43        and Na83       Dist= 4.36D+00.
 Add virtual bond connecting atoms O53        and C34        Dist= 4.36D+00.
 Add virtual bond connecting atoms O53        and H37        Dist= 4.45D+00.
 The following ModRedundant input section has been read:
 
 ITRead=  0  0  0  0  0  0  0  0  0  0  0  0  0  0  0  0  0  0  0  0
 ITRead=  0  0  0  0  0  0  0  0  0  0  0  0  0  0  0  0  0  0  0  0
 ITRead=  0  0  0  0  0  0  0  0  0  0  0  0  0  0  0  0  0  0  0  0
 ITRead=  0  0  0  0  0  0  0  0  0  0  0  0  0  0  0  0  0  0  0  0
 ITRead=  0  0  0  0  0  0  0  0  0  0  0  0  0  0  0  0  0  0  0  0
 MicOpt= -1 -1 -1 -1 -1 -1 -1 -1 -1 -1 -1 -1 -1 -1 -1 -1 -1 -1 -1 -1
 MicOpt= -1 -1 -1 -1 -1 -1 -1 -1 -1 -1 -1 -1 -1 -1 -1 -1 -1 -1 -1 -1
 MicOpt= -1 -1 -1 -1 -1 -1 -1 -1 -1 -1 -1 -1 -1 -1 -1 -1 -1 -1 -1 -1
 MicOpt= -1 -1 -1 -1 -1 -1 -1 -1 -1 -1 -1 -1 -1 -1 -1 -1 -1 -1 -1 -1
 MicOpt= -1 -1 -1 -1 -1 -1 -1 -1 -1 -1 -1 -1 -1 -1 -1 -1 -1 -1 -1 -1
 NAtoms=    100 NQM=      100 NQMF=       0 NMMI=      0 NMMIF=      0
                NMic=       0 NMicF=      0.
                    Isotopes and Nuclear Properties:
 (Nuclear quadrupole moments (NQMom) in fm**2, nuclear magnetic moments (NMagM)
  in nuclear magnetons)

  Atom         1           2           3           4           5           6           7           8           9          10
 IAtWgt=          12          12          12          12          12           1           1           1           1           1
 AtmWgt=  12.0000000  12.0000000  12.0000000  12.0000000  12.0000000   1.0078250   1.0078250   1.0078250   1.0078250   1.0078250
 NucSpn=           0           0           0           0           0           1           1           1           1           1
 AtZEff=   0.0000000   0.0000000   0.0000000   0.0000000   0.0000000   0.0000000   0.0000000   0.0000000   0.0000000   0.0000000
 NQMom=    0.0000000   0.0000000   0.0000000   0.0000000   0.0000000   0.0000000   0.0000000   0.0000000   0.0000000   0.0000000
 NMagM=    0.0000000   0.0000000   0.0000000   0.0000000   0.0000000   2.7928460   2.7928460   2.7928460   2.7928460   2.7928460
 AtZNuc=   6.0000000   6.0000000   6.0000000   6.0000000   6.0000000   1.0000000   1.0000000   1.0000000   1.0000000   1.0000000

  Atom        11          12          13          14          15          16          17          18          19          20
 IAtWgt=          16          16          16          16          16          12           1           1          16          12
 AtmWgt=  15.9949146  15.9949146  15.9949146  15.9949146  15.9949146  12.0000000   1.0078250   1.0078250  15.9949146  12.0000000
 NucSpn=           0           0           0           0           0           0           1           1           0           0
 AtZEff=   0.0000000   0.0000000   0.0000000   0.0000000   0.0000000   0.0000000   0.0000000   0.0000000   0.0000000   0.0000000
 NQMom=    0.0000000   0.0000000   0.0000000   0.0000000   0.0000000   0.0000000   0.0000000   0.0000000   0.0000000   0.0000000
 NMagM=    0.0000000   0.0000000   0.0000000   0.0000000   0.0000000   0.0000000   2.7928460   2.7928460   0.0000000   0.0000000
 AtZNuc=   8.0000000   8.0000000   8.0000000   8.0000000   8.0000000   6.0000000   1.0000000   1.0000000   8.0000000   6.0000000

  Atom        21          22          23          24          25          26          27          28          29          30
 IAtWgt=           1           1           1          12           1           1           1          12           1           1
 AtmWgt=   1.0078250   1.0078250   1.0078250  12.0000000   1.0078250   1.0078250   1.0078250  12.0000000   1.0078250   1.0078250
 NucSpn=           1           1           1           0           1           1           1           0           1           1
 AtZEff=   0.0000000   0.0000000   0.0000000   0.0000000   0.0000000   0.0000000   0.0000000   0.0000000   0.0000000   0.0000000
 NQMom=    0.0000000   0.0000000   0.0000000   0.0000000   0.0000000   0.0000000   0.0000000   0.0000000   0.0000000   0.0000000
 NMagM=    2.7928460   2.7928460   2.7928460   0.0000000   2.7928460   2.7928460   2.7928460   0.0000000   2.7928460   2.7928460
 AtZNuc=   1.0000000   1.0000000   1.0000000   6.0000000   1.0000000   1.0000000   1.0000000   6.0000000   1.0000000   1.0000000

  Atom        31          32          33          34          35          36          37          38          39          40
 IAtWgt=           1          12          12          12          12          12           1           1           1           1
 AtmWgt=   1.0078250  12.0000000  12.0000000  12.0000000  12.0000000  12.0000000   1.0078250   1.0078250   1.0078250   1.0078250
 NucSpn=           1           0           0           0           0           0           1           1           1           1
 AtZEff=   0.0000000   0.0000000   0.0000000   0.0000000   0.0000000   0.0000000   0.0000000   0.0000000   0.0000000   0.0000000
 NQMom=    0.0000000   0.0000000   0.0000000   0.0000000   0.0000000   0.0000000   0.0000000   0.0000000   0.0000000   0.0000000
 NMagM=    2.7928460   0.0000000   0.0000000   0.0000000   0.0000000   0.0000000   2.7928460   2.7928460   2.7928460   2.7928460
 AtZNuc=   1.0000000   6.0000000   6.0000000   6.0000000   6.0000000   6.0000000   1.0000000   1.0000000   1.0000000   1.0000000

  Atom        41          42          43          44          45          46          47          48          49          50
 IAtWgt=           1          16          16          16          16          16          12           1           1          16
 AtmWgt=   1.0078250  15.9949146  15.9949146  15.9949146  15.9949146  15.9949146  12.0000000   1.0078250   1.0078250  15.9949146
 NucSpn=           1           0           0           0           0           0           0           1           1           0
 AtZEff=   0.0000000   0.0000000   0.0000000   0.0000000   0.0000000   0.0000000   0.0000000   0.0000000   0.0000000   0.0000000
 NQMom=    0.0000000   0.0000000   0.0000000   0.0000000   0.0000000   0.0000000   0.0000000   0.0000000   0.0000000   0.0000000
 NMagM=    2.7928460   0.0000000   0.0000000   0.0000000   0.0000000   0.0000000   0.0000000   2.7928460   2.7928460   0.0000000
 AtZNuc=   1.0000000   8.0000000   8.0000000   8.0000000   8.0000000   8.0000000   6.0000000   1.0000000   1.0000000   8.0000000

  Atom        51          52          53          54          55          56          57          58          59          60
 IAtWgt=          32          16          16          12          12          12          12           1          12           1
 AtmWgt=  31.9720718  15.9949146  15.9949146  12.0000000  12.0000000  12.0000000  12.0000000   1.0078250  12.0000000   1.0078250
 NucSpn=           0           0           0           0           0           0           0           1           0           1
 AtZEff=   0.0000000   0.0000000   0.0000000   0.0000000   0.0000000   0.0000000   0.0000000   0.0000000   0.0000000   0.0000000
 NQMom=    0.0000000   0.0000000   0.0000000   0.0000000   0.0000000   0.0000000   0.0000000   0.0000000   0.0000000   0.0000000
 NMagM=    0.0000000   0.0000000   0.0000000   0.0000000   0.0000000   0.0000000   0.0000000   2.7928460   0.0000000   2.7928460
 AtZNuc=  16.0000000   8.0000000   8.0000000   6.0000000   6.0000000   6.0000000   6.0000000   1.0000000   6.0000000   1.0000000

  Atom        61          62          63          64          65          66          67          68          69          70
 IAtWgt=          12           1          12           1           1           1          12           1           1           1
 AtmWgt=  12.0000000   1.0078250  12.0000000   1.0078250   1.0078250   1.0078250  12.0000000   1.0078250   1.0078250   1.0078250
 NucSpn=           0           1           0           1           1           1           0           1           1           1
 AtZEff=   0.0000000   0.0000000   0.0000000   0.0000000   0.0000000   0.0000000   0.0000000   0.0000000   0.0000000   0.0000000
 NQMom=    0.0000000   0.0000000   0.0000000   0.0000000   0.0000000   0.0000000   0.0000000   0.0000000   0.0000000   0.0000000
 NMagM=    0.0000000   2.7928460   0.0000000   2.7928460   2.7928460   2.7928460   0.0000000   2.7928460   2.7928460   2.7928460
 AtZNuc=   6.0000000   1.0000000   6.0000000   1.0000000   1.0000000   1.0000000   6.0000000   1.0000000   1.0000000   1.0000000

  Atom        71          72          73          74          75          76          77          78          79          80
 IAtWgt=          12           1           1           1          12           1           1           1          12           1
 AtmWgt=  12.0000000   1.0078250   1.0078250   1.0078250  12.0000000   1.0078250   1.0078250   1.0078250  12.0000000   1.0078250
 NucSpn=           0           1           1           1           0           1           1           1           0           1
 AtZEff=   0.0000000   0.0000000   0.0000000   0.0000000   0.0000000   0.0000000   0.0000000   0.0000000   0.0000000   0.0000000
 NQMom=    0.0000000   0.0000000   0.0000000   0.0000000   0.0000000   0.0000000   0.0000000   0.0000000   0.0000000   0.0000000
 NMagM=    0.0000000   2.7928460   2.7928460   2.7928460   0.0000000   2.7928460   2.7928460   2.7928460   0.0000000   2.7928460
 AtZNuc=   6.0000000   1.0000000   1.0000000   1.0000000   6.0000000   1.0000000   1.0000000   1.0000000   6.0000000   1.0000000

  Atom        81          82          83          84          85          86          87          88          89          90
 IAtWgt=           1           1          23          16          12           1           1           1          12           1
 AtmWgt=   1.0078250   1.0078250  22.9897697  15.9949146  12.0000000   1.0078250   1.0078250   1.0078250  12.0000000   1.0078250
 NucSpn=           1           1           3           0           0           1           1           1           0           1
 AtZEff=   0.0000000   0.0000000   0.0000000   0.0000000   0.0000000   0.0000000   0.0000000   0.0000000   0.0000000   0.0000000
 NQMom=    0.0000000   0.0000000  10.4000000   0.0000000   0.0000000   0.0000000   0.0000000   0.0000000   0.0000000   0.0000000
 NMagM=    2.7928460   2.7928460   2.2175200   0.0000000   0.0000000   2.7928460   2.7928460   2.7928460   0.0000000   2.7928460
 AtZNuc=   1.0000000   1.0000000  11.0000000   8.0000000   6.0000000   1.0000000   1.0000000   1.0000000   6.0000000   1.0000000

  Atom        91          92          93          94          95          96          97          98          99         100
 IAtWgt=           1           1          12          19          19          19          12          19          19          19
 AtmWgt=   1.0078250   1.0078250  12.0000000  18.9984033  18.9984033  18.9984033  12.0000000  18.9984033  18.9984033  18.9984033
 NucSpn=           1           1           0           1           1           1           0           1           1           1
 AtZEff=   0.0000000   0.0000000   0.0000000   0.0000000   0.0000000   0.0000000   0.0000000   0.0000000   0.0000000   0.0000000
 NQMom=    0.0000000   0.0000000   0.0000000   0.0000000   0.0000000   0.0000000   0.0000000   0.0000000   0.0000000   0.0000000
 NMagM=    2.7928460   2.7928460   0.0000000   2.6288670   2.6288670   2.6288670   0.0000000   2.6288670   2.6288670   2.6288670
 AtZNuc=   1.0000000   1.0000000   6.0000000   9.0000000   9.0000000   9.0000000   6.0000000   9.0000000   9.0000000   9.0000000
 Leave Link  101 at Fri May 24 19:07:08 2019, MaxMem=  6442450944 cpu:              18.0 elap:               0.7
 (Enter /home/ekwan/sw/g16/l103.exe)

 GradGradGradGradGradGradGradGradGradGradGradGradGradGradGradGradGradGrad
 Berny optimization.
 Initialization pass.
                           ----------------------------
                           !    Initial Parameters    !
                           ! (Angstroms and Degrees)  !
 --------------------------                            --------------------------
 ! Name  Definition              Value          Derivative Info.                !
 --------------------------------------------------------------------------------
 ! R1    R(1,2)                  1.5282         calculate D2E/DX2 analytically  !
 ! R2    R(1,5)                  1.5253         calculate D2E/DX2 analytically  !
 ! R3    R(1,8)                  1.0977         calculate D2E/DX2 analytically  !
 ! R4    R(1,14)                 1.4257         calculate D2E/DX2 analytically  !
 ! R5    R(2,3)                  1.5363         calculate D2E/DX2 analytically  !
 ! R6    R(2,7)                  1.0979         calculate D2E/DX2 analytically  !
 ! R7    R(2,13)                 1.4197         calculate D2E/DX2 analytically  !
 ! R8    R(3,6)                  1.0993         calculate D2E/DX2 analytically  !
 ! R9    R(3,11)                 1.4234         calculate D2E/DX2 analytically  !
 ! R10   R(3,12)                 1.397          calculate D2E/DX2 analytically  !
 ! R11   R(4,5)                  1.5281         calculate D2E/DX2 analytically  !
 ! R12   R(4,9)                  1.0967         calculate D2E/DX2 analytically  !
 ! R13   R(4,11)                 1.4523         calculate D2E/DX2 analytically  !
 ! R14   R(4,16)                 1.5372         calculate D2E/DX2 analytically  !
 ! R15   R(5,10)                 1.0952         calculate D2E/DX2 analytically  !
 ! R16   R(5,15)                 1.4248         calculate D2E/DX2 analytically  !
 ! R17   R(10,87)                2.1021         calculate D2E/DX2 analytically  !
 ! R18   R(12,79)                1.424          calculate D2E/DX2 analytically  !
 ! R19   R(13,20)                1.4178         calculate D2E/DX2 analytically  !
 ! R20   R(14,24)                1.4195         calculate D2E/DX2 analytically  !
 ! R21   R(15,28)                1.4189         calculate D2E/DX2 analytically  !
 ! R22   R(16,17)                1.1093         calculate D2E/DX2 analytically  !
 ! R23   R(16,18)                1.1133         calculate D2E/DX2 analytically  !
 ! R24   R(16,19)                1.3766         calculate D2E/DX2 analytically  !
 ! R25   R(19,37)                1.9483         calculate D2E/DX2 analytically  !
 ! R26   R(19,83)                2.2418         calculate D2E/DX2 analytically  !
 ! R27   R(20,21)                1.0992         calculate D2E/DX2 analytically  !
 ! R28   R(20,22)                1.1            calculate D2E/DX2 analytically  !
 ! R29   R(20,23)                1.0926         calculate D2E/DX2 analytically  !
 ! R30   R(24,25)                1.1001         calculate D2E/DX2 analytically  !
 ! R31   R(24,26)                1.0952         calculate D2E/DX2 analytically  !
 ! R32   R(24,27)                1.0937         calculate D2E/DX2 analytically  !
 ! R33   R(28,29)                1.0979         calculate D2E/DX2 analytically  !
 ! R34   R(28,30)                1.0948         calculate D2E/DX2 analytically  !
 ! R35   R(28,31)                1.093          calculate D2E/DX2 analytically  !
 ! R36   R(32,33)                1.535          calculate D2E/DX2 analytically  !
 ! R37   R(32,36)                1.5257         calculate D2E/DX2 analytically  !
 ! R38   R(32,39)                1.0962         calculate D2E/DX2 analytically  !
 ! R39   R(32,45)                1.4128         calculate D2E/DX2 analytically  !
 ! R40   R(33,34)                1.5036         calculate D2E/DX2 analytically  !
 ! R41   R(33,38)                1.1005         calculate D2E/DX2 analytically  !
 ! R42   R(33,44)                1.4015         calculate D2E/DX2 analytically  !
 ! R43   R(34,37)                1.0666         calculate D2E/DX2 analytically  !
 ! R44   R(34,42)                1.2861         calculate D2E/DX2 analytically  !
 ! R45   R(34,53)                2.3093         calculate D2E/DX2 analytically  !
 ! R46   R(35,36)                1.5307         calculate D2E/DX2 analytically  !
 ! R47   R(35,40)                1.0932         calculate D2E/DX2 analytically  !
 ! R48   R(35,42)                1.4765         calculate D2E/DX2 analytically  !
 ! R49   R(35,47)                1.5129         calculate D2E/DX2 analytically  !
 ! R50   R(36,41)                1.0955         calculate D2E/DX2 analytically  !
 ! R51   R(36,46)                1.416          calculate D2E/DX2 analytically  !
 ! R52   R(37,43)                2.2939         calculate D2E/DX2 analytically  !
 ! R53   R(37,53)                2.3547         calculate D2E/DX2 analytically  !
 ! R54   R(43,51)                1.4933         calculate D2E/DX2 analytically  !
 ! R55   R(43,83)                2.3071         calculate D2E/DX2 analytically  !
 ! R56   R(44,63)                1.4321         calculate D2E/DX2 analytically  !
 ! R57   R(45,67)                1.4251         calculate D2E/DX2 analytically  !
 ! R58   R(46,71)                1.4254         calculate D2E/DX2 analytically  !
 ! R59   R(47,48)                1.0991         calculate D2E/DX2 analytically  !
 ! R60   R(47,49)                1.1001         calculate D2E/DX2 analytically  !
 ! R61   R(47,50)                1.4116         calculate D2E/DX2 analytically  !
 ! R62   R(50,75)                1.419          calculate D2E/DX2 analytically  !
 ! R63   R(51,52)                1.4791         calculate D2E/DX2 analytically  !
 ! R64   R(51,53)                1.506          calculate D2E/DX2 analytically  !
 ! R65   R(51,54)                1.7969         calculate D2E/DX2 analytically  !
 ! R66   R(54,55)                1.3872         calculate D2E/DX2 analytically  !
 ! R67   R(54,56)                1.3938         calculate D2E/DX2 analytically  !
 ! R68   R(55,57)                1.3971         calculate D2E/DX2 analytically  !
 ! R69   R(55,58)                1.0832         calculate D2E/DX2 analytically  !
 ! R70   R(56,59)                1.391          calculate D2E/DX2 analytically  !
 ! R71   R(56,60)                1.0826         calculate D2E/DX2 analytically  !
 ! R72   R(57,61)                1.3911         calculate D2E/DX2 analytically  !
 ! R73   R(57,97)                1.5021         calculate D2E/DX2 analytically  !
 ! R74   R(59,61)                1.398          calculate D2E/DX2 analytically  !
 ! R75   R(59,93)                1.5029         calculate D2E/DX2 analytically  !
 ! R76   R(61,62)                1.0836         calculate D2E/DX2 analytically  !
 ! R77   R(63,64)                1.0945         calculate D2E/DX2 analytically  !
 ! R78   R(63,65)                1.0992         calculate D2E/DX2 analytically  !
 ! R79   R(63,66)                1.0912         calculate D2E/DX2 analytically  !
 ! R80   R(67,68)                1.0976         calculate D2E/DX2 analytically  !
 ! R81   R(67,69)                1.0936         calculate D2E/DX2 analytically  !
 ! R82   R(67,70)                1.0924         calculate D2E/DX2 analytically  !
 ! R83   R(71,72)                1.0946         calculate D2E/DX2 analytically  !
 ! R84   R(71,73)                1.0985         calculate D2E/DX2 analytically  !
 ! R85   R(71,74)                1.0924         calculate D2E/DX2 analytically  !
 ! R86   R(75,76)                1.0917         calculate D2E/DX2 analytically  !
 ! R87   R(75,77)                1.099          calculate D2E/DX2 analytically  !
 ! R88   R(75,78)                1.0995         calculate D2E/DX2 analytically  !
 ! R89   R(79,80)                1.0916         calculate D2E/DX2 analytically  !
 ! R90   R(79,81)                1.0959         calculate D2E/DX2 analytically  !
 ! R91   R(79,82)                1.0994         calculate D2E/DX2 analytically  !
 ! R92   R(84,85)                1.4255         calculate D2E/DX2 analytically  !
 ! R93   R(84,89)                1.426          calculate D2E/DX2 analytically  !
 ! R94   R(85,86)                1.0963         calculate D2E/DX2 analytically  !
 ! R95   R(85,87)                1.09           calculate D2E/DX2 analytically  !
 ! R96   R(85,88)                1.0982         calculate D2E/DX2 analytically  !
 ! R97   R(89,90)                1.0985         calculate D2E/DX2 analytically  !
 ! R98   R(89,91)                1.0932         calculate D2E/DX2 analytically  !
 ! R99   R(89,92)                1.0958         calculate D2E/DX2 analytically  !
 ! R100  R(93,94)                1.3566         calculate D2E/DX2 analytically  !
 ! R101  R(93,95)                1.351          calculate D2E/DX2 analytically  !
 ! R102  R(93,96)                1.3501         calculate D2E/DX2 analytically  !
 ! R103  R(97,98)                1.3588         calculate D2E/DX2 analytically  !
 ! R104  R(97,99)                1.3506         calculate D2E/DX2 analytically  !
 ! R105  R(97,100)               1.3481         calculate D2E/DX2 analytically  !
 ! A1    A(2,1,5)              111.2491         calculate D2E/DX2 analytically  !
 ! A2    A(2,1,8)              109.1925         calculate D2E/DX2 analytically  !
 ! A3    A(2,1,14)             110.6324         calculate D2E/DX2 analytically  !
 ! A4    A(5,1,8)              108.6867         calculate D2E/DX2 analytically  !
 ! A5    A(5,1,14)             106.8701         calculate D2E/DX2 analytically  !
 ! A6    A(8,1,14)             110.1721         calculate D2E/DX2 analytically  !
 ! A7    A(1,2,3)              110.9345         calculate D2E/DX2 analytically  !
 ! A8    A(1,2,7)              108.1593         calculate D2E/DX2 analytically  !
 ! A9    A(1,2,13)             108.4484         calculate D2E/DX2 analytically  !
 ! A10   A(3,2,7)              106.9697         calculate D2E/DX2 analytically  !
 ! A11   A(3,2,13)             112.2667         calculate D2E/DX2 analytically  !
 ! A12   A(7,2,13)             109.9831         calculate D2E/DX2 analytically  !
 ! A13   A(2,3,6)              111.3769         calculate D2E/DX2 analytically  !
 ! A14   A(2,3,11)             109.7536         calculate D2E/DX2 analytically  !
 ! A15   A(2,3,12)             108.6793         calculate D2E/DX2 analytically  !
 ! A16   A(6,3,11)             104.0816         calculate D2E/DX2 analytically  !
 ! A17   A(6,3,12)             110.1835         calculate D2E/DX2 analytically  !
 ! A18   A(11,3,12)            112.7461         calculate D2E/DX2 analytically  !
 ! A19   A(5,4,9)              109.3605         calculate D2E/DX2 analytically  !
 ! A20   A(5,4,11)             109.6698         calculate D2E/DX2 analytically  !
 ! A21   A(5,4,16)             111.7726         calculate D2E/DX2 analytically  !
 ! A22   A(9,4,11)             108.7939         calculate D2E/DX2 analytically  !
 ! A23   A(9,4,16)             110.3472         calculate D2E/DX2 analytically  !
 ! A24   A(11,4,16)            106.8265         calculate D2E/DX2 analytically  !
 ! A25   A(1,5,4)              113.5779         calculate D2E/DX2 analytically  !
 ! A26   A(1,5,10)             108.5904         calculate D2E/DX2 analytically  !
 ! A27   A(1,5,15)             108.6423         calculate D2E/DX2 analytically  !
 ! A28   A(4,5,10)             107.3598         calculate D2E/DX2 analytically  !
 ! A29   A(4,5,15)             108.6158         calculate D2E/DX2 analytically  !
 ! A30   A(10,5,15)            110.0274         calculate D2E/DX2 analytically  !
 ! A31   A(5,10,87)            148.7976         calculate D2E/DX2 analytically  !
 ! A32   A(3,11,4)             113.9944         calculate D2E/DX2 analytically  !
 ! A33   A(3,12,79)            113.4829         calculate D2E/DX2 analytically  !
 ! A34   A(2,13,20)            113.7211         calculate D2E/DX2 analytically  !
 ! A35   A(1,14,24)            114.5721         calculate D2E/DX2 analytically  !
 ! A36   A(5,15,28)            113.3565         calculate D2E/DX2 analytically  !
 ! A37   A(4,16,17)            105.5798         calculate D2E/DX2 analytically  !
 ! A38   A(4,16,18)            106.1976         calculate D2E/DX2 analytically  !
 ! A39   A(4,16,19)            113.1606         calculate D2E/DX2 analytically  !
 ! A40   A(17,16,18)           105.3328         calculate D2E/DX2 analytically  !
 ! A41   A(17,16,19)           113.5708         calculate D2E/DX2 analytically  !
 ! A42   A(18,16,19)           112.3217         calculate D2E/DX2 analytically  !
 ! A43   A(16,19,37)           161.5854         calculate D2E/DX2 analytically  !
 ! A44   A(16,19,83)           112.525          calculate D2E/DX2 analytically  !
 ! A45   A(37,19,83)            69.4364         calculate D2E/DX2 analytically  !
 ! A46   A(13,20,21)           112.2687         calculate D2E/DX2 analytically  !
 ! A47   A(13,20,22)           111.2728         calculate D2E/DX2 analytically  !
 ! A48   A(13,20,23)           106.9066         calculate D2E/DX2 analytically  !
 ! A49   A(21,20,22)           108.6093         calculate D2E/DX2 analytically  !
 ! A50   A(21,20,23)           108.5615         calculate D2E/DX2 analytically  !
 ! A51   A(22,20,23)           109.1408         calculate D2E/DX2 analytically  !
 ! A52   A(14,24,25)           111.0766         calculate D2E/DX2 analytically  !
 ! A53   A(14,24,26)           111.6642         calculate D2E/DX2 analytically  !
 ! A54   A(14,24,27)           106.6833         calculate D2E/DX2 analytically  !
 ! A55   A(25,24,26)           108.9993         calculate D2E/DX2 analytically  !
 ! A56   A(25,24,27)           108.8263         calculate D2E/DX2 analytically  !
 ! A57   A(26,24,27)           109.5259         calculate D2E/DX2 analytically  !
 ! A58   A(15,28,29)           111.1097         calculate D2E/DX2 analytically  !
 ! A59   A(15,28,30)           111.7743         calculate D2E/DX2 analytically  !
 ! A60   A(15,28,31)           106.9689         calculate D2E/DX2 analytically  !
 ! A61   A(29,28,30)           108.6696         calculate D2E/DX2 analytically  !
 ! A62   A(29,28,31)           109.1095         calculate D2E/DX2 analytically  !
 ! A63   A(30,28,31)           109.1544         calculate D2E/DX2 analytically  !
 ! A64   A(33,32,36)           108.3549         calculate D2E/DX2 analytically  !
 ! A65   A(33,32,39)           109.097          calculate D2E/DX2 analytically  !
 ! A66   A(33,32,45)           110.5905         calculate D2E/DX2 analytically  !
 ! A67   A(36,32,39)           109.5723         calculate D2E/DX2 analytically  !
 ! A68   A(36,32,45)           108.2229         calculate D2E/DX2 analytically  !
 ! A69   A(39,32,45)           110.9561         calculate D2E/DX2 analytically  !
 ! A70   A(32,33,34)           111.2502         calculate D2E/DX2 analytically  !
 ! A71   A(32,33,38)           107.3262         calculate D2E/DX2 analytically  !
 ! A72   A(32,33,44)           110.2198         calculate D2E/DX2 analytically  !
 ! A73   A(34,33,38)           104.9477         calculate D2E/DX2 analytically  !
 ! A74   A(34,33,44)           112.0322         calculate D2E/DX2 analytically  !
 ! A75   A(38,33,44)           110.8536         calculate D2E/DX2 analytically  !
 ! A76   A(33,34,37)           121.6602         calculate D2E/DX2 analytically  !
 ! A77   A(33,34,42)           122.3459         calculate D2E/DX2 analytically  !
 ! A78   A(33,34,53)            97.4696         calculate D2E/DX2 analytically  !
 ! A79   A(37,34,42)           115.8451         calculate D2E/DX2 analytically  !
 ! A80   A(42,34,53)            96.6382         calculate D2E/DX2 analytically  !
 ! A81   A(36,35,40)           108.9769         calculate D2E/DX2 analytically  !
 ! A82   A(36,35,42)           113.2799         calculate D2E/DX2 analytically  !
 ! A83   A(36,35,47)           113.675          calculate D2E/DX2 analytically  !
 ! A84   A(40,35,42)           103.2871         calculate D2E/DX2 analytically  !
 ! A85   A(40,35,47)           108.991          calculate D2E/DX2 analytically  !
 ! A86   A(42,35,47)           108.0648         calculate D2E/DX2 analytically  !
 ! A87   A(32,36,35)           111.242          calculate D2E/DX2 analytically  !
 ! A88   A(32,36,41)           109.1778         calculate D2E/DX2 analytically  !
 ! A89   A(32,36,46)           111.4662         calculate D2E/DX2 analytically  !
 ! A90   A(35,36,41)           109.1992         calculate D2E/DX2 analytically  !
 ! A91   A(35,36,46)           104.9617         calculate D2E/DX2 analytically  !
 ! A92   A(41,36,46)           110.7275         calculate D2E/DX2 analytically  !
 ! A93   A(19,37,34)           103.3966         calculate D2E/DX2 analytically  !
 ! A94   A(19,37,43)           110.0428         calculate D2E/DX2 analytically  !
 ! A95   A(34,37,43)           133.819          calculate D2E/DX2 analytically  !
 ! A96   A(43,37,53)            65.0525         calculate D2E/DX2 analytically  !
 ! A97   A(34,42,35)           121.5545         calculate D2E/DX2 analytically  !
 ! A98   A(37,43,51)            92.1833         calculate D2E/DX2 analytically  !
 ! A99   A(37,43,83)            62.8433         calculate D2E/DX2 analytically  !
 ! A100  A(51,43,83)           150.7123         calculate D2E/DX2 analytically  !
 ! A101  A(33,44,63)           114.8008         calculate D2E/DX2 analytically  !
 ! A102  A(32,45,67)           114.1835         calculate D2E/DX2 analytically  !
 ! A103  A(36,46,71)           113.9317         calculate D2E/DX2 analytically  !
 ! A104  A(35,47,48)           107.2913         calculate D2E/DX2 analytically  !
 ! A105  A(35,47,49)           109.4595         calculate D2E/DX2 analytically  !
 ! A106  A(35,47,50)           109.7241         calculate D2E/DX2 analytically  !
 ! A107  A(48,47,49)           108.191          calculate D2E/DX2 analytically  !
 ! A108  A(48,47,50)           110.807          calculate D2E/DX2 analytically  !
 ! A109  A(49,47,50)           111.2684         calculate D2E/DX2 analytically  !
 ! A110  A(47,50,75)           112.2531         calculate D2E/DX2 analytically  !
 ! A111  A(43,51,52)           113.9184         calculate D2E/DX2 analytically  !
 ! A112  A(43,51,53)           112.93           calculate D2E/DX2 analytically  !
 ! A113  A(43,51,54)           104.8332         calculate D2E/DX2 analytically  !
 ! A114  A(52,51,53)           112.6565         calculate D2E/DX2 analytically  !
 ! A115  A(52,51,54)           107.0635         calculate D2E/DX2 analytically  !
 ! A116  A(53,51,54)           104.458          calculate D2E/DX2 analytically  !
 ! A117  A(34,53,51)           113.0664         calculate D2E/DX2 analytically  !
 ! A118  A(37,53,51)            89.515          calculate D2E/DX2 analytically  !
 ! A119  A(51,54,55)           119.6612         calculate D2E/DX2 analytically  !
 ! A120  A(51,54,56)           119.2377         calculate D2E/DX2 analytically  !
 ! A121  A(55,54,56)           121.0769         calculate D2E/DX2 analytically  !
 ! A122  A(54,55,57)           119.1923         calculate D2E/DX2 analytically  !
 ! A123  A(54,55,58)           119.8243         calculate D2E/DX2 analytically  !
 ! A124  A(57,55,58)           120.9406         calculate D2E/DX2 analytically  !
 ! A125  A(54,56,59)           119.0853         calculate D2E/DX2 analytically  !
 ! A126  A(54,56,60)           120.1427         calculate D2E/DX2 analytically  !
 ! A127  A(59,56,60)           120.7292         calculate D2E/DX2 analytically  !
 ! A128  A(55,57,61)           120.6674         calculate D2E/DX2 analytically  !
 ! A129  A(55,57,97)           118.6328         calculate D2E/DX2 analytically  !
 ! A130  A(61,57,97)           120.5267         calculate D2E/DX2 analytically  !
 ! A131  A(56,59,61)           120.7448         calculate D2E/DX2 analytically  !
 ! A132  A(56,59,93)           120.8201         calculate D2E/DX2 analytically  !
 ! A133  A(61,59,93)           118.4115         calculate D2E/DX2 analytically  !
 ! A134  A(57,61,59)           119.2227         calculate D2E/DX2 analytically  !
 ! A135  A(57,61,62)           120.3469         calculate D2E/DX2 analytically  !
 ! A136  A(59,61,62)           120.4274         calculate D2E/DX2 analytically  !
 ! A137  A(44,63,64)           109.9004         calculate D2E/DX2 analytically  !
 ! A138  A(44,63,65)           110.0599         calculate D2E/DX2 analytically  !
 ! A139  A(44,63,66)           106.0796         calculate D2E/DX2 analytically  !
 ! A140  A(64,63,65)           110.0792         calculate D2E/DX2 analytically  !
 ! A141  A(64,63,66)           111.562          calculate D2E/DX2 analytically  !
 ! A142  A(65,63,66)           109.0827         calculate D2E/DX2 analytically  !
 ! A143  A(45,67,68)           110.9098         calculate D2E/DX2 analytically  !
 ! A144  A(45,67,69)           111.3954         calculate D2E/DX2 analytically  !
 ! A145  A(45,67,70)           106.5357         calculate D2E/DX2 analytically  !
 ! A146  A(68,67,69)           109.1465         calculate D2E/DX2 analytically  !
 ! A147  A(68,67,70)           109.0513         calculate D2E/DX2 analytically  !
 ! A148  A(69,67,70)           109.7477         calculate D2E/DX2 analytically  !
 ! A149  A(46,71,72)           111.0547         calculate D2E/DX2 analytically  !
 ! A150  A(46,71,73)           110.8303         calculate D2E/DX2 analytically  !
 ! A151  A(46,71,74)           106.4166         calculate D2E/DX2 analytically  !
 ! A152  A(72,71,73)           109.5019         calculate D2E/DX2 analytically  !
 ! A153  A(72,71,74)           109.7143         calculate D2E/DX2 analytically  !
 ! A154  A(73,71,74)           109.2641         calculate D2E/DX2 analytically  !
 ! A155  A(50,75,76)           106.9451         calculate D2E/DX2 analytically  !
 ! A156  A(50,75,77)           111.3178         calculate D2E/DX2 analytically  !
 ! A157  A(50,75,78)           111.0927         calculate D2E/DX2 analytically  !
 ! A158  A(76,75,77)           109.2152         calculate D2E/DX2 analytically  !
 ! A159  A(76,75,78)           109.3912         calculate D2E/DX2 analytically  !
 ! A160  A(77,75,78)           108.8365         calculate D2E/DX2 analytically  !
 ! A161  A(12,79,80)           106.7234         calculate D2E/DX2 analytically  !
 ! A162  A(12,79,81)           111.5166         calculate D2E/DX2 analytically  !
 ! A163  A(12,79,82)           110.7577         calculate D2E/DX2 analytically  !
 ! A164  A(80,79,81)           109.5121         calculate D2E/DX2 analytically  !
 ! A165  A(80,79,82)           109.3577         calculate D2E/DX2 analytically  !
 ! A166  A(81,79,82)           108.9319         calculate D2E/DX2 analytically  !
 ! A167  A(19,83,43)            99.8674         calculate D2E/DX2 analytically  !
 ! A168  A(85,84,89)           111.7171         calculate D2E/DX2 analytically  !
 ! A169  A(84,85,86)           110.9027         calculate D2E/DX2 analytically  !
 ! A170  A(84,85,87)           107.311          calculate D2E/DX2 analytically  !
 ! A171  A(84,85,88)           110.3767         calculate D2E/DX2 analytically  !
 ! A172  A(86,85,87)           109.6413         calculate D2E/DX2 analytically  !
 ! A173  A(86,85,88)           109.5723         calculate D2E/DX2 analytically  !
 ! A174  A(87,85,88)           108.989          calculate D2E/DX2 analytically  !
 ! A175  A(10,87,85)           141.5997         calculate D2E/DX2 analytically  !
 ! A176  A(84,89,90)           110.3558         calculate D2E/DX2 analytically  !
 ! A177  A(84,89,91)           107.1018         calculate D2E/DX2 analytically  !
 ! A178  A(84,89,92)           110.7984         calculate D2E/DX2 analytically  !
 ! A179  A(90,89,91)           109.1861         calculate D2E/DX2 analytically  !
 ! A180  A(90,89,92)           109.8376         calculate D2E/DX2 analytically  !
 ! A181  A(91,89,92)           109.5058         calculate D2E/DX2 analytically  !
 ! A182  A(59,93,94)           111.0563         calculate D2E/DX2 analytically  !
 ! A183  A(59,93,95)           111.9007         calculate D2E/DX2 analytically  !
 ! A184  A(59,93,96)           112.4061         calculate D2E/DX2 analytically  !
 ! A185  A(94,93,95)           106.5637         calculate D2E/DX2 analytically  !
 ! A186  A(94,93,96)           107.1342         calculate D2E/DX2 analytically  !
 ! A187  A(95,93,96)           107.4647         calculate D2E/DX2 analytically  !
 ! A188  A(57,97,98)           111.0555         calculate D2E/DX2 analytically  !
 ! A189  A(57,97,99)           111.7864         calculate D2E/DX2 analytically  !
 ! A190  A(57,97,100)          112.4534         calculate D2E/DX2 analytically  !
 ! A191  A(98,97,99)           106.5201         calculate D2E/DX2 analytically  !
 ! A192  A(98,97,100)          106.9716         calculate D2E/DX2 analytically  !
 ! A193  A(99,97,100)          107.7391         calculate D2E/DX2 analytically  !
 ! A194  L(19,37,53,43,-1)     175.0953         calculate D2E/DX2 analytically  !
 ! A195  L(19,37,53,43,-2)     164.7852         calculate D2E/DX2 analytically  !
 ! D1    D(5,1,2,3)            -49.1683         calculate D2E/DX2 analytically  !
 ! D2    D(5,1,2,7)             67.8548         calculate D2E/DX2 analytically  !
 ! D3    D(5,1,2,13)          -172.8994         calculate D2E/DX2 analytically  !
 ! D4    D(8,1,2,3)             70.789          calculate D2E/DX2 analytically  !
 ! D5    D(8,1,2,7)           -172.1879         calculate D2E/DX2 analytically  !
 ! D6    D(8,1,2,13)           -52.942          calculate D2E/DX2 analytically  !
 ! D7    D(14,1,2,3)          -167.7966         calculate D2E/DX2 analytically  !
 ! D8    D(14,1,2,7)           -50.7735         calculate D2E/DX2 analytically  !
 ! D9    D(14,1,2,13)           68.4723         calculate D2E/DX2 analytically  !
 ! D10   D(2,1,5,4)             47.1886         calculate D2E/DX2 analytically  !
 ! D11   D(2,1,5,10)           -72.1694         calculate D2E/DX2 analytically  !
 ! D12   D(2,1,5,15)           168.1739         calculate D2E/DX2 analytically  !
 ! D13   D(8,1,5,4)            -73.0681         calculate D2E/DX2 analytically  !
 ! D14   D(8,1,5,10)           167.5739         calculate D2E/DX2 analytically  !
 ! D15   D(8,1,5,15)            47.9172         calculate D2E/DX2 analytically  !
 ! D16   D(14,1,5,4)           168.0524         calculate D2E/DX2 analytically  !
 ! D17   D(14,1,5,10)           48.6944         calculate D2E/DX2 analytically  !
 ! D18   D(14,1,5,15)          -70.9623         calculate D2E/DX2 analytically  !
 ! D19   D(2,1,14,24)          -96.4564         calculate D2E/DX2 analytically  !
 ! D20   D(5,1,14,24)          142.2879         calculate D2E/DX2 analytically  !
 ! D21   D(8,1,14,24)           24.3777         calculate D2E/DX2 analytically  !
 ! D22   D(1,2,3,6)            171.1182         calculate D2E/DX2 analytically  !
 ! D23   D(1,2,3,11)            56.3983         calculate D2E/DX2 analytically  !
 ! D24   D(1,2,3,12)           -67.3175         calculate D2E/DX2 analytically  !
 ! D25   D(7,2,3,6)             53.3682         calculate D2E/DX2 analytically  !
 ! D26   D(7,2,3,11)           -61.3517         calculate D2E/DX2 analytically  !
 ! D27   D(7,2,3,12)           174.9325         calculate D2E/DX2 analytically  !
 ! D28   D(13,2,3,6)           -67.3647         calculate D2E/DX2 analytically  !
 ! D29   D(13,2,3,11)          177.9155         calculate D2E/DX2 analytically  !
 ! D30   D(13,2,3,12)           54.1997         calculate D2E/DX2 analytically  !
 ! D31   D(1,2,13,20)         -158.0179         calculate D2E/DX2 analytically  !
 ! D32   D(3,2,13,20)           79.0532         calculate D2E/DX2 analytically  !
 ! D33   D(7,2,13,20)          -39.9252         calculate D2E/DX2 analytically  !
 ! D34   D(2,3,11,4)           -62.8442         calculate D2E/DX2 analytically  !
 ! D35   D(6,3,11,4)           177.8566         calculate D2E/DX2 analytically  !
 ! D36   D(12,3,11,4)           58.4579         calculate D2E/DX2 analytically  !
 ! D37   D(2,3,12,79)         -173.4252         calculate D2E/DX2 analytically  !
 ! D38   D(6,3,12,79)          -51.1341         calculate D2E/DX2 analytically  !
 ! D39   D(11,3,12,79)          64.664          calculate D2E/DX2 analytically  !
 ! D40   D(9,4,5,1)             68.87           calculate D2E/DX2 analytically  !
 ! D41   D(9,4,5,10)          -171.0722         calculate D2E/DX2 analytically  !
 ! D42   D(9,4,5,15)           -52.1302         calculate D2E/DX2 analytically  !
 ! D43   D(11,4,5,1)           -50.3548         calculate D2E/DX2 analytically  !
 ! D44   D(11,4,5,10)           69.7029         calculate D2E/DX2 analytically  !
 ! D45   D(11,4,5,15)         -171.355          calculate D2E/DX2 analytically  !
 ! D46   D(16,4,5,1)          -168.6362         calculate D2E/DX2 analytically  !
 ! D47   D(16,4,5,10)          -48.5784         calculate D2E/DX2 analytically  !
 ! D48   D(16,4,5,15)           70.3636         calculate D2E/DX2 analytically  !
 ! D49   D(5,4,11,3)            59.2681         calculate D2E/DX2 analytically  !
 ! D50   D(9,4,11,3)           -60.3045         calculate D2E/DX2 analytically  !
 ! D51   D(16,4,11,3)         -179.4243         calculate D2E/DX2 analytically  !
 ! D52   D(5,4,16,17)          -63.6071         calculate D2E/DX2 analytically  !
 ! D53   D(5,4,16,18)         -175.1287         calculate D2E/DX2 analytically  !
 ! D54   D(5,4,16,19)           61.1992         calculate D2E/DX2 analytically  !
 ! D55   D(9,4,16,17)           58.3212         calculate D2E/DX2 analytically  !
 ! D56   D(9,4,16,18)          -53.2004         calculate D2E/DX2 analytically  !
 ! D57   D(9,4,16,19)         -176.8725         calculate D2E/DX2 analytically  !
 ! D58   D(11,4,16,17)         176.4286         calculate D2E/DX2 analytically  !
 ! D59   D(11,4,16,18)          64.9071         calculate D2E/DX2 analytically  !
 ! D60   D(11,4,16,19)         -58.7651         calculate D2E/DX2 analytically  !
 ! D61   D(1,5,10,87)           -3.173          calculate D2E/DX2 analytically  !
 ! D62   D(4,5,10,87)         -126.3552         calculate D2E/DX2 analytically  !
 ! D63   D(15,5,10,87)         115.6149         calculate D2E/DX2 analytically  !
 ! D64   D(1,5,15,28)          121.4409         calculate D2E/DX2 analytically  !
 ! D65   D(4,5,15,28)         -114.5663         calculate D2E/DX2 analytically  !
 ! D66   D(10,5,15,28)           2.6849         calculate D2E/DX2 analytically  !
 ! D67   D(5,10,87,85)          86.6087         calculate D2E/DX2 analytically  !
 ! D68   D(3,12,79,80)         174.5996         calculate D2E/DX2 analytically  !
 ! D69   D(3,12,79,81)         -65.8403         calculate D2E/DX2 analytically  !
 ! D70   D(3,12,79,82)          55.652          calculate D2E/DX2 analytically  !
 ! D71   D(2,13,20,21)         -67.2682         calculate D2E/DX2 analytically  !
 ! D72   D(2,13,20,22)          54.7017         calculate D2E/DX2 analytically  !
 ! D73   D(2,13,20,23)         173.7861         calculate D2E/DX2 analytically  !
 ! D74   D(1,14,24,25)         -59.2909         calculate D2E/DX2 analytically  !
 ! D75   D(1,14,24,26)          62.6137         calculate D2E/DX2 analytically  !
 ! D76   D(1,14,24,27)        -177.7504         calculate D2E/DX2 analytically  !
 ! D77   D(5,15,28,29)         -62.8853         calculate D2E/DX2 analytically  !
 ! D78   D(5,15,28,30)          58.6964         calculate D2E/DX2 analytically  !
 ! D79   D(5,15,28,31)         178.122          calculate D2E/DX2 analytically  !
 ! D80   D(4,16,19,37)         -50.522          calculate D2E/DX2 analytically  !
 ! D81   D(4,16,19,83)          41.879          calculate D2E/DX2 analytically  !
 ! D82   D(17,16,19,37)         69.8327         calculate D2E/DX2 analytically  !
 ! D83   D(17,16,19,83)        162.2337         calculate D2E/DX2 analytically  !
 ! D84   D(18,16,19,37)       -170.7616         calculate D2E/DX2 analytically  !
 ! D85   D(18,16,19,83)        -78.3606         calculate D2E/DX2 analytically  !
 ! D86   D(16,19,37,34)        -78.8864         calculate D2E/DX2 analytically  !
 ! D87   D(16,19,37,43)        133.4927         calculate D2E/DX2 analytically  !
 ! D88   D(83,19,37,34)       -178.5849         calculate D2E/DX2 analytically  !
 ! D89   D(83,19,37,43)         33.7943         calculate D2E/DX2 analytically  !
 ! D90   D(16,19,53,51)        145.8558         calculate D2E/DX2 analytically  !
 ! D91   D(83,19,53,51)         34.0373         calculate D2E/DX2 analytically  !
 ! D92   D(16,19,83,43)        167.874          calculate D2E/DX2 analytically  !
 ! D93   D(37,19,83,43)        -31.8258         calculate D2E/DX2 analytically  !
 ! D94   D(36,32,33,34)        -51.0397         calculate D2E/DX2 analytically  !
 ! D95   D(36,32,33,38)         63.2423         calculate D2E/DX2 analytically  !
 ! D96   D(36,32,33,44)       -175.9408         calculate D2E/DX2 analytically  !
 ! D97   D(39,32,33,34)         68.1944         calculate D2E/DX2 analytically  !
 ! D98   D(39,32,33,38)       -177.5236         calculate D2E/DX2 analytically  !
 ! D99   D(39,32,33,44)        -56.7068         calculate D2E/DX2 analytically  !
 ! D100  D(45,32,33,34)       -169.5037         calculate D2E/DX2 analytically  !
 ! D101  D(45,32,33,38)        -55.2217         calculate D2E/DX2 analytically  !
 ! D102  D(45,32,33,44)         65.5951         calculate D2E/DX2 analytically  !
 ! D103  D(33,32,36,35)         57.4617         calculate D2E/DX2 analytically  !
 ! D104  D(33,32,36,41)        -63.119          calculate D2E/DX2 analytically  !
 ! D105  D(33,32,36,46)        174.2371         calculate D2E/DX2 analytically  !
 ! D106  D(39,32,36,35)        -61.4725         calculate D2E/DX2 analytically  !
 ! D107  D(39,32,36,41)        177.9467         calculate D2E/DX2 analytically  !
 ! D108  D(39,32,36,46)         55.3028         calculate D2E/DX2 analytically  !
 ! D109  D(45,32,36,35)        177.4176         calculate D2E/DX2 analytically  !
 ! D110  D(45,32,36,41)         56.8368         calculate D2E/DX2 analytically  !
 ! D111  D(45,32,36,46)        -65.807          calculate D2E/DX2 analytically  !
 ! D112  D(33,32,45,67)        -96.7776         calculate D2E/DX2 analytically  !
 ! D113  D(36,32,45,67)        144.6781         calculate D2E/DX2 analytically  !
 ! D114  D(39,32,45,67)         24.4294         calculate D2E/DX2 analytically  !
 ! D115  D(32,33,34,37)       -148.2764         calculate D2E/DX2 analytically  !
 ! D116  D(32,33,34,42)         36.342          calculate D2E/DX2 analytically  !
 ! D117  D(32,33,34,53)        -66.4279         calculate D2E/DX2 analytically  !
 ! D118  D(38,33,34,37)         95.9669         calculate D2E/DX2 analytically  !
 ! D119  D(38,33,34,42)        -79.4146         calculate D2E/DX2 analytically  !
 ! D120  D(38,33,34,53)        177.8155         calculate D2E/DX2 analytically  !
 ! D121  D(44,33,34,37)        -24.3985         calculate D2E/DX2 analytically  !
 ! D122  D(44,33,34,42)        160.22           calculate D2E/DX2 analytically  !
 ! D123  D(44,33,34,53)         57.4501         calculate D2E/DX2 analytically  !
 ! D124  D(32,33,44,63)       -137.5929         calculate D2E/DX2 analytically  !
 ! D125  D(34,33,44,63)         97.9544         calculate D2E/DX2 analytically  !
 ! D126  D(38,33,44,63)        -18.9126         calculate D2E/DX2 analytically  !
 ! D127  D(33,34,37,19)        -72.6474         calculate D2E/DX2 analytically  !
 ! D128  D(33,34,37,43)         63.1458         calculate D2E/DX2 analytically  !
 ! D129  D(42,34,37,19)        103.0176         calculate D2E/DX2 analytically  !
 ! D130  D(42,34,37,43)       -121.1892         calculate D2E/DX2 analytically  !
 ! D131  D(33,34,42,35)        -24.8445         calculate D2E/DX2 analytically  !
 ! D132  D(37,34,42,35)        159.5231         calculate D2E/DX2 analytically  !
 ! D133  D(53,34,42,35)         78.3713         calculate D2E/DX2 analytically  !
 ! D134  D(33,34,53,51)        -92.3135         calculate D2E/DX2 analytically  !
 ! D135  D(42,34,53,51)        143.7338         calculate D2E/DX2 analytically  !
 ! D136  D(40,35,36,32)         68.782          calculate D2E/DX2 analytically  !
 ! D137  D(40,35,36,41)       -170.6499         calculate D2E/DX2 analytically  !
 ! D138  D(40,35,36,46)        -51.9007         calculate D2E/DX2 analytically  !
 ! D139  D(42,35,36,32)        -45.5821         calculate D2E/DX2 analytically  !
 ! D140  D(42,35,36,41)         74.986          calculate D2E/DX2 analytically  !
 ! D141  D(42,35,36,46)       -166.2648         calculate D2E/DX2 analytically  !
 ! D142  D(47,35,36,32)       -169.4475         calculate D2E/DX2 analytically  !
 ! D143  D(47,35,36,41)        -48.8793         calculate D2E/DX2 analytically  !
 ! D144  D(47,35,36,46)         69.8698         calculate D2E/DX2 analytically  !
 ! D145  D(36,35,42,34)         28.7885         calculate D2E/DX2 analytically  !
 ! D146  D(40,35,42,34)        -88.9444         calculate D2E/DX2 analytically  !
 ! D147  D(47,35,42,34)        155.6684         calculate D2E/DX2 analytically  !
 ! D148  D(36,35,47,48)        -71.6393         calculate D2E/DX2 analytically  !
 ! D149  D(36,35,47,49)        171.1825         calculate D2E/DX2 analytically  !
 ! D150  D(36,35,47,50)         48.8137         calculate D2E/DX2 analytically  !
 ! D151  D(40,35,47,48)         50.1234         calculate D2E/DX2 analytically  !
 ! D152  D(40,35,47,49)        -67.0548         calculate D2E/DX2 analytically  !
 ! D153  D(40,35,47,50)        170.5764         calculate D2E/DX2 analytically  !
 ! D154  D(42,35,47,48)        161.7105         calculate D2E/DX2 analytically  !
 ! D155  D(42,35,47,49)         44.5323         calculate D2E/DX2 analytically  !
 ! D156  D(42,35,47,50)        -77.8365         calculate D2E/DX2 analytically  !
 ! D157  D(32,36,46,71)        102.7979         calculate D2E/DX2 analytically  !
 ! D158  D(35,36,46,71)       -136.6675         calculate D2E/DX2 analytically  !
 ! D159  D(41,36,46,71)        -18.9524         calculate D2E/DX2 analytically  !
 ! D160  D(19,37,43,51)        161.3102         calculate D2E/DX2 analytically  !
 ! D161  D(19,37,43,83)        -34.6631         calculate D2E/DX2 analytically  !
 ! D162  D(34,37,43,51)         27.5304         calculate D2E/DX2 analytically  !
 ! D163  D(34,37,43,83)       -168.4429         calculate D2E/DX2 analytically  !
 ! D164  D(53,37,43,51)         -3.475          calculate D2E/DX2 analytically  !
 ! D165  D(53,37,43,83)        160.5517         calculate D2E/DX2 analytically  !
 ! D166  D(43,37,53,51)          3.4432         calculate D2E/DX2 analytically  !
 ! D167  D(37,43,51,52)        135.5324         calculate D2E/DX2 analytically  !
 ! D168  D(37,43,51,53)          5.3537         calculate D2E/DX2 analytically  !
 ! D169  D(37,43,51,54)       -107.7546         calculate D2E/DX2 analytically  !
 ! D170  D(83,43,51,52)        105.4977         calculate D2E/DX2 analytically  !
 ! D171  D(83,43,51,53)        -24.681          calculate D2E/DX2 analytically  !
 ! D172  D(83,43,51,54)       -137.7893         calculate D2E/DX2 analytically  !
 ! D173  D(37,43,83,19)         28.1199         calculate D2E/DX2 analytically  !
 ! D174  D(51,43,83,19)         62.3231         calculate D2E/DX2 analytically  !
 ! D175  D(33,44,63,64)        -55.7546         calculate D2E/DX2 analytically  !
 ! D176  D(33,44,63,65)         65.6373         calculate D2E/DX2 analytically  !
 ! D177  D(33,44,63,66)       -176.4922         calculate D2E/DX2 analytically  !
 ! D178  D(32,45,67,68)        -57.6585         calculate D2E/DX2 analytically  !
 ! D179  D(32,45,67,69)         64.1302         calculate D2E/DX2 analytically  !
 ! D180  D(32,45,67,70)       -176.2089         calculate D2E/DX2 analytically  !
 ! D181  D(36,46,71,72)        -61.6657         calculate D2E/DX2 analytically  !
 ! D182  D(36,46,71,73)         60.2859         calculate D2E/DX2 analytically  !
 ! D183  D(36,46,71,74)        178.9776         calculate D2E/DX2 analytically  !
 ! D184  D(35,47,50,75)       -174.6502         calculate D2E/DX2 analytically  !
 ! D185  D(48,47,50,75)        -56.3543         calculate D2E/DX2 analytically  !
 ! D186  D(49,47,50,75)         64.0627         calculate D2E/DX2 analytically  !
 ! D187  D(47,50,75,76)        179.0728         calculate D2E/DX2 analytically  !
 ! D188  D(47,50,75,77)        -61.7033         calculate D2E/DX2 analytically  !
 ! D189  D(47,50,75,78)         59.7629         calculate D2E/DX2 analytically  !
 ! D190  D(43,51,53,34)        -17.5122         calculate D2E/DX2 analytically  !
 ! D191  D(43,51,53,37)         -5.2113         calculate D2E/DX2 analytically  !
 ! D192  D(52,51,53,34)       -148.3269         calculate D2E/DX2 analytically  !
 ! D193  D(52,51,53,37)       -136.026          calculate D2E/DX2 analytically  !
 ! D194  D(54,51,53,34)         95.8247         calculate D2E/DX2 analytically  !
 ! D195  D(54,51,53,37)        108.1255         calculate D2E/DX2 analytically  !
 ! D196  D(43,51,54,55)        -21.6082         calculate D2E/DX2 analytically  !
 ! D197  D(43,51,54,56)        156.6225         calculate D2E/DX2 analytically  !
 ! D198  D(52,51,54,55)         99.7249         calculate D2E/DX2 analytically  !
 ! D199  D(52,51,54,56)        -82.0445         calculate D2E/DX2 analytically  !
 ! D200  D(53,51,54,55)       -140.5881         calculate D2E/DX2 analytically  !
 ! D201  D(53,51,54,56)         37.6426         calculate D2E/DX2 analytically  !
 ! D202  D(51,54,55,57)        177.0662         calculate D2E/DX2 analytically  !
 ! D203  D(51,54,55,58)         -0.5789         calculate D2E/DX2 analytically  !
 ! D204  D(56,54,55,57)         -1.1312         calculate D2E/DX2 analytically  !
 ! D205  D(56,54,55,58)       -178.7763         calculate D2E/DX2 analytically  !
 ! D206  D(51,54,56,59)       -177.2222         calculate D2E/DX2 analytically  !
 ! D207  D(51,54,56,60)          0.4172         calculate D2E/DX2 analytically  !
 ! D208  D(55,54,56,59)          0.9827         calculate D2E/DX2 analytically  !
 ! D209  D(55,54,56,60)        178.622          calculate D2E/DX2 analytically  !
 ! D210  D(54,55,57,61)          0.4114         calculate D2E/DX2 analytically  !
 ! D211  D(54,55,57,97)       -174.8322         calculate D2E/DX2 analytically  !
 ! D212  D(58,55,57,61)        178.0294         calculate D2E/DX2 analytically  !
 ! D213  D(58,55,57,97)          2.7858         calculate D2E/DX2 analytically  !
 ! D214  D(54,56,59,61)         -0.1115         calculate D2E/DX2 analytically  !
 ! D215  D(54,56,59,93)        178.0908         calculate D2E/DX2 analytically  !
 ! D216  D(60,56,59,61)       -177.7366         calculate D2E/DX2 analytically  !
 ! D217  D(60,56,59,93)          0.4657         calculate D2E/DX2 analytically  !
 ! D218  D(55,57,61,59)          0.4353         calculate D2E/DX2 analytically  !
 ! D219  D(55,57,61,62)       -178.9422         calculate D2E/DX2 analytically  !
 ! D220  D(97,57,61,59)        175.5886         calculate D2E/DX2 analytically  !
 ! D221  D(97,57,61,62)         -3.789          calculate D2E/DX2 analytically  !
 ! D222  D(55,57,97,98)         76.4013         calculate D2E/DX2 analytically  !
 ! D223  D(55,57,97,99)        -42.4151         calculate D2E/DX2 analytically  !
 ! D224  D(55,57,97,100)      -163.7617         calculate D2E/DX2 analytically  !
 ! D225  D(61,57,97,98)        -98.8491         calculate D2E/DX2 analytically  !
 ! D226  D(61,57,97,99)        142.3344         calculate D2E/DX2 analytically  !
 ! D227  D(61,57,97,100)        20.9878         calculate D2E/DX2 analytically  !
 ! D228  D(56,59,61,57)         -0.5864         calculate D2E/DX2 analytically  !
 ! D229  D(56,59,61,62)        178.7906         calculate D2E/DX2 analytically  !
 ! D230  D(93,59,61,57)       -178.8312         calculate D2E/DX2 analytically  !
 ! D231  D(93,59,61,62)          0.5458         calculate D2E/DX2 analytically  !
 ! D232  D(56,59,93,94)       -124.5243         calculate D2E/DX2 analytically  !
 ! D233  D(56,59,93,95)        116.528          calculate D2E/DX2 analytically  !
 ! D234  D(56,59,93,96)         -4.5111         calculate D2E/DX2 analytically  !
 ! D235  D(61,59,93,94)         53.7191         calculate D2E/DX2 analytically  !
 ! D236  D(61,59,93,95)        -65.2286         calculate D2E/DX2 analytically  !
 ! D237  D(61,59,93,96)        173.7323         calculate D2E/DX2 analytically  !
 ! D238  D(89,84,85,86)         65.5547         calculate D2E/DX2 analytically  !
 ! D239  D(89,84,85,87)       -174.7151         calculate D2E/DX2 analytically  !
 ! D240  D(89,84,85,88)        -56.0726         calculate D2E/DX2 analytically  !
 ! D241  D(85,84,89,90)         61.0365         calculate D2E/DX2 analytically  !
 ! D242  D(85,84,89,91)        179.7805         calculate D2E/DX2 analytically  !
 ! D243  D(85,84,89,92)        -60.8417         calculate D2E/DX2 analytically  !
 ! D244  D(84,85,87,10)         -8.3654         calculate D2E/DX2 analytically  !
 ! D245  D(86,85,87,10)        112.1675         calculate D2E/DX2 analytically  !
 ! D246  D(88,85,87,10)       -127.9003         calculate D2E/DX2 analytically  !
 --------------------------------------------------------------------------------
 Trust Radius=3.00D-02 FncErr=1.00D-07 GrdErr=1.00D-06 EigMax=2.50D+02 EigMin=1.00D-04
 Number of steps in this run=    556 maximum allowed number of steps=    600.
 Search for a saddle point of order  1.
 Step   0 in ReCalcFC=30 IGetFC= 4 compute analytic Hessian.
 GradGradGradGradGradGradGradGradGradGradGradGradGradGradGradGradGradGrad

 Leave Link  103 at Fri May 24 19:07:08 2019, MaxMem=  6442450944 cpu:               4.7 elap:               0.2
 (Enter /home/ekwan/sw/g16/l202.exe)
 Stoichiometry    C30H47F6NaO15S
 Framework group  C1[X(C30H47F6NaO15S)]
 Deg. of freedom   294
 Full point group                 C1      NOp   1
 Largest Abelian subgroup         C1      NOp   1
 Largest concise Abelian subgroup C1      NOp   1
                         Standard orientation:                         
 ---------------------------------------------------------------------
 Center     Atomic      Atomic             Coordinates (Angstroms)
 Number     Number       Type             X           Y           Z
 ---------------------------------------------------------------------
      1          6           0       -5.472498   -0.031481   -0.097491
      2          6           0       -5.338895   -1.455012    0.442078
      3          6           0       -4.889802   -2.421533   -0.664400
      4          6           0       -3.770515   -0.672771   -1.891421
      5          6           0       -4.232570    0.379944   -0.884711
      6          1           0       -4.639993   -3.410744   -0.255240
      7          1           0       -4.552888   -1.458027    1.208657
      8          1           0       -6.344706    0.022263   -0.761782
      9          1           0       -4.503723   -0.745532   -2.703731
     10          1           0       -3.409633    0.541957   -0.180370
     11          8           0       -3.668804   -1.964699   -1.235816
     12          8           0       -5.917249   -2.534121   -1.604302
     13          8           0       -6.579580   -1.835532    1.017818
     14          8           0       -5.611298    0.900376    0.972528
     15          8           0       -4.518425    1.586226   -1.586938
     16          6           0       -2.377776   -0.349348   -2.455890
     17          1           0       -2.494190    0.606350   -3.006877
     18          1           0       -2.173342   -1.116239   -3.236603
     19          8           0       -1.397438   -0.312116   -1.490181
     20          6           0       -6.471175   -2.886547    1.963243
     21          1           0       -6.175827   -3.837246    1.497181
     22          1           0       -5.743974   -2.641074    2.751261
     23          1           0       -7.458733   -3.011971    2.413555
     24          6           0       -6.951593    1.257906    1.273785
     25          1           0       -7.446491    1.708811    0.400903
     26          1           0       -7.535353    0.393483    1.607566
     27          1           0       -6.905886    1.999899    2.075949
     28          6           0       -3.645739    2.653259   -1.250561
     29          1           0       -3.743920    2.925501   -0.191471
     30          1           0       -2.599568    2.401217   -1.452100
     31          1           0       -3.934090    3.507923   -1.867941
     32          6           0        1.978106    2.489056   -0.576692
     33          6           0        1.107020    1.299943   -1.004927
     34          6           0       -0.034048    1.088077   -0.048946
     35          6           0        0.002593    3.375755    0.717093
     36          6           0        1.067765    3.689567   -0.336389
     37          1           0       -0.428797    0.116386    0.145072
     38          1           0        0.630989    1.569482   -1.959865
     39          1           0        2.502061    2.233834    0.351750
     40          1           0        0.486868    3.268473    1.691307
     41          1           0        0.575501    3.961820   -1.276470
     42          8           0       -0.649048    2.066142    0.515997
     43          8           0        0.439701   -1.795478    1.068264
     44          8           0        1.894291    0.149164   -1.147204
     45          8           0        2.894447    2.826799   -1.597557
     46          8           0        1.788463    4.789484    0.188794
     47          6           0       -1.079922    4.427742    0.818589
     48          1           0       -0.630766    5.314500    1.287597
     49          1           0       -1.884915    4.063230    1.473851
     50          8           0       -1.568007    4.734901   -0.469794
     51         16           0        1.415153   -1.022287    1.893173
     52          8           0        1.514528   -1.484691    3.294618
     53          8           0        1.222987    0.467523    1.786109
     54          6           0        3.010412   -1.325332    1.123572
     55          6           0        3.185059   -2.445147    0.323668
     56          6           0        4.042529   -0.407795    1.312133
     57          6           0        4.410082   -2.638757   -0.319572
     58          1           0        2.362967   -3.134645    0.175186
     59          6           0        5.257772   -0.615203    0.667842
     60          1           0        3.882699    0.472575    1.921616
     61          6           0        5.448680   -1.727729   -0.156908
     62          1           0        6.390886   -1.873962   -0.671792
     63          6           0        1.593170   -0.645969   -2.299557
     64          1           0        0.533841   -0.921176   -2.295833
     65          1           0        1.835126   -0.088892   -3.215713
     66          1           0        2.236201   -1.525351   -2.236414
     67          6           0        4.192685    2.264503   -1.426208
     68          1           0        4.627369    2.568148   -0.465206
     69          1           0        4.164497    1.172492   -1.478080
     70          1           0        4.810863    2.656697   -2.236996
     71          6           0        2.071360    5.806082   -0.769524
     72          1           0        2.696069    5.418943   -1.580729
     73          1           0        1.142837    6.218872   -1.186750
     74          1           0        2.607640    6.593510   -0.235101
     75          6           0       -2.501228    5.803736   -0.450210
     76          1           0       -2.806988    5.978126   -1.483567
     77          1           0       -3.385828    5.550823    0.150978
     78          1           0       -2.046239    6.718923   -0.044723
     79          6           0       -5.669243   -3.520820   -2.600617
     80          1           0       -6.571791   -3.584370   -3.211277
     81          1           0       -4.817441   -3.247556   -3.233695
     82          1           0       -5.471613   -4.499098   -2.139495
     83         11           0       -1.598674   -1.972745    0.002369
     84          8           0       -2.454554   -1.376781    2.152539
     85          6           0       -2.338680   -0.028050    2.599240
     86          1           0       -1.291444    0.230638    2.794694
     87          1           0       -2.732353    0.610485    1.808432
     88          1           0       -2.931783    0.125170    3.510754
     89          6           0       -2.076168   -2.303415    3.168301
     90          1           0       -2.729592   -2.197351    4.044909
     91          1           0       -2.196490   -3.306078    2.749749
     92          1           0       -1.031488   -2.152802    3.462799
     93          6           0        6.382633    0.371362    0.809505
     94          9           0        6.804761    0.806818   -0.404004
     95          9           0        7.458052   -0.174576    1.418251
     96          9           0        6.024455    1.461540    1.520759
     97          6           0        4.547652   -3.790131   -1.274438
     98          9           0        3.937551   -3.518519   -2.457816
     99          9           0        3.970105   -4.912193   -0.793234
    100          9           0        5.835107   -4.077575   -1.552324
 ---------------------------------------------------------------------
 Rotational constants (GHZ):           0.0698215           0.0335270           0.0270833
 Leave Link  202 at Fri May 24 19:07:09 2019, MaxMem=  6442450944 cpu:               5.1 elap:               0.2
 (Enter /home/ekwan/sw/g16/l301.exe)
 Standard basis: 6-31G(d) (6D, 7F)
 Ernie: Thresh=  0.10000D-02 Tol=  0.10000D-05 Strict=F.
 There are   897 symmetry adapted cartesian basis functions of A   symmetry.
 There are   897 symmetry adapted basis functions of A   symmetry.
   897 basis functions,  1720 primitive gaussians,   897 cartesian basis functions
   214 alpha electrons      214 beta electrons
       nuclear repulsion energy      9391.1728006261 Hartrees.
 IExCor=  402 DFT=T Ex+Corr=B3LYP ExCW=0 ScaHFX=  0.200000
 ScaDFX=  0.800000  0.720000  1.000000  0.810000 ScalE2=  1.000000  1.000000
 IRadAn=      5 IRanWt=     -1 IRanGd=            0 ICorTp=0 IEmpDi=141
 NAtoms=  100 NActive=  100 NUniq=  100 SFac= 1.00D+00 NAtFMM=   60 NAOKFM=T Big=T
 Integral buffers will be    131072 words long.
 Raffenetti 2 integral format.
 Two-electron integral symmetry is turned on.
 R6Disp:  Grimme-D3(BJ) Dispersion energy=       -0.2316605629 Hartrees.
 Nuclear repulsion after empirical dispersion term =     9390.9411400632 Hartrees.
 Force inversion solution in PCM.
 ------------------------------------------------------------------------------
 Polarizable Continuum Model (PCM)
 =================================
 Model                : PCM.
 Atomic radii         : UFF (Universal Force Field).
 Polarization charges : Total charges.
 Charge compensation  : None.
 Solution method      : Matrix inversion.
 Cavity type          : Scaled VdW (van der Waals Surface) (Alpha=1.100).
 Cavity algorithm     : GePol (No added spheres)
                        Default sphere list used, NSphG=  100.
                        Lebedev-Laikov grids with approx.  5.0 points / Ang**2.
                        Smoothing algorithm: York/Karplus (Gamma=1.0000).
                        Polarization charges: spherical gaussians, with
                                              point-specific exponents (IZeta= 3).
                        Self-potential: point-specific (ISelfS= 7).
                        Self-field    : sphere-specific E.n sum rule (ISelfD= 2).
 1st derivatives      : Analytical E(r).r(x)/FMM algorithm (CHGder, D1EAlg=3).
                        Cavity 1st derivative terms included.
 2nd derivatives      : Analytical E(r).r(xy)/FMM algorithm (CHGder, D2EAlg=3).
                        Cavity 2nd derivative terms included.
 Solvent              : TetraHydroFuran, Eps=   7.425700 Eps(inf)=   1.974025
 ------------------------------------------------------------------------------
 GePol: Number of generator spheres                  =     100
 GePol: Total number of spheres                      =     100
 GePol: Number of exposed spheres                    =     100 (100.00%)
 GePol: Number of points                             =    6130
 GePol: Average weight of points                     =       0.13
 GePol: Minimum weight of points                     =   0.15D-10
 GePol: Maximum weight of points                     =    0.21593
 GePol: Number of points with low weight             =     467
 GePol: Fraction of low-weight points (<1% of avg)   =       7.62%
 GePol: Cavity surface area                          =    770.738 Ang**2
 GePol: Cavity volume                                =    981.019 Ang**3
 Leave Link  301 at Fri May 24 19:07:09 2019, MaxMem=  6442450944 cpu:               7.0 elap:               0.3
 (Enter /home/ekwan/sw/g16/l302.exe)
 NPDir=0 NMtPBC=     1 NCelOv=     1 NCel=       1 NClECP=     1 NCelD=      1
         NCelK=      1 NCelE2=     1 NClLst=     1 CellRange=     0.0.
 One-electron integrals computed using PRISM.
 One-electron integral symmetry used in STVInt
 NBasis=   897 RedAO= T EigKep=  4.04D-04  NBF=   897
 NBsUse=   897 1.00D-06 EigRej= -1.00D+00 NBFU=   897
 Precomputing XC quadrature grid using
[...]
 ,-0.00002034,0.00000424,-0.00001167,0.00000575,0.00001680,-0.00000362,
 0.00000317,0.00006692,-0.00005608,0.00001555,-0.00285936,0.00015192,0.
 00157429,0.00065192,0.00018261,-0.00098387,0.00096675,-0.00074234,-0.0
 0020803,-0.00020346,0.00002359,-0.00082280,-0.00237812,-0.00014625,0.0
 0032506,-0.00010871,-0.00068640,-0.00033096,-0.02469402,-0.04200274,0.
 01135708,0.00099710,-0.00140878,-0.00005954,-0.00226678,-0.00112745,-0
 .00149061,0.00008306,-0.00004286,0.00010650,0.00608308,-0.00412990,-0.
 00358412,0.00024032,0.00018162,0.00069370,-0.00019141,0.00022332,-0.00
 016879,0.00001067,-0.00007679,0.00004590,0.00004133,-0.00006396,0.0000
 6615,-0.00018871,0.00000101,-0.00000407,-0.00012893,0.00022168,-0.0000
 2923,0.00000802,0.00008193,0.00000117,-0.00001779,-0.00006809,-0.00011
 038,0.00000203,-0.00005426,0.00004212,0.00000342,0.00007600,-0.0000549
 5,0.00000071,0.00000615,0.00000048,0.00001191,-0.00000941,0.00001258,-
 0.00000734,-0.00001346,0.00000030,-0.00003958,0.00004435,0.00000369,0.
 00000400,-0.00000529,0.00000452,0.00000941,-0.00000348,-0.00000629,0.0
 0000207,-0.00000790,-0.00000332,0.00000441,-0.00003580,-0.00000941,-0.
 00000197,0.00000243,0.00000113,0.00000102,-0.00000335,0.00000239,0.000
 00147,0.00001121,-0.00000603,-0.00011362,-0.00023590,-0.00009229,0.000
 07642,0.00007949,-0.00003938,-0.00006672,-0.00003413,-0.00002257,0.000
 00586,0.00001506,0.00003833,-0.00000840,0.00000702,0.00000273,0.000026
 32,0.00000862,-0.00000900,-0.00003706,-0.00008704,0.00001849,0.0000213
 1,0.00000907,-0.00000954,0.00001756,0.00002405,0.00001478,-0.00001649,
 -0.00002022,0.00002672,0.00261265,0.00148405,-0.00020176,-0.00058040,-
 0.00050004,0.00030737,-0.00098968,-0.00010079,-0.00029943,-0.00046925,
 -0.00114091,-0.00038026,-0.06080684,-0.22420364,0.03555634,0.00094142,
 -0.02364916,0.04368111,0.10873477,0.29004506,0.00000027,0.00000301,-0.
 00000547,-0.00000389,0.00000140,-0.00000784,-0.00000507,0.00000706,-0.
 00002108,0.00000094,0.00001328,-0.00000799,-0.00000756,-0.00000005,-0.
 00000945,-0.00000104,-0.00000515,0.00000129,-0.00000403,0.00000008,0.0
 0000106,0.00000207,-0.00000102,0.00000110,0.00000356,-0.00000071,0.000
 00212,0.00000244,0.00000143,0.00000105,-0.00000368,-0.00001046,0.00002
 142,0.00000446,0.00000285,0.00002045,0.00000275,-0.00000601,0.00001235
 ,0.00000252,-0.00000188,0.00000735,0.00000063,-0.00000532,0.00001056,-
 0.00001781,0.00000510,-0.00002959,0.00000631,-0.00000746,0.00000670,0.
 00001182,0.00001374,0.00001931,-0.00000084,0.00001466,0.00009354,-0.00
 000495,0.00000477,-0.00000894,-0.00000056,-0.00000108,-0.00000053,0.00
 000229,0.00000174,0.00000288,0.00000083,-0.00000062,0.00000007,-0.0000
 0268,0.00000216,-0.00000205,0.00000112,-0.00000094,0.00000180,-0.00000
 072,-0.00000006,-0.00000018,-0.00000044,0.00000095,0.00000024,0.000001
 62,0.00000038,-0.00000476,-0.00000243,0.00000088,0.00000332,-0.0000012
 6,0.00000121,-0.00000349,0.00000174,-0.00000220,0.00000047,-0.00002619
 ,0.00002292,-0.00006091,0.00004498,-0.00003658,0.00002363,-0.00012319,
 0.00007459,-0.00021110,0.00000381,0.00002460,-0.00001217,0.00001093,0.
 00001340,0.00000131,-0.00000832,0.00001088,-0.00000040,0.00000651,-0.0
 0001501,0.00000219,0.00000737,0.00002331,0.00001415,-0.00000303,0.0000
 0413,0.00000435,0.00000346,-0.00000796,0.00000194,0.00001756,-0.000047
 17,0.00004200,0.00033073,-0.00007498,0.00002047,-0.00002747,0.00015854
 ,0.00022595,0.00000734,-0.00001266,0.00006139,-0.00000596,-0.00001449,
 0.00001801,-0.00000941,0.00000745,-0.00001226,0.00000165,-0.00000101,0
 .00000134,-0.00000117,-0.00000039,0.00000225,0.00000970,-0.00000934,0.
 00001488,-0.00076347,0.00047781,0.00033981,0.00018864,-0.00006476,-0.0
 0017929,0.00025483,-0.00034600,0.00003951,-0.00044933,0.00042665,0.000
 44795,0.00117778,-0.00139931,-0.00065696,-0.00057924,-0.00053892,-0.00
 010543,-0.00504988,-0.01406844,0.01046116,-0.00068878,-0.00064650,-0.0
 0034727,-0.00029154,-0.00046987,-0.00130332,-0.00005297,-0.00003003,0.
 00002992,0.00165038,-0.00055102,0.00008229,-0.00009972,-0.00024972,0.0
 0026517,0.00011150,-0.00041518,-0.00009507,0.00000934,0.00006156,-0.00
 000092,-0.00000779,0.00002437,0.00002926,0.00018985,-0.00009226,-0.000
 22004,-0.00001354,0.00000040,-0.00002120,0.00000227,0.00004480,0.00001
 458,-0.00001138,-0.00000480,-0.00005388,-0.00000334,-0.00002636,0.0000
 1307,0.00000343,0.00001289,-0.00001635,-0.00000254,0.00000012,0.000002
 19,0.00000224,-0.00000214,0.00000141,-0.00000011,-0.00000017,0.0000010
 3,-0.00000384,0.00000553,-0.00000294,0.00000210,-0.00000146,0.00000198
 ,-0.00000013,-0.00000115,0.00000015,0.00000075,-0.00000055,-0.00000054
 ,0.00000553,-0.00000157,-0.00001306,0.00000081,0.00000046,0.00000100,-
 0.00000282,-0.00000101,0.00000189,-0.00000068,-0.00000103,0.00000135,-
 0.00006470,0.00002237,-0.00007603,0.00003999,-0.00002391,0.00000590,-0
 .00002035,0.00001650,-0.00000026,0.00000115,0.00000401,0.00000541,0.00
 000198,-0.00000387,0.00000170,0.00000652,-0.00000099,-0.00000362,-0.00
 003010,0.00001096,-0.00001058,0.00001098,-0.00000348,-0.00000226,-0.00
 000591,-0.00000483,-0.00000402,-0.00000327,0.00000128,0.00001533,0.000
 74509,0.00052773,-0.00030263,-0.00019899,-0.00016454,0.00018748,-0.000
 27954,-0.00005343,-0.00001982,-0.00011898,-0.00024211,-0.00001449,0.02
 070685,0.04151961,-0.08488105,0.00530438,0.05618037,-0.04128368,-0.048
 32687,-0.09469918,0.11682565,0.00002197,-0.00001797,-0.00001918,0.0000
 2991,0.00000518,-0.00001747,0.00009234,0.00001773,-0.00000500,-0.00000
 015,-0.00001381,0.00000414,0.00001707,-0.00003567,0.00000995,0.0000028
 2,0.00000572,0.00000100,0.00000551,-0.00000050,-0.00000237,-0.00000685
 ,0.00000398,0.00000081,-0.00001947,-0.00000263,-0.00000494,0.00000927,
 -0.00000948,-0.00001419,-0.00007523,0.00000527,0.00001454,-0.00005230,
 -0.00000566,-0.00001845,-0.00003669,-0.00000581,0.00002011,-0.00004003
 ,0.00003040,0.00002636,-0.00002607,0.00003583,-0.00000501,0.00016332,-
 0.00004056,0.00012504,-0.00002736,0.00003279,-0.00003053,-0.00001740,-
 0.00001534,-0.00001589,-0.00028237,0.00008005,-0.00009848,0.00000492,0
 .00000608,-0.00000977,0.00000413,0.00000197,0.00000279,0.00000124,-0.0
 0000439,-0.00000161,-0.00000589,-0.00000072,0.00000310,0.00003205,-0.0
 0001229,-0.00000415,-0.00000567,0.00000174,-0.00000345,-0.00000380,-0.
 00000232,0.00000037,-0.00000268,0.00000333,0.00000352,0.00001489,-0.00
 002080,-0.00000955,0.00000327,0.00000276,0.00000336,-0.00000645,-0.000
 00135,0.00001181,-0.00000595,0.00000771,-0.00000392,-0.00010036,-0.000
 05967,0.00010118,0.00017520,-0.00024491,-0.00000005,0.00033808,-0.0002
 1944,0.00016764,-0.00002669,-0.00016374,-0.00002373,0.00001676,-0.0000
 8785,-0.00002221,0.00002270,-0.00001376,-0.00001006,-0.00002574,0.0000
 1920,-0.00002593,-0.00000689,-0.00003927,-0.00001982,0.00001457,0.0000
 0425,-0.00000420,-0.00000067,0.00001056,-0.00000134,-0.00015565,0.0002
 9283,0.00007608,-0.00063552,0.00007590,0.00015486,-0.00018979,0.000410
 28,-0.00003663,0.00005303,0.00008969,-0.00008295,0.00004541,0.00014713
 ,-0.00000988,0.00003130,-0.00002524,0.00001417,-0.00000526,0.00001439,
 -0.00000344,-0.00000785,0.00000036,-0.00000518,-0.00004200,0.00005143,
 -0.00001268,0.00170044,-0.00033438,-0.00108094,-0.00037295,-0.00008106
 ,0.00074417,-0.00065131,0.00079693,0.00012610,-0.00133023,-0.00044249,
 0.00059275,0.00210447,0.00452126,0.00212753,0.00030468,0.00018108,0.00
 000689,-0.02335380,0.00833412,0.00842373,0.00060264,-0.00026485,-0.000
 47185,0.00094047,0.00103904,0.00077105,0.00014604,0.00005838,-0.000115
 80,-0.00288992,-0.00397261,-0.00028137,0.00195919,0.00125026,-0.000679
 83,0.00024995,-0.00051167,0.00009134,0.00002392,0.00005778,-0.00002952
 ,-0.00005657,0.00013922,-0.00006934,0.00011851,-0.00017756,-0.00009295
 ,-0.00003031,-0.00007282,0.00000539,0.00000041,-0.00003910,0.00000427,
 -0.00001755,0.00002135,0.00006914,0.00000886,0.00004477,-0.00003084,-0
 .00001529,-0.00006173,0.00005597,-0.00000003,-0.00000318,-0.00000801,-
 0.00000421,0.00000645,-0.00001033,0.00000516,0.00001416,-0.00000075,0.
 00002689,-0.00003914,-0.00000214,-0.00000423,0.00000323,-0.00000327,-0
 .00000521,0.00000279,0.00000272,-0.00000050,0.00000841,0.00000404,0.00
 001349,0.00000418,0.00000225,-0.00000832,0.00000015,-0.00000307,0.0000
 0193,-0.00000625,0.00000736,0.00000538,0.00000253,-0.00000330,0.000222
 74,-0.00004139,-0.00001623,-0.00007935,0.00002391,0.00004475,0.0000470
 7,-0.00003610,-0.00000469,-0.00000084,-0.00000830,-0.00002509,0.000005
 12,0.00000086,-0.00000504,-0.00002384,-0.00000071,0.00001659,0.0000464
 6,0.00000731,-0.00002203,-0.00002816,0.00000567,0.00001435,0.00000693,
 0.00000777,0.00000158,0.00001021,0.00000513,-0.00003049,-0.00140545,-0
 .00044118,0.00013695,0.00037470,0.00023128,-0.00026536,0.00055993,-0.0
 0000606,0.00014554,0.00025159,0.00025881,0.00006353,-0.23363569,0.0576
 6327,0.05278506,-0.05770237,0.02109743,-0.02967508,-0.05334077,-0.0268
 4920,0.02642571,0.36593072,-0.00001202,0.00000131,0.00000989,-0.000017
 39,-0.00000678,0.00000443,-0.00004954,-0.00003082,0.00000385,0.0000015
 7,-0.00001327,0.00001391,-0.00001743,0.00001011,-0.00000892,0.00000270
 ,0.00000477,-0.00000252,-0.00000529,-0.00000063,0.00000119,0.00000512,
 -0.00000181,-0.00000061,0.00001498,0.00000505,0.00000138,-0.00000563,0
 .00000791,0.00001080,0.00004330,0.00003030,-0.00001041,0.00002518,0.00
 002202,0.00001763,0.00002037,0.00001436,-0.00001153,0.00002317,-0.0000
 0796,-0.00000972,0.00002480,-0.00000114,0.00000489,-0.00013687,0.00002
 117,-0.00011603,0.00002142,-0.00001902,0.00002247,0.00002608,0.0000227
 3,0.00003922,0.00023949,0.00000388,0.00013251,-0.00000134,-0.00001294,
 0.00000495,-0.00000174,0.00000272,0.00000059,0.00000029,0.00000160,0.0
 0000073,0.00000221,0.00000111,-0.00000173,-0.00001747,0.00000493,0.000
 00198,0.00000282,-0.00000109,0.00000183,0.00000299,0.00000129,-0.00000
 089,0.00000095,-0.00000100,-0.00000094,-0.00002230,0.00000225,0.000002
 30,-0.00000261,-0.00000067,0.00000045,0.00000589,-0.00000008,-0.000010
 10,0.00000488,-0.00000365,0.00000247,0.00001057,0.00003910,-0.00007178
 ,-0.00010692,0.00018610,0.00002215,-0.00038287,0.00018465,-0.00028869,
 0.00001406,0.00012031,0.00001410,-0.00000907,0.00007858,0.00001929,-0.
 00001661,0.00000112,0.00000744,0.00002657,-0.00003004,0.00002312,0.000
 01090,0.00004784,0.00002091,-0.00001261,0.00000241,0.00000594,0.000001
 15,-0.00001244,0.00000276,0.00014016,-0.00022461,-0.00002515,0.0008769
 1,0.00015398,0.00001302,0.00016601,-0.00017406,0.00017556,0.00005721,-
 0.00010407,0.00006215,-0.00002664,-0.00011692,0.00001119,-0.00003157,0
 .00002532,-0.00001614,0.00000425,-0.00001040,0.00000402,0.00000913,-0.
 00000142,0.00000377,0.00004518,-0.00004385,0.00001498,-0.00234140,0.00
 009689,0.00109235,0.00053791,0.00013554,-0.00083492,0.00086060,-0.0008
 4662,-0.00012788,0.00186647,-0.00009375,-0.00122682,-0.00243198,-0.005
 11018,-0.00263186,0.00038316,-0.00032439,-0.00039085,0.03285818,-0.001
 76981,-0.01164710,0.00010116,0.00007702,0.00014648,0.00054247,0.000289
 95,-0.00031458,0.00005433,-0.00003130,0.00001619,0.00051258,-0.0014058
 2,-0.00042261,0.00124317,-0.00184902,-0.00119054,-0.00010667,0.0000743
 1,-0.00012954,-0.00000001,-0.00002473,0.00002484,0.00002421,-0.0000494
 7,0.00005385,-0.00005222,0.00005140,-0.00005748,-0.00004358,0.00011516
 ,-0.00001572,0.00000281,0.00005029,0.00000086,-0.00000825,-0.00003521,
 -0.00007081,-0.00000372,-0.00003614,0.00002687,0.00000637,0.00005450,-
 0.00004410,-0.00000035,0.00000329,0.00000322,0.00000699,-0.00000645,0.
 00000882,-0.00000483,-0.00001019,0.00000068,-0.00002708,0.00003345,0.0
 0000176,0.00000366,-0.00000376,0.00000354,0.00000573,-0.00000264,-0.00
 000361,0.00000125,-0.00000633,-0.00000288,-0.00000102,-0.00001693,-0.0
 0000844,0.00000210,0.00000111,0.00000182,-0.00000098,0.00000034,-0.000
 00086,-0.00000135,0.00000362,-0.00000106,-0.00014138,-0.00008191,-0.00
 006231,0.00007280,0.00002101,-0.00002986,-0.00005350,0.00000050,-0.000
 01022,0.00000293,0.00001079,0.00002886,-0.00000441,0.00000161,0.000003
 44,0.00002283,0.00000403,-0.00001061,-0.00004202,-0.00003796,0.0000119
 8,0.00002291,0.00000124,-0.00000972,0.00000431,0.00000714,0.00000503,-
 0.00001226,-0.00001149,0.00002699,0.00137926,0.00101894,0.00028509,-0.
 00038676,-0.00032978,0.00017960,-0.00058709,-0.00009323,-0.00019568,-0
 .00022609,-0.00045327,-0.00018495,0.04896682,-0.09570099,-0.02044592,0
 .01995757,0.00609877,0.00890084,-0.04120895,0.00739922,0.01461920,-0.0
 6271113,0.09260302,-0.00000687,0.00000379,0.00000178,-0.00001306,-0.00
 000253,-0.00000274,-0.00003258,-0.00001120,-0.00001310,0.00000173,0.00
 000443,0.00000084,-0.00001552,0.00000722,-0.00001253,0.00000062,-0.000
 00168,-0.00000017,-0.00000589,-0.00000037,0.00000151,0.00000450,-0.000
 00181,0.00000046,0.00001127,0.00000217,0.00000250,-0.00000134,0.000005
 53,0.00000698,0.00002281,0.00000654,0.00001044,0.00001829,0.00001296,0
 .00002442,0.00001398,0.00000299,0.00000239,0.00001550,-0.00000700,-0.0
 0000054,0.00001403,-0.00000709,0.00001110,-0.00009159,0.00001828,-0.00
 008783,0.00001745,-0.00001755,0.00001815,0.00002345,0.00002291,0.00003
 544,0.00013500,0.00000831,0.00014523,-0.00000453,-0.00000320,-0.000003
 64,-0.00000136,0.00000048,-0.00000016,0.00000182,0.00000217,0.00000251
 ,0.00000195,0.00000016,-0.00000095,-0.00001236,0.00000473,-0.00000041,
 0.00000256,-0.00000134,0.00000248,0.00000115,0.00000067,-0.00000057,0.
 00000028,0.00000007,-0.00000047,-0.00001032,0.00000284,-0.00000209,-0.
 00000347,0.00000020,0.00000272,0.00000223,0.00000119,-0.00000855,0.000
 00423,-0.00000406,0.00000180,-0.00000231,0.00004429,-0.00010009,-0.000
 02907,0.00007862,0.00002921,-0.00031202,0.00016581,-0.00032917,0.00001
 225,0.00009154,-0.00000180,0.00000276,0.00005389,0.00001236,-0.0000155
 6,0.00000897,0.00000571,0.00002076,-0.00002872,0.00001559,0.00001274,0
 .00004467,0.00002400,-0.00000975,0.00000440,0.00000678,0.00000381,-0.0
 0001337,0.00000292,0.00009465,-0.00016910,0.00001794,0.00074412,0.0000
 5122,0.00004521,0.00006659,0.00002707,0.00027104,0.00001471,-0.0000602
 1,0.00009066,-0.00002151,-0.00007823,0.00002115,-0.00002516,0.00001958
 ,-0.00001843,0.00000385,-0.00000685,0.00000326,0.00000374,-0.00000093,
 0.00000403,0.00003209,-0.00003197,0.00002027,-0.00207256,0.00037147,0.
 00070154,0.00053069,0.00006707,-0.00068197,0.00067793,-0.00075406,-0.0
 0001621,0.00096741,-0.00016261,-0.00154496,-0.00161554,-0.00454841,-0.
 00065383,0.00049608,-0.00023780,-0.00035375,0.02936613,-0.01046763,-0.
 00072730,-0.00014911,0.00017188,0.00040544,0.00005922,0.00002534,-0.00
 020211,-0.00000158,-0.00002901,0.00004417,0.00077831,-0.00019102,-0.00
 064319,0.00015079,-0.00113332,-0.00062297,0.00005489,-0.00025814,-0.00
 012915,0.00000664,0.00002986,0.00001267,0.00001420,-0.00001852,0.00005
 693,0.00007833,-0.00013544,-0.00018636,-0.00001967,0.00005011,-0.00002
 681,0.00000239,0.00006247,0.00001242,-0.00000801,-0.00001926,-0.000082
 30,-0.00000620,-0.00004314,0.00002508,0.00000753,0.00004052,-0.0000390
 8,-0.00000240,0.00000171,0.00000426,0.00000524,-0.00000524,0.00000608,
 -0.00000272,-0.00000594,0.00000138,-0.00001772,0.00002294,-0.00000148,
 0.00000382,-0.00000318,0.00000353,0.00000293,-0.00000240,-0.00000171,0
 .00000126,-0.00000402,-0.00000210,0.00000280,-0.00000935,-0.00001375,0
 .00000211,0.00000093,0.00000176,-0.00000272,-0.00000016,0.00000050,-0.
 00000143,0.00000076,0.00000081,-0.00012584,-0.00002904,-0.00009094,0.0
 0007120,-0.00000640,-0.00001313,-0.00004598,0.00001333,-0.00000596,0.0
 0000272,0.00000921,0.00002031,-0.00000077,-0.00000189,0.00000331,0.000
 01803,0.00000148,-0.00000886,-0.00004665,-0.00001369,-0.00000138,0.000
 02161,-0.00000166,-0.00000718,-0.00000120,0.00000075,0.00000041,-0.000
 00915,-0.00000656,0.00002667,0.00121241,0.00089572,0.00000069,-0.00036
 129,-0.00030254,0.00026483,-0.00046003,-0.00010912,-0.00012167,-0.0002
 1012,-0.00037412,-0.00010577,0.04680239,-0.02107365,-0.08819713,-0.044
 84490,0.01380057,0.00384256,0.02793815,0.00960481,0.00059677,-0.059960
 27,0.01452592,0.08819130\\-0.00000046,0.00000016,-0.00000176,-0.000000
 60,-0.00000013,-0.00000120,-0.00000022,0.00000067,-0.00000081,-0.00000
 003,0.00000069,-0.00000149,0.00000116,-0.00000013,-0.00000052,0.000000
 02,-0.00000005,-0.00000079,-0.00000015,-0.00000133,-0.00000068,0.00000
 010,0.00000019,-0.00000205,0.00000115,0.00000001,-0.00000126,-0.000000
 85,0.00000073,-0.00000164,-0.00000035,-0.00000175,-0.00000141,0.000000
 90,0.00000011,-0.00000147,0.00000004,0.00000072,-0.00000190,-0.0000001
 8,0.,-0.00000183,0.00000056,-0.00000062,-0.00000155,0.00000043,0.00000
 318,-0.00000230,0.00000164,-0.00000082,-0.00000082,0.00000143,-0.00000
 088,0.00000050,0.00000052,-0.00000364,-0.00000100,-0.00000064,-0.00000
 034,-0.00000139,-0.00000064,0.00000034,-0.00000141,-0.00000113,0.00000
 008,-0.00000176,-0.00000071,0.00000018,-0.00000202,-0.00000108,-0.0000
 0049,-0.00000259,-0.00000008,-0.00000017,-0.00000204,-0.00000042,0.000
 00025,-0.00000225,-0.00000062,0.00000040,-0.00000198,0.00000101,-0.000
 00156,-0.00000109,0.00000033,0.00000007,-0.00000069,-0.00000123,-0.000
 00034,-0.00000061,0.00000040,-0.00000010,-0.00000167,-0.00000073,-0.00
 000114,0.00000080,-0.00000114,0.00000103,-0.00000557,0.00000243,-0.000
 00013,0.00000197,-0.00000123,-0.00000179,0.00000041,0.00000085,0.00000
 083,0.00000087,0.00000219,0.00000002,0.00000156,0.00000174,-0.00000103
 ,0.00000104,-0.00000077,0.00000057,0.00000136,-0.00000064,0.00000063,0
 .00000042,0.00000005,-0.00000057,-0.00000012,-0.00000501,0.00000429,0.
 00000102,0.00000296,0.00000005,-0.00000204,0.00000107,-0.00000039,-0.0
 0000011,0.00000221,-0.00000010,0.00000172,0.00000098,0.00000007,-0.000
 00057,-0.00000094,-0.00000113,-0.00000010,0.00000007,0.00000047,-0.000
 00073,-0.00000047,0.00000065,-0.00000076,0.00000075,0.00000191,-0.0000
 0011,-0.00000240,-0.00000412,0.00000392,-0.00000095,0.00000065,0.00000
 020,-0.00000180,0.00000111,0.00000216,0.00000008,-0.00000020,0.0000019
 8,0.00000133,-0.00000010,0.00000181,0.00000004,-0.00000055,0.00000120,
 -0.00000057,0.00000076,0.00000306,-0.00000061,-0.00000035,0.00000129,-
 0.00000053,0.00000009,0.00000269,-0.00000059,0.00000037,0.00000167,-0.
 00000023,-0.00000067,0.00000175,0.00000041,-0.00000003,0.00000251,0.00
 000017,0.00000078,0.00000180,0.00000130,0.00000023,-0.00000119,0.00000
 060,-0.00000039,0.00000126,0.00000060,0.00000015,0.00000076,0.00000048
 ,0.00000030,0.00000144,-0.00000062,0.00000005,0.00000109,0.00000039,-0
 .00000026,0.00000158,0.00000077,-0.00000010,0.00000169,-0.00000077,-0.
 00000019,0.00000063,0.00000059,-0.00000017,0.00000085,0.00000057,0.,0.
 00000031,0.00000013,0.00000023,0.00000081,0.00000058,-0.00000011,-0.00
 000050,0.00000035,0.,-0.00000136,0.,0.00000003,-0.00000133,-0.00000007
 ,-0.00000003,-0.00000098,0.00000172,0.00000022,-0.00000122,0.00000053,
 -0.00000026,-0.00000202,0.00000083,-0.00000041,-0.00000096,0.00000081,
 -0.00000053,-0.00000115,0.00000012,0.00000058,0.00000020,-0.00000247,0
 .00000117,0.00000058,-0.00000042,0.00000169,-0.00000087,-0.00000168,0.
 00000023,-0.00000059,-0.00000016,-0.00000087,-0.00000009,-0.00000089,0
 .00000047,-0.00000046,-0.00000066,-0.00000035,0.00000058,-0.00000144,0
 .00000021,-0.00000091,-0.00000076,0.00000027,-0.00000018,-0.00000093,0
 .00000131,-0.00000051,-0.00000087,0.00000076,0.00000276,0.00000031,-0.
 00000031,0.00000249,-0.00000029,0.00000007,0.00000280,-0.00000029,-0.0
 0000006,0.00000231,0.00000083,-0.00000089,0.00000184,0.00000115,-0.000
 00030,0.00000184,0.00000052,-0.00000012,0.00000218,0.00000006,0.000000
 01,0.00000271\\\@


 SUCCESS-- IF YOU HAVE TRIED TO DO SOMETHING AND FAILED
           YOU ARE BETTER OFF THAN IF YOU HAD TRIED TO DO
           NOTHING AND SUCCEEDED.

                   -- FROM THE BACK OF A SUGAR PACKET
 Job cpu time:       4 days  6 hours 25 minutes 51.5 seconds.
 Elapsed time:       0 days  3 hours 25 minutes 38.4 seconds.
 File lengths (MBytes):  RWF=   9767 Int=      0 D2E=      0 Chk=     85 Scr=      1
 Normal termination of Gaussian 16 at Sat May 25 01:59:02 2019.
