 Entering Gaussian System, Link 0=g16
 Input=clay_new-glu_gluC6-DDDR-Na2_1Me2O-bisCF3-ts-b3lyp_d3bj-631gd-pcm_thf.gjf
 Output=clay_new-glu_gluC6-DDDR-Na2_1Me2O-bisCF3-ts-b3lyp_d3bj-631gd-pcm_thf.out
 Initial command:
 /home/ekwan/sw/g16/l1.exe "/scratch/users/ekwan/clay_new-glu_gluC6-DDDR-Na2_1Me2O-bisCF3-ts-b3lyp_d3bj-631gd-pcm_thf/Gau-7139.inp" -scrdir="/scratch/users/ekwan/clay_new-glu_gluC6-DDDR-Na2_1Me2O-bisCF3-ts-b3lyp_d3bj-631gd-pcm_thf/"
 Entering Link 1 = /home/ekwan/sw/g16/l1.exe PID=      7140.
  
 Copyright (c) 1988,1990,1992,1993,1995,1998,2003,2009,2016,
            Gaussian, Inc.  All Rights Reserved.
  
 This is part of the Gaussian(R) 16 program.  It is based on
 the Gaussian(R) 09 system (copyright 2009, Gaussian, Inc.),
 the Gaussian(R) 03 system (copyright 2003, Gaussian, Inc.),
 the Gaussian(R) 98 system (copyright 1998, Gaussian, Inc.),
 the Gaussian(R) 94 system (copyright 1995, Gaussian, Inc.),
 the Gaussian 92(TM) system (copyright 1992, Gaussian, Inc.),
 the Gaussian 90(TM) system (copyright 1990, Gaussian, Inc.),
 the Gaussian 88(TM) system (copyright 1988, Gaussian, Inc.),
 the Gaussian 86(TM) system (copyright 1986, Carnegie Mellon
 University), and the Gaussian 82(TM) system (copyright 1983,
 Carnegie Mellon University). Gaussian is a federally registered
 trademark of Gaussian, Inc.
  
 This software contains proprietary and confidential information,
 including trade secrets, belonging to Gaussian, Inc.
  
 This software is provided under written license and may be
 used, copied, transmitted, or stored only in accord with that
 written license.
  
 The following legend is applicable only to US Government
 contracts under FAR:
  
                    RESTRICTED RIGHTS LEGEND
  
 Use, reproduction and disclosure by the US Government is
 subject to restrictions as set forth in subparagraphs (a)
 and (c) of the Commercial Computer Software - Restricted
 Rights clause in FAR 52.227-19.
  
 Gaussian, Inc.
 340 Quinnipiac St., Bldg. 40, Wallingford CT 06492
  
  
 ---------------------------------------------------------------
 Warning -- This program may not be used in any manner that
 competes with the business of Gaussian, Inc. or will provide
 assistance to any competitor of Gaussian, Inc.  The licensee
 of this program is prohibited from giving any competitor of
 Gaussian, Inc. access to this program.  By using this program,
 the user acknowledges that Gaussian, Inc. is engaged in the
 business of creating and licensing software in the field of
 computational chemistry and represents and warrants to the
 licensee that it is not a competitor of Gaussian, Inc. and that
 it will not use this program in any manner prohibited above.
 ---------------------------------------------------------------
  

 Cite this work as:
 Gaussian 16, Revision A.03,
 M. J. Frisch, G. W. Trucks, H. B. Schlegel, G. E. Scuseria, 
 M. A. Robb, J. R. Cheeseman, G. Scalmani, V. Barone, 
 G. A. Petersson, H. Nakatsuji, X. Li, M. Caricato, A. V. Marenich, 
 J. Bloino, B. G. Janesko, R. Gomperts, B. Mennucci, H. P. Hratchian, 
 J. V. Ortiz, A. F. Izmaylov, J. L. Sonnenberg, D. Williams-Young, 
 F. Ding, F. Lipparini, F. Egidi, J. Goings, B. Peng, A. Petrone, 
 T. Henderson, D. Ranasinghe, V. G. Zakrzewski, J. Gao, N. Rega, 
 G. Zheng, W. Liang, M. Hada, M. Ehara, K. Toyota, R. Fukuda, 
 J. Hasegawa, M. Ishida, T. Nakajima, Y. Honda, O. Kitao, H. Nakai, 
 T. Vreven, K. Throssell, J. A. Montgomery, Jr., J. E. Peralta, 
 F. Ogliaro, M. J. Bearpark, J. J. Heyd, E. N. Brothers, K. N. Kudin, 
 V. N. Staroverov, T. A. Keith, R. Kobayashi, J. Normand, 
 K. Raghavachari, A. P. Rendell, J. C. Burant, S. S. Iyengar, 
 J. Tomasi, M. Cossi, J. M. Millam, M. Klene, C. Adamo, R. Cammi, 
 J. W. Ochterski, R. L. Martin, K. Morokuma, O. Farkas, 
 J. B. Foresman, and D. J. Fox, Gaussian, Inc., Wallingford CT, 2016.
 
 ******************************************
 Gaussian 16:  AS64L-G16RevA.03 25-Dec-2016
                24-May-2019 
 ******************************************
 %mem=48GB
 %nprocshared=32
 Will use up to   32 processors via shared memory.
 ----------------------------------------------------------------------
 #p opt=(ts,noeigentest,calcfc,maxstep=3,modredundant,recalc=30) freq=n
 oraman b3lyp 6-31g* pop=none scrf=(solvent=tetrahydrofuran,pcm) empiri
 caldispersion=gd3bj
 ----------------------------------------------------------------------
 1/5=1,8=3,10=4,11=1,18=120,26=3,38=1,71=30/1,3;
 2/9=110,12=2,17=6,18=5,40=1/2;
 3/5=1,6=6,7=1,11=2,25=1,30=1,70=2201,71=2,72=20,74=-5,124=41,140=1/1,2,3;
 4//1;
 5/5=2,38=5,53=20/2;
 8/6=4,10=90,11=11/1;
 11/6=1,8=1,9=11,15=111,16=1/1,2,10;
 10/6=1,13=1/2;
 7/10=1,18=20,25=1/1,2,3,16;
 1/5=1,8=3,10=4,11=1,18=20,26=3,71=30/3(2);
 2/9=110/2;
 99//99;
 2/9=110/2;
 3/5=1,6=6,7=1,11=2,25=1,30=1,70=2205,71=1,72=20,74=-5,124=41/1,2,3;
 4/5=5,16=3,69=1/1;
 5/5=2,38=5,53=20/2;
 7//1,2,3,16;
 1/5=1,8=3,11=1,18=20,26=3,71=30/3(-5);
 2/9=110/2;
 99/9=1/99;
 Leave Link    1 at Fri May 24 20:21:16 2019, MaxMem=  6442450944 cpu:               6.2 elap:               0.2
 (Enter /home/ekwan/sw/g16/l101.exe)
 -----
 title
 -----
 Symbolic Z-matrix:
 Charge =  0 Multiplicity = 1
 C                     5.50915   0.07632   0.7811 
 C                     6.34112  -0.69572  -0.24352 
 C                     5.44823  -1.33467  -1.31936 
 C                     3.68557   0.23766  -0.96918 
 C                     4.47919   0.98835   0.1108 
 H                     6.04252  -1.72042  -2.15873 
 H                     6.99481   0.02338  -0.76189 
 H                     4.97067  -0.64426   1.41017 
 H                     3.11693  -0.5666   -0.48361 
 H                     5.02      1.81977  -0.36696 
 O                     4.61916  -0.34987  -1.89907 
 O                     4.7263   -2.38373  -0.72298 
 O                     7.12621  -1.63479   0.46924 
 O                     6.36253   0.88785   1.5797 
 O                     3.65385   1.48735   1.15621 
 C                     2.68731   1.08897  -1.78736 
 H                     2.61246   0.57751  -2.77312 
 H                     3.17904   2.06398  -2.00173 
 O                     1.4805    1.21595  -1.13884 
 C                     8.14744  -2.24341  -0.30273 
 H                     7.74146  -2.93688  -1.05185 
 H                     8.76513  -1.49102  -0.81514 
 H                     8.77509  -2.80729   0.39155 
 C                     6.61047   0.37474   2.87781 
 H                     5.67792   0.27974   3.45333 
 H                     7.10888  -0.60106   2.83851 
 H                     7.26323   1.09363   3.38126 
 C                     3.17474   2.80955   0.94927 
 H                     4.0066    3.50149   0.75347 
 H                     2.45507   2.83215   0.12481 
 H                     2.67875   3.1098    1.8771 
 C                    -1.80064   3.10344   0.91134 
 C                    -0.69714   2.24737   0.28759 
 C                    -0.82644   2.23414  -1.20336 
 C                    -1.79556   4.46921  -1.24127 
 C                    -1.75306   4.49881   0.29153 
 H                    -0.43499   1.43091  -1.80535 
 H                     0.27623   2.7251    0.46281 
 H                    -2.7695    2.64016   0.70132 
 H                    -2.83828   4.39846  -1.55538 
 H                    -0.82772   4.98724   0.62322 
 O                    -1.17422   3.27922  -1.85671 
 O                    -1.30714  -0.51947  -2.36534 
 O                    -0.67001   0.93032   0.80045 
 O                    -1.58867   3.22976   2.30685 
 O                    -2.88382   5.24691   0.70625 
 C                    -1.06771   5.64916  -1.90405 
 H                    -1.21873   5.59969  -2.99214 
 H                     0.00314   5.54901  -1.69857 
 O                    -1.46011   6.89691  -1.38471 
 S                    -2.71292  -0.22815  -1.92855 
 O                    -3.72051  -0.39731  -2.99126 
 O                    -2.79919   1.08557  -1.1971 
 C                    -3.04807  -1.4964   -0.69555 
 C                    -3.39078  -2.77494  -1.1337 
 C                    -2.83589  -1.23234   0.65243 
 C                    -3.49797  -3.80355  -0.20111 
 H                    -3.56458  -2.96053  -2.18687 
 C                    -2.9467   -2.27625   1.5733 
 H                    -2.54707  -0.2375    0.9652 
 C                    -3.27514  -3.56259   1.156 
 H                    -3.35942  -4.36812   1.87542 
 C                     0.29515   0.75039   1.8586 
 H                     1.30893   0.80535   1.45014 
 H                     0.15107   1.50782   2.6322 
 H                     0.09274  -0.23703   2.27607 
 C                    -2.62627   2.67171   3.10814 
 H                    -3.59408   3.13201   2.87416 
 H                    -2.69632   1.58639   2.97485 
 H                    -2.36548   2.88889   4.14633 
 C                    -2.5903    6.27478   1.65045 
 H                    -2.15339   5.85638   2.56343 
 H                    -1.90891   7.0146    1.21446 
 H                    -3.54308   6.75332   1.88758 
 C                    -2.76096   7.31229  -1.79188 
 H                    -2.86835   8.35115  -1.47286 
 H                    -2.86705   7.25643  -2.88418 
 H                    -3.54223   6.7094   -1.31578 
 C                     3.91755  -3.10526  -1.64436 
 H                     3.48931  -3.94629  -1.0948 
 H                     3.11017  -2.48198  -2.04756 
 H                     4.51897  -3.48641  -2.48184 
 Na                    0.38446  -0.68138  -0.77334 
 O                    -0.04392  -2.93507  -0.52104 
 C                     0.25907  -3.78901   0.57511 
 H                     1.27596  -4.1969    0.49038 
 H                     0.17268  -3.19279   1.48458 
 H                    -0.45786  -4.61871   0.62009 
 C                    -0.10688  -3.63986  -1.75915 
 H                    -0.83087  -4.45968  -1.69487 
 H                    -0.43417  -2.92226  -2.51301 
 H                     0.87707  -4.04791  -2.02816 
 C                    -3.77019  -5.21036  -0.65307 
 F                    -4.36601  -5.25576  -1.8597 
 F                    -4.55173  -5.87897   0.2205 
 F                    -2.61254  -5.91979  -0.7558 
 C                    -2.6212   -2.01428   3.01561 
 F                    -3.13853  -2.94536   3.83872 
 F                    -3.07066  -0.80805   3.42663 
 F                    -1.27358  -2.01329   3.22363 
 
 Add virtual bond connecting atoms H37        and O19        Dist= 3.85D+00.
 Add virtual bond connecting atoms O43        and H37        Dist= 4.17D+00.
 Add virtual bond connecting atoms O43        and Na83       Dist= 4.40D+00.
 Add virtual bond connecting atoms O53        and C34        Dist= 4.31D+00.
 Add virtual bond connecting atoms H60        and O44        Dist= 4.19D+00.
 Add virtual bond connecting atoms O84        and Na83       Dist= 4.36D+00.
 The following ModRedundant input section has been read:
 
 ITRead=  0  0  0  0  0  0  0  0  0  0  0  0  0  0  0  0  0  0  0  0
 ITRead=  0  0  0  0  0  0  0  0  0  0  0  0  0  0  0  0  0  0  0  0
 ITRead=  0  0  0  0  0  0  0  0  0  0  0  0  0  0  0  0  0  0  0  0
 ITRead=  0  0  0  0  0  0  0  0  0  0  0  0  0  0  0  0  0  0  0  0
 ITRead=  0  0  0  0  0  0  0  0  0  0  0  0  0  0  0  0  0  0  0  0
 MicOpt= -1 -1 -1 -1 -1 -1 -1 -1 -1 -1 -1 -1 -1 -1 -1 -1 -1 -1 -1 -1
 MicOpt= -1 -1 -1 -1 -1 -1 -1 -1 -1 -1 -1 -1 -1 -1 -1 -1 -1 -1 -1 -1
 MicOpt= -1 -1 -1 -1 -1 -1 -1 -1 -1 -1 -1 -1 -1 -1 -1 -1 -1 -1 -1 -1
 MicOpt= -1 -1 -1 -1 -1 -1 -1 -1 -1 -1 -1 -1 -1 -1 -1 -1 -1 -1 -1 -1
 MicOpt= -1 -1 -1 -1 -1 -1 -1 -1 -1 -1 -1 -1 -1 -1 -1 -1 -1 -1 -1 -1
 NAtoms=    100 NQM=      100 NQMF=       0 NMMI=      0 NMMIF=      0
                NMic=       0 NMicF=      0.
                    Isotopes and Nuclear Properties:
 (Nuclear quadrupole moments (NQMom) in fm**2, nuclear magnetic moments (NMagM)
  in nuclear magnetons)

  Atom         1           2           3           4           5           6           7           8           9          10
 IAtWgt=          12          12          12          12          12           1           1           1           1           1
 AtmWgt=  12.0000000  12.0000000  12.0000000  12.0000000  12.0000000   1.0078250   1.0078250   1.0078250   1.0078250   1.0078250
 NucSpn=           0           0           0           0           0           1           1           1           1           1
 AtZEff=   0.0000000   0.0000000   0.0000000   0.0000000   0.0000000   0.0000000   0.0000000   0.0000000   0.0000000   0.0000000
 NQMom=    0.0000000   0.0000000   0.0000000   0.0000000   0.0000000   0.0000000   0.0000000   0.0000000   0.0000000   0.0000000
 NMagM=    0.0000000   0.0000000   0.0000000   0.0000000   0.0000000   2.7928460   2.7928460   2.7928460   2.7928460   2.7928460
 AtZNuc=   6.0000000   6.0000000   6.0000000   6.0000000   6.0000000   1.0000000   1.0000000   1.0000000   1.0000000   1.0000000

  Atom        11          12          13          14          15          16          17          18          19          20
 IAtWgt=          16          16          16          16          16          12           1           1          16          12
 AtmWgt=  15.9949146  15.9949146  15.9949146  15.9949146  15.9949146  12.0000000   1.0078250   1.0078250  15.9949146  12.0000000
 NucSpn=           0           0           0           0           0           0           1           1           0           0
 AtZEff=   0.0000000   0.0000000   0.0000000   0.0000000   0.0000000   0.0000000   0.0000000   0.0000000   0.0000000   0.0000000
 NQMom=    0.0000000   0.0000000   0.0000000   0.0000000   0.0000000   0.0000000   0.0000000   0.0000000   0.0000000   0.0000000
 NMagM=    0.0000000   0.0000000   0.0000000   0.0000000   0.0000000   0.0000000   2.7928460   2.7928460   0.0000000   0.0000000
 AtZNuc=   8.0000000   8.0000000   8.0000000   8.0000000   8.0000000   6.0000000   1.0000000   1.0000000   8.0000000   6.0000000

  Atom        21          22          23          24          25          26          27          28          29          30
 IAtWgt=           1           1           1          12           1           1           1          12           1           1
 AtmWgt=   1.0078250   1.0078250   1.0078250  12.0000000   1.0078250   1.0078250   1.0078250  12.0000000   1.0078250   1.0078250
 NucSpn=           1           1           1           0           1           1           1           0           1           1
 AtZEff=   0.0000000   0.0000000   0.0000000   0.0000000   0.0000000   0.0000000   0.0000000   0.0000000   0.0000000   0.0000000
 NQMom=    0.0000000   0.0000000   0.0000000   0.0000000   0.0000000   0.0000000   0.0000000   0.0000000   0.0000000   0.0000000
 NMagM=    2.7928460   2.7928460   2.7928460   0.0000000   2.7928460   2.7928460   2.7928460   0.0000000   2.7928460   2.7928460
 AtZNuc=   1.0000000   1.0000000   1.0000000   6.0000000   1.0000000   1.0000000   1.0000000   6.0000000   1.0000000   1.0000000

  Atom        31          32          33          34          35          36          37          38          39          40
 IAtWgt=           1          12          12          12          12          12           1           1           1           1
 AtmWgt=   1.0078250  12.0000000  12.0000000  12.0000000  12.0000000  12.0000000   1.0078250   1.0078250   1.0078250   1.0078250
 NucSpn=           1           0           0           0           0           0           1           1           1           1
 AtZEff=   0.0000000   0.0000000   0.0000000   0.0000000   0.0000000   0.0000000   0.0000000   0.0000000   0.0000000   0.0000000
 NQMom=    0.0000000   0.0000000   0.0000000   0.0000000   0.0000000   0.0000000   0.0000000   0.0000000   0.0000000   0.0000000
 NMagM=    2.7928460   0.0000000   0.0000000   0.0000000   0.0000000   0.0000000   2.7928460   2.7928460   2.7928460   2.7928460
 AtZNuc=   1.0000000   6.0000000   6.0000000   6.0000000   6.0000000   6.0000000   1.0000000   1.0000000   1.0000000   1.0000000

  Atom        41          42          43          44          45          46          47          48          49          50
 IAtWgt=           1          16          16          16          16          16          12           1           1          16
 AtmWgt=   1.0078250  15.9949146  15.9949146  15.9949146  15.9949146  15.9949146  12.0000000   1.0078250   1.0078250  15.9949146
 NucSpn=           1           0           0           0           0           0           0           1           1           0
 AtZEff=   0.0000000   0.0000000   0.0000000   0.0000000   0.0000000   0.0000000   0.0000000   0.0000000   0.0000000   0.0000000
 NQMom=    0.0000000   0.0000000   0.0000000   0.0000000   0.0000000   0.0000000   0.0000000   0.0000000   0.0000000   0.0000000
 NMagM=    2.7928460   0.0000000   0.0000000   0.0000000   0.0000000   0.0000000   0.0000000   2.7928460   2.7928460   0.0000000
 AtZNuc=   1.0000000   8.0000000   8.0000000   8.0000000   8.0000000   8.0000000   6.0000000   1.0000000   1.0000000   8.0000000

  Atom        51          52          53          54          55          56          57          58          59          60
 IAtWgt=          32          16          16          12          12          12          12           1          12           1
 AtmWgt=  31.9720718  15.9949146  15.9949146  12.0000000  12.0000000  12.0000000  12.0000000   1.0078250  12.0000000   1.0078250
 NucSpn=           0           0           0           0           0           0           0           1           0           1
 AtZEff=   0.0000000   0.0000000   0.0000000   0.0000000   0.0000000   0.0000000   0.0000000   0.0000000   0.0000000   0.0000000
 NQMom=    0.0000000   0.0000000   0.0000000   0.0000000   0.0000000   0.0000000   0.0000000   0.0000000   0.0000000   0.0000000
 NMagM=    0.0000000   0.0000000   0.0000000   0.0000000   0.0000000   0.0000000   0.0000000   2.7928460   0.0000000   2.7928460
 AtZNuc=  16.0000000   8.0000000   8.0000000   6.0000000   6.0000000   6.0000000   6.0000000   1.0000000   6.0000000   1.0000000

  Atom        61          62          63          64          65          66          67          68          69          70
 IAtWgt=          12           1          12           1           1           1          12           1           1           1
 AtmWgt=  12.0000000   1.0078250  12.0000000   1.0078250   1.0078250   1.0078250  12.0000000   1.0078250   1.0078250   1.0078250
 NucSpn=           0           1           0           1           1           1           0           1           1           1
 AtZEff=   0.0000000   0.0000000   0.0000000   0.0000000   0.0000000   0.0000000   0.0000000   0.0000000   0.0000000   0.0000000
 NQMom=    0.0000000   0.0000000   0.0000000   0.0000000   0.0000000   0.0000000   0.0000000   0.0000000   0.0000000   0.0000000
 NMagM=    0.0000000   2.7928460   0.0000000   2.7928460   2.7928460   2.7928460   0.0000000   2.7928460   2.7928460   2.7928460
 AtZNuc=   6.0000000   1.0000000   6.0000000   1.0000000   1.0000000   1.0000000   6.0000000   1.0000000   1.0000000   1.0000000

  Atom        71          72          73          74          75          76          77          78          79          80
 IAtWgt=          12           1           1           1          12           1           1           1          12           1
 AtmWgt=  12.0000000   1.0078250   1.0078250   1.0078250  12.0000000   1.0078250   1.0078250   1.0078250  12.0000000   1.0078250
 NucSpn=           0           1           1           1           0           1           1           1           0           1
 AtZEff=   0.0000000   0.0000000   0.0000000   0.0000000   0.0000000   0.0000000   0.0000000   0.0000000   0.0000000   0.0000000
 NQMom=    0.0000000   0.0000000   0.0000000   0.0000000   0.0000000   0.0000000   0.0000000   0.0000000   0.0000000   0.0000000
 NMagM=    0.0000000   2.7928460   2.7928460   2.7928460   0.0000000   2.7928460   2.7928460   2.7928460   0.0000000   2.7928460
 AtZNuc=   6.0000000   1.0000000   1.0000000   1.0000000   6.0000000   1.0000000   1.0000000   1.0000000   6.0000000   1.0000000

  Atom        81          82          83          84          85          86          87          88          89          90
 IAtWgt=           1           1          23          16          12           1           1           1          12           1
 AtmWgt=   1.0078250   1.0078250  22.9897697  15.9949146  12.0000000   1.0078250   1.0078250   1.0078250  12.0000000   1.0078250
 NucSpn=           1           1           3           0           0           1           1           1           0           1
 AtZEff=   0.0000000   0.0000000   0.0000000   0.0000000   0.0000000   0.0000000   0.0000000   0.0000000   0.0000000   0.0000000
 NQMom=    0.0000000   0.0000000  10.4000000   0.0000000   0.0000000   0.0000000   0.0000000   0.0000000   0.0000000   0.0000000
 NMagM=    2.7928460   2.7928460   2.2175200   0.0000000   0.0000000   2.7928460   2.7928460   2.7928460   0.0000000   2.7928460
 AtZNuc=   1.0000000   1.0000000  11.0000000   8.0000000   6.0000000   1.0000000   1.0000000   1.0000000   6.0000000   1.0000000

  Atom        91          92          93          94          95          96          97          98          99         100
 IAtWgt=           1           1          12          19          19          19          12          19          19          19
 AtmWgt=   1.0078250   1.0078250  12.0000000  18.9984033  18.9984033  18.9984033  12.0000000  18.9984033  18.9984033  18.9984033
 NucSpn=           1           1           0           1           1           1           0           1           1           1
 AtZEff=   0.0000000   0.0000000   0.0000000   0.0000000   0.0000000   0.0000000   0.0000000   0.0000000   0.0000000   0.0000000
 NQMom=    0.0000000   0.0000000   0.0000000   0.0000000   0.0000000   0.0000000   0.0000000   0.0000000   0.0000000   0.0000000
 NMagM=    2.7928460   2.7928460   0.0000000   2.6288670   2.6288670   2.6288670   0.0000000   2.6288670   2.6288670   2.6288670
 AtZNuc=   1.0000000   1.0000000   6.0000000   9.0000000   9.0000000   9.0000000   6.0000000   9.0000000   9.0000000   9.0000000
 Leave Link  101 at Fri May 24 20:21:18 2019, MaxMem=  6442450944 cpu:              17.8 elap:               1.4
 (Enter /home/ekwan/sw/g16/l103.exe)

 GradGradGradGradGradGradGradGradGradGradGradGradGradGradGradGradGradGrad
 Berny optimization.
 Initialization pass.
                           ----------------------------
                           !    Initial Parameters    !
                           ! (Angstroms and Degrees)  !
 --------------------------                            --------------------------
 ! Name  Definition              Value          Derivative Info.                !
 --------------------------------------------------------------------------------
 ! R1    R(1,2)                  1.5291         calculate D2E/DX2 analytically  !
 ! R2    R(1,5)                  1.5303         calculate D2E/DX2 analytically  !
 ! R3    R(1,8)                  1.0977         calculate D2E/DX2 analytically  !
 ! R4    R(1,14)                 1.4229         calculate D2E/DX2 analytically  !
 ! R5    R(2,3)                  1.5372         calculate D2E/DX2 analytically  !
 ! R6    R(2,7)                  1.1014         calculate D2E/DX2 analytically  !
 ! R7    R(2,13)                 1.4164         calculate D2E/DX2 analytically  !
 ! R8    R(3,6)                  1.0984         calculate D2E/DX2 analytically  !
 ! R9    R(3,11)                 1.4118         calculate D2E/DX2 analytically  !
 ! R10   R(3,12)                 1.4062         calculate D2E/DX2 analytically  !
 ! R11   R(4,5)                  1.5361         calculate D2E/DX2 analytically  !
 ! R12   R(4,9)                  1.0982         calculate D2E/DX2 analytically  !
 ! R13   R(4,11)                 1.4427         calculate D2E/DX2 analytically  !
 ! R14   R(4,16)                 1.5462         calculate D2E/DX2 analytically  !
 ! R15   R(5,10)                 1.1009         calculate D2E/DX2 analytically  !
 ! R16   R(5,15)                 1.4224         calculate D2E/DX2 analytically  !
 ! R17   R(12,79)                1.4225         calculate D2E/DX2 analytically  !
 ! R18   R(13,20)                1.4175         calculate D2E/DX2 analytically  !
 ! R19   R(14,24)                1.4177         calculate D2E/DX2 analytically  !
 ! R20   R(15,28)                1.4215         calculate D2E/DX2 analytically  !
 ! R21   R(16,17)                1.1131         calculate D2E/DX2 analytically  !
 ! R22   R(16,18)                1.1128         calculate D2E/DX2 analytically  !
 ! R23   R(16,19)                1.3759         calculate D2E/DX2 analytically  !
 ! R24   R(19,37)                2.0395         calculate D2E/DX2 analytically  !
 ! R25   R(19,83)                2.2214         calculate D2E/DX2 analytically  !
 ! R26   R(20,21)                1.0986         calculate D2E/DX2 analytically  !
 ! R27   R(20,22)                1.1001         calculate D2E/DX2 analytically  !
 ! R28   R(20,23)                1.0927         calculate D2E/DX2 analytically  !
 ! R29   R(24,25)                1.1            calculate D2E/DX2 analytically  !
 ! R30   R(24,26)                1.0964         calculate D2E/DX2 analytically  !
 ! R31   R(24,27)                1.0938         calculate D2E/DX2 analytically  !
 ! R32   R(28,29)                1.0996         calculate D2E/DX2 analytically  !
 ! R33   R(28,30)                1.0946         calculate D2E/DX2 analytically  !
 ! R34   R(28,31)                1.0941         calculate D2E/DX2 analytically  !
 ! R35   R(32,33)                1.5296         calculate D2E/DX2 analytically  !
 ! R36   R(32,36)                1.5276         calculate D2E/DX2 analytically  !
 ! R37   R(32,39)                1.0943         calculate D2E/DX2 analytically  !
 ! R38   R(32,45)                1.4172         calculate D2E/DX2 analytically  !
 ! R39   R(33,34)                1.4966         calculate D2E/DX2 analytically  !
 ! R40   R(33,38)                1.0983         calculate D2E/DX2 analytically  !
 ! R41   R(33,44)                1.4136         calculate D2E/DX2 analytically  !
 ! R42   R(34,37)                1.0774         calculate D2E/DX2 analytically  !
 ! R43   R(34,42)                1.2806         calculate D2E/DX2 analytically  !
 ! R44   R(34,53)                2.2828         calculate D2E/DX2 analytically  !
 ! R45   R(35,36)                1.5337         calculate D2E/DX2 analytically  !
 ! R46   R(35,40)                1.0913         calculate D2E/DX2 analytically  !
 ! R47   R(35,42)                1.4768         calculate D2E/DX2 analytically  !
 ! R48   R(35,47)                1.5367         calculate D2E/DX2 analytically  !
 ! R49   R(36,41)                1.0976         calculate D2E/DX2 analytically  !
 ! R50   R(36,46)                1.4178         calculate D2E/DX2 analytically  !
 ! R51   R(37,43)                2.2087         calculate D2E/DX2 analytically  !
 ! R52   R(43,51)                1.5006         calculate D2E/DX2 analytically  !
 ! R53   R(43,83)                2.3286         calculate D2E/DX2 analytically  !
 ! R54   R(44,60)                2.2168         calculate D2E/DX2 analytically  !
 ! R55   R(44,63)                1.4435         calculate D2E/DX2 analytically  !
 ! R56   R(45,67)                1.4248         calculate D2E/DX2 analytically  !
 ! R57   R(46,71)                1.4262         calculate D2E/DX2 analytically  !
 ! R58   R(47,48)                1.0996         calculate D2E/DX2 analytically  !
 ! R59   R(47,49)                1.095          calculate D2E/DX2 analytically  !
 ! R60   R(47,50)                1.4073         calculate D2E/DX2 analytically  !
 ! R61   R(50,75)                1.425          calculate D2E/DX2 analytically  !
 ! R62   R(51,52)                1.4742         calculate D2E/DX2 analytically  !
 ! R63   R(51,53)                1.5061         calculate D2E/DX2 analytically  !
 ! R64   R(51,54)                1.8003         calculate D2E/DX2 analytically  !
 ! R65   R(54,55)                1.3943         calculate D2E/DX2 analytically  !
 ! R66   R(54,56)                1.3899         calculate D2E/DX2 analytically  !
 ! R67   R(55,57)                1.3926         calculate D2E/DX2 analytically  !
 ! R68   R(55,58)                1.0834         calculate D2E/DX2 analytically  !
 ! R69   R(56,59)                1.3964         calculate D2E/DX2 analytically  !
 ! R70   R(56,60)                1.0821         calculate D2E/DX2 analytically  !
 ! R71   R(57,61)                1.3962         calculate D2E/DX2 analytically  !
 ! R72   R(57,93)                1.5025         calculate D2E/DX2 analytically  !
 ! R73   R(59,61)                1.3917         calculate D2E/DX2 analytically  !
 ! R74   R(59,97)                1.5016         calculate D2E/DX2 analytically  !
 ! R75   R(61,62)                1.0833         calculate D2E/DX2 analytically  !
 ! R76   R(63,64)                1.0944         calculate D2E/DX2 analytically  !
 ! R77   R(63,65)                1.0922         calculate D2E/DX2 analytically  !
 ! R78   R(63,66)                1.091          calculate D2E/DX2 analytically  !
 ! R79   R(67,68)                1.0969         calculate D2E/DX2 analytically  !
 ! R80   R(67,69)                1.0957         calculate D2E/DX2 analytically  !
 ! R81   R(67,70)                1.0923         calculate D2E/DX2 analytically  !
 ! R82   R(71,72)                1.0952         calculate D2E/DX2 analytically  !
 ! R83   R(71,73)                1.0962         calculate D2E/DX2 analytically  !
 ! R84   R(71,74)                1.0922         calculate D2E/DX2 analytically  !
 ! R85   R(75,76)                1.092          calculate D2E/DX2 analytically  !
 ! R86   R(75,77)                1.0989         calculate D2E/DX2 analytically  !
 ! R87   R(75,78)                1.0957         calculate D2E/DX2 analytically  !
 ! R88   R(79,80)                1.0921         calculate D2E/DX2 analytically  !
 ! R89   R(79,81)                1.0968         calculate D2E/DX2 analytically  !
 ! R90   R(79,82)                1.0992         calculate D2E/DX2 analytically  !
 ! R91   R(83,84)                2.3079         calculate D2E/DX2 analytically  !
 ! R92   R(84,85)                1.4222         calculate D2E/DX2 analytically  !
 ! R93   R(84,89)                1.426          calculate D2E/DX2 analytically  !
 ! R94   R(85,86)                1.0989         calculate D2E/DX2 analytically  !
 ! R95   R(85,87)                1.0909         calculate D2E/DX2 analytically  !
 ! R96   R(85,88)                1.0975         calculate D2E/DX2 analytically  !
 ! R97   R(89,90)                1.0956         calculate D2E/DX2 analytically  !
 ! R98   R(89,91)                1.091          calculate D2E/DX2 analytically  !
 ! R99   R(89,92)                1.0986         calculate D2E/DX2 analytically  !
 ! R100  R(93,94)                1.3465         calculate D2E/DX2 analytically  !
 ! R101  R(93,95)                1.3494         calculate D2E/DX2 analytically  !
 ! R102  R(93,96)                1.3616         calculate D2E/DX2 analytically  !
 ! R103  R(97,98)                1.3461         calculate D2E/DX2 analytically  !
 ! R104  R(97,99)                1.3513         calculate D2E/DX2 analytically  !
 ! R105  R(97,100)               1.3636         calculate D2E/DX2 analytically  !
 ! A1    A(2,1,5)              111.9377         calculate D2E/DX2 analytically  !
 ! A2    A(2,1,8)              108.6317         calculate D2E/DX2 analytically  !
 ! A3    A(2,1,14)             109.7385         calculate D2E/DX2 analytically  !
 ! A4    A(5,1,8)              108.1851         calculate D2E/DX2 analytically  !
 ! A5    A(5,1,14)             108.0343         calculate D2E/DX2 analytically  !
 ! A6    A(8,1,14)             110.3018         calculate D2E/DX2 analytically  !
 ! A7    A(1,2,3)              111.2724         calculate D2E/DX2 analytically  !
 ! A8    A(1,2,7)              107.9775         calculate D2E/DX2 analytically  !
 ! A9    A(1,2,13)             107.4055         calculate D2E/DX2 analytically  !
 ! A10   A(3,2,7)              106.6623         calculate D2E/DX2 analytically  !
 ! A11   A(3,2,13)             113.4885         calculate D2E/DX2 analytically  !
 ! A12   A(7,2,13)             109.9213         calculate D2E/DX2 analytically  !
 ! A13   A(2,3,6)              111.5012         calculate D2E/DX2 analytically  !
 ! A14   A(2,3,11)             109.7875         calculate D2E/DX2 analytically  !
 ! A15   A(2,3,12)             108.1481         calculate D2E/DX2 analytically  !
 ! A16   A(6,3,11)             104.4132         calculate D2E/DX2 analytically  !
 ! A17   A(6,3,12)             109.869          calculate D2E/DX2 analytically  !
 ! A18   A(11,3,12)            113.144          calculate D2E/DX2 analytically  !
 ! A19   A(5,4,9)              108.3339         calculate D2E/DX2 analytically  !
 ! A20   A(5,4,11)             108.5319         calculate D2E/DX2 analytically  !
 ! A21   A(5,4,16)             115.8819         calculate D2E/DX2 analytically  !
 ! A22   A(9,4,11)             108.7728         calculate D2E/DX2 analytically  !
 ! A23   A(9,4,16)             107.6318         calculate D2E/DX2 analytically  !
 ! A24   A(11,4,16)            107.5142         calculate D2E/DX2 analytically  !
 ! A25   A(1,5,4)              111.3715         calculate D2E/DX2 analytically  !
 ! A26   A(1,5,10)             108.0317         calculate D2E/DX2 analytically  !
 ! A27   A(1,5,15)             106.1221         calculate D2E/DX2 analytically  !
 ! A28   A(4,5,10)             108.5277         calculate D2E/DX2 analytically  !
 ! A29   A(4,5,15)             112.8545         calculate D2E/DX2 analytically  !
 ! A30   A(10,5,15)            109.8194         calculate D2E/DX2 analytically  !
 ! A31   A(3,11,4)             113.5415         calculate D2E/DX2 analytically  !
 ! A32   A(3,12,79)            113.3014         calculate D2E/DX2 analytically  !
 ! A33   A(2,13,20)            114.2012         calculate D2E/DX2 analytically  !
 ! A34   A(1,14,24)            114.3544         calculate D2E/DX2 analytically  !
 ! A35   A(5,15,28)            114.5137         calculate D2E/DX2 analytically  !
 ! A36   A(4,16,17)            105.0145         calculate D2E/DX2 analytically  !
 ! A37   A(4,16,18)            107.4006         calculate D2E/DX2 analytically  !
 ! A38   A(4,16,19)            111.5728         calculate D2E/DX2 analytically  !
 ! A39   A(17,16,18)           105.1712         calculate D2E/DX2 analytically  !
 ! A40   A(17,16,19)           113.632          calculate D2E/DX2 analytically  !
 ! A41   A(18,16,19)           113.4222         calculate D2E/DX2 analytically  !
 ! A42   A(16,19,37)           132.8019         calculate D2E/DX2 analytically  !
 ! A43   A(16,19,83)           115.5618         calculate D2E/DX2 analytically  !
 ! A44   A(37,19,83)            71.3609         calculate D2E/DX2 analytically  !
 ! A45   A(13,20,21)           112.095          calculate D2E/DX2 analytically  !
 ! A46   A(13,20,22)           111.3787         calculate D2E/DX2 analytically  !
 ! A47   A(13,20,23)           106.8206         calculate D2E/DX2 analytically  !
 ! A48   A(21,20,22)           108.7602         calculate D2E/DX2 analytically  !
 ! A49   A(21,20,23)           108.6508         calculate D2E/DX2 analytically  !
 ! A50   A(22,20,23)           109.0497         calculate D2E/DX2 analytically  !
 ! A51   A(14,24,25)           111.2275         calculate D2E/DX2 analytically  !
 ! A52   A(14,24,26)           111.641          calculate D2E/DX2 analytically  !
 ! A53   A(14,24,27)           106.7352         calculate D2E/DX2 analytically  !
 ! A54   A(25,24,26)           109.1037         calculate D2E/DX2 analytically  !
 ! A55   A(25,24,27)           108.7784         calculate D2E/DX2 analytically  !
 ! A56   A(26,24,27)           109.2786         calculate D2E/DX2 analytically  !
 ! A57   A(15,28,29)           110.8708         calculate D2E/DX2 analytically  !
 ! A58   A(15,28,30)           110.5154         calculate D2E/DX2 analytically  !
 ! A59   A(15,28,31)           106.5353         calculate D2E/DX2 analytically  !
 ! A60   A(29,28,30)           110.5037         calculate D2E/DX2 analytically  !
 ! A61   A(29,28,31)           108.74           calculate D2E/DX2 analytically  !
 ! A62   A(30,28,31)           109.574          calculate D2E/DX2 analytically  !
 ! A63   A(33,32,36)           108.863          calculate D2E/DX2 analytically  !
 ! A64   A(33,32,39)           108.8776         calculate D2E/DX2 analytically  !
 ! A65   A(33,32,45)           110.0928         calculate D2E/DX2 analytically  !
 ! A66   A(36,32,39)           109.66           calculate D2E/DX2 analytically  !
 ! A67   A(36,32,45)           108.2679         calculate D2E/DX2 analytically  !
 ! A68   A(39,32,45)           111.0486         calculate D2E/DX2 analytically  !
 ! A69   A(32,33,34)           110.4182         calculate D2E/DX2 analytically  !
 ! A70   A(32,33,38)           109.3209         calculate D2E/DX2 analytically  !
 ! A71   A(32,33,44)           112.7889         calculate D2E/DX2 analytically  !
 ! A72   A(34,33,38)           103.8476         calculate D2E/DX2 analytically  !
 ! A73   A(34,33,44)           110.7837         calculate D2E/DX2 analytically  !
 ! A74   A(38,33,44)           109.2897         calculate D2E/DX2 analytically  !
 ! A75   A(33,34,37)           122.1298         calculate D2E/DX2 analytically  !
 ! A76   A(33,34,42)           121.6346         calculate D2E/DX2 analytically  !
 ! A77   A(33,34,53)            94.3806         calculate D2E/DX2 analytically  !
 ! A78   A(37,34,42)           114.9608         calculate D2E/DX2 analytically  !
 ! A79   A(37,34,53)            86.5837         calculate D2E/DX2 analytically  !
 ! A80   A(42,34,53)           100.2133         calculate D2E/DX2 analytically  !
 ! A81   A(36,35,40)           108.3852         calculate D2E/DX2 analytically  !
 ! A82   A(36,35,42)           114.8599         calculate D2E/DX2 analytically  !
 ! A83   A(36,35,47)           113.7731         calculate D2E/DX2 analytically  !
 ! A84   A(40,35,42)           103.2866         calculate D2E/DX2 analytically  !
 ! A85   A(40,35,47)           112.2221         calculate D2E/DX2 analytically  !
 ! A86   A(42,35,47)           103.8695         calculate D2E/DX2 analytically  !
 ! A87   A(32,36,35)           112.7687         calculate D2E/DX2 analytically  !
 ! A88   A(32,36,41)           108.0666         calculate D2E/DX2 analytically  !
 ! A89   A(32,36,46)           109.7821         calculate D2E/DX2 analytically  !
 ! A90   A(35,36,41)           109.5093         calculate D2E/DX2 analytically  !
 ! A91   A(35,36,46)           106.2851         calculate D2E/DX2 analytically  !
 ! A92   A(41,36,46)           110.4359         calculate D2E/DX2 analytically  !
 ! A93   A(19,37,34)           103.722          calculate D2E/DX2 analytically  !
 ! A94   A(19,37,43)           111.1403         calculate D2E/DX2 analytically  !
 ! A95   A(34,37,43)           131.0358         calculate D2E/DX2 analytically  !
 ! A96   A(34,42,35)           124.0023         calculate D2E/DX2 analytically  !
 ! A97   A(37,43,51)            97.1629         calculate D2E/DX2 analytically  !
 ! A98   A(37,43,83)            66.4966         calculate D2E/DX2 analytically  !
 ! A99   A(51,43,83)           119.6723         calculate D2E/DX2 analytically  !
 ! A100  A(33,44,60)           120.1001         calculate D2E/DX2 analytically  !
 ! A101  A(33,44,63)           113.2609         calculate D2E/DX2 analytically  !
 ! A102  A(60,44,63)           116.4882         calculate D2E/DX2 analytically  !
 ! A103  A(32,45,67)           114.202          calculate D2E/DX2 analytically  !
 ! A104  A(36,46,71)           114.1905         calculate D2E/DX2 analytically  !
 ! A105  A(35,47,48)           109.098          calculate D2E/DX2 analytically  !
 ! A106  A(35,47,49)           108.1826         calculate D2E/DX2 analytically  !
 ! A107  A(35,47,50)           112.9276         calculate D2E/DX2 analytically  !
 ! A108  A(48,47,49)           108.4139         calculate D2E/DX2 analytically  !
 ! A109  A(48,47,50)           111.5157         calculate D2E/DX2 analytically  !
 ! A110  A(49,47,50)           106.5302         calculate D2E/DX2 analytically  !
 ! A111  A(47,50,75)           114.0499         calculate D2E/DX2 analytically  !
 ! A112  A(43,51,52)           114.0911         calculate D2E/DX2 analytically  !
 ! A113  A(43,51,53)           111.3682         calculate D2E/DX2 analytically  !
 ! A114  A(43,51,54)           103.709          calculate D2E/DX2 analytically  !
 ! A115  A(52,51,53)           114.2702         calculate D2E/DX2 analytically  !
 ! A116  A(52,51,54)           106.5975         calculate D2E/DX2 analytically  !
 ! A117  A(53,51,54)           105.7356         calculate D2E/DX2 analytically  !
 ! A118  A(34,53,51)           112.8331         calculate D2E/DX2 analytically  !
 ! A119  A(51,54,55)           118.4579         calculate D2E/DX2 analytically  !
 ! A120  A(51,54,56)           120.1308         calculate D2E/DX2 analytically  !
 ! A121  A(55,54,56)           121.098          calculate D2E/DX2 analytically  !
 ! A122  A(54,55,57)           119.064          calculate D2E/DX2 analytically  !
 ! A123  A(54,55,58)           120.1304         calculate D2E/DX2 analytically  !
 ! A124  A(57,55,58)           120.8047         calculate D2E/DX2 analytically  !
 ! A125  A(54,56,59)           119.0402         calculate D2E/DX2 analytically  !
 ! A126  A(54,56,60)           119.7181         calculate D2E/DX2 analytically  !
 ! A127  A(59,56,60)           121.1876         calculate D2E/DX2 analytically  !
 ! A128  A(55,57,61)           120.7418         calculate D2E/DX2 analytically  !
 ! A129  A(55,57,93)           120.2713         calculate D2E/DX2 analytically  !
 ! A130  A(61,57,93)           118.874          calculate D2E/DX2 analytically  !
 ! A131  A(56,59,61)           120.7949         calculate D2E/DX2 analytically  !
 ! A132  A(56,59,97)           119.0643         calculate D2E/DX2 analytically  !
 ! A133  A(61,59,97)           120.0287         calculate D2E/DX2 analytically  !
 ! A134  A(44,60,56)           133.5377         calculate D2E/DX2 analytically  !
 ! A135  A(57,61,59)           119.2515         calculate D2E/DX2 analytically  !
 ! A136  A(57,61,62)           120.315          calculate D2E/DX2 analytically  !
 ! A137  A(59,61,62)           120.4333         calculate D2E/DX2 analytically  !
 ! A138  A(44,63,64)           109.8489         calculate D2E/DX2 analytically  !
 ! A139  A(44,63,65)           110.156          calculate D2E/DX2 analytically  !
 ! A140  A(44,63,66)           105.6216         calculate D2E/DX2 analytically  !
 ! A141  A(64,63,65)           110.5935         calculate D2E/DX2 analytically  !
 ! A142  A(64,63,66)           111.1091         calculate D2E/DX2 analytically  !
 ! A143  A(65,63,66)           109.399          calculate D2E/DX2 analytically  !
 ! A144  A(45,67,68)           110.9893         calculate D2E/DX2 analytically  !
 ! A145  A(45,67,69)           111.4748         calculate D2E/DX2 analytically  !
 ! A146  A(45,67,70)           106.4266         calculate D2E/DX2 analytically  !
 ! A147  A(68,67,69)           109.4689         calculate D2E/DX2 analytically  !
 ! A148  A(68,67,70)           109.2668         calculate D2E/DX2 analytically  !
 ! A149  A(69,67,70)           109.138          calculate D2E/DX2 analytically  !
 ! A150  A(46,71,72)           111.0164         calculate D2E/DX2 analytically  !
 ! A151  A(46,71,73)           110.5479         calculate D2E/DX2 analytically  !
 ! A152  A(46,71,74)           106.2576         calculate D2E/DX2 analytically  !
 ! A153  A(72,71,73)           109.9622         calculate D2E/DX2 analytically  !
 ! A154  A(72,71,74)           109.5353         calculate D2E/DX2 analytically  !
 ! A155  A(73,71,74)           109.4435         calculate D2E/DX2 analytically  !
 ! A156  A(50,75,76)           106.4755         calculate D2E/DX2 analytically  !
 ! A157  A(50,75,77)           110.938          calculate D2E/DX2 analytically  !
 ! A158  A(50,75,78)           111.493          calculate D2E/DX2 analytically  !
 ! A159  A(76,75,77)           109.2233         calculate D2E/DX2 analytically  !
 ! A160  A(76,75,78)           109.0492         calculate D2E/DX2 analytically  !
 ! A161  A(77,75,78)           109.5794         calculate D2E/DX2 analytically  !
 ! A162  A(12,79,80)           106.7147         calculate D2E/DX2 analytically  !
 ! A163  A(12,79,81)           111.6161         calculate D2E/DX2 analytically  !
 ! A164  A(12,79,82)           110.995          calculate D2E/DX2 analytically  !
 ! A165  A(80,79,81)           109.5094         calculate D2E/DX2 analytically  !
 ! A166  A(80,79,82)           109.3224         calculate D2E/DX2 analytically  !
 ! A167  A(81,79,82)           108.6457         calculate D2E/DX2 analytically  !
 ! A168  A(19,83,43)           100.7519         calculate D2E/DX2 analytically  !
 ! A169  A(19,83,84)           160.6684         calculate D2E/DX2 analytically  !
 ! A170  A(43,83,84)            90.4469         calculate D2E/DX2 analytically  !
 ! A171  A(83,84,85)           129.129          calculate D2E/DX2 analytically  !
 ! A172  A(83,84,89)           113.3224         calculate D2E/DX2 analytically  !
 ! A173  A(85,84,89)           112.4469         calculate D2E/DX2 analytically  !
 ! A174  A(84,85,86)           111.1367         calculate D2E/DX2 analytically  !
 ! A175  A(84,85,87)           107.3092         calculate D2E/DX2 analytically  !
 ! A176  A(84,85,88)           110.2651         calculate D2E/DX2 analytically  !
 ! A177  A(86,85,87)           109.9022         calculate D2E/DX2 analytically  !
 ! A178  A(86,85,88)           109.0898         calculate D2E/DX2 analytically  !
 ! A179  A(87,85,88)           109.1043         calculate D2E/DX2 analytically  !
 ! A180  A(84,89,90)           110.3683         calculate D2E/DX2 analytically  !
 ! A181  A(84,89,91)           106.7428         calculate D2E/DX2 analytically  !
 ! A182  A(84,89,92)           110.8922         calculate D2E/DX2 analytically  !
 ! A183  A(90,89,91)           109.54           calculate D2E/DX2 analytically  !
 ! A184  A(90,89,92)           109.1629         calculate D2E/DX2 analytically  !
 ! A185  A(91,89,92)           110.1059         calculate D2E/DX2 analytically  !
 ! A186  A(57,93,94)           112.415          calculate D2E/DX2 analytically  !
 ! A187  A(57,93,95)           111.9698         calculate D2E/DX2 analytically  !
 ! A188  A(57,93,96)           110.8855         calculate D2E/DX2 analytically  !
 ! A189  A(94,93,95)           107.8867         calculate D2E/DX2 analytically  !
 ! A190  A(94,93,96)           106.9199         calculate D2E/DX2 analytically  !
 ! A191  A(95,93,96)           106.4448         calculate D2E/DX2 analytically  !
 ! A192  A(59,97,98)           112.5413         calculate D2E/DX2 analytically  !
 ! A193  A(59,97,99)           112.0731         calculate D2E/DX2 analytically  !
 ! A194  A(59,97,100)          111.1544         calculate D2E/DX2 analytically  !
 ! A195  A(98,97,99)           107.6749         calculate D2E/DX2 analytically  !
 ! A196  A(98,97,100)          106.6805         calculate D2E/DX2 analytically  !
 ! A197  A(99,97,100)          106.3598         calculate D2E/DX2 analytically  !
 ! D1    D(5,1,2,3)            -47.3796         calculate D2E/DX2 analytically  !
 ! D2    D(5,1,2,7)             69.3526         calculate D2E/DX2 analytically  !
 ! D3    D(5,1,2,13)          -172.1493         calculate D2E/DX2 analytically  !
 ! D4    D(8,1,2,3)             72.0169         calculate D2E/DX2 analytically  !
 ! D5    D(8,1,2,7)           -171.2509         calculate D2E/DX2 analytically  !
 ! D6    D(8,1,2,13)           -52.7528         calculate D2E/DX2 analytically  !
 ! D7    D(14,1,2,3)          -167.3202         calculate D2E/DX2 analytically  !
 ! D8    D(14,1,2,7)           -50.5881         calculate D2E/DX2 analytically  !
 ! D9    D(14,1,2,13)           67.91           calculate D2E/DX2 analytically  !
 ! D10   D(2,1,5,4)             48.4548         calculate D2E/DX2 analytically  !
 ! D11   D(2,1,5,10)           -70.6389         calculate D2E/DX2 analytically  !
 ! D12   D(2,1,5,15)           171.6339         calculate D2E/DX2 analytically  !
 ! D13   D(8,1,5,4)            -71.2041         calculate D2E/DX2 analytically  !
 ! D14   D(8,1,5,10)           169.7022         calculate D2E/DX2 analytically  !
 ! D15   D(8,1,5,15)            51.9749         calculate D2E/DX2 analytically  !
 ! D16   D(14,1,5,4)           169.3878         calculate D2E/DX2 analytically  !
 ! D17   D(14,1,5,10)           50.2941         calculate D2E/DX2 analytically  !
 ! D18   D(14,1,5,15)          -67.4331         calculate D2E/DX2 analytically  !
 ! D19   D(2,1,14,24)         -103.2404         calculate D2E/DX2 analytically  !
 ! D20   D(5,1,14,24)          134.4665         calculate D2E/DX2 analytically  !
 ! D21   D(8,1,14,24)           16.4063         calculate D2E/DX2 analytically  !
 ! D22   D(1,2,3,6)            168.8939         calculate D2E/DX2 analytically  !
 ! D23   D(1,2,3,11)            53.6769         calculate D2E/DX2 analytically  !
 ! D24   D(1,2,3,12)           -70.2063         calculate D2E/DX2 analytically  !
 ! D25   D(7,2,3,6)             51.3613         calculate D2E/DX2 analytically  !
 ! D26   D(7,2,3,11)           -63.8557         calculate D2E/DX2 analytically  !
 ! D27   D(7,2,3,12)           172.2611         calculate D2E/DX2 analytically  !
 ! D28   D(13,2,3,6)           -69.8277         calculate D2E/DX2 analytically  !
 ! D29   D(13,2,3,11)          174.9554         calculate D2E/DX2 analytically  !
 ! D30   D(13,2,3,12)           51.0722         calculate D2E/DX2 analytically  !
 ! D31   D(1,2,13,20)         -167.9271         calculate D2E/DX2 analytically  !
 ! D32   D(3,2,13,20)           68.6513         calculate D2E/DX2 analytically  !
 ! D33   D(7,2,13,20)          -50.6913         calculate D2E/DX2 analytically  !
 ! D34   D(2,3,11,4)           -63.8853         calculate D2E/DX2 analytically  !
 ! D35   D(6,3,11,4)           176.4685         calculate D2E/DX2 analytically  !
 ! D36   D(12,3,11,4)           57.0304         calculate D2E/DX2 analytically  !
 ! D37   D(2,3,12,79)         -176.5454         calculate D2E/DX2 analytically  !
 ! D38   D(6,3,12,79)          -54.6361         calculate D2E/DX2 analytically  !
 ! D39   D(11,3,12,79)          61.6149         calculate D2E/DX2 analytically  !
 ! D40   D(9,4,5,1)             63.3664         calculate D2E/DX2 analytically  !
 ! D41   D(9,4,5,10)          -177.8362         calculate D2E/DX2 analytically  !
 ! D42   D(9,4,5,15)           -55.8775         calculate D2E/DX2 analytically  !
 ! D43   D(11,4,5,1)           -54.5802         calculate D2E/DX2 analytically  !
 ! D44   D(11,4,5,10)           64.2173         calculate D2E/DX2 analytically  !
 ! D45   D(11,4,5,15)         -173.8241         calculate D2E/DX2 analytically  !
 ! D46   D(16,4,5,1)          -175.6062         calculate D2E/DX2 analytically  !
 ! D47   D(16,4,5,10)          -56.8088         calculate D2E/DX2 analytically  !
 ! D48   D(16,4,5,15)           65.1499         calculate D2E/DX2 analytically  !
 ! D49   D(5,4,11,3)            64.2137         calculate D2E/DX2 analytically  !
 ! D50   D(9,4,11,3)           -53.4535         calculate D2E/DX2 analytically  !
 ! D51   D(16,4,11,3)         -169.7318         calculate D2E/DX2 analytically  !
 ! D52   D(5,4,16,17)          152.2231         calculate D2E/DX2 analytically  !
 ! D53   D(5,4,16,18)           40.6303         calculate D2E/DX2 analytically  !
 ! D54   D(5,4,16,19)          -84.2492         calculate D2E/DX2 analytically  !
 ! D55   D(9,4,16,17)          -86.3735         calculate D2E/DX2 analytically  !
 ! D56   D(9,4,16,18)          162.0338         calculate D2E/DX2 analytically  !
 ! D57   D(9,4,16,19)           37.1542         calculate D2E/DX2 analytically  !
 ! D58   D(11,4,16,17)          30.6524         calculate D2E/DX2 analytically  !
 ! D59   D(11,4,16,18)         -80.9404         calculate D2E/DX2 analytically  !
 ! D60   D(11,4,16,19)         154.1801         calculate D2E/DX2 analytically  !
 ! D61   D(1,5,15,28)          146.6023         calculate D2E/DX2 analytically  !
 ! D62   D(4,5,15,28)          -91.1569         calculate D2E/DX2 analytically  !
 ! D63   D(10,5,15,28)          30.0715         calculate D2E/DX2 analytically  !
 ! D64   D(3,12,79,80)         174.4195         calculate D2E/DX2 analytically  !
 ! D65   D(3,12,79,81)         -65.9725         calculate D2E/DX2 analytically  !
 ! D66   D(3,12,79,82)          55.3881         calculate D2E/DX2 analytically  !
 ! D67   D(2,13,20,21)         -70.3877         calculate D2E/DX2 analytically  !
 ! D68   D(2,13,20,22)          51.7304         calculate D2E/DX2 analytically  !
 ! D69   D(2,13,20,23)         170.7113         calculate D2E/DX2 analytically  !
 ! D70   D(1,14,24,25)         -60.8691         calculate D2E/DX2 analytically  !
 ! D71   D(1,14,24,26)          61.2606         calculate D2E/DX2 analytically  !
 ! D72   D(1,14,24,27)        -179.3853         calculate D2E/DX2 analytically  !
 ! D73   D(5,15,28,29)         -54.2336         calculate D2E/DX2 analytically  !
 ! D74   D(5,15,28,30)          68.6489         calculate D2E/DX2 analytically  !
 ! D75   D(5,15,28,31)        -172.3889         calculate D2E/DX2 analytically  !
 ! D76   D(4,16,19,37)        -149.4354         calculate D2E/DX2 analytically  !
 ! D77   D(4,16,19,83)         -61.7237         calculate D2E/DX2 analytically  !
 ! D78   D(17,16,19,37)        -30.9408         calculate D2E/DX2 analytically  !
 ! D79   D(17,16,19,83)         56.7709         calculate D2E/DX2 analytically  !
 ! D80   D(18,16,19,37)         89.1161         calculate D2E/DX2 analytically  !
 ! D81   D(18,16,19,83)        176.8278         calculate D2E/DX2 analytically  !
 ! D82   D(16,19,37,34)       -133.3928         calculate D2E/DX2 analytically  !
 ! D83   D(16,19,37,43)         81.622          calculate D2E/DX2 analytically  !
 ! D84   D(83,19,37,34)        118.6517         calculate D2E/DX2 analytically  !
 ! D85   D(83,19,37,43)        -26.3335         calculate D2E/DX2 analytically  !
 ! D86   D(16,19,83,43)       -105.7686         calculate D2E/DX2 analytically  !
 ! D87   D(16,19,83,84)         18.6523         calculate D2E/DX2 analytically  !
 ! D88   D(37,19,83,43)         23.5439         calculate D2E/DX2 analytically  !
 ! D89   D(37,19,83,84)        147.9647         calculate D2E/DX2 analytically  !
 ! D90   D(36,32,33,34)        -55.1921         calculate D2E/DX2 analytically  !
 ! D91   D(36,32,33,38)         58.4576         calculate D2E/DX2 analytically  !
 ! D92   D(36,32,33,44)       -179.7395         calculate D2E/DX2 analytically  !
 ! D93   D(39,32,33,34)         64.3173         calculate D2E/DX2 analytically  !
 ! D94   D(39,32,33,38)        177.967          calculate D2E/DX2 analytically  !
 ! D95   D(39,32,33,44)        -60.23           calculate D2E/DX2 analytically  !
 ! D96   D(45,32,33,34)       -173.7273         calculate D2E/DX2 analytically  !
 ! D97   D(45,32,33,38)        -60.0776         calculate D2E/DX2 analytically  !
 ! D98   D(45,32,33,44)         61.7254         calculate D2E/DX2 analytically  !
 ! D99   D(33,32,36,35)         53.1336         calculate D2E/DX2 analytically  !
 ! D100  D(33,32,36,41)        -68.0566         calculate D2E/DX2 analytically  !
 ! D101  D(33,32,36,46)        171.4375         calculate D2E/DX2 analytically  !
 ! D102  D(39,32,36,35)        -65.8878         calculate D2E/DX2 analytically  !
 ! D103  D(39,32,36,41)        172.922          calculate D2E/DX2 analytically  !
 ! D104  D(39,32,36,46)         52.4161         calculate D2E/DX2 analytically  !
 ! D105  D(45,32,36,35)        172.8091         calculate D2E/DX2 analytically  !
 ! D106  D(45,32,36,41)         51.6189         calculate D2E/DX2 analytically  !
 ! D107  D(45,32,36,46)        -68.887          calculate D2E/DX2 analytically  !
 ! D108  D(33,32,45,67)       -117.435          calculate D2E/DX2 analytically  !
 ! D109  D(36,32,45,67)        123.6651         calculate D2E/DX2 analytically  !
 ! D110  D(39,32,45,67)          3.2237         calculate D2E/DX2 analytically  !
 ! D111  D(32,33,34,37)       -155.4116         calculate D2E/DX2 analytically  !
 ! D112  D(32,33,34,42)         38.1377         calculate D2E/DX2 analytically  !
 ! D113  D(32,33,34,53)        -66.6987         calculate D2E/DX2 analytically  !
 ! D114  D(38,33,34,37)         87.4996         calculate D2E/DX2 analytically  !
 ! D115  D(38,33,34,42)        -78.9512         calculate D2E/DX2 analytically  !
 ! D116  D(38,33,34,53)        176.2124         calculate D2E/DX2 analytically  !
 ! D117  D(44,33,34,37)        -29.7245         calculate D2E/DX2 analytically  !
 ! D118  D(44,33,34,42)        163.8247         calculate D2E/DX2 analytically  !
 ! D119  D(44,33,34,53)         58.9883         calculate D2E/DX2 analytically  !
 ! D120  D(32,33,44,60)         47.331          calculate D2E/DX2 analytically  !
 ! D121  D(32,33,44,63)        -96.7969         calculate D2E/DX2 analytically  !
 ! D122  D(34,33,44,60)        -77.0161         calculate D2E/DX2 analytically  !
 ! D123  D(34,33,44,63)        138.856          calculate D2E/DX2 analytically  !
 ! D124  D(38,33,44,60)        169.1516         calculate D2E/DX2 analytically  !
 ! D125  D(38,33,44,63)         25.0237         calculate D2E/DX2 analytically  !
 ! D126  D(33,34,37,19)        -49.7148         calculate D2E/DX2 analytically  !
 ! D127  D(33,34,37,43)         85.0912         calculate D2E/DX2 analytically  !
 ! D128  D(42,34,37,19)        117.575          calculate D2E/DX2 analytically  !
 ! D129  D(42,34,37,43)       -107.619          calculate D2E/DX2 analytically  !
 ! D130  D(53,34,37,19)       -142.7452         calculate D2E/DX2 analytically  !
 ! D131  D(53,34,37,43)         -7.9392         calculate D2E/DX2 analytically  !
 ! D132  D(33,34,42,35)        -15.7719         calculate D2E/DX2 analytically  !
 ! D133  D(37,34,42,35)        176.869          calculate D2E/DX2 analytically  !
 ! D134  D(53,34,42,35)         85.8906         calculate D2E/DX2 analytically  !
 ! D135  D(33,34,53,51)       -119.8185         calculate D2E/DX2 analytically  !
 ! D136  D(37,34,53,51)          2.1717         calculate D2E/DX2 analytically  !
 ! D137  D(42,34,53,51)        116.9305         calculate D2E/DX2 analytically  !
 ! D138  D(40,35,36,32)         83.8161         calculate D2E/DX2 analytically  !
 ! D139  D(40,35,36,41)       -155.8177         calculate D2E/DX2 analytically  !
 ! D140  D(40,35,36,46)        -36.5156         calculate D2E/DX2 analytically  !
 ! D141  D(42,35,36,32)        -31.0763         calculate D2E/DX2 analytically  !
 ! D142  D(42,35,36,41)         89.2899         calculate D2E/DX2 analytically  !
 ! D143  D(42,35,36,46)       -151.408          calculate D2E/DX2 analytically  !
 ! D144  D(47,35,36,32)       -150.5998         calculate D2E/DX2 analytically  !
 ! D145  D(47,35,36,41)        -30.2336         calculate D2E/DX2 analytically  !
 ! D146  D(47,35,36,46)         89.0685         calculate D2E/DX2 analytically  !
 ! D147  D(36,35,42,34)         11.6273         calculate D2E/DX2 analytically  !
 ! D148  D(40,35,42,34)       -106.1858         calculate D2E/DX2 analytically  !
 ! D149  D(47,35,42,34)        136.519          calculate D2E/DX2 analytically  !
 ! D150  D(36,35,47,48)       -175.1782         calculate D2E/DX2 analytically  !
 ! D151  D(36,35,47,49)         67.0747         calculate D2E/DX2 analytically  !
 ! D152  D(36,35,47,50)        -50.5767         calculate D2E/DX2 analytically  !
 ! D153  D(40,35,47,48)        -51.656          calculate D2E/DX2 analytically  !
 ! D154  D(40,35,47,49)       -169.4031         calculate D2E/DX2 analytically  !
 ! D155  D(40,35,47,50)         72.9455         calculate D2E/DX2 analytically  !
 ! D156  D(42,35,47,48)         59.2349         calculate D2E/DX2 analytically  !
 ! D157  D(42,35,47,49)        -58.5122         calculate D2E/DX2 analytically  !
 ! D158  D(42,35,47,50)       -176.1635         calculate D2E/DX2 analytically  !
 ! D159  D(32,36,46,71)        107.4524         calculate D2E/DX2 analytically  !
 ! D160  D(35,36,46,71)       -130.302          calculate D2E/DX2 analytically  !
 ! D161  D(41,36,46,71)        -11.6075         calculate D2E/DX2 analytically  !
 ! D162  D(19,37,43,51)        145.232          calculate D2E/DX2 analytically  !
 ! D163  D(19,37,43,83)         25.9297         calculate D2E/DX2 analytically  !
 ! D164  D(34,37,43,51)         12.8766         calculate D2E/DX2 analytically  !
 ! D165  D(34,37,43,83)       -106.4257         calculate D2E/DX2 analytically  !
 ! D166  D(37,43,51,52)        123.7408         calculate D2E/DX2 analytically  !
 ! D167  D(37,43,51,53)         -7.4402         calculate D2E/DX2 analytically  !
 ! D168  D(37,43,51,54)       -120.7186         calculate D2E/DX2 analytically  !
 ! D169  D(83,43,51,52)       -169.2759         calculate D2E/DX2 analytically  !
 ! D170  D(83,43,51,53)         59.5432         calculate D2E/DX2 analytically  !
 ! D171  D(83,43,51,54)        -53.7352         calculate D2E/DX2 analytically  !
 ! D172  D(37,43,83,19)        -22.4037         calculate D2E/DX2 analytically  !
 ! D173  D(37,43,83,84)        173.4441         calculate D2E/DX2 analytically  !
 ! D174  D(51,43,83,19)       -107.1664         calculate D2E/DX2 analytically  !
 ! D175  D(51,43,83,84)         88.6814         calculate D2E/DX2 analytically  !
 ! D176  D(33,44,60,56)        129.7578         calculate D2E/DX2 analytically  !
 ! D177  D(63,44,60,56)        -87.2187         calculate D2E/DX2 analytically  !
 ! D178  D(33,44,63,64)        -69.7913         calculate D2E/DX2 analytically  !
 ! D179  D(33,44,63,65)         52.2717         calculate D2E/DX2 analytically  !
 ! D180  D(33,44,63,66)        170.307          calculate D2E/DX2 analytically  !
 ! D181  D(60,44,63,64)        144.7096         calculate D2E/DX2 analytically  !
 ! D182  D(60,44,63,65)        -93.2275         calculate D2E/DX2 analytically  !
 ! D183  D(60,44,63,66)         24.8079         calculate D2E/DX2 analytically  !
 ! D184  D(32,45,67,68)        -57.986          calculate D2E/DX2 analytically  !
 ! D185  D(32,45,67,69)         64.3268         calculate D2E/DX2 analytically  !
 ! D186  D(32,45,67,70)       -176.7737         calculate D2E/DX2 analytically  !
 ! D187  D(36,46,71,72)        -60.2249         calculate D2E/DX2 analytically  !
 ! D188  D(36,46,71,73)         62.0912         calculate D2E/DX2 analytically  !
 ! D189  D(36,46,71,74)       -179.2489         calculate D2E/DX2 analytically  !
 ! D190  D(35,47,50,75)        -73.1293         calculate D2E/DX2 analytically  !
 ! D191  D(48,47,50,75)         50.1426         calculate D2E/DX2 analytically  !
 ! D192  D(49,47,50,75)        168.2534         calculate D2E/DX2 analytically  !
 ! D193  D(47,50,75,76)       -170.2647         calculate D2E/DX2 analytically  !
 ! D194  D(47,50,75,77)        -51.5282         calculate D2E/DX2 analytically  !
 ! D195  D(47,50,75,78)         70.9029         calculate D2E/DX2 analytically  !
 ! D196  D(43,51,53,34)          5.6699         calculate D2E/DX2 analytically  !
 ! D197  D(52,51,53,34)       -125.419          calculate D2E/DX2 analytically  !
 ! D198  D(54,51,53,34)        117.6715         calculate D2E/DX2 analytically  !
 ! D199  D(43,51,54,55)        -79.739          calculate D2E/DX2 analytically  !
 ! D200  D(43,51,54,56)         93.9038         calculate D2E/DX2 analytically  !
 ! D201  D(52,51,54,55)         41.0006         calculate D2E/DX2 analytically  !
 ! D202  D(52,51,54,56)       -145.3567         calculate D2E/DX2 analytically  !
 ! D203  D(53,51,54,55)        162.9785         calculate D2E/DX2 analytically  !
 ! D204  D(53,51,54,56)        -23.3788         calculate D2E/DX2 analytically  !
 ! D205  D(51,54,55,57)        172.4827         calculate D2E/DX2 analytically  !
 ! D206  D(51,54,55,58)         -7.1783         calculate D2E/DX2 analytically  !
 ! D207  D(56,54,55,57)         -1.0959         calculate D2E/DX2 analytically  !
 ! D208  D(56,54,55,58)        179.243          calculate D2E/DX2 analytically  !
 ! D209  D(51,54,56,59)       -172.3245         calculate D2E/DX2 analytically  !
 ! D210  D(51,54,56,60)          5.0325         calculate D2E/DX2 analytically  !
 ! D211  D(55,54,56,59)          1.1476         calculate D2E/DX2 analytically  !
 ! D212  D(55,54,56,60)        178.5047         calculate D2E/DX2 analytically  !
 ! D213  D(54,55,57,61)          0.4116         calculate D2E/DX2 analytically  !
 ! D214  D(54,55,57,93)       -175.6816         calculate D2E/DX2 analytically  !
 ! D215  D(58,55,57,61)       -179.9297         calculate D2E/DX2 analytically  !
 ! D216  D(58,55,57,93)          3.9771         calculate D2E/DX2 analytically  !
 ! D217  D(54,56,59,61)         -0.5181         calculate D2E/DX2 analytically  !
 ! D218  D(54,56,59,97)        175.6328         calculate D2E/DX2 analytically  !
 ! D219  D(60,56,59,61)       -177.835          calculate D2E/DX2 analytically  !
 ! D220  D(60,56,59,97)         -1.6841         calculate D2E/DX2 analytically  !
 ! D221  D(54,56,60,44)        -72.9871         calculate D2E/DX2 analytically  !
 ! D222  D(59,56,60,44)        104.3119         calculate D2E/DX2 analytically  !
 ! D223  D(55,57,61,59)          0.198          calculate D2E/DX2 analytically  !
 ! D224  D(55,57,61,62)       -179.9382         calculate D2E/DX2 analytically  !
 ! D225  D(93,57,61,59)        176.345          calculate D2E/DX2 analytically  !
 ! D226  D(93,57,61,62)         -3.7912         calculate D2E/DX2 analytically  !
 ! D227  D(55,57,93,94)        -23.2822         calculate D2E/DX2 analytically  !
 ! D228  D(55,57,93,95)       -144.927          calculate D2E/DX2 analytically  !
 ! D229  D(55,57,93,96)         96.3446         calculate D2E/DX2 analytically  !
 ! D230  D(61,57,93,94)        160.5522         calculate D2E/DX2 analytically  !
 ! D231  D(61,57,93,95)         38.9074         calculate D2E/DX2 analytically  !
 ! D232  D(61,57,93,96)        -79.8209         calculate D2E/DX2 analytically  !
 ! D233  D(56,59,61,57)         -0.1448         calculate D2E/DX2 analytically  !
 ! D234  D(56,59,61,62)        179.9916         calculate D2E/DX2 analytically  !
 ! D235  D(97,59,61,57)       -176.2588         calculate D2E/DX2 analytically  !
 ! D236  D(97,59,61,62)          3.8776         calculate D2E/DX2 analytically  !
 ! D237  D(56,59,97,98)        161.2733         calculate D2E/DX2 analytically  !
 ! D238  D(56,59,97,99)         39.7369         calculate D2E/DX2 analytically  !
 ! D239  D(56,59,97,100)       -79.1332         calculate D2E/DX2 analytically  !
 ! D240  D(61,59,97,98)        -22.5456         calculate D2E/DX2 analytically  !
 ! D241  D(61,59,97,99)       -144.0821         calculate D2E/DX2 analytically  !
 ! D242  D(61,59,97,100)        97.0479         calculate D2E/DX2 analytically  !
 ! D243  D(19,83,84,85)         76.2702         calculate D2E/DX2 analytically  !
 ! D244  D(19,83,84,89)        -76.1971         calculate D2E/DX2 analytically  !
 ! D245  D(43,83,84,85)       -157.8698         calculate D2E/DX2 analytically  !
 ! D246  D(43,83,84,89)         49.6629         calculate D2E/DX2 analytically  !
 ! D247  D(83,84,85,86)        -86.4111         calculate D2E/DX2 analytically  !
 ! D248  D(83,84,85,87)         33.772          calculate D2E/DX2 analytically  !
 ! D249  D(83,84,85,88)        152.4898         calculate D2E/DX2 analytically  !
 ! D250  D(89,84,85,86)         66.2481         calculate D2E/DX2 analytically  !
 ! D251  D(89,84,85,87)       -173.5688         calculate D2E/DX2 analytically  !
 ! D252  D(89,84,85,88)        -54.8509         calculate D2E/DX2 analytically  !
 ! D253  D(83,84,89,90)       -146.9979         calculate D2E/DX2 analytically  !
 ! D254  D(83,84,89,91)        -28.0343         calculate D2E/DX2 analytically  !
 ! D255  D(83,84,89,92)         91.904          calculate D2E/DX2 analytically  !
 ! D256  D(85,84,89,90)         55.8309         calculate D2E/DX2 analytically  !
 ! D257  D(85,84,89,91)        174.7945         calculate D2E/DX2 analytically  !
 ! D258  D(85,84,89,92)        -65.2672         calculate D2E/DX2 analytically  !
 --------------------------------------------------------------------------------
 Trust Radius=3.00D-02 FncErr=1.00D-07 GrdErr=1.00D-06 EigMax=2.50D+02 EigMin=1.00D-04
 Number of steps in this run=    570 maximum allowed number of steps=    600.
 Search for a saddle point of order  1.
 Step   0 in ReCalcFC=30 IGetFC= 4 compute analytic Hessian.
 GradGradGradGradGradGradGradGradGradGradGradGradGradGradGradGradGradGrad

 Leave Link  103 at Fri May 24 20:21:18 2019, MaxMem=  6442450944 cpu:               4.5 elap:               0.2
 (Enter /home/ekwan/sw/g16/l202.exe)
 Stoichiometry    C30H47F6NaO15S
 Framework group  C1[X(C30H47F6NaO15S)]
 Deg. of freedom   294
 Full point group                 C1      NOp   1
 Largest Abelian subgroup         C1      NOp   1
 Largest concise Abelian subgroup C1      NOp   1
                         Standard orientation:                         
 ---------------------------------------------------------------------
 Center     Atomic      Atomic             Coordinates (Angstroms)
 Number     Number       Type             X           Y           Z
 ---------------------------------------------------------------------
      1          6           0        5.509147    0.076322    0.781099
      2          6           0        6.341122   -0.695719   -0.243517
      3          6           0        5.448228   -1.334673   -1.319364
      4          6           0        3.685567    0.237662   -0.969180
      5          6           0        4.479189    0.988349    0.110795
      6          1           0        6.042520   -1.720416   -2.158732
      7          1           0        6.994809    0.023384   -0.761885
      8          1           0        4.970671   -0.644261    1.410174
      9          1           0        3.116929   -0.566597   -0.483611
     10          1           0        5.020002    1.819769   -0.366955
     11          8           0        4.619155   -0.349870   -1.899066
     12          8           0        4.726299   -2.383729   -0.722976
     13          8           0        7.126207   -1.634786    0.469244
     14          8           0        6.362534    0.887850    1.579699
     15          8           0        3.653847    1.487354    1.156207
     16          6           0        2.687310    1.088968   -1.787360
     17          1           0        2.612457    0.577511   -2.773123
     18          1           0        3.179036    2.063975   -2.001732
     19          8           0        1.480501    1.215954   -1.138837
     20          6           0        8.147445   -2.243413   -0.302731
     21          1           0        7.741455   -2.936878   -1.051849
     22          1           0        8.765125   -1.491021   -0.815137
     23          1           0        8.775090   -2.807291    0.391548
     24          6           0        6.610474    0.374742    2.877812
     25          1           0        5.677923    0.279737    3.453326
     26          1           0        7.108876   -0.601056    2.838506
     27          1           0        7.263234    1.093632    3.381257
     28          6           0        3.174740    2.809548    0.949272
     29          1           0        4.006597    3.501488    0.753473
     30          1           0        2.455069    2.832153    0.124806
     31          1           0        2.678749    3.109796    1.877099
     32          6           0       -1.800640    3.103436    0.911335
     33          6           0       -0.697141    2.247371    0.287587
     34          6           0       -0.826439    2.234136   -1.203357
     35          6           0       -1.795563    4.469206   -1.241268
     36          6           0       -1.753055    4.498813    0.291533
     37          1           0       -0.434990    1.430913   -1.805352
     38          1           0        0.276225    2.725099    0.462810
     39          1           0       -2.769499    2.640160    0.701321
     40          1           0       -2.838282    4.398464   -1.555382
     41          1           0       -0.827718    4.987240    0.623215
     42          8           0       -1.174218    3.279217   -1.856712
     43          8           0       -1.307141   -0.519466   -2.365343
     44          8           0       -0.670006    0.930318    0.800446
     45          8           0       -1.588672    3.229760    2.306852
     46          8           0       -2.883815    5.246907    0.706253
     47          6           0       -1.067715    5.649163   -1.904052
     48          1           0       -1.218733    5.599686   -2.992135
     49          1           0        0.003138    5.549011   -1.698574
     50          8           0       -1.460105    6.896909   -1.384707
     51         16           0       -2.712917   -0.228150   -1.928551
     52          8           0       -3.720509   -0.397307   -2.991258
     53          8           0       -2.799190    1.085567   -1.197103
     54          6           0       -3.048066   -1.496403   -0.695546
     55          6           0       -3.390783   -2.774942   -1.133697
     56          6           0       -2.835886   -1.232342    0.652429
     57          6           0       -3.497974   -3.803550   -0.201106
     58          1           0       -3.564581   -2.960531   -2.186873
     59          6           0       -2.946696   -2.276245    1.573303
     60          1           0       -2.547069   -0.237499    0.965197
     61          6           0       -3.275144   -3.562594    1.155997
     62          1           0       -3.359416   -4.368115    1.875416
     63          6           0        0.295148    0.750389    1.858596
     64          1           0        1.308930    0.805350    1.450139
     65          1           0        0.151071    1.507816    2.632195
     66          1           0        0.092743   -0.237027    2.276071
     67          6           0       -2.626273    2.671707    3.108142
     68          1           0       -3.594076    3.132011    2.874161
     69          1           0       -2.696320    1.586393    2.974850
     70          1           0       -2.365478    2.888889    4.146329
     71          6           0       -2.590303    6.274782    1.650450
     72          1           0       -2.153386    5.856375    2.563434
     73          1           0       -1.908911    7.014599    1.214456
     74          1           0       -3.543077    6.753318    1.887579
     75          6           0       -2.760955    7.312285   -1.791878
     76          1           0       -2.868347    8.351149   -1.472857
     77          1           0       -2.867050    7.256429   -2.884175
     78          1           0       -3.542232    6.709402   -1.315779
     79          6           0        3.917554   -3.105258   -1.644356
     80          1           0        3.489306   -3.946291   -1.094801
     81          1           0        3.110173   -2.481977   -2.047563
     82          1           0        4.518966   -3.486412   -2.481835
     83         11           0        0.384455   -0.681375   -0.773344
     84          8           0       -0.043923   -2.935067   -0.521041
     85          6           0        0.259074   -3.789009    0.575109
     86          1           0        1.275960   -4.196895    0.490383
     87          1           0        0.172684   -3.192785    1.484584
     88          1           0       -0.457858   -4.618709    0.620092
     89          6           0       -0.106880   -3.639859   -1.759146
     90          1           0       -0.830865   -4.459683   -1.694869
     91          1           0       -0.434165   -2.922261   -2.513010
     92          1           0        0.877066   -4.047911   -2.028156
     93          6           0       -3.770191   -5.210356   -0.653074
     94          9           0       -4.366005   -5.255759   -1.859696
     95          9           0       -4.551734   -5.878969    0.220499
     96          9           0       -2.612543   -5.919791   -0.755804
     97          6           0       -2.621202   -2.014282    3.015607
     98          9           0       -3.138527   -2.945359    3.838715
     99          9           0       -3.070656   -0.808047    3.426625
    100          9           0       -1.273576   -2.013287    3.223625
 ---------------------------------------------------------------------
 Rotational constants (GHZ):           0.0460363           0.0405318           0.0273000
 Leave Link  202 at Fri May 24 20:21:18 2019, MaxMem=  6442450944 cpu:               5.4 elap:               0.2
 (Enter /home/ekwan/sw/g16/l301.exe)
 Standard basis: 6-31G(d) (6D, 7F)
 Ernie: Thresh=  0.10000D-02 Tol=  0.10000D-05 Strict=F.
 There are   897 symmetry adapted cartesian basis functions of A   symmetry.
 There are   897 symmetry adapted basis functions of A   symmetry.
   897 basis functions,  1720 primitive gaussians,   897 cartesian basis functions
   214 alpha electrons      214 beta electrons
       nuclear repulsion energy      9263.2456585685 Hartrees.
 IExCor=  402 DFT=T Ex+Corr=B3LYP ExCW=0 ScaHFX=  0.200000
 ScaDFX=  0.800000  0.720000  1.000000  0.810000 ScalE2=  1.000000  1.000000
 IRadAn=      5 IRanWt=     -1 IRanGd=            0 ICorTp=0 IEmpDi=141
 NAtoms=  100 NActive=  100 NUniq=  100 SFac= 1.00D+00 NAtFMM=   60 NAOKFM=T Big=T
 Integral buffers will be    131072 words long.
 Raffenetti 2 integral format.
 Two-electron integral symmetry is turned on.
 R6Disp:  Grimme-D3(BJ) Dispersion energy=       -0.2283397566 Hartrees.
 Nuclear repulsion after empirical dispersion term =     9263.0173188119 Hartrees.
 Force inversion solution in PCM.
 ------------------------------------------------------------------------------
 Polarizable Continuum Model (PCM)
 =================================
 Model                : PCM.
 Atomic radii         : UFF (Universal Force Field).
 Polarization charges : Total charges.
 Charge compensation  : None.
 Solution method      : Matrix inversion.
 Cavity type          : Scaled VdW (van der Waals Surface) (Alpha=1.100).
 Cavity algorithm     : GePol (No added spheres)
                        Default sphere list used, NSphG=  100.
                        Lebedev-Laikov grids with approx.  5.0 points / Ang**2.
                        Smoothing algorithm: York/Karplus (Gamma=1.0000).
                        Polarization charges: spherical gaussians, with
                                              point-specific exponents (IZeta= 3).
                        Self-potential: point-specific (ISelfS= 7).
                        Self-field    : sphere-specific E.n sum rule (ISelfD= 2).
 1st derivatives      : Analytical E(r).r(x)/FMM algorithm (CHGder, D1EAlg=3).
                        Cavity 1st derivative terms included.
 2nd derivatives      : Analytical E(r).r(xy)/FMM algorithm (CHGder, D2EAlg=3).
                        Cavity 2nd derivative terms included.
 Solvent              : TetraHydroFuran, Eps=   7.425700 Eps(inf)=   1.974025
 ------------------------------------------------------------------------------
 GePol: Number of generator spheres                  =     100
 GePol: Total number of spheres                      =     100
 GePol: Number of exposed spheres                    =     100 (100.00%)
[...]
 0002218,0.00004390,0.00001750,-0.00000852,-0.00002280,0.00002419,-0.00
 000389,-0.00000267,-0.00000446,-0.00000069,-0.00001489,0.00003598,-0.0
 0010676,-0.00214995,0.00079465,-0.00015032,0.00048350,-0.00049931,0.00
 014823,0.00107491,0.00021387,-0.00099185,0.00070327,-0.00093827,0.0001
 7258,-0.00001667,-0.00032596,-0.00144620,-0.00231869,0.00266426,-0.001
 12864,-0.00084765,-0.00026537,0.00015178,0.00008977,-0.00000492,0.0096
 0109,-0.02339609,-0.01498966,0.00088632,0.00113102,-0.00082172,0.00087
 624,0.00217758,-0.00417026,0.00060499,0.00056946,0.00055907,0.00018803
 ,-0.00017541,0.00007023,0.00001630,0.00002838,0.00005576,0.00013988,0.
 00015637,0.00002309,-0.00007845,-0.00026485,0.00000908,0.00119006,0.00
 276684,-0.00007965,0.00006048,-0.00068285,-0.00007057,-0.00052184,-0.0
 0236689,-0.00025562,-0.00005161,-0.00035597,-0.00013365,0.00000095,0.0
 0009389,-0.00000193,0.00001481,0.00003573,0.00002616,-0.00001099,-0.00
 002267,0.00001087,0.00000963,-0.00000420,-0.00000215,-0.00000485,0.000
 02195,-0.00002290,0.00000057,-0.00000327,-0.00000128,-0.00000039,-0.00
 000169,0.00001212,-0.00000962,-0.00000004,-0.00000690,-0.00003192,-0.0
 0002852,-0.00000920,-0.00000915,0.00001809,-0.00000531,0.00000118,-0.0
 0001297,0.00000874,0.00001201,0.00000253,-0.00000297,-0.00022976,-0.00
 030617,0.00002202,0.00026299,-0.00006466,-0.00034247,-0.00001823,0.000
 08547,0.00030788,0.00011898,-0.00005377,-0.00013611,-0.00032923,-0.000
 04012,0.00004804,-0.00003082,0.00010706,0.00001179,-0.00007081,0.00010
 660,0.00023001,-0.00001739,0.00005393,0.00001072,-0.00003397,-0.000011
 45,-0.00000310,0.00008933,-0.00003502,-0.00002305,0.00021802,0.0017668
 0,0.00031660,-0.00031691,-0.00056090,-0.00064516,-0.00023099,-0.000452
 50,0.00001031,0.00018149,-0.00048544,-0.00013679,0.04486909,-0.2094106
 3,-0.07073260,-0.00035252,-0.07669163,0.01196943,-0.09315118,0.3227109
 9,-0.00001454,-0.00000508,-0.00002200,-0.00001413,0.00000175,-0.000008
 37,-0.00003492,-0.00000410,-0.00000462,-0.00001825,0.00000265,-0.00000
 769,0.00000111,-0.00002184,-0.00002568,0.00000554,-0.00000226,-0.00000
 147,0.00000235,0.00000128,0.00000151,0.00000001,-0.00000048,-0.0000007
 7,0.00000080,0.00000987,-0.00000615,0.00000285,0.00000410,0.00000200,0
 .00005055,-0.00001042,0.00001114,0.00003996,0.00001845,0.00001426,0.00
 001597,-0.00000267,0.00001135,0.00001810,0.00000848,0.00004177,0.00000
 979,0.00002341,0.00002972,-0.00010797,-0.00002334,0.00008299,0.0000063
 7,-0.00000824,-0.00001329,0.00003401,0.00002122,-0.00001317,0.00018840
 ,0.00004574,-0.00002855,-0.00000671,-0.00000171,-0.00000133,0.00000057
 ,0.00000211,0.00000195,0.00000079,0.00000098,-0.00000121,0.00000161,-0
 .00000148,0.00000073,0.00000502,0.00000716,-0.00002888,-0.00000481,-0.
 00000398,0.00000418,-0.00000175,-0.00000130,0.00000226,0.00000292,0.00
 000081,0.00000317,0.00000178,-0.00001437,-0.00002565,0.00000795,0.0000
 0391,0.00000389,-0.00000799,-0.00001832,0.00000085,-0.00000601,0.00000
 303,0.00000589,-0.00002906,-0.00005213,-0.00038000,0.00008946,-0.00016
 675,0.00011262,-0.00045244,-0.00041562,0.00003577,0.00004311,-0.000157
 90,-0.00006784,0.00001980,-0.00002028,0.00000604,-0.00000219,-0.000035
 10,0.00001892,0.00000547,0.00004157,-0.00000316,0.00004057,-0.00002327
 ,-0.00001511,-0.00000465,0.00000866,0.00001577,0.00000302,0.00001124,0
 .00000084,0.00000905,0.00031652,-0.00007186,0.00064554,0.00051974,-0.0
 0063606,0.00026175,0.00028503,0.00013544,-0.00024230,-0.00026024,0.000
 47958,-0.00003751,0.00005413,0.00007209,-0.00001159,-0.00003348,0.0000
 1780,0.00000043,-0.00000278,0.00000568,-0.00000005,-0.00000096,-0.0000
 0175,-0.00001090,0.00004314,0.00000982,-0.00024272,-0.00231968,0.00172
 798,-0.00023891,0.00050006,-0.00076802,0.00025312,0.00124996,-0.000102
 59,-0.00055816,-0.00021846,0.00039162,-0.00002705,-0.00068434,-0.00058
 710,0.00037287,-0.00080879,-0.00081136,-0.00185903,-0.00183073,-0.0010
 1651,0.00005372,-0.00004943,0.00000274,0.00988073,-0.04175079,-0.01216
 187,0.00002091,-0.00105813,-0.00131125,0.00155121,0.00312618,-0.006111
 67,0.00041956,-0.00018329,0.00017789,-0.00018910,-0.00003665,-0.000186
 66,0.00001889,0.00001941,0.00003862,0.00005142,0.00006475,0.00003471,0
 .00000647,-0.00001003,-0.00003225,0.00021367,0.00055125,0.00012505,0.0
 0000761,-0.00013322,0.00000951,0.00030593,0.00082857,-0.00045977,-0.00
 000913,0.00002957,0.00000318,-0.00001464,-0.00001902,-0.00004804,0.000
 01070,0.00000732,0.00001356,0.00000121,-0.00000010,0.00000580,-0.00000
 091,0.00000729,0.00000364,0.00001354,-0.00000480,0.00000111,-0.0000014
 2,0.00000491,-0.00000076,-0.00000297,-0.00000105,0.00000139,-0.0000017
 1,-0.00000210,-0.00000382,-0.00003229,-0.00000756,-0.00001956,-0.00000
 954,0.00000859,-0.00000471,0.00000301,-0.00001525,0.00000914,0.0000084
 7,0.00000058,-0.00000101,-0.00043016,-0.00013154,0.00003135,0.00037320
 ,-0.00014796,-0.00005917,-0.00018047,0.00003498,-0.00015582,0.00011791
 ,-0.00001753,-0.00003335,-0.00010179,-0.00000438,0.00000258,-0.0000399
 2,0.00011329,0.00002652,-0.00008809,0.00002495,0.00017311,-0.00002710,
 0.00008245,0.00001713,-0.00004320,0.00000189,0.00004420,0.00010626,-0.
 00002144,-0.00001934,0.00018892,0.00263163,0.00020182,-0.00036296,-0.0
 0078496,-0.00078057,-0.00032604,-0.00069649,0.00013653,0.00031901,-0.0
 0077227,-0.00016598,0.02056604,-0.06328027,-0.11077355,-0.00451103,0.0
 2509029,0.01631389,-0.03233284,0.08077507,0.10246085,0.00007532,0.0000
 7303,-0.00003835,0.00003183,-0.00001178,-0.00001890,0.00007848,0.00004
 375,-0.00006096,0.00011741,0.00007861,-0.00013658,0.00010445,-0.000052
 80,-0.00009237,-0.00001551,0.00000618,0.00002313,-0.00001896,-0.000004
 10,0.00001189,0.00001184,-0.00001961,0.00001563,-0.00004148,-0.0000560
 5,-0.00000294,-0.00003137,-0.00002395,0.00002821,-0.00006106,-0.000010
 40,0.00010170,-0.00004481,-0.00000950,0.00007796,-0.00007312,0.0000135
 0,0.00004059,-0.00006292,-0.00003899,0.00003810,-0.00016569,-0.0001051
 4,0.00010901,0.00005293,-0.00004186,-0.00000627,-0.00001774,0.00001961
 ,0.00004405,-0.00001857,-0.00002625,0.00001839,0.00007907,-0.00006870,
 0.00028889,0.00004998,-0.00001625,-0.00003425,-0.00000157,0.00000491,0
 .00000279,-0.00001013,-0.00000891,0.00001033,-0.00000110,0.00000488,-0
 .00000011,0.00005980,0.00001835,-0.00004284,-0.00001940,0.00000409,0.0
 0002005,0.00000191,0.00000821,-0.00000358,-0.00001425,-0.00001238,-0.0
 0000223,0.00000275,0.00013904,-0.00004055,-0.00003748,-0.00002365,0.00
 001776,0.00001710,-0.00000383,-0.00001766,0.00001049,0.00003422,0.0000
 2982,-0.00019444,-0.00007845,0.00014225,0.00008285,0.00070884,0.000006
 30,-0.00065280,-0.00044577,-0.00027747,-0.00005806,0.00001515,-0.00002
 990,0.00001089,0.00001906,-0.00005885,-0.00001794,-0.00002452,-0.00000
 680,-0.00001898,0.00003673,-0.00001317,0.00004826,-0.00003585,-0.00000
 745,0.00000544,-0.00001272,0.00001053,0.00001068,0.00002175,0.00000316
 ,0.00015799,0.00003133,0.00018377,0.00105690,0.00047264,-0.00055706,0.
 00084802,-0.00083680,0.00090289,0.00048855,0.00012797,-0.00022025,0.00
 007642,-0.00003677,0.00000187,-0.00001099,-0.00000083,-0.00000302,0.00
 000052,-0.00000215,0.00000378,0.00000946,0.00000310,-0.00000111,0.0000
 2945,-0.00000752,0.00000754,-0.00094968,-0.00260223,0.00152430,-0.0000
 8230,0.00058033,-0.00077071,0.00053287,0.00133519,-0.00002624,0.000948
 12,-0.00030833,-0.00142482,-0.00032834,-0.00007235,-0.00057473,-0.0003
 1557,-0.00239965,0.00050384,0.00090693,-0.00083068,-0.00151615,-0.0001
 6844,0.00004210,0.00004224,-0.02783072,-0.00305761,-0.01608117,-0.0011
 3948,0.00020933,0.00019363,-0.00044116,0.00292951,-0.00153058,-0.00078
 850,0.00037998,0.00047639,-0.00135353,0.00219745,-0.00135423,0.0001583
 6,-0.00066792,0.00023887,-0.00005135,-0.00034853,0.00018940,0.00089899
 ,-0.00116026,0.00011763,-0.00033455,-0.00056261,0.00010253,0.00003904,
 0.00004345,0.00002223,-0.00014677,-0.00013958,0.00010857,0.00000236,0.
 00010363,0.00003526,-0.00001048,-0.00001097,-0.00000256,-0.00000736,-0
 .00000450,0.00000433,0.00000317,0.00000405,-0.00000668,0.00000535,-0.0
 0001033,-0.00000175,-0.00003042,0.00000045,-0.00000480,0.00000125,0.00
 000108,0.00000103,0.00000061,-0.00000162,0.00000294,0.00000473,0.00000
 219,-0.00000320,-0.00000584,0.00000104,-0.00005899,0.00001524,-0.00003
 249,-0.00000581,0.00000103,0.00000514,-0.00001287,-0.00002839,-0.00000
 086,0.00002240,-0.00038183,0.00017238,-0.00080441,0.00045727,0.0000422
 7,0.00119457,-0.00106059,-0.00073207,-0.00228367,-0.00002697,0.0003140
 6,0.00059045,0.00109376,0.00061140,0.00051996,0.00003329,0.00025271,0.
 00024209,-0.00008976,-0.00050475,-0.00038095,-0.00002890,0.00016750,0.
 00004890,-0.00004846,0.00003068,0.00021160,0.00004962,0.00007596,0.000
 04346,0.00016707,0.00237946,0.00034780,-0.00026536,-0.00058152,-0.0005
 1559,-0.00020729,-0.00062065,0.00001854,0.00052524,-0.00083536,-0.0001
 3975,-0.21568926,-0.00381845,-0.04400213,-0.05555391,-0.03226932,0.020
 21246,-0.05072225,0.04055276,0.00625989,0.35031269,0.00000918,-0.00000
 468,0.00000486,0.00000824,-0.00000964,-0.00000589,0.00000318,-0.000045
 53,0.00001775,0.00001528,-0.00001591,-0.00002138,0.00005115,-0.0000315
 0,-0.00004725,-0.00000270,0.00000606,0.00000034,-0.00000036,0.00000233
 ,0.00000120,0.00000228,-0.00000317,-0.00000083,-0.00000232,-0.00000572
 ,0.00000321,-0.00001032,-0.00000045,0.00001129,-0.00003534,0.00004154,
 0.00001472,0.00001853,0.00003891,0.00000252,-0.00001476,0.00001665,0.0
 0000212,-0.00001393,0.00000798,-0.00000205,-0.00010169,-0.00000222,0.0
 0004374,0.00008953,-0.00001424,-0.00004852,-0.00001855,0.00001267,0.00
 003120,-0.00001934,-0.00000830,0.00000790,-0.00008406,0.00002827,0.000
 15646,0.00000579,-0.00000591,-0.00000705,-0.00000030,0.00000132,0.0000
 0329,-0.00000031,0.00000108,0.00000078,-0.00000233,0.00000083,-0.00000
 010,0.00001010,-0.00000477,0.00000109,-0.00000195,-0.00000279,0.000002
 28,-0.00000363,0.00000298,-0.00000025,-0.00000041,-0.00000033,-0.00000
 100,0.00002270,0.00002162,-0.00000717,-0.00001998,-0.00000315,0.000003
 47,0.00000785,0.00000851,-0.00001669,0.00000516,0.00001560,0.00001792,
 -0.00004979,-0.00000314,-0.00013241,0.00006500,0.00032716,-0.00001642,
 -0.00013711,-0.00010857,-0.00017334,-0.00001670,-0.00000714,-0.0000285
 1,-0.00000148,0.00005166,-0.00001939,0.00000687,-0.00002448,0.00000204
 ,0.00000012,-0.00000661,0.00000688,0.00000637,-0.00000039,-0.00001022,
 0.00000215,-0.00000322,0.00000265,0.00000001,0.00000036,0.00000182,0.0
 0003995,-0.00001603,0.00010312,0.00017723,0.00021427,-0.00009782,0.000
 14194,-0.00026450,0.00028669,-0.00003786,-0.00019922,0.00019212,0.0000
 2623,-0.00007231,-0.00000193,0.00001011,0.00002574,-0.00000376,-0.0000
 0248,-0.00000761,0.00000840,0.00000063,0.00000030,-0.00000166,0.000007
 97,-0.00002079,0.00001359,-0.00006886,-0.00080743,0.00014265,-0.000030
 34,0.00015981,-0.00011748,0.00010138,0.00035829,0.00010805,0.00040630,
 -0.00034349,-0.00123796,0.00006851,0.00073379,-0.00036155,-0.00130044,
 -0.00117656,0.00014178,0.00043229,0.00039847,0.00063239,-0.00005032,0.
 00003494,0.00002078,-0.00627107,0.01138430,-0.00399508,-0.00040908,0.0
 0025117,-0.00024784,0.00072451,-0.00041495,0.00059319,-0.00011760,0.00
 018533,0.00018430,-0.00094931,0.00105584,-0.00036508,0.00009495,-0.000
 46301,0.00014570,0.00004495,-0.00009327,0.00004889,-0.00039684,-0.0024
 0595,0.00095006,0.00009109,0.00037758,0.00000553,0.00001995,-0.0000872
 6,-0.00000304,-0.00000386,0.00008586,-0.00008842,-0.00001014,-0.000022
 11,-0.00000914,0.00000432,0.00003470,0.00001413,0.00000065,0.00000665,
 0.00000477,-0.00000434,-0.00000720,0.00000030,0.00000422,-0.00000500,-
 0.00000319,-0.00001148,0.00001001,-0.00001085,0.00000100,-0.00000240,-
 0.00000015,0.00000085,-0.00000062,0.00000518,-0.00000230,0.00000081,-0
 .00000209,-0.00001497,-0.00002481,-0.00001068,-0.00000348,0.00000719,-
 0.00000356,0.00000042,-0.00000416,0.00000183,0.00000275,0.00000292,0.0
 0000148,-0.00004164,-0.00019235,-0.00019186,0.00006819,-0.00001818,-0.
 00028145,0.00033965,0.00018820,0.00040720,0.00005050,-0.00008849,-0.00
 021938,0.00024173,-0.00101766,-0.00093180,-0.00003782,0.00004975,0.000
 03750,-0.00004025,0.00011033,0.00007184,-0.00000174,0.00000870,0.00000
 495,-0.00001452,-0.00000861,-0.00002338,0.00002708,-0.00001839,-0.0000
 0374,0.00003544,0.00019619,0.00022363,-0.00003195,-0.00005281,-0.00006
 990,-0.00003789,-0.00008021,-0.00002469,-0.00001913,-0.00002810,-0.000
 04139,-0.00409421,-0.06851009,-0.00101455,-0.04141367,-0.00313060,0.00
 662639,0.05319154,-0.01291124,-0.00030959,-0.00073088,0.07634060,-0.00
 000179,0.00001287,-0.00003756,-0.00001288,0.00000454,-0.00001280,-0.00
 002679,0.00001668,-0.00002095,-0.00000520,0.00001833,-0.00002240,0.000
 00254,-0.00001979,-0.00003013,0.00000403,-0.00000294,0.00000289,-0.000
 00136,-0.00000021,0.00000473,-0.00000124,-0.00000440,0.00000262,-0.000
 00888,0.00000301,-0.00000977,0.00000097,-0.00000062,0.00000445,0.00005
 511,-0.00002533,0.00002676,0.00003523,0.00001003,0.00003309,0.00000783
 ,-0.00000775,0.00002223,0.00001113,-0.00000444,0.00005949,0.00002073,0
 .00000034,0.00003895,-0.00013703,-0.00002420,0.00009651,0.00000945,-0.
 00000987,-0.00001489,0.00003841,0.00001960,-0.00001255,0.00023028,0.00
 002777,-0.00003716,0.00000141,-0.00000305,-0.00000671,0.00000027,0.000
 00302,0.00000149,-0.00000138,-0.00000154,0.00000089,0.00000281,-0.0000
 0088,0.00000089,0.00001661,0.00001596,-0.00004598,-0.00000988,-0.00000
 170,0.00000906,0.00000036,-0.00000102,0.00000164,-0.00000058,-0.000002
 21,0.00000363,-0.00000794,0.00001005,-0.00003207,0.00000884,-0.0000004
 2,0.00000625,-0.00000765,-0.00002321,0.00000532,-0.00000732,0.00000334
 ,0.00000389,-0.00002985,-0.00005155,-0.00017908,0.00006835,-0.00012156
 ,0.00009464,-0.00045384,-0.00041873,0.00004822,0.00003307,-0.00012618,
 -0.00005041,0.00001159,-0.00004425,-0.00000378,-0.00000891,-0.00002788
 ,0.00001232,-0.00000348,0.00004121,-0.00000699,0.00003800,-0.00002363,
 -0.00001157,-0.00000386,0.00000666,0.00001457,0.00000526,0.00001350,0.
 00000045,0.00002180,0.00029350,-0.00006929,0.00065385,0.00051963,-0.00
 060025,0.00028722,0.00013174,0.00023690,-0.00003983,-0.00001478,0.0002
 0731,-0.00002570,0.00008035,0.00006357,-0.00001934,-0.00004524,0.00001
 569,0.00000234,0.00000155,0.00000128,0.00000207,-0.00000031,-0.0000009
 6,-0.00000664,0.00004852,0.00000312,-0.00031267,-0.00234194,0.00161000
 ,-0.00022010,0.00049959,-0.00073949,0.00028015,0.00118801,-0.00009453,
 0.00103034,-0.00039844,-0.00014297,-0.00042174,-0.00075126,-0.00072695
 ,-0.00057220,-0.00177998,0.00030268,0.00131032,-0.00055880,-0.00189739
 ,-0.00015604,0.00001821,0.00008617,-0.03852609,-0.00435739,-0.00935796
 ,-0.00061704,0.00002139,0.00007780,-0.00077197,0.00371901,-0.00083638,
 -0.00081239,-0.00008232,0.00010706,0.00002371,0.00002772,-0.00002323,0
 .00002304,0.00010657,0.00003112,0.00005058,0.00012440,0.00000128,0.000
 67499,0.00122002,-0.00101345,0.00007993,0.00008352,-0.00007762,-0.0000
 0093,-0.00003560,0.00001018,-0.00000601,0.00001670,-0.00008276,-0.0000
 0425,0.00003340,0.00002944,-0.00001822,-0.00004062,-0.00005055,0.00000
 607,0.00000039,0.00000966,0.00000438,0.00000547,0.00000245,-0.00000178
 ,0.00000651,0.00000464,0.00001078,-0.00000997,0.00000586,-0.00000156,0
 .00000604,-0.00000030,-0.00000292,-0.00000097,-0.00000099,0.00000108,-
 0.00000172,-0.00000292,-0.00003749,-0.00000914,-0.00003388,-0.00001244
 ,0.00000556,-0.00000562,0.00000401,-0.00001799,0.00001154,0.00000671,0
 .00000131,0.00000196,-0.00052768,-0.00015835,0.00010350,0.00032682,-0.
 00018994,-0.00003756,0.00032521,0.00005472,0.00021592,0.00009502,-0.00
 014500,-0.00021715,0.00052357,-0.00090051,-0.00166642,-0.00007350,0.00
 007850,-0.00001403,-0.00010043,0.00006178,0.00016622,-0.00002312,0.000
 08923,0.00001295,-0.00005098,0.00000059,0.00004324,0.00011422,-0.00002
 626,-0.00001370,0.00061903,0.00237283,0.00023667,-0.00029388,-0.000540
 09,-0.00044926,-0.00032036,-0.00066040,0.00012807,0.00029130,-0.000796
 58,-0.00011513,-0.04622873,-0.00104448,-0.08515276,0.03230554,0.009791
 99,0.00946741,0.01350083,-0.00385573,0.01389743,0.03775874,-0.00110449
 ,0.07637220\\0.00000083,0.00000418,0.00000088,0.00000074,0.00000481,0.
 00000171,0.00000209,0.00000383,0.00000133,0.00000026,0.00000276,0.0000
 0065,-0.00000052,0.00000361,0.00000058,0.00000239,0.00000454,0.0000015
 0,0.00000095,0.00000522,0.00000173,0.00000053,0.00000458,0.00000143,0.
 00000141,0.00000192,0.00000091,-0.00000085,0.00000356,0.00000056,0.000
 00094,0.00000317,0.00000109,0.00000274,0.00000331,0.00000158,0.0000012
 5,0.00000583,0.00000224,-0.00000239,0.00000672,0.00000164,-0.00000096,
 0.00000328,0.00000039,0.00000035,0.00000198,0.00000096,0.00000060,0.00
 000102,0.00000040,-0.00000110,0.00000175,0.00000001,-0.00000118,-0.000
 00082,-0.00000247,0.00000236,0.00000665,0.00000247,0.00000333,0.000006
 32,0.00000238,0.00000196,0.00000710,0.00000232,0.00000279,0.00000738,0
 .00000263,0.00000037,0.00000554,0.00000095,-0.00000063,0.00000562,0.00
 000109,0.00000019,0.00000665,0.00000167,-0.00000123,0.00000679,0.00000
 124,-0.00000245,0.00000244,-0.00000013,-0.00000291,0.00000325,-0.00000
 010,-0.00000215,0.00000172,-0.00000019,-0.00000275,0.00000237,-0.00000
 023,-0.00000202,-0.00000229,-0.00000101,-0.00000176,-0.00000111,-0.000
 00078,-0.00000082,-0.00000146,-0.00000051,-0.00000285,-0.00000240,-0.0
 0000155,-0.00000366,-0.00000205,-0.00000148,-0.00000084,-0.00000090,-0
 .00000027,-0.00000207,-0.00000014,-0.00000101,-0.00000232,-0.00000249,
 -0.00000155,-0.00000319,-0.00000322,-0.00000197,-0.00000434,-0.0000009
 0,-0.00000160,-0.00000315,-0.00000255,-0.00000118,0.00000143,-0.000002
 39,-0.00000022,-0.00000014,-0.00000095,-0.00000023,-0.00000362,-0.0000
 0043,-0.00000121,-0.00000451,-0.00000305,-0.00000200,-0.00000411,-0.00
 000227,-0.00000140,-0.00000394,-0.00000232,-0.00000165,-0.00000433,-0.
 00000102,-0.00000163,-0.00000522,-0.00000204,-0.00000243,0.00000114,-0
 .00000360,-0.00000069,0.00000136,-0.00000453,-0.00000067,-0.00000017,-
 0.00000331,-0.00000090,0.00000173,-0.00000335,-0.00000031,0.00000368,-
 0.00000392,-0.00000010,0.00000108,-0.00000280,-0.00000018,0.00000390,-
 0.00000376,0.00000021,0.00000350,-0.00000427,-0.00000002,0.00000206,-0
 .00000271,0.00000001,-0.00000028,-0.00000252,-0.00000060,0.00000331,-0
 .00000314,0.00000025,0.00000386,-0.00000300,0.00000042,-0.00000088,0.0
 0000062,-0.00000028,-0.00000063,0.00000107,0.00000006,-0.00000157,0.00
 000023,-0.00000032,0.00000018,0.00000021,0.00000014,-0.00000235,-0.000
 00263,-0.00000128,-0.00000301,-0.00000294,-0.00000160,-0.00000170,-0.0
 0000219,-0.00000105,-0.00000305,-0.00000159,-0.00000129,-0.00000557,-0
 .00000241,-0.00000220,-0.00000541,-0.00000176,-0.00000203,-0.00000611,
 -0.00000193,-0.00000226,-0.00000603,-0.00000316,-0.00000259,-0.0000058
 0,-0.00000346,-0.00000249,-0.00000679,-0.00000352,-0.00000271,-0.00000
 548,-0.00000374,-0.00000264,-0.00000527,-0.00000406,-0.00000266,0.0000
 0358,0.00000237,0.00000161,0.00000429,0.00000221,0.00000173,0.00000331
 ,0.00000129,0.00000144,0.00000401,0.00000301,0.00000180,0.00000085,-0.
 00000046,0.00000354,0.00000334,-0.00000066,-0.00000068,0.00000345,0.,0
 .00000139,0.00000393,0.00000063,0.00000131,0.00000314,0.00000001,0.000
 00076,0.00000430,-0.00000067,0.00000123,0.00000424,-0.00000099,0.00000
 094,0.00000447,-0.00000147,0.00000087,0.00000387,-0.00000152,0.0000006
 0,0.00000437,-0.00000060,0.00000140,0.00000507,-0.00000416,0.00000055,
 0.00000531,-0.00000489,0.00000053,0.00000578,-0.00000457,0.00000064,0.
 00000584,-0.00000297,0.00000077,0.00000161,-0.00000209,0.,0.00000203,-
 0.00000218,0.00000006,0.00000058,-0.00000226,-0.00000053,0.00000144,-0
 .00000099,0.00000027\\\@


 ALMOST ANYTHING IS EASIER TO GET INTO THAN OUT OF.

                         -- AGNES ALLEN'S LAW FROM
                PAUL DICKSON'S "THE OFFICIAL RULES"
 Job cpu time:       4 days  1 hours  6 minutes 36.8 seconds.
 Elapsed time:       0 days  3 hours 11 minutes 44.1 seconds.
 File lengths (MBytes):  RWF=   9778 Int=      0 D2E=      0 Chk=    106 Scr=      1
 Normal termination of Gaussian 16 at Sat May 25 03:11:40 2019.
