 Entering Gaussian System, Link 0=g16
 Input=clay_new-glu_gluC6-bisCF3-sm-blyp_d3bj-custom-pcm_thf.gjf
 Output=clay_new-glu_gluC6-bisCF3-sm-blyp_d3bj-custom-pcm_thf.out
 Initial command:
 /home/ekwan/sw/g16/l1.exe "/scratch/users/ekwan/clay_new-glu_gluC6-bisCF3-sm-blyp_d3bj-custom-pcm_thf/Gau-13155.inp" -scrdir="/scratch/users/ekwan/clay_new-glu_gluC6-bisCF3-sm-blyp_d3bj-custom-pcm_thf/"
 Entering Link 1 = /home/ekwan/sw/g16/l1.exe PID=     13156.
  
 Copyright (c) 1988,1990,1992,1993,1995,1998,2003,2009,2016,
            Gaussian, Inc.  All Rights Reserved.
  
 This is part of the Gaussian(R) 16 program.  It is based on
 the Gaussian(R) 09 system (copyright 2009, Gaussian, Inc.),
 the Gaussian(R) 03 system (copyright 2003, Gaussian, Inc.),
 the Gaussian(R) 98 system (copyright 1998, Gaussian, Inc.),
 the Gaussian(R) 94 system (copyright 1995, Gaussian, Inc.),
 the Gaussian 92(TM) system (copyright 1992, Gaussian, Inc.),
 the Gaussian 90(TM) system (copyright 1990, Gaussian, Inc.),
 the Gaussian 88(TM) system (copyright 1988, Gaussian, Inc.),
 the Gaussian 86(TM) system (copyright 1986, Carnegie Mellon
 University), and the Gaussian 82(TM) system (copyright 1983,
 Carnegie Mellon University). Gaussian is a federally registered
 trademark of Gaussian, Inc.
  
 This software contains proprietary and confidential information,
 including trade secrets, belonging to Gaussian, Inc.
  
 This software is provided under written license and may be
 used, copied, transmitted, or stored only in accord with that
 written license.
  
 The following legend is applicable only to US Government
 contracts under FAR:
  
                    RESTRICTED RIGHTS LEGEND
  
 Use, reproduction and disclosure by the US Government is
 subject to restrictions as set forth in subparagraphs (a)
 and (c) of the Commercial Computer Software - Restricted
 Rights clause in FAR 52.227-19.
  
 Gaussian, Inc.
 340 Quinnipiac St., Bldg. 40, Wallingford CT 06492
  
  
 ---------------------------------------------------------------
 Warning -- This program may not be used in any manner that
 competes with the business of Gaussian, Inc. or will provide
 assistance to any competitor of Gaussian, Inc.  The licensee
 of this program is prohibited from giving any competitor of
 Gaussian, Inc. access to this program.  By using this program,
 the user acknowledges that Gaussian, Inc. is engaged in the
 business of creating and licensing software in the field of
 computational chemistry and represents and warrants to the
 licensee that it is not a competitor of Gaussian, Inc. and that
 it will not use this program in any manner prohibited above.
 ---------------------------------------------------------------
  

 Cite this work as:
 Gaussian 16, Revision A.03,
 M. J. Frisch, G. W. Trucks, H. B. Schlegel, G. E. Scuseria, 
 M. A. Robb, J. R. Cheeseman, G. Scalmani, V. Barone, 
 G. A. Petersson, H. Nakatsuji, X. Li, M. Caricato, A. V. Marenich, 
 J. Bloino, B. G. Janesko, R. Gomperts, B. Mennucci, H. P. Hratchian, 
 J. V. Ortiz, A. F. Izmaylov, J. L. Sonnenberg, D. Williams-Young, 
 F. Ding, F. Lipparini, F. Egidi, J. Goings, B. Peng, A. Petrone, 
 T. Henderson, D. Ranasinghe, V. G. Zakrzewski, J. Gao, N. Rega, 
 G. Zheng, W. Liang, M. Hada, M. Ehara, K. Toyota, R. Fukuda, 
 J. Hasegawa, M. Ishida, T. Nakajima, Y. Honda, O. Kitao, H. Nakai, 
 T. Vreven, K. Throssell, J. A. Montgomery, Jr., J. E. Peralta, 
 F. Ogliaro, M. J. Bearpark, J. J. Heyd, E. N. Brothers, K. N. Kudin, 
 V. N. Staroverov, T. A. Keith, R. Kobayashi, J. Normand, 
 K. Raghavachari, A. P. Rendell, J. C. Burant, S. S. Iyengar, 
 J. Tomasi, M. Cossi, J. M. Millam, M. Klene, C. Adamo, R. Cammi, 
 J. W. Ochterski, R. L. Martin, K. Morokuma, O. Farkas, 
 J. B. Foresman, and D. J. Fox, Gaussian, Inc., Wallingford CT, 2016.
 
 ******************************************
 Gaussian 16:  AS64L-G16RevA.03 25-Dec-2016
                15-Jun-2019 
 ******************************************
 %nprocshared=32
 Will use up to   32 processors via shared memory.
 %mem=48GB
 ----------------------------------------------------------------------
 #p opt freq=noraman 6-31g(d) scrf=(solvent=tetrahydrofuran,pcm) pop=no
 ne blyp empiricaldispersion=gd3bj extrabasis
 ----------------------------------------------------------------------
 1/18=20,19=15,26=3,38=1/1,3;
 2/9=110,12=2,17=6,18=5,40=1/2;
 3/5=1,6=6,7=1,10=1,11=2,25=1,30=1,70=2201,71=1,72=20,74=402,124=41/1,2,3;
 4//1;
 5/5=2,38=5,53=20/2;
 7//1,2,3,16;
 1/18=20,19=15,26=3/3(2);
 2/9=110/2;
 99//99;
 2/9=110/2;
 3/5=7,6=1,7=1,11=2,25=1,30=1,70=2205,71=1,72=20,74=402,82=7,124=41/1,2,3;
 4/5=5,16=3,69=1/1;
 5/5=2,38=5,53=20/2;
 7//1,2,3,16;
 1/18=20,19=15,26=3/3(-5);
 2/9=110/2;
 99/9=1/99;
 Leave Link    1 at Sat Jun 15 07:50:15 2019, MaxMem=  6442450944 cpu:               5.8 elap:               0.2
 (Enter /home/ekwan/sw/g16/l101.exe)
 -----
 title
 -----
 Symbolic Z-matrix:
 Charge =  0 Multiplicity = 1
 6                     3.39017   0.43308   0.60376 
 6                     3.34292  -0.50367  -0.6214 
 6                     1.88377  -0.88352  -0.98508 
 6                     0.99107   1.11768   0.04152 
 6                     2.40392   1.60157   0.42264 
 1                     1.81805  -1.43902  -1.92816 
 1                     3.73506   0.05524  -1.49547 
 1                     3.11116  -0.13051   1.51281 
 1                     0.55742   0.55672   0.88822 
 1                     2.77537   2.25914  -0.38119 
 8                     1.04274   0.22846  -1.12627 
 8                     1.42615  -1.78433   0.10801 
 8                     4.16038  -1.64314  -0.35868 
 8                     4.69871   1.00679   0.75357 
 8                     2.27448   2.33264   1.65403 
 6                     0.04441   2.28231  -0.29013 
 1                    -0.16986   2.80283   0.65503 
 1                    -0.90018   1.88437  -0.69975 
 8                     0.59493   3.27502  -1.16496 
 16                    0.09382  -2.7488   -0.19994 
 8                     0.07964  -3.70393   0.93335 
 8                     0.14531  -3.21822  -1.61023 
 6                    -1.29484  -1.60025  -0.01988 
 6                    -1.74391  -1.28529   1.26906 
 6                    -1.84072  -1.01715  -1.17057 
 6                    -2.78815  -0.35393   1.4007 
 1                    -1.29293  -1.74885   2.14625 
 6                    -2.88225  -0.09043  -1.01404 
 1                    -1.46161  -1.2738   -2.15814 
 6                    -3.35819   0.24428   0.26566 
 1                    -4.16317   0.97072   0.37717 
 6                     4.50616  -2.4004   -1.53501 
 1                     3.63437  -2.93517  -1.95393 
 1                     4.94065  -1.74638  -2.31455 
 1                     5.25552  -3.13766  -1.2153 
 6                     5.55658   0.2926    1.66353 
 1                     6.4893    0.87314   1.72281 
 1                     5.10328   0.2317    2.67178 
 1                     5.77281  -0.72563   1.30145 
 6                     2.93412   3.61319   1.6313 
 1                     2.7438    4.07479   2.61178 
 1                     4.02096   3.4973    1.4807 
 1                     2.51764   4.25841   0.83547 
 6                     0.58136   2.90013  -2.55705 
 1                     0.83554   3.80874  -3.12311 
 1                    -0.42168   2.54657  -2.85988 
 1                     1.31722   2.10886  -2.78 
 6                    -3.33898  -0.03675   2.7765 
 9                    -2.38302  -0.17201   3.74355 
 9                    -4.36886  -0.87772   3.10289 
 9                    -3.82328   1.23993   2.84064 
 6                    -3.4381    0.62967  -2.22408 
 9                    -2.85357   1.86958  -2.36708 
 9                    -4.78221   0.84026  -2.11268 
 9                    -3.21069  -0.05735  -3.37957 
 
 ITRead=  0  0  0  0  0  0  0  0  0  0  0  0  0  0  0  0  0  0  0  0
 ITRead=  0  0  0  0  0  0  0  0  0  0  0  0  0  0  0  0  0  0  0  0
 ITRead=  0  0  0  0  0  0  0  0  0  0  0  0  0  0  0
 MicOpt= -1 -1 -1 -1 -1 -1 -1 -1 -1 -1 -1 -1 -1 -1 -1 -1 -1 -1 -1 -1
 MicOpt= -1 -1 -1 -1 -1 -1 -1 -1 -1 -1 -1 -1 -1 -1 -1 -1 -1 -1 -1 -1
 MicOpt= -1 -1 -1 -1 -1 -1 -1 -1 -1 -1 -1 -1 -1 -1 -1
 NAtoms=     55 NQM=       55 NQMF=       0 NMMI=      0 NMMIF=      0
                NMic=       0 NMicF=      0.
                    Isotopes and Nuclear Properties:
 (Nuclear quadrupole moments (NQMom) in fm**2, nuclear magnetic moments (NMagM)
  in nuclear magnetons)

  Atom         1           2           3           4           5           6           7           8           9          10
 IAtWgt=          12          12          12          12          12           1           1           1           1           1
 AtmWgt=  12.0000000  12.0000000  12.0000000  12.0000000  12.0000000   1.0078250   1.0078250   1.0078250   1.0078250   1.0078250
 NucSpn=           0           0           0           0           0           1           1           1           1           1
 AtZEff=   0.0000000   0.0000000   0.0000000   0.0000000   0.0000000   0.0000000   0.0000000   0.0000000   0.0000000   0.0000000
 NQMom=    0.0000000   0.0000000   0.0000000   0.0000000   0.0000000   0.0000000   0.0000000   0.0000000   0.0000000   0.0000000
 NMagM=    0.0000000   0.0000000   0.0000000   0.0000000   0.0000000   2.7928460   2.7928460   2.7928460   2.7928460   2.7928460
 AtZNuc=   6.0000000   6.0000000   6.0000000   6.0000000   6.0000000   1.0000000   1.0000000   1.0000000   1.0000000   1.0000000

  Atom        11          12          13          14          15          16          17          18          19          20
 IAtWgt=          16          16          16          16          16          12           1           1          16          32
 AtmWgt=  15.9949146  15.9949146  15.9949146  15.9949146  15.9949146  12.0000000   1.0078250   1.0078250  15.9949146  31.9720718
 NucSpn=           0           0           0           0           0           0           1           1           0           0
 AtZEff=   0.0000000   0.0000000   0.0000000   0.0000000   0.0000000   0.0000000   0.0000000   0.0000000   0.0000000   0.0000000
 NQMom=    0.0000000   0.0000000   0.0000000   0.0000000   0.0000000   0.0000000   0.0000000   0.0000000   0.0000000   0.0000000
 NMagM=    0.0000000   0.0000000   0.0000000   0.0000000   0.0000000   0.0000000   2.7928460   2.7928460   0.0000000   0.0000000
 AtZNuc=   8.0000000   8.0000000   8.0000000   8.0000000   8.0000000   6.0000000   1.0000000   1.0000000   8.0000000  16.0000000

  Atom        21          22          23          24          25          26          27          28          29          30
 IAtWgt=          16          16          12          12          12          12           1          12           1          12
 AtmWgt=  15.9949146  15.9949146  12.0000000  12.0000000  12.0000000  12.0000000   1.0078250  12.0000000   1.0078250  12.0000000
 NucSpn=           0           0           0           0           0           0           1           0           1           0
 AtZEff=   0.0000000   0.0000000   0.0000000   0.0000000   0.0000000   0.0000000   0.0000000   0.0000000   0.0000000   0.0000000
 NQMom=    0.0000000   0.0000000   0.0000000   0.0000000   0.0000000   0.0000000   0.0000000   0.0000000   0.0000000   0.0000000
 NMagM=    0.0000000   0.0000000   0.0000000   0.0000000   0.0000000   0.0000000   2.7928460   0.0000000   2.7928460   0.0000000
 AtZNuc=   8.0000000   8.0000000   6.0000000   6.0000000   6.0000000   6.0000000   1.0000000   6.0000000   1.0000000   6.0000000

  Atom        31          32          33          34          35          36          37          38          39          40
 IAtWgt=           1          12           1           1           1          12           1           1           1          12
 AtmWgt=   1.0078250  12.0000000   1.0078250   1.0078250   1.0078250  12.0000000   1.0078250   1.0078250   1.0078250  12.0000000
 NucSpn=           1           0           1           1           1           0           1           1           1           0
 AtZEff=   0.0000000   0.0000000   0.0000000   0.0000000   0.0000000   0.0000000   0.0000000   0.0000000   0.0000000   0.0000000
 NQMom=    0.0000000   0.0000000   0.0000000   0.0000000   0.0000000   0.0000000   0.0000000   0.0000000   0.0000000   0.0000000
 NMagM=    2.7928460   0.0000000   2.7928460   2.7928460   2.7928460   0.0000000   2.7928460   2.7928460   2.7928460   0.0000000
 AtZNuc=   1.0000000   6.0000000   1.0000000   1.0000000   1.0000000   6.0000000   1.0000000   1.0000000   1.0000000   6.0000000

  Atom        41          42          43          44          45          46          47          48          49          50
 IAtWgt=           1           1           1          12           1           1           1          12          19          19
 AtmWgt=   1.0078250   1.0078250   1.0078250  12.0000000   1.0078250   1.0078250   1.0078250  12.0000000  18.9984033  18.9984033
 NucSpn=           1           1           1           0           1           1           1           0           1           1
 AtZEff=   0.0000000   0.0000000   0.0000000   0.0000000   0.0000000   0.0000000   0.0000000   0.0000000   0.0000000   0.0000000
 NQMom=    0.0000000   0.0000000   0.0000000   0.0000000   0.0000000   0.0000000   0.0000000   0.0000000   0.0000000   0.0000000
 NMagM=    2.7928460   2.7928460   2.7928460   0.0000000   2.7928460   2.7928460   2.7928460   0.0000000   2.6288670   2.6288670
 AtZNuc=   1.0000000   1.0000000   1.0000000   6.0000000   1.0000000   1.0000000   1.0000000   6.0000000   9.0000000   9.0000000

  Atom        51          52          53          54          55
 IAtWgt=          19          12          19          19          19
 AtmWgt=  18.9984033  12.0000000  18.9984033  18.9984033  18.9984033
 NucSpn=           1           0           1           1           1
 AtZEff=   0.0000000   0.0000000   0.0000000   0.0000000   0.0000000
 NQMom=    0.0000000   0.0000000   0.0000000   0.0000000   0.0000000
 NMagM=    2.6288670   0.0000000   2.6288670   2.6288670   2.6288670
 AtZNuc=   9.0000000   6.0000000   9.0000000   9.0000000   9.0000000
 Leave Link  101 at Sat Jun 15 07:50:16 2019, MaxMem=  6442450944 cpu:              17.0 elap:               0.6
 (Enter /home/ekwan/sw/g16/l103.exe)

 GradGradGradGradGradGradGradGradGradGradGradGradGradGradGradGradGradGrad
 Berny optimization.
 Initialization pass.
                           ----------------------------
                           !    Initial Parameters    !
                           ! (Angstroms and Degrees)  !
 --------------------------                            --------------------------
 ! Name  Definition              Value          Derivative Info.                !
 --------------------------------------------------------------------------------
 ! R1    R(1,2)                  1.543          estimate D2E/DX2                !
 ! R2    R(1,5)                  1.5398         estimate D2E/DX2                !
 ! R3    R(1,8)                  1.1054         estimate D2E/DX2                !
 ! R4    R(1,14)                 1.4366         estimate D2E/DX2                !
 ! R5    R(2,3)                  1.551          estimate D2E/DX2                !
 ! R6    R(2,7)                  1.1091         estimate D2E/DX2                !
 ! R7    R(2,13)                 1.4268         estimate D2E/DX2                !
 ! R8    R(3,6)                  1.0965         estimate D2E/DX2                !
 ! R9    R(3,11)                 1.4013         estimate D2E/DX2                !
 ! R10   R(3,12)                 1.4885         estimate D2E/DX2                !
 ! R11   R(4,5)                  1.5413         estimate D2E/DX2                !
 ! R12   R(4,9)                  1.1044         estimate D2E/DX2                !
 ! R13   R(4,11)                 1.4687         estimate D2E/DX2                !
 ! R14   R(4,16)                 1.537          estimate D2E/DX2                !
 ! R15   R(5,10)                 1.103          estimate D2E/DX2                !
 ! R16   R(5,15)                 1.4379         estimate D2E/DX2                !
 ! R17   R(12,20)                1.6734         estimate D2E/DX2                !
 ! R18   R(13,32)                1.4411         estimate D2E/DX2                !
 ! R19   R(14,36)                1.4401         estimate D2E/DX2                !
 ! R20   R(15,40)                1.4406         estimate D2E/DX2                !
 ! R21   R(16,17)                1.1001         estimate D2E/DX2                !
 ! R22   R(16,18)                1.1038         estimate D2E/DX2                !
 ! R23   R(16,19)                1.4331         estimate D2E/DX2                !
 ! R24   R(19,44)                1.4418         estimate D2E/DX2                !
 ! R25   R(20,21)                1.4822         estimate D2E/DX2                !
 ! R26   R(20,22)                1.4873         estimate D2E/DX2                !
 ! R27   R(20,23)                1.8111         estimate D2E/DX2                !
 ! R28   R(23,24)                1.4008         estimate D2E/DX2                !
 ! R29   R(23,25)                1.4007         estimate D2E/DX2                !
 ! R30   R(24,26)                1.4054         estimate D2E/DX2                !
 ! R31   R(24,27)                1.0898         estimate D2E/DX2                !
 ! R32   R(25,28)                1.4029         estimate D2E/DX2                !
 ! R33   R(25,29)                1.0885         estimate D2E/DX2                !
 ! R34   R(26,30)                1.404          estimate D2E/DX2                !
 ! R35   R(26,48)                1.5155         estimate D2E/DX2                !
 ! R36   R(28,30)                1.4058         estimate D2E/DX2                !
 ! R37   R(28,52)                1.5138         estimate D2E/DX2                !
 ! R38   R(30,31)                1.09           estimate D2E/DX2                !
 ! R39   R(32,33)                1.1052         estimate D2E/DX2                !
 ! R40   R(32,34)                1.1064         estimate D2E/DX2                !
 ! R41   R(32,35)                1.0988         estimate D2E/DX2                !
 ! R42   R(36,37)                1.1002         estimate D2E/DX2                !
 ! R43   R(36,38)                1.1071         estimate D2E/DX2                !
 ! R44   R(36,39)                1.1021         estimate D2E/DX2                !
 ! R45   R(40,41)                1.1003         estimate D2E/DX2                !
 ! R46   R(40,42)                1.1033         estimate D2E/DX2                !
 ! R47   R(40,43)                1.1059         estimate D2E/DX2                !
 ! R48   R(44,45)                1.1003         estimate D2E/DX2                !
 ! R49   R(44,46)                1.1058         estimate D2E/DX2                !
 ! R50   R(44,47)                1.1033         estimate D2E/DX2                !
 ! R51   R(48,49)                1.3665         estimate D2E/DX2                !
 ! R52   R(48,50)                1.3691         estimate D2E/DX2                !
 ! R53   R(48,51)                1.367          estimate D2E/DX2                !
 ! R54   R(52,53)                1.3782         estimate D2E/DX2                !
 ! R55   R(52,54)                1.3651         estimate D2E/DX2                !
 ! R56   R(52,55)                1.3634         estimate D2E/DX2                !
 ! A1    A(2,1,5)              110.3475         estimate D2E/DX2                !
 ! A2    A(2,1,8)              109.6171         estimate D2E/DX2                !
 ! A3    A(2,1,14)             110.6795         estimate D2E/DX2                !
 ! A4    A(5,1,8)              108.7833         estimate D2E/DX2                !
 ! A5    A(5,1,14)             107.0152         estimate D2E/DX2                !
 ! A6    A(8,1,14)             110.35           estimate D2E/DX2                !
 ! A7    A(1,2,3)              111.3257         estimate D2E/DX2                !
 ! A8    A(1,2,7)              107.9985         estimate D2E/DX2                !
 ! A9    A(1,2,13)             108.7302         estimate D2E/DX2                !
 ! A10   A(3,2,7)              105.7377         estimate D2E/DX2                !
 ! A11   A(3,2,13)             112.7432         estimate D2E/DX2                !
 ! A12   A(7,2,13)             110.1816         estimate D2E/DX2                !
 ! A13   A(2,3,6)              112.4654         estimate D2E/DX2                !
 ! A14   A(2,3,11)             113.1976         estimate D2E/DX2                !
 ! A15   A(2,3,12)             105.3808         estimate D2E/DX2                !
 ! A16   A(6,3,11)             106.2234         estimate D2E/DX2                !
 ! A17   A(6,3,12)             107.8538         estimate D2E/DX2                !
 ! A18   A(11,3,12)            111.6962         estimate D2E/DX2                !
 ! A19   A(5,4,9)              109.2589         estimate D2E/DX2                !
 ! A20   A(5,4,11)             110.7594         estimate D2E/DX2                !
 ! A21   A(5,4,16)             112.3366         estimate D2E/DX2                !
 ! A22   A(9,4,11)             108.4137         estimate D2E/DX2                !
 ! A23   A(9,4,16)             107.9663         estimate D2E/DX2                !
 ! A24   A(11,4,16)            107.9901         estimate D2E/DX2                !
 ! A25   A(1,5,4)              112.2087         estimate D2E/DX2                !
 ! A26   A(1,5,10)             108.8111         estimate D2E/DX2                !
 ! A27   A(1,5,15)             110.0455         estimate D2E/DX2                !
 ! A28   A(4,5,10)             108.4015         estimate D2E/DX2                !
 ! A29   A(4,5,15)             106.7902         estimate D2E/DX2                !
 ! A30   A(10,5,15)            110.5681         estimate D2E/DX2                !
 ! A31   A(3,11,4)             114.9251         estimate D2E/DX2                !
 ! A32   A(3,12,20)            117.2858         estimate D2E/DX2                !
 ! A33   A(2,13,32)            114.0061         estimate D2E/DX2                !
 ! A34   A(1,14,36)            114.2314         estimate D2E/DX2                !
 ! A35   A(5,15,40)            113.4031         estimate D2E/DX2                !
 ! A36   A(4,16,17)            107.0436         estimate D2E/DX2                !
 ! A37   A(4,16,18)            109.5096         estimate D2E/DX2                !
 ! A38   A(4,16,19)            114.8331         estimate D2E/DX2                !
 ! A39   A(17,16,18)           108.8286         estimate D2E/DX2                !
 ! A40   A(17,16,19)           105.755          estimate D2E/DX2                !
 ! A41   A(18,16,19)           110.605          estimate D2E/DX2                !
 ! A42   A(16,19,44)           113.9332         estimate D2E/DX2                !
 ! A43   A(12,20,21)           103.7877         estimate D2E/DX2                !
 ! A44   A(12,20,22)           109.1997         estimate D2E/DX2                !
 ! A45   A(12,20,23)           103.1015         estimate D2E/DX2                !
 ! A46   A(21,20,22)           121.4649         estimate D2E/DX2                !
 ! A47   A(21,20,23)           108.9855         estimate D2E/DX2                !
 ! A48   A(22,20,23)           108.7228         estimate D2E/DX2                !
 ! A49   A(20,23,24)           118.6779         estimate D2E/DX2                !
 ! A50   A(20,23,25)           118.7599         estimate D2E/DX2                !
 ! A51   A(24,23,25)           122.5038         estimate D2E/DX2                !
 ! A52   A(23,24,26)           118.2545         estimate D2E/DX2                !
 ! A53   A(23,24,27)           120.8183         estimate D2E/DX2                !
 ! A54   A(26,24,27)           120.9271         estimate D2E/DX2                !
 ! A55   A(23,25,28)           118.2065         estimate D2E/DX2                !
 ! A56   A(23,25,29)           120.7588         estimate D2E/DX2                !
 ! A57   A(28,25,29)           121.0339         estimate D2E/DX2                !
 ! A58   A(24,26,30)           120.5516         estimate D2E/DX2                !
 ! A59   A(24,26,48)           119.5892         estimate D2E/DX2                !
 ! A60   A(30,26,48)           119.8128         estimate D2E/DX2                !
 ! A61   A(25,28,30)           120.678          estimate D2E/DX2                !
 ! A62   A(25,28,52)           119.8437         estimate D2E/DX2                !
 ! A63   A(30,28,52)           119.3448         estimate D2E/DX2                !
 ! A64   A(26,30,28)           119.8042         estimate D2E/DX2                !
 ! A65   A(26,30,31)           120.0732         estimate D2E/DX2                !
 ! A66   A(28,30,31)           120.1214         estimate D2E/DX2                !
 ! A67   A(13,32,33)           111.987          estimate D2E/DX2                !
 ! A68   A(13,32,34)           111.021          estimate D2E/DX2                !
 ! A69   A(13,32,35)           106.183          estimate D2E/DX2                !
 ! A70   A(33,32,34)           109.1915         estimate D2E/DX2                !
 ! A71   A(33,32,35)           108.8803         estimate D2E/DX2                !
 ! A72   A(34,32,35)           109.4997         estimate D2E/DX2                !
 ! A73   A(14,36,37)           106.1028         estimate D2E/DX2                !
 ! A74   A(14,36,38)           111.0267         estimate D2E/DX2                !
 ! A75   A(14,36,39)           111.5589         estimate D2E/DX2                !
 ! A76   A(37,36,38)           109.0903         estimate D2E/DX2                !
 ! A77   A(37,36,39)           109.808          estimate D2E/DX2                !
 ! A78   A(38,36,39)           109.1894         estimate D2E/DX2                !
 ! A79   A(15,40,41)           106.239          estimate D2E/DX2                !
 ! A80   A(15,40,42)           111.0899         estimate D2E/DX2                !
 ! A81   A(15,40,43)           110.9475         estimate D2E/DX2                !
 ! A82   A(41,40,42)           109.6383         estimate D2E/DX2                !
 ! A83   A(41,40,43)           109.3499         estimate D2E/DX2                !
 ! A84   A(42,40,43)           109.5123         estimate D2E/DX2                !
 ! A85   A(19,44,45)           106.2508         estimate D2E/DX2                !
 ! A86   A(19,44,46)           110.8607         estimate D2E/DX2                !
 ! A87   A(19,44,47)           112.0438         estimate D2E/DX2                !
 ! A88   A(45,44,46)           109.4327         estimate D2E/DX2                !
 ! A89   A(45,44,47)           109.5245         estimate D2E/DX2                !
 ! A90   A(46,44,47)           108.6829         estimate D2E/DX2                !
 ! A91   A(26,48,49)           111.5585         estimate D2E/DX2                !
 ! A92   A(26,48,50)           111.1786         estimate D2E/DX2                !
 ! A93   A(26,48,51)           111.52           estimate D2E/DX2                !
 ! A94   A(49,48,50)           107.2613         estimate D2E/DX2                !
 ! A95   A(49,48,51)           107.8834         estimate D2E/DX2                !
 ! A96   A(50,48,51)           107.2171         estimate D2E/DX2                !
 ! A97   A(28,52,53)           110.8027         estimate D2E/DX2                !
 ! A98   A(28,52,54)           111.697          estimate D2E/DX2                !
 ! A99   A(28,52,55)           112.116          estimate D2E/DX2                !
 ! A100  A(53,52,54)           106.6955         estimate D2E/DX2                !
 ! A101  A(53,52,55)           107.1372         estimate D2E/DX2                !
 ! A102  A(54,52,55)           108.1276         estimate D2E/DX2                !
 ! D1    D(5,1,2,3)            -49.1942         estimate D2E/DX2                !
 ! D2    D(5,1,2,7)             66.4632         estimate D2E/DX2                !
 ! D3    D(5,1,2,13)          -173.9862         estimate D2E/DX2                !
 ! D4    D(8,1,2,3)             70.5917         estimate D2E/DX2                !
 ! D5    D(8,1,2,7)           -173.751          estimate D2E/DX2                !
 ! D6    D(8,1,2,13)           -54.2003         estimate D2E/DX2                !
 ! D7    D(14,1,2,3)          -167.4609         estimate D2E/DX2                !
 ! D8    D(14,1,2,7)           -51.8035         estimate D2E/DX2                !
 ! D9    D(14,1,2,13)           67.7471         estimate D2E/DX2                !
 ! D10   D(2,1,5,4)             50.9857         estimate D2E/DX2                !
 ! D11   D(2,1,5,10)           -68.967          estimate D2E/DX2                !
 ! D12   D(2,1,5,15)           169.7432         estimate D2E/DX2                !
 ! D13   D(8,1,5,4)            -69.3023         estimate D2E/DX2                !
 ! D14   D(8,1,5,10)           170.745          estimate D2E/DX2                !
 ! D15   D(8,1,5,15)            49.4551         estimate D2E/DX2                !
 ! D16   D(14,1,5,4)           171.4747         estimate D2E/DX2                !
 ! D17   D(14,1,5,10)           51.522          estimate D2E/DX2                !
 ! D18   D(14,1,5,15)          -69.7679         estimate D2E/DX2                !
 ! D19   D(2,1,14,36)          -94.9716         estimate D2E/DX2                !
 ! D20   D(5,1,14,36)          144.7513         estimate D2E/DX2                !
 ! D21   D(8,1,14,36)           26.5449         estimate D2E/DX2                !
 ! D22   D(1,2,3,6)            172.4498         estimate D2E/DX2                !
 ! D23   D(1,2,3,11)            52.0436         estimate D2E/DX2                !
 ! D24   D(1,2,3,12)           -70.3024         estimate D2E/DX2                !
 ! D25   D(7,2,3,6)             55.4083         estimate D2E/DX2                !
 ! D26   D(7,2,3,11)           -64.9979         estimate D2E/DX2                !
 ! D27   D(7,2,3,12)           172.6561         estimate D2E/DX2                !
 ! D28   D(13,2,3,6)           -65.0412         estimate D2E/DX2                !
 ! D29   D(13,2,3,11)          174.5526         estimate D2E/DX2                !
 ! D30   D(13,2,3,12)           52.2066         estimate D2E/DX2                !
 ! D31   D(1,2,13,32)         -163.4264         estimate D2E/DX2                !
 ! D32   D(3,2,13,32)           72.6204         estimate D2E/DX2                !
 ! D33   D(7,2,13,32)          -45.2464         estimate D2E/DX2                !
 ! D34   D(2,3,11,4)           -55.8749         estimate D2E/DX2                !
 ! D35   D(6,3,11,4)          -179.77           estimate D2E/DX2                !
 ! D36   D(12,3,11,4)           62.8805         estimate D2E/DX2                !
 ! D37   D(2,3,12,20)         -161.318          estimate D2E/DX2                !
 ! D38   D(6,3,12,20)          -40.9882         estimate D2E/DX2                !
 ! D39   D(11,3,12,20)          75.3746         estimate D2E/DX2                !
 ! D40   D(9,4,5,1)             66.4782         estimate D2E/DX2                !
 ! D41   D(9,4,5,10)          -173.331          estimate D2E/DX2                !
 ! D42   D(9,4,5,15)           -54.1795         estimate D2E/DX2                !
 ! D43   D(11,4,5,1)           -52.8801         estimate D2E/DX2                !
 ! D44   D(11,4,5,10)           67.3107         estimate D2E/DX2                !
 ! D45   D(11,4,5,15)         -173.5378         estimate D2E/DX2                !
 ! D46   D(16,4,5,1)          -173.733          estimate D2E/DX2                !
 ! D47   D(16,4,5,10)          -53.5421         estimate D2E/DX2                !
 ! D48   D(16,4,5,15)           65.6094         estimate D2E/DX2                !
 ! D49   D(5,4,11,3)            55.9082         estimate D2E/DX2                !
 ! D50   D(9,4,11,3)           -63.9574         estimate D2E/DX2                !
 ! D51   D(16,4,11,3)          179.3038         estimate D2E/DX2                !
 ! D52   D(5,4,16,17)          -70.5926         estimate D2E/DX2                !
 ! D53   D(5,4,16,18)          171.5844         estimate D2E/DX2                !
 ! D54   D(5,4,16,19)           46.4594         estimate D2E/DX2                !
 ! D55   D(9,4,16,17)           49.9453         estimate D2E/DX2                !
 ! D56   D(9,4,16,18)          -67.8777         estimate D2E/DX2                !
 ! D57   D(9,4,16,19)          166.9973         estimate D2E/DX2                !
 ! D58   D(11,4,16,17)         166.974          estimate D2E/DX2                !
 ! D59   D(11,4,16,18)          49.151          estimate D2E/DX2                !
 ! D60   D(11,4,16,19)         -75.974          estimate D2E/DX2                !
 ! D61   D(1,5,15,40)          106.6468         estimate D2E/DX2                !
 ! D62   D(4,5,15,40)         -131.323          estimate D2E/DX2                !
 ! D63   D(10,5,15,40)         -13.5867         estimate D2E/DX2                !
 ! D64   D(3,12,20,21)         168.2888         estimate D2E/DX2                !
 ! D65   D(3,12,20,22)          37.4015         estimate D2E/DX2                !
 ! D66   D(3,12,20,23)         -78.0676         estimate D2E/DX2                !
 ! D67   D(2,13,32,33)         -70.1503         estimate D2E/DX2                !
 ! D68   D(2,13,32,34)          52.1898         estimate D2E/DX2                !
 ! D69   D(2,13,32,35)         171.1287         estimate D2E/DX2                !
 ! D70   D(1,14,36,37)        -176.7087         estimate D2E/DX2                !
 ! D71   D(1,14,36,38)         -58.3057         estimate D2E/DX2                !
 ! D72   D(1,14,36,39)          63.7337         estimate D2E/DX2                !
 ! D73   D(5,15,40,41)         178.8155         estimate D2E/DX2                !
 ! D74   D(5,15,40,42)         -62.0075         estimate D2E/DX2                !
 ! D75   D(5,15,40,43)          60.063          estimate D2E/DX2                !
 ! D76   D(4,16,19,44)          79.3531         estimate D2E/DX2                !
 ! D77   D(17,16,19,44)       -162.8638         estimate D2E/DX2                !
 ! D78   D(18,16,19,44)        -45.1973         estimate D2E/DX2                !
 ! D79   D(16,19,44,45)        168.9695         estimate D2E/DX2                !
 ! D80   D(16,19,44,46)         50.1576         estimate D2E/DX2                !
 ! D81   D(16,19,44,47)        -71.4528         estimate D2E/DX2                !
 ! D82   D(12,20,23,24)        -79.7221         estimate D2E/DX2                !
 ! D83   D(12,20,23,25)         97.5693         estimate D2E/DX2                !
 ! D84   D(21,20,23,24)         30.0843         estimate D2E/DX2                !
 ! D85   D(21,20,23,25)       -152.6244         estimate D2E/DX2                !
 ! D86   D(22,20,23,24)        164.4674         estimate D2E/DX2                !
 ! D87   D(22,20,23,25)        -18.2413         estimate D2E/DX2                !
 ! D88   D(20,23,24,26)        177.6001         estimate D2E/DX2                !
 ! D89   D(20,23,24,27)         -2.2396         estimate D2E/DX2                !
 ! D90   D(25,23,24,26)          0.4158         estimate D2E/DX2                !
 ! D91   D(25,23,24,27)       -179.4239         estimate D2E/DX2                !
 ! D92   D(20,23,25,28)       -177.61           estimate D2E/DX2                !
 ! D93   D(20,23,25,29)          2.0656         estimate D2E/DX2                !
 ! D94   D(24,23,25,28)         -0.4278         estimate D2E/DX2                !
 ! D95   D(24,23,25,29)        179.2478         estimate D2E/DX2                !
 ! D96   D(23,24,26,30)         -0.2102         estimate D2E/DX2                !
 ! D97   D(23,24,26,48)        177.3079         estimate D2E/DX2                !
 ! D98   D(27,24,26,30)        179.6293         estimate D2E/DX2                !
 ! D99   D(27,24,26,48)         -2.8526         estimate D2E/DX2                !
 ! D100  D(23,25,28,30)          0.2348         estimate D2E/DX2                !
 ! D101  D(23,25,28,52)        176.0072         estimate D2E/DX2                !
 ! D102  D(29,25,28,30)       -179.4398         estimate D2E/DX2                !
 ! D103  D(29,25,28,52)         -3.6675         estimate D2E/DX2                !
 ! D104  D(24,26,30,28)          0.0328         estimate D2E/DX2                !
 ! D105  D(24,26,30,31)       -179.5847         estimate D2E/DX2                !
 ! D106  D(48,26,30,28)       -177.4797         estimate D2E/DX2                !
 ! D107  D(48,26,30,31)          2.9028         estimate D2E/DX2                !
 ! D108  D(24,26,48,49)         29.9823         estimate D2E/DX2                !
 ! D109  D(24,26,48,50)        -89.703          estimate D2E/DX2                !
 ! D110  D(24,26,48,51)        150.6936         estimate D2E/DX2                !
 ! D111  D(30,26,48,49)       -152.481          estimate D2E/DX2                !
 ! D112  D(30,26,48,50)         87.8337         estimate D2E/DX2                !
 ! D113  D(30,26,48,51)        -31.7698         estimate D2E/DX2                !
 ! D114  D(25,28,30,26)         -0.0455         estimate D2E/DX2                !
 ! D115  D(25,28,30,31)        179.5718         estimate D2E/DX2                !
 ! D116  D(52,28,30,26)       -175.8388         estimate D2E/DX2                !
 ! D117  D(52,28,30,31)          3.7785         estimate D2E/DX2                !
 ! D118  D(25,28,52,53)        -96.4512         estimate D2E/DX2                !
 ! D119  D(25,28,52,54)        144.738          estimate D2E/DX2                !
 ! D120  D(25,28,52,55)         23.1945         estimate D2E/DX2                !
 ! D121  D(30,28,52,53)         79.3777         estimate D2E/DX2                !
 ! D122  D(30,28,52,54)        -39.4331         estimate D2E/DX2                !
 ! D123  D(30,28,52,55)       -160.9766         estimate D2E/DX2                !
 --------------------------------------------------------------------------------
 Trust Radius=3.00D-01 FncErr=1.00D-07 GrdErr=1.00D-06 EigMax=2.50D+02 EigMin=1.00D-04
 Number of steps in this run=    291 maximum allowed number of steps=    330.
 GradGradGradGradGradGradGradGradGradGradGradGradGradGradGradGradGradGrad

 Leave Link  103 at Sat Jun 15 07:50:16 2019, MaxMem=  6442450944 cpu:               2.4 elap:               0.1
 (Enter /home/ekwan/sw/g16/l202.exe)
 Stoichiometry    C18H22F6O8S
 Framework group  C1[X(C18H22F6O8S)]
 Deg. of freedom   159
 Full point group                 C1      NOp   1
 Largest Abelian subgroup         C1      NOp   1
 Largest concise Abelian subgroup C1      NOp   1
                         Standard orientation:                         
 ---------------------------------------------------------------------
 Center     Atomic      Atomic             Coordinates (Angstroms)
 Number     Number       Type             X           Y           Z
 ---------------------------------------------------------------------
      1          6           0        3.390165    0.433077    0.603757
      2          6           0        3.342923   -0.503671   -0.621397
      3          6           0        1.883765   -0.883516   -0.985083
      4          6           0        0.991072    1.117680    0.041516
      5          6           0        2.403920    1.601567    0.422641
      6          1           0        1.818050   -1.439018   -1.928163
      7          1           0        3.735055    0.055238   -1.495465
      8          1           0        3.111163   -0.130513    1.512813
      9          1           0        0.557418    0.556715    0.888219
     10          1           0        2.775373    2.259144   -0.381191
     11          8           0        1.042741    0.228461   -1.126267
     12          8           0        1.426148   -1.784325    0.108014
     13          8           0        4.160384   -1.643140   -0.358681
     14          8           0        4.698712    1.006791    0.753571
     15          8           0        2.274479    2.332642    1.654034
     16          6           0        0.044413    2.282305   -0.290133
     17          1           0       -0.169857    2.802833    0.655033
     18          1           0       -0.900178    1.884367   -0.699751
     19          8           0        0.594932    3.275020   -1.164958
     20         16           0        0.093819   -2.748797   -0.199937
     21          8           0        0.079643   -3.703934    0.933347
     22          8           0        0.145310   -3.218221   -1.610226
     23          6           0       -1.294835   -1.600253   -0.019882
     24          6           0       -1.743906   -1.285290    1.269060
     25          6           0       -1.840715   -1.017151   -1.170571
     26          6           0       -2.788145   -0.353927    1.400704
     27          1           0       -1.292927   -1.748847    2.146246
     28          6           0       -2.882247   -0.090429   -1.014036
     29          1           0       -1.461614   -1.273796   -2.158135
     30          6           0       -3.358190    0.244279    0.265659
     31          1           0       -4.163168    0.970717    0.377166
     32          6           0        4.506155   -2.400404   -1.535010
     33          1           0        3.634368   -2.935169   -1.953925
     34          1           0        4.940654   -1.746380   -2.314545
     35          1           0        5.255517   -3.137658   -1.215296
     36          6           0        5.556577    0.292604    1.663528
     37          1           0        6.489295    0.873143    1.722808
     38          1           0        5.103275    0.231697    2.671779
     39          1           0        5.772809   -0.725632    1.301447
     40          6           0        2.934116    3.613185    1.631297
     41          1           0        2.743795    4.074791    2.611776
     42          1           0        4.020959    3.497302    1.480701
     43          1           0        2.517640    4.258410    0.835467
     44          6           0        0.581358    2.900130   -2.557054
     45          1           0        0.835541    3.808741   -3.123107
     46          1           0       -0.421676    2.546571   -2.859877
     47          1           0        1.317216    2.108860   -2.780003
     48          6           0       -3.338983   -0.036754    2.776501
     49          9           0       -2.383021   -0.172007    3.743552
     50          9           0       -4.368857   -0.877718    3.102891
     51          9           0       -3.823278    1.239926    2.840642
     52          6           0       -3.438098    0.629674   -2.224080
     53          9           0       -2.853574    1.869584   -2.367080
     54          9           0       -4.782213    0.840261   -2.112684
     55          9           0       -3.210687   -0.057351   -3.379566
 ---------------------------------------------------------------------
 Rotational constants (GHZ):           0.1476007           0.0838106           0.0823770
 Leave Link  202 at Sat Jun 15 07:50:16 2019, MaxMem=  6442450944 cpu:               4.9 elap:               0.2
 (Enter /home/ekwan/sw/g16/l301.exe)
 Standard basis: 6-31G(d) (6D, 7F)
 Centers:      12     22     21
 SP 1 1.00
     Exponent=  8.4500000000D-02 Coefficients=  1.0000000000D+00  1.0000000000D+00
 ****
 Ernie: Thresh=  0.10000D-02 Tol=  0.10000D-05 Strict=F.
 There are   555 symmetry adapted cartesian basis functions of A   symmetry.
 There are   555 symmetry adapted basis functions of A   symmetry.
   555 basis functions,  1048 primitive gaussians,   555 cartesian basis functions
   132 alpha electrons      132 beta electrons
       nuclear repulsion energy      4304.6576607003 Hartrees.
 IExCor=  402 DFT=T Ex=B Corr=LYP ExCW=0 ScaHFX=  0.000000
 ScaDFX=  1.000000  1.000000  1.000000  1.000000 ScalE2=  1.000000  1.000000
 IRadAn=      5 IRanWt=     -1 IRanGd=            0 ICorTp=0 IEmpDi=141
 NAtoms=   55 NActive=   55 NUniq=   55 SFac= 1.00D+00 NAtFMM=   60 NAOKFM=F Big=F
 Integral buffers will be    131072 words long.
 Raffenetti 2 integral format.
 Two-electron integral symmetry is turned on.
 R6Disp:  Grimme-D3(BJ) Dispersion energy=       -0.1456064033 Hartrees.
 Nuclear repulsion after empirical dispersion term =     4304.5120542970 Hartrees.
 ------------------------------------------------------------------------------
 Polarizable Continuum Model (PCM)
 =================================
 Model                : PCM.
 Atomic radii         : UFF (Universal Force Field).
 Polarization charges : Total charges.
 Charge compensation  : None.
 Solution method      : On-the-fly selection.
 Cavity type          : Scaled VdW (van der Waals Surface) (Alpha=1.100).
 Cavity algorithm     : GePol (No added spheres)
                        Default sphere list used, NSphG=   55.
                        Lebedev-Laikov grids with approx.  5.0 points / Ang**2.
                        Smoothing algorithm: York/Karplus (Gamma=1.0000).
                        Polarization charges: spherical gaussians, with
                                              point-specific exponents (IZeta= 3).
                        Self-potential: point-specific (ISelfS= 7).
                        Self-field    : sphere-specific E.n sum rule (ISelfD= 2).
 1st derivatives      : Analytical E(r).r(x)/FMM algorithm (CHGder, D1EAlg=3).
                        Cavity 1st derivative terms included.
 Solvent              : TetraHydroFuran, Eps=   7.425700 Eps(inf)=   1.974025
 ------------------------------------------------------------------------------
 GePol: Number of generator spheres                  =      55
 GePol: Total number of spheres                      =      55
 GePol: Number of exposed spheres                    =      55 (100.00%)
 GePol: Number of points                             =    3956
 GePol: Average weight of points                     =       0.13
 GePol: Minimum weight of points                     =   0.12D-11
 GePol: Maximum weight of points                     =    0.20577
 GePol: Number of points with low weight             =     231
 GePol: Fraction of low-weight points (<1% of avg)   =       5.84%
 GePol: Cavity surface area                          =    502.751 Ang**2
 GePol: Cavity volume                                =    584.459 Ang**3
 Leave Link  301 at Sat Jun 15 07:50:16 2019, MaxMem=  6442450944 cpu:               6.1 elap:               0.2
 (Enter /home/ekwan/sw/g16/l302.exe)
 NPDir=0 NMtPBC=     1 NCelOv=     1 NCel=       1 NClECP=     1 NCelD=      1
         NCelK=      1 NCelE2=     1 NClLst=     1 CellRange=     0.0.
 One-electron integrals computed using PRISM.
 One-electron integral symmetry used in STVInt
 NBasis=   555 RedAO= T EigKep=  4.39D-04  NBF=   555
 NBsUse=   555 1.00D-06 EigRej= -1.00D+00 NBFU=   555
 Precomputing XC quadrature grid using
 IXCGrd= 4 IRadAn=           5 IRanWt=          -1 IRanGd=           0 AccXCQ= 0.00D+00.
 Generated NRdTot=       0 NPtTot=           0 NUsed=           0 NTot=          32
 NSgBfM=   544   544   544   544   544 MxSgAt=    55 MxSgA2=    55.
 Leave Link  302 at Sat Jun 15 07:50:23 2019, MaxMem=  6442450944 cpu:             198.6 elap:               6.9
 (Enter /home/ekwan/sw/g16/l303.exe)
 DipDrv:  MaxL=1.
 Leave Link  303 at Sat Jun 15 07:50:24 2019, MaxMem=  6442450944 cpu:              11.4 elap:               0.4
 (Enter /home/ekwan/sw/g16/l401.exe)
 ExpMin= 8.45D-02 ExpMax= 2.19D+04 ExpMxC= 3.30D+03 IAcc=3 IRadAn=         5 AccDes= 0.00D+00
 Harris functional with IExCor=  402 and IRadAn=       5 diagonalized for initial guess.
 HarFok:  IExCor=  402 AccDes= 0.00D+00 IRadAn=         5 IDoV= 1 UseB2=F ITyADJ=14
 ICtDFT=  3500011 ScaDFX=  1.000000  1.000000  1.000000  1.000000
 FoFCou: FMM=F IPFlag=           0 FMFlag=      100000 FMFlg1=           0
         NFxFlg=           0 DoJE=T BraDBF=F KetDBF=T FulRan=T
         wScrn=  0.000000 ICntrl=       500 IOpCl=  0 I1Cent=   200000004 NGrid=           0
         NMat0=    1 NMatS0=      1 NMatT0=    0 NMatD0=    1 NMtDS0=    0 NMtDT0=    0
 Petite list used in FoFCou.
 Harris En= -2298.15769314679    
 JPrj=0 DoOrth=F DoCkMO=F.
 Leave Link  401 at Sat Jun 15 07:50:32 2019, MaxMem=  6442450944 cpu:             250.0 elap:               8.2
 (Enter /home/ekwan/sw/g16/l502.exe)
 Integral symmetry usage will be decided dynamically.
 Closed shell SCF:
 Using DIIS extrapolation, IDIIS=  1040.
 NGot=  6442450944 LenX=  6441811192 LenY=  6441502612
 Requested convergence on RMS density matrix=1.00D-08 within 128 cycles.
 Requested convergence on MAX density matrix=1.00D-06.
 Requested convergence on             energy=1.00D-06.
 No special actions if energy rises.
 Fock matrices will be formed incrementally for  20 cycles.

 Cycle   1  Pass 1  IDiag  1:
 FoFJK:  IHMeth= 1 ICntrl=     500 DoSepK=F KAlg= 0 I1Cent=           0 FoldK=F
 IRaf= 710000000 NMat=       1 IRICut=       1 DoRegI=T DoRafI=F ISym2E= 0 IDoP0=0 IntGTp=1.
 FoFCou: FMM=F IPFlag=           0 FMFlag=      100000 FMFlg1=           0
         NFxFlg=           0 DoJE=T BraDBF=F KetDBF=F FulRan=T
         wScrn=  0.000000 ICntrl=       500 IOpCl=  0 I1Cent=           0 NGrid=           0
         NMat0=    1 NMatS0=      1 NMatT0=    0 NMatD0=    1 NMtDS0=    0 NMtDT0=    0
 Symmetry not used in FoFCou.
 Inv3:  Mode=1 IEnd=    46949808.
 Iteration    1 A*A^-1 deviation from unit magnitude is 4.22D-15 for   3953.
 Iteration    1 A*A^-1 deviation from orthogonality  is 3.22D-15 for   3955   2493.
 Iteration    1 A^-1*A deviation from unit magnitude is 4.22D-15 for   3953.
 Iteration    1 A^-1*A deviation from orthogonality  is 2.88D-15 for   3940   2864.
 E= -2297.00518601730    
 DIIS: error= 2.14D-02 at cycle   1 NSaved=   1.
 NSaved= 1 IEnMin= 1 EnMin= -2297.00518601730     IErMin= 1 ErrMin= 2.14D-02
 ErrMax= 2.14D-02  0.00D+00 EMaxC= 1.00D-01 BMatC= 8.52D-01 BMatP= 8.52D-01
 IDIUse=3 WtCom= 7.86D-01 WtEn= 2.14D-01
 Coeff-Com:  0.100D+01
 Coeff-En:   0.100D+01
 Coeff:      0.100D+01
 Gap=     0.074 Goal=   None    Shift=    0.000
 GapD=    0.074 DampG=0.500 DampE=0.500 DampFc=0.2500 IDamp=-1.
 Damping current iteration by 2.50D-01
 RMSDP=5.68D-03 MaxDP=7.62D-01              OVMax= 2.64D-01

 Cycle   2  Pass 1  IDiag  1:
 RMSU=  1.42D-03    CP:  1.00D+00
 E= -2297.24454463081     Delta-E=       -0.239358613509 Rises=F Damp=T
 DIIS: error= 7.17D-03 at cycle   2 NSaved=   2.
 NSaved= 2 IEnMin= 2 EnMin= -2297.24454463081     IErMin= 2 ErrMin= 7.17D-03
 ErrMax= 7.17D-03  0.00D+00 EMaxC= 1.00D-01 BMatC= 9.50D-02 BMatP= 8.52D-01
 IDIUse=3 WtCom= 9.28D-01 WtEn= 7.17D-02
 Coeff-Com: -0.284D+00 0.128D+01
 Coeff-En:   0.628D-01 0.937D+00
 Coeff:     -0.259D+00 0.126D+01
 Gap=     0.130 Goal=   None    Shift=    0.000
 RMSDP=1.35D-03 MaxDP=6.44D-02 DE=-2.39D-01 OVMax= 2.35D-01

 Cycle   3  Pass 1  IDiag  1:
 RMSU=  1.35D-03    CP:  1.00D+00  9.76D-01
 E= -2297.57754824415     Delta-E=       -0.333003613340 Rises=F Damp=F
 DIIS: error= 1.29D-02 at cycle   3 NSaved=   3.
 NSaved= 3 IEnMin= 3 EnMin= -2297.57754824415     IErMin= 2 ErrMin= 7.17D-03
 ErrMax= 1.29D-02  0.00D+00 EMaxC= 1.00D-01 BMatC= 1.77D-01 BMatP= 9.50D-02
 IDIUse=2 WtCom= 0.00D+00 WtEn= 1.00D+00
 Coeff-En:   0.000D+00 0.000D+00 0.100D+01
 Coeff:      0.000D+00 0.000D+00 0.100D+01
 Gap=     0.078 Goal=   None    Shift=    0.000
 RMSDP=3.80D-03 MaxDP=2.84D-01 DE=-3.33D-01 OVMax= 3.54D-01

 Cycle   4  Pass 1  IDiag  1:
 RMSU=  1.70D-03    CP:  1.01D+00  2.38D+00 -1.04D+00
 E= -2296.20435107011     Delta-E=        1.373197174042 Rises=F Damp=F
 DIIS: error= 3.85D-02 at cycle   4 NSaved=   4.
 NSaved= 4 IEnMin= 3 EnMin= -2297.57754824415     IErMin= 2 ErrMin= 7.17D-03
 ErrMax= 3.85D-02  0.00D+00 EMaxC= 1.00D-01 BMatC= 1.85D+00 BMatP= 9.50D-02
 IDIUse=2 WtCom= 0.00D+00 WtEn= 1.00D+00
 Coeff-En:   0.000D+00 0.000D+00 0.848D+00 0.152D+00
 Coeff:      0.000D+00 0.000D+00 0.848D+00 0.152D+00
 Gap=     0.130 Goal=   None    Shift=    0.000
 RMSDP=2.39D-03 MaxDP=1.95D-01 DE= 1.37D+00 OVMax= 2.41D-01

 Cycle   5  Pass 1  IDiag  1:
 RMSU=  5.34D-04    CP:  1.01D+00  1.36D+00  1.58D-02  3.29D-01
 E= -2297.58759898546     Delta-E=       -1.383247915348 Rises=F Damp=F
 DIIS: error= 1.25D-02 at cycle   5 NSaved=   5.
 NSaved= 5 IEnMin= 5 EnMin= -2297.58759898546     IErMin= 2 ErrMin= 7.17D-03
 ErrMax= 1.25D-02  0.00D+00 EMaxC= 1.00D-01 BMatC= 1.75D-01 BMatP= 9.50D-02
 IDIUse=2 WtCom= 0.00D+00 WtEn= 1.00D+00
 Coeff-En:   0.000D+00 0.000D+00 0.488D+00 0.000D+00 0.512D+00
 Coeff:      0.000D+00 0.000D+00 0.488D+00 0.000D+00 0.512D+00
 Gap=     0.100 Goal=   None    Shift=    0.000
 RMSDP=8.58D-04 MaxDP=5.63D-02 DE=-1.38D+00 OVMax= 7.52D-02

 Cycle   6  Pass 1  IDiag  1:
 RMSU=  1.50D-04    CP:  1.00D+00  1.14D+00  4.98D-01  1.12D-01  5.90D-01
 E= -2297.73161572956     Delta-E=       -0.144016744106 Rises=F Damp=F
 DIIS: error= 1.64D-03 at cycle   6 NSaved=   6.
 NSaved= 6 IEnMin= 6 EnMin= -2297.73161572956     IErMin= 6 ErrMin= 1.64D-03
 ErrMax= 1.64D-03  0.00D+00 EMaxC= 1.00D-01 BMatC= 3.48D-03 BMatP= 9.50D-02
 IDIUse=3 WtCom= 9.84D-01 WtEn= 1.64D-02
 Coeff-Com: -0.242D-01 0.561D-01 0.261D+00-0.449D-01 0.403D+00 0.350D+00
 Coeff-En:   0.000D+00 0.000D+00 0.000D+00 0.000D+00 0.000D+00 0.100D+01
 Coeff:     -0.238D-01 0.551D-01 0.256D+00-0.442D-01 0.396D+00 0.360D+00
 Gap=     0.100 Goal=   None    Shift=    0.000
 RMSDP=1.28D-04 MaxDP=1.17D-02 DE=-1.44D-01 OVMax= 1.29D-02

 Cycle   7  Pass 1  IDiag  1:
 RMSU=  6.55D-05    CP:  1.00D+00  1.16D+00  4.81D-01  1.34D-01  6.52D-01
                    CP:  3.97D-01
 E= -2297.73386328939     Delta-E=       -0.002247559823 Rises=F Damp=F
 DIIS: error= 6.64D-04 at cycle   7 NSaved=   7.
 NSaved= 7 IEnMin= 7 EnMin= -2297.73386328939     IErMin= 7 ErrMin= 6.64D-04
 ErrMax= 6.64D-04  0.00D+00 EMaxC= 1.00D-01 BMatC= 5.94D-04 BMatP= 3.48D-03
 IDIUse=3 WtCom= 9.93D-01 WtEn= 6.64D-03
 Coeff-Com: -0.138D-01 0.282D-01 0.118D+00-0.280D-01 0.198D+00 0.252D+00
 Coeff-Com:  0.446D+00
 Coeff-En:   0.000D+00 0.000D+00 0.000D+00 0.000D+00 0.000D+00 0.182D+00
 Coeff-En:   0.818D+00
 Coeff:     -0.137D-01 0.280D-01 0.117D+00-0.278D-01 0.197D+00 0.252D+00
 Coeff:      0.448D+00
 Gap=     0.100 Goal=   None    Shift=    0.000
 RMSDP=4.37D-05 MaxDP=2.77D-03 DE=-2.25D-03 OVMax= 5.24D-03

 Cycle   8  Pass 1  IDiag  1:
 RMSU=  2.17D-05    CP:  1.00D+00  1.15D+00  4.87D-01  1.29D-01  6.54D-01
                    CP:  4.64D-01  4.96D-01
 E= -2297.73431649840     Delta-E=       -0.000453209015 Rises=F Damp=F
 DIIS: error= 1.36D-04 at cycle   8 NSaved=   8.
 NSaved= 8 IEnMin= 8 EnMin= -2297.73431649840     IErMin= 8 ErrMin= 1.36D-04
 ErrMax= 1.36D-04  0.00D+00 EMaxC= 1.00D-01 BMatC= 4.42D-05 BMatP= 5.94D-04
 IDIUse=3 WtCom= 9.99D-01 WtEn= 1.36D-03
 Coeff-Com: -0.148D-02 0.281D-02 0.265D-01-0.617D-02 0.384D-01 0.997D-01
 Coeff-Com:  0.235D+00 0.605D+00
 Coeff-En:   0.000D+00 0.000D+00 0.000D+00 0.000D+00 0.000D+00 0.000D+00
 Coeff-En:   0.000D+00 0.100D+01
 Coeff:     -0.148D-02 0.281D-02 0.265D-01-0.616D-02 0.383D-01 0.996D-01
 Coeff:      0.235D+00 0.606D+00
 Gap=     0.100 Goal=   None    Shift=    0.000
 RMSDP=1.48D-05 MaxDP=7.37D-04 DE=-4.53D-04 OVMax= 1.49D-03

 Cycle   9  Pass 1  IDiag  1:
 RMSU=  8.41D-06    CP:  1.00D+00  1.15D+00  4.90D-01  1.28D-01  6.47D-01
                    CP:  4.72D-01  5.55D-01  5.80D-01
 E= -2297.73434733076     Delta-E=       -0.000030832360 Rises=F Damp=F
 DIIS: error= 6.31D-05 at cycle   9 NSaved=   9.
 NSaved= 9 IEnMin= 9 EnMin= -2297.73434733076     IErMin= 9 ErrMin= 6.31D-05
 ErrMax= 6.31D-05  0.00D+00 EMaxC= 1.00D-01 BMatC= 7.99D-06 BMatP= 4.42D-05
 IDIUse=1 WtCom= 1.00D+00 WtEn= 0.00D+00
 Coeff-Com:  0.767D-03-0.166D-02 0.666D-02-0.118D-02 0.587D-02 0.461D-01
 Coeff-Com:  0.112D+00 0.405D+00 0.426D+00
 Coeff:      0.767D-03-0.166D-02 0.666D-02-0.118D-02 0.587D-02 0.461D-01
 Coeff:      0.112D+00 0.405D+00 0.426D+00
 Gap=     0.100 Goal=   None    Shift=    0.000
 RMSDP=5.76D-06 MaxDP=3.29D-04 DE=-3.08D-05 OVMax= 4.61D-04

 Cycle  10  Pass 1  IDiag  1:
 RMSU=  2.47D-06    CP:  1.00D+00  1.15D+00  4.91D-01  1.28D-01  6.46D-01
                    CP:  4.77D-01  5.49D-01  6.45D-01  4.52D-01
 E= -2297.73435353663     Delta-E=       -0.000006205869 Rises=F Damp=F
 DIIS: error= 2.13D-05 at cycle  10 NSaved=  10.
 NSaved=10 IEnMin=10 EnMin= -2297.73435353663     IErMin=10 ErrMin= 2.13D-05
 ErrMax= 2.13D-05  0.00D+00 EMaxC= 1.00D-01 BMatC= 5.76D-07 BMatP= 7.99D-06
 IDIUse=1 WtCom= 1.00D+00 WtEn= 0.00D+00
 Coeff-Com:  0.489D-03-0.795D-03 0.221D-02-0.286D-03 0.457D-03 0.193D-01
 Coeff-Com:  0.487D-01 0.204D+00 0.267D+00 0.459D+00
 Coeff:      0.489D-03-0.795D-03 0.221D-02-0.286D-03 0.457D-03 0.193D-01
 Coeff:      0.487D-01 0.204D+00 0.267D+00 0.459D+00
 Gap=     0.100 Goal=   None    Shift=    0.000
 RMSDP=1.77D-06 MaxDP=1.13D-04 DE=-6.21D-06 OVMax= 1.69D-04

 Cycle  11  Pass 1  IDiag  1:
 RMSU=  1.03D-06    CP:  1.00D+00  1.15D+00  4.91D-01  1.28D-01  6.46D-01
                    CP:  4.78D-01  5.49D-01  6.52D-01  4.93D-01  4.45D-01
 E= -2297.73435394676     Delta-E=       -0.000000410126 Rises=F Damp=F
 DIIS: error= 6.83D-06 at cycle  11 NSaved=  11.
 NSaved=11 IEnMin=11 EnMin= -2297.73435394676     IErMin=11 ErrMin= 6.83D-06
 ErrMax= 6.83D-06  0.00D+00 EMaxC= 1.00D-01 BMatC= 8.08D-08 BMatP= 5.76D-07
 IDIUse=1 WtCom= 1.00D+00 WtEn= 0.00D+00
 Coeff-Com:  0.264D-03-0.388D-03 0.853D-03-0.968D-04-0.176D-03 0.813D-02
 Coeff-Com:  0.205D-01 0.936D-01 0.134D+00 0.324D+00 0.419D+00
 Coeff:      0.264D-03-0.388D-03 0.853D-03-0.968D-04-0.176D-03 0.813D-02
 Coeff:      0.205D-01 0.936D-01 0.134D+00 0.324D+00 0.419D+00
 Gap=     0.100 Goal=   None    Shift=    0.000
 RMSDP=5.93D-07 MaxDP=3.67D-05 DE=-4.10D-07 OVMax= 5.78D-05

 Cycle  12  Pass 1  IDiag  1:
 RMSU=  2.76D-07    CP:  1.00D+00  1.15D+00  4.91D-01  1.27D-01  6.46D-01
                    CP:  4.78D-01  5.50D-01  6.54D-01  4.86D-01  4.93D-01
                    CP:  5.20D-01
 E= -2297.73435401435     Delta-E=       -0.000000067595 Rises=F Damp=F
 DIIS: error= 1.74D-06 at cycle  12 NSaved=  12.
 NSaved=12 IEnMin=12 EnMin= -2297.73435401435     IErMin=12 ErrMin= 1.74D-06
 ErrMax= 1.74D-06  0.00D+00 EMaxC= 1.00D-01 BMatC= 6.63D-09 BMatP= 8.08D-08
 IDIUse=1 WtCom= 1.00D+00 WtEn= 0.00D+00
 Coeff-Com:  0.135D-03-0.192D-03 0.224D-03-0.480D-05-0.328D-03 0.292D-02
 Coeff-Com:  0.733D-02 0.375D-01 0.564D-01 0.160D+00 0.264D+00 0.472D+00
 Coeff:      0.135D-03-0.192D-03 0.224D-03-0.480D-05-0.328D-03 0.292D-02
 Coeff:      0.733D-02 0.375D-01 0.564D-01 0.160D+00 0.264D+00 0.472D+00
 Gap=     0.100 Goal=   None    Shift=    0.000
 RMSDP=1.82D-07 MaxDP=1.54D-05 DE=-6.76D-08 OVMax= 1.81D-05

 Cycle  13  Pass 1  IDiag  1:
 RMSU=  1.14D-07    CP:  1.00D+00  1.15D+00  4.91D-01  1.27D-01  6.46D-01
                    CP:  4.78D-01  5.50D-01  6.53D-01  4.88D-01  5.10D-01
                    CP:  5.48D-01  5.35D-01
 E= -2297.73435401898     Delta-E=       -0.000000004632 Rises=F Damp=F
 DIIS: error= 1.05D-06 at cycle  13 NSaved=  13.
 NSaved=13 IEnMin=13 EnMin= -2297.73435401898     IErMin=13 ErrMin= 1.05D-06
 ErrMax= 1.05D-06  0.00D+00 EMaxC= 1.00D-01 BMatC= 8.23D-10 BMatP= 6.63D-09
 IDIUse=1 WtCom= 1.00D+00 WtEn= 0.00D+00
 Coeff-Com:  0.489D-04-0.649D-04 0.564D-04 0.280D-05-0.122D-03 0.784D-03
 Coeff-Com:  0.177D-02 0.103D-01 0.164D-01 0.566D-01 0.107D+00 0.306D+00
 Coeff-Com:  0.501D+00
 Coeff:      0.489D-04-0.649D-04 0.564D-04 0.280D-05-0.122D-03 0.784D-03
 Coeff:      0.177D-02 0.103D-01 0.164D-01 0.566D-01 0.107D+00 0.306D+00
 Coeff:      0.501D+00
 Gap=     0.100 Goal=   None    Shift=    0.000
 RMSDP=6.51D-08 MaxDP=3.20D-06 DE=-4.63D-09 OVMax= 8.31D-06

 Cycle  14  Pass 1  IDiag  1:
 RMSU=  2.81D-08    CP:  1.00D+00  1.15D+00  4.91D-01  1.27D-01  6.46D-01
                    CP:  4.78D-01  5.49D-01  6.54D-01  4.89D-01  5.12D-01
                    CP:  5.38D-01  5.92D-01  5.49D-01
 E= -2297.73435401966     Delta-E=       -0.000000000674 Rises=F Damp=F
 DIIS: error= 2.27D-07 at cycle  14 NSaved=  14.
 NSaved=14 IEnMin=14 EnMin= -2297.73435401966     IErMin=14 ErrMin= 2.27D-07
 ErrMax= 2.27D-07  0.00D+00 EMaxC= 1.00D-01 BMatC= 5.85D-11 BMatP= 8.23D-10
 IDIUse=1 WtCom= 1.00D+00 WtEn= 0.00D+00
 Coeff-Com:  0.219D-04-0.279D-04 0.219D-04 0.163D-05-0.494D-04 0.279D-03
 Coeff-Com:  0.569D-03 0.376D-02 0.622D-02 0.239D-01 0.483D-01 0.156D+00
 Coeff-Com:  0.301D+00 0.460D+00
 Coeff:      0.219D-04-0.279D-04 0.219D-04 0.163D-05-0.494D-04 0.279D-03
 Coeff:      0.569D-03 0.376D-02 0.622D-02 0.239D-01 0.483D-01 0.156D+00
 Coeff:      0.301D+00 0.460D+00
 Gap=     0.100 Goal=   None    Shift=    0.000
 RMSDP=1.91D-08 MaxDP=1.89D-06 DE=-6.74D-10 OVMax= 3.15D-06

 Cycle  15  Pass 1  IDiag  1:
 RMSU=  1.22D-08    CP:  1.00D+00  1.15D+00  4.91D-01  1.27D-01  6.46D-01
                    CP:  4.78D-01  5.49D-01  6.54D-01  4.88D-01  5.12D-01
                    CP:  5.42D-01  5.98D-01  5.59D-01  5.44D-01
 E= -2297.73435401968     Delta-E=       -0.000000000019 Rises=F Damp=F
 DIIS: error= 1.02D-07 at cycle  15 NSaved=  15.
 NSaved=15 IEnMin=15 EnMin= -2297.73435401968     IErMin=15 ErrMin= 1.02D-07
 ErrMax= 1.02D-07  0.00D+00 EMaxC= 1.00D-01 BMatC= 1.08D-11 BMatP= 5.85D-11
 IDIUse=1 WtCom= 1.00D+00 WtEn= 0.00D+00
 Coeff-Com:  0.642D-05-0.734D-05 0.533D-05 0.204D-06-0.110D-04 0.413D-04
 Coeff-Com:  0.630D-04 0.688D-03 0.127D-02 0.583D-02 0.137D-01 0.492D-01
 Coeff-Com:  0.110D+00 0.302D+00 0.517D+00
 Coeff:      0.642D-05-0.734D-05 0.533D-05 0.204D-06-0.110D-04 0.413D-04
 Coeff:      0.630D-04 0.688D-03 0.127D-02 0.583D-02 0.137D-01 0.492D-01
 Coeff:      0.110D+00 0.302D+00 0.517D+00
 Gap=     0.100 Goal=   None    Shift=    0.000
 RMSDP=7.13D-09 MaxDP=4.50D-07 DE=-1.91D-11 OVMax= 1.14D-06

 Error on total polarization charges =  0.01135
 SCF Done:  E(RB-LYP) =  -2297.73435402     A.U. after   15 cycles
            NFock= 15  Conv=0.71D-08     -V/T= 2.0077
 KE= 2.280107167757D+03 PE=-1.401584498213D+04 EE= 5.133491406053D+03
 Leave Link  502 at Sat Jun 15 07:55:01 2019, MaxMem=  6442450944 cpu:            8081.9 elap:             269.4
 (Enter /home/ekwan/sw/g16/l701.exe)
 ... and contract with generalized density number  0.
 Compute integral first derivatives.
 R6Disp: Adding Grimme-D3(BJ) dispersion energy 1st derivatives to the gradient.
 D1PCM: PCM CHGder 1st derivatives, ID1Alg=3 FixD1E=F DoIter=F DoCFld=F I1PDM=0.
 GePol: Maximum number of non-zero 1st derivatives   =     219
 Leave Link  701 at Sat Jun 15 07:55:12 2019, MaxMem=  6442450944 cpu:             305.1 elap:              10.6
 (Enter /home/ekwan/sw/g16/l702.exe)
 L702 exits ... SP integral derivatives will be done elsewhere.
 Leave Link  702 at Sat Jun 15 07:55:12 2019, MaxMem=  6442450944 cpu:               2.5 elap:               0.1
 (Enter /home/ekwan/sw/g16/l703.exe)
 Integral derivatives from FoFJK, PRISM(SPDF).
 Compute integral first derivatives, UseDBF=F ICtDFT=           0.
 Calling FoFJK, ICntrl=      2527 FMM=F ISym2X=0 I1Cent= 0 IOpClX= 0 NMat=1 NMatS=1 NMatT=0.
 FoFJK:  IHMeth= 1 ICntrl=    2527 DoSepK=F KAlg= 0 I1Cent=           0 FoldK=F
 IRaf=         0 NMat=       1 IRICut=       1 DoRegI=T DoRafI=F ISym2E= 0 IDoP0=0 IntGTp=1.
 FoFCou: FMM=F IPFlag=           0 FMFlag=      100000 FMFlg1=         800
         NFxFlg=           0 DoJE=F BraDBF=F KetDBF=F FulRan=T
         wScrn=  0.000000 ICntrl=      2527 IOpCl=  0 I1Cent=           0 NGrid=           0
         NMat0=    1 NMatS0=      1 NMatT0=    0 NMatD0=    1 NMtDS0=    0 NMtDT0=    0
 Symmetry not used in FoFCou.
 Leave Link  703 at Sat Jun 15 07:55:57 2019, MaxMem=  6442450944 cpu:            1309.8 elap:              45.0
 (Enter /home/ekwan/sw/g16/l716.exe)
 Dipole        = 2.34056617D-01 1.36707461D+00-7.92557169D-01
 ***** Axes restored to original set *****
 -------------------------------------------------------------------
 Center     Atomic                   Forces (Hartrees/Bohr)
 Number     Number              X              Y              Z
 -------------------------------------------------------------------
      1        6           0.000001499   -0.000001045   -0.000001153
      2        6          -0.000001632   -0.000000434   -0.000002695
      3        6          -0.000000472   -0.000003407    0.000002372
      4        6           0.000000521   -0.000000726   -0.000000430
      5        6           0.000000388   -0.000000737   -0.000000385
      6        1          -0.000001194    0.000000026   -0.000001007
      7        1          -0.000000731   -0.000001062   -0.000000806
      8        1           0.000000439   -0.000001260   -0.000000996
      9        1           0.000000554    0.000000087    0.000000211
     10        1           0.000000629   -0.000000838   -0.000000369
     11        8          -0.000000919    0.000001842   -0.000000077
     12        8           0.000000422    0.000003185   -0.000002576
     13        8          -0.000000382   -0.000002406   -0.000001924
     14        8           0.000000203   -0.000002297   -0.000001316
     15        8           0.000001435   -0.000000519   -0.000000438
     16        6           0.000000115    0.000000582    0.000000822
     17        1           0.000001242    0.000000323    0.000001381
     18        1           0.000000539    0.000000806    0.000001131
     19        8           0.000001330    0.000000092    0.000000360
     20       16          -0.000002433    0.000000975   -0.000000767
     21        8          -0.000001236   -0.000001396    0.000000605
     22        8          -0.000002197    0.000000067   -0.000001928
     23        6          -0.000000888    0.000001311    0.000000496
     24        6           0.000000439    0.000001508    0.000000631
     25        6          -0.000000817    0.000000586    0.000000329
     26        6           0.000001132    0.000000061    0.000000901
     27        1          -0.000000223    0.000000249    0.000000341
     28        6          -0.000000346    0.000001779    0.000001994
     29        1          -0.000001748    0.000001603    0.000000682
     30        6          -0.000000046    0.000001351    0.000001885
     31        1           0.000000244    0.000002254    0.000002199
     32        6          -0.000002146   -0.000000742   -0.000001958
     33        1          -0.000002070   -0.000000491   -0.000002170
     34        1          -0.000001825   -0.000001245   -0.000002273
     35        1          -0.000002011   -0.000001702   -0.000002669
     36        6           0.000000747   -0.000002715   -0.000002069
     37        1           0.000001025   -0.000002474   -0.000002090
     38        1           0.000001234   -0.000002764   -0.000002333
     39        1           0.000000045   -0.000002442   -0.000002375
     40        6           0.000002280   -0.000001457    0.000000088
     41        1           0.000002740   -0.000001493    0.000000138
     42        1           0.000001730   -0.000001824   -0.000000573
     43        1           0.000002205   -0.000001224    0.000000483
     44        6           0.000000291    0.000000430    0.000001576
     45        1           0.000000141    0.000000780    0.000000675
     46        1          -0.000000411    0.000001211    0.000000784
     47        1          -0.000000556    0.000000579    0.000000323
     48        6           0.000002390    0.000000813    0.000003240
     49        9           0.000000516    0.000000515    0.000000566
     50        9           0.000000109    0.000001739    0.000001722
     51        9           0.000001625    0.000001509    0.000001999
     52        6          -0.000001548    0.000001938   -0.000000062
     53        9          -0.000000386    0.000002521    0.000002253
     54        9          -0.000000445    0.000002677    0.000002611
     55        9          -0.000001545    0.000003300    0.000002642
 -------------------------------------------------------------------
 Cartesian Forces:  Max     0.000003407 RMS     0.000001486
 Leave Link  716 at Sat Jun 15 07:55:57 2019, MaxMem=  6442450944 cpu:               2.6 elap:               0.1
 (Enter /home/ekwan/sw/g16/l103.exe)

 GradGradGradGradGradGradGradGradGradGradGradGradGradGradGradGradGradGrad
 Berny optimization.
 FormGI is forming the generalized inverse of G from B-inverse, IUseBI=4.
 GSVD:  received Info=                   1 from GESDD.
 Internal  Forces:  Max     0.000002982 RMS     0.000000409
 Search for a local minimum.
 Step number   1 out of a maximum of  291
 All quantities printed in internal units (Hartrees-Bohrs-Radians)
 RMS Force = .40883D-06 SwitMx=.10000D-02 MixMth= 2
 Mixed Optimization -- En-DIIS/RFO-DIIS
 Second derivative matrix not updated -- first step.
 ITU=  0
     Eigenvalues ---    0.00230   0.00276   0.00455   0.00490   0.00521
     Eigenvalues ---    0.00560   0.00583   0.01139   0.01148   0.01154
     Eigenvalues ---    0.01161   0.01190   0.01207   0.01207   0.01253
     Eigenvalues ---    0.01338   0.01360   0.01450   0.01485   0.01649
     Eigenvalues ---    0.02023   0.02026   0.02039   0.02048   0.02064
     Eigenvalues ---    0.02074   0.02755   0.03132   0.04287   0.04421
     Eigenvalues ---    0.04522   0.04686   0.04764   0.05117   0.05156
     Eigenvalues ---    0.05641   0.05913   0.06494   0.06933   0.06975
     Eigenvalues ---    0.07117   0.07703   0.09144   0.09916   0.09942
     Eigenvalues ---    0.09970   0.10015   0.10497   0.10518   0.10536
     Eigenvalues ---    0.10539   0.10545   0.10606   0.10637   0.10743
     Eigenvalues ---    0.10874   0.10955   0.11470   0.11725   0.11783
     Eigenvalues ---    0.14103   0.14848   0.16000   0.16000   0.16000
     Eigenvalues ---    0.16000   0.16000   0.16000   0.16000   0.16000
     Eigenvalues ---    0.16000   0.16000   0.16000   0.16000   0.16000
     Eigenvalues ---    0.16000   0.16000   0.16414   0.16643   0.17484
     Eigenvalues ---    0.18608   0.19654   0.19676   0.20621   0.22152
     Eigenvalues ---    0.23467   0.23483   0.23494   0.24931   0.24971
     Eigenvalues ---    0.24977   0.25000   0.25000   0.25000   0.25000
     Eigenvalues ---    0.25000   0.25000   0.25000   0.25000   0.25000
     Eigenvalues ---    0.25000   0.25000   0.25000   0.25265   0.26245
     Eigenvalues ---    0.27550   0.27870   0.28089   0.28782   0.30801
     Eigenvalues ---    0.30967   0.32694   0.32905   0.32980   0.33033
     Eigenvalues ---    0.33049   0.33094   0.33113   0.33203   0.33264
     Eigenvalues ---    0.33317   0.33318   0.33356   0.33449   0.33611
     Eigenvalues ---    0.33650   0.33652   0.33657   0.33672   0.33818
     Eigenvalues ---    0.34073   0.34803   0.34811   0.34833   0.34985
     Eigenvalues ---    0.39297   0.39346   0.39436   0.39499   0.39566
     Eigenvalues ---    0.39875   0.40052   0.40542   0.41234   0.41327
     Eigenvalues ---    0.41458   0.43665   0.44779   0.44982   0.45201
     Eigenvalues ---    0.45423   0.49429   0.51153   0.51566   0.51654
     Eigenvalues ---    0.51937   0.52266   0.81057   0.82899
 RFO step:  Lambda= 0.00000000D+00 EMin= 2.30000000D-03
 Linear search not attempted -- first point.
 Iteration  1 RMS(Cart)=  0.00012807 RMS(Int)=  0.00000000
 Iteration  2 RMS(Cart)=  0.00000000 RMS(Int)=  0.00000000
 ITry= 1 IFail=0 DXMaxC= 6.99D-04 DCOld= 1.00D+10 DXMaxT= 3.00D-01 DXLimC= 3.00D+00 Rises=F
 Variable       Old X    -DE/DX   Delta X   Delta X   Delta X     New X
                                 (Linear)    (Quad)   (Total)
    R1        2.91578   0.00000   0.00000   0.00000   0.00000   2.91577
    R2        2.90972   0.00000   0.00000   0.00000   0.00000   2.90972
    R3        2.08886   0.00000   0.00000   0.00000   0.00000   2.08886
    R4        2.71483   0.00000   0.00000   0.00000   0.00000   2.71482
    R5        2.93102   0.00000   0.00000   0.00000   0.00000   2.93102
    R6        2.09593   0.00000   0.00000   0.00000   0.00000   2.09593
    R7        2.69619   0.00000   0.00000   0.00000   0.00000   2.69619
    R8        2.07207   0.00000   0.00000   0.00000   0.00000   2.07208
    R9        2.64814   0.00000   0.00000   0.00000   0.00000   2.64815
   R10        2.81292   0.00000   0.00000  -0.00001  -0.00001   2.81291
   R11        2.91260   0.00000   0.00000   0.00000   0.00000   2.91260
   R12        2.08697   0.00000   0.00000   0.00000   0.00000   2.08697
   R13        2.77545   0.00000   0.00000   0.00000   0.00000   2.77545
   R14        2.90459   0.00000   0.00000   0.00000   0.00000   2.90459
   R15        2.08430   0.00000   0.00000   0.00000   0.00000   2.08430
   R16        2.71724   0.00000   0.00000   0.00000   0.00000   2.71724
   R17        3.16220   0.00000   0.00000   0.00000   0.00000   3.16220
   R18        2.72328   0.00000   0.00000   0.00000   0.00000   2.72327
   R19        2.72148   0.00000   0.00000   0.00000   0.00000   2.72148
   R20        2.72241   0.00000   0.00000   0.00000   0.00000   2.72240
   R21        2.07887   0.00000   0.00000   0.00000   0.00000   2.07887
   R22        2.08590   0.00000   0.00000   0.00000   0.00000   2.08590
   R23        2.70823   0.00000   0.00000   0.00000   0.00000   2.70823
   R24        2.72452   0.00000   0.00000   0.00000   0.00000   2.72452
   R25        2.80089   0.00000   0.00000   0.00000   0.00000   2.80089
   R26        2.81050   0.00000   0.00000   0.00000   0.00000   2.81051
   R27        3.42240   0.00000   0.00000   0.00000   0.00000   3.42240
   R28        2.64713   0.00000   0.00000   0.00000   0.00000   2.64713
   R29        2.64702   0.00000   0.00000   0.00000   0.00000   2.64702
   R30        2.65586   0.00000   0.00000   0.00000   0.00000   2.65586
   R31        2.05947   0.00000   0.00000   0.00000   0.00000   2.05947
   R32        2.65108   0.00000   0.00000   0.00000   0.00000   2.65108
   R33        2.05700   0.00000   0.00000   0.00000   0.00000   2.05700
   R34        2.65312   0.00000   0.00000   0.00000   0.00000   2.65312
   R35        2.86394   0.00000   0.00000   0.00000   0.00000   2.86394
   R36        2.65651   0.00000   0.00000   0.00000   0.00000   2.65651
   R37        2.86075   0.00000   0.00000   0.00000   0.00000   2.86075
   R38        2.05983   0.00000   0.00000   0.00000   0.00000   2.05983
   R39        2.08853   0.00000   0.00000   0.00000   0.00000   2.08853
   R40        2.09087   0.00000   0.00000   0.00000   0.00000   2.09087
   R41        2.07638   0.00000   0.00000   0.00000   0.00000   2.07638
   R42        2.07913   0.00000   0.00000   0.00000   0.00000   2.07913
   R43        2.09219   0.00000   0.00000   0.00000   0.00000   2.09219
   R44        2.08270   0.00000   0.00000   0.00000   0.00000   2.08270
   R45        2.07925   0.00000   0.00000   0.00000   0.00000   2.07925
   R46        2.08499   0.00000   0.00000   0.00000   0.00000   2.08499
   R47        2.08993   0.00000   0.00000   0.00000   0.00000   2.08993
   R48        2.07921   0.00000   0.00000   0.00000   0.00000   2.07921
   R49        2.08965   0.00000   0.00000   0.00000   0.00000   2.08965
   R50        2.08496   0.00000   0.00000   0.00000   0.00000   2.08496
   R51        2.58233   0.00000   0.00000   0.00000   0.00000   2.58232
   R52        2.58719   0.00000   0.00000   0.00000   0.00000   2.58719
   R53        2.58317   0.00000   0.00000   0.00000   0.00000   2.58317
   R54        2.60446   0.00000   0.00000   0.00000   0.00000   2.60446
   R55        2.57960   0.00000   0.00000   0.00000   0.00000   2.57960
   R56        2.57646   0.00000   0.00000   0.00000   0.00000   2.57646
    A1        1.92593   0.00000   0.00000   0.00000   0.00000   1.92593
    A2        1.91318   0.00000   0.00000   0.00000   0.00000   1.91318
    A3        1.93172   0.00000   0.00000   0.00000   0.00000   1.93172
    A4        1.89863   0.00000   0.00000   0.00000   0.00000   1.89863
    A5        1.86777   0.00000   0.00000   0.00000   0.00000   1.86777
    A6        1.92597   0.00000   0.00000   0.00000   0.00000   1.92597
    A7        1.94300   0.00000   0.00000   0.00000   0.00000   1.94300
    A8        1.88493   0.00000   0.00000   0.00000   0.00000   1.88493
    A9        1.89770   0.00000   0.00000   0.00000   0.00000   1.89770
   A10        1.84547   0.00000   0.00000   0.00000   0.00000   1.84547
   A11        1.96774   0.00000   0.00000   0.00000   0.00000   1.96774
   A12        1.92303   0.00000   0.00000   0.00000   0.00000   1.92303
   A13        1.96289   0.00000   0.00000   0.00000   0.00000   1.96289
   A14        1.97567   0.00000   0.00000   0.00000   0.00000   1.97567
   A15        1.83924   0.00000   0.00000   0.00000   0.00000   1.83924
   A16        1.85395   0.00000   0.00000   0.00000   0.00000   1.85395
   A17        1.88240   0.00000   0.00000   0.00000   0.00000   1.88241
   A18        1.94947   0.00000   0.00000   0.00000   0.00000   1.94947
   A19        1.90693   0.00000   0.00000   0.00000   0.00000   1.90693
   A20        1.93312   0.00000   0.00000   0.00000   0.00000   1.93312
   A21        1.96064   0.00000   0.00000   0.00000   0.00000   1.96064
   A22        1.89218   0.00000   0.00000   0.00000   0.00000   1.89218
   A23        1.88437   0.00000   0.00000   0.00000   0.00000   1.88437
   A24        1.88478   0.00000   0.00000   0.00000   0.00000   1.88478
   A25        1.95841   0.00000   0.00000   0.00000   0.00000   1.95842
   A26        1.89911   0.00000   0.00000   0.00000   0.00000   1.89911
   A27        1.92066   0.00000   0.00000   0.00000   0.00000   1.92066
   A28        1.89196   0.00000   0.00000   0.00000   0.00000   1.89196
   A29        1.86384   0.00000   0.00000   0.00000   0.00000   1.86384
   A30        1.92978   0.00000   0.00000   0.00000   0.00000   1.92978
   A31        2.00582   0.00000   0.00000   0.00000   0.00000   2.00582
   A32        2.04702   0.00000   0.00000   0.00001   0.00001   2.04703
   A33        1.98978   0.00000   0.00000   0.00000   0.00000   1.98978
   A34        1.99371   0.00000   0.00000   0.00000   0.00000   1.99371
   A35        1.97926   0.00000   0.00000   0.00000   0.00000   1.97926
   A36        1.86826   0.00000   0.00000   0.00000   0.00000   1.86827
   A37        1.91130   0.00000   0.00000   0.00000   0.00000   1.91130
   A38        2.00422   0.00000   0.00000  -0.00001  -0.00001   2.00421
   A39        1.89942   0.00000   0.00000   0.00000   0.00000   1.89942
   A40        1.84577   0.00000   0.00000   0.00001   0.00001   1.84578
   A41        1.93042   0.00000   0.00000   0.00000   0.00000   1.93042
   A42        1.98851   0.00000   0.00000   0.00000   0.00000   1.98851
   A43        1.81144   0.00000   0.00000   0.00000   0.00000   1.81144
   A44        1.90589   0.00000   0.00000   0.00000   0.00000   1.90590
   A45        1.79946   0.00000   0.00000   0.00000   0.00000   1.79946
   A46        2.11996   0.00000   0.00000   0.00000   0.00000   2.11996
   A47        1.90216   0.00000   0.00000   0.00000   0.00000   1.90216
   A48        1.89757   0.00000   0.00000   0.00000   0.00000   1.89757
   A49        2.07132   0.00000   0.00000   0.00000   0.00000   2.07132
   A50        2.07275   0.00000   0.00000   0.00000   0.00000   2.07275
   A51        2.13809   0.00000   0.00000   0.00000   0.00000   2.13810
   A52        2.06393   0.00000   0.00000   0.00000   0.00000   2.06393
   A53        2.10868   0.00000   0.00000   0.00000   0.00000   2.10868
   A54        2.11058   0.00000   0.00000   0.00000   0.00000   2.11058
   A55        2.06309   0.00000   0.00000   0.00000   0.00000   2.06309
   A56        2.10764   0.00000   0.00000   0.00000   0.00000   2.10764
   A57        2.11244   0.00000   0.00000   0.00000   0.00000   2.11244
   A58        2.10402   0.00000   0.00000   0.00000   0.00000   2.10402
   A59        2.08722   0.00000   0.00000   0.00000   0.00000   2.08723
   A60        2.09113   0.00000   0.00000   0.00000   0.00000   2.09112
   A61        2.10623   0.00000   0.00000   0.00000   0.00000   2.10623
   A62        2.09167   0.00000   0.00000   0.00000   0.00000   2.09167
   A63        2.08296   0.00000   0.00000   0.00000   0.00000   2.08296
   A64        2.09098   0.00000   0.00000   0.00000   0.00000   2.09098
[...]
 .00003667,0.00001632,0.00005219,0.00003253,-0.00001084,-0.00000105,0.0
 0003973,-0.00002500,0.00034415,0.00026030,0.00085154,-0.00003540,0.000
 02058,-0.00010494,-0.00021497,0.00012926,-0.00010430,-0.00001708,-0.00
 008033,-0.00001711,0.00197081,-0.00059453,-0.00526980,0.00013341,0.000
 08399,0.00172125,-0.00137135,-0.00043609,0.00151136,-0.00067628,0.0008
 0762,0.00131375,0.01789220,-0.01833080,0.51856815,0.00008211,-0.000149
 57,0.00001709,0.00007685,-0.00004314,-0.00005098,0.00016265,-0.0005412
 3,0.00023667,-0.00015288,-0.00074463,-0.00017119,0.00004609,0.00031675
 ,0.00010634,-0.00001913,0.00003577,-0.00000976,0.00001288,0.00001145,-
 0.00000029,-0.00001129,0.00001248,-0.00001318,-0.00000996,0.00005037,-
 0.00004168,0.00005944,-0.00001630,0.00000414,-0.00024074,0.00044259,-0
 .00001792,0.00024984,0.00035111,-0.00015167,-0.00010289,0.00011053,0.0
 0001643,-0.00019327,0.00005919,-0.00008795,-0.00014593,-0.00006209,-0.
 00009252,0.00192236,0.00139052,0.00017216,-0.00025535,-0.00006107,-0.0
 0019584,-0.00170461,-0.00085402,-0.00084624,-0.00080090,-0.00071291,-0
 .00050094,-0.00033639,-0.00022750,0.00010273,0.00008943,-0.00000251,-0
 .00001115,0.00007551,0.00004407,-0.00000143,0.00043935,-0.00056812,0.0
 0031951,0.00013769,-0.00013575,-0.00036654,-0.00034687,-0.00046549,0.0
 0096393,-0.00039776,-0.00006942,-0.00016092,0.00001901,-0.00000340,0.0
 0001875,0.00963438,-0.00046705,-0.00166281,-0.00006688,0.00000915,-0.0
 0002160,0.00003694,0.00096891,0.00010848,-0.00003286,0.00000750,-0.000
 32906,0.00001149,-0.00002802,-0.00005526,0.00000418,-0.00000177,0.0000
 1362,0.00000333,0.00000001,0.00000878,-0.00001002,0.00001063,0.0000042
 0,0.00003964,-0.00005247,0.00008388,-0.00001915,0.00000366,-0.00001201
 ,0.00000096,0.00000703,-0.00001641,-0.00000897,0.00001745,-0.00000778,
 0.00008720,0.00011408,0.00003726,-0.00000671,-0.00001954,-0.00002419,-
 0.00002969,-0.00001790,-0.00000020,0.00001289,0.00001977,0.00001011,0.
 00167998,0.00046722,0.00130197,-0.00038531,-0.00017427,-0.00004034,-0.
 00253825,-0.00009020,-0.00003614,-0.00039195,-0.00007743,-0.00002085,-
 0.00022780,-0.00008142,0.00005816,0.00006540,0.00001740,-0.00001571,0.
 00005773,0.00003150,-0.00001412,0.00004157,0.00000308,-0.00000066,-0.0
 7888716,-0.04013584,0.00996926,0.11570105,-0.00000910,-0.00021227,-0.0
 0005235,-0.00012160,-0.00000012,-0.00011271,-0.00014938,-0.00079274,0.
 00068081,-0.00022310,-0.00099552,-0.00022186,-0.00001944,0.00022629,0.
 00001623,-0.00004002,0.00006241,-0.00003378,0.00007639,0.00002853,0.00
 000305,-0.00001694,0.00001902,-0.00002929,-0.00006505,0.00007011,-0.00
 011901,0.00010200,0.00000462,0.00000809,0.00011972,0.00081445,-0.00003
 521,0.00129978,0.00055581,-0.00031789,0.00006218,0.00005792,-0.0000086
 8,-0.00004498,0.00010809,-0.00002208,-0.00007805,0.00012005,0.00000002
 ,0.00136351,0.00090595,0.00058729,-0.00013303,-0.00000477,-0.00016039,
 -0.00001980,-0.00095840,0.00078153,-0.00059394,-0.00014871,-0.00079159
 ,-0.00277761,0.00154916,0.00039839,0.00067142,-0.00078211,0.00031153,0
 .00068712,-0.00051323,-0.00041834,0.00141690,0.00051166,0.00072552,-0.
 00002465,-0.00041664,0.00071402,-0.00195403,0.00047651,0.00203980,0.00
 161231,0.00060297,0.00154764,-0.00017643,-0.00011825,-0.00002656,-0.01
 051915,-0.03227806,0.01573857,-0.00091143,-0.00047308,-0.00032890,0.00
 177796,-0.00252802,-0.00173056,-0.00098126,-0.00063932,0.00007893,-0.0
 0005023,0.00000099,0.00002804,0.00000444,0.00001084,0.00001011,0.00001
 094,0.00001086,-0.00001275,0.00000266,0.00000009,0.00000185,-0.0000035
 8,-0.00002077,0.00003819,-0.00000081,0.00000592,-0.00000402,0.00000338
 ,-0.00000150,-0.00000717,-0.00001339,0.00000897,-0.00000456,0.00004128
 ,-0.00002653,0.00006179,0.00000173,-0.00000149,-0.00001134,-0.00001725
 ,-0.00000158,-0.00000659,0.00001618,0.00004062,-0.00001249,0.00171597,
 0.00090279,0.00148425,-0.00034415,-0.00016012,-0.00004141,0.00014554,-
 0.00043382,-0.00094785,-0.00058163,-0.00012241,-0.00003259,0.00113336,
 -0.00084222,-0.00201267,0.00005947,0.00012245,0.00091328,-0.00051776,-
 0.00008842,0.00057186,-0.00032355,0.00056786,0.00046185,-0.04384628,-0
 .18071523,0.02963607,0.09725481,0.26970266,0.00006087,-0.00000924,0.00
 003005,0.00013424,-0.00003959,0.00002911,0.00021089,0.00020687,-0.0003
 6917,-0.00001828,-0.00014429,-0.00011551,0.00004133,0.00014888,0.00005
 438,-0.00000796,0.00000406,0.00002260,-0.00005166,-0.00001530,0.000000
 19,0.00000498,-0.00000245,0.00001445,0.00003519,-0.00001026,0.00006799
 ,-0.00003087,-0.00002156,0.00000088,-0.00024342,-0.00016968,0.00012293
 ,-0.00083313,-0.00012860,0.00020658,-0.00011641,0.00005180,0.00004696,
 -0.00012571,-0.00001055,-0.00004383,-0.00007061,-0.00009872,-0.0000395
 8,0.00058178,0.00092879,-0.00028076,-0.00007806,-0.00005727,-0.0000098
 4,-0.00133658,-0.00007974,-0.00075350,-0.00019018,-0.00034165,0.000679
 42,0.00169131,-0.00146810,-0.00060160,-0.00041116,0.00060436,-0.000178
 83,-0.00039680,0.00041989,0.00044822,-0.00140853,-0.00016881,-0.001117
 61,-0.00062992,0.00078204,-0.00013662,0.00246906,-0.00007329,-0.001979
 46,-0.00051979,-0.00071517,0.00029471,0.00008600,0.00005868,0.00005479
 ,0.00562169,0.02991459,-0.00154432,0.00016130,0.00056252,-0.00000598,-
 0.00083707,0.00041836,0.00069313,0.00032200,0.00023967,0.00001701,0.00
 004215,-0.00003256,-0.00008049,0.00000460,-0.00000178,0.00000238,-0.00
 000983,-0.00000893,0.00001732,-0.00000749,0.00000751,0.00000549,0.0000
 3026,-0.00002763,0.00003413,-0.00001431,-0.00000079,-0.00000746,-0.000
 00256,0.00000551,-0.00000474,-0.00000004,0.00000919,-0.00000394,0.0000
 4416,0.00009993,-0.00001133,-0.00000255,-0.00001236,-0.00000568,-0.000
 01574,-0.00001092,0.00000355,0.00000032,-0.00001406,0.00000891,-0.0003
 9102,-0.00022242,-0.00059546,0.00008171,0.00003050,0.00006149,0.000328
 90,-0.00007711,0.00015888,0.00012010,0.00005103,0.00003273,-0.00062507
 ,0.00030235,0.00135280,-0.00001745,-0.00004309,-0.00048363,0.00035465,
 0.00011224,-0.00038937,0.00019434,-0.00025774,-0.00031098,0.01100903,0
 .03108268,-0.07249038,-0.01218251,-0.02164039,0.06649853,0.00012990,-0
 .00001211,0.00007941,0.00022569,-0.00008510,0.00004965,0.00032441,-0.0
 0005623,-0.00027198,0.00003822,-0.00002056,0.00004059,0.00008891,0.000
 19307,0.00016236,0.00000834,-0.00000680,0.00001585,-0.00005075,-0.0000
 0871,-0.00000735,-0.00000252,0.00000313,0.00000267,0.00003208,0.000013
 12,0.00003437,0.00000666,-0.00002240,-0.00000719,-0.00042413,-0.000051
 17,-0.00004368,-0.00080901,-0.00001286,0.00005775,-0.00020663,0.000122
 96,0.00002586,-0.00023648,-0.00000644,-0.00011561,-0.00013460,-0.00017
 416,-0.00014218,0.00074163,0.00053069,0.00016468,-0.00009153,-0.000052
 15,-0.00009519,-0.00005578,-0.00012669,0.00013784,-0.00040520,-0.00034
 995,-0.00017619,0.00202812,-0.00156703,-0.00045447,-0.00062727,0.00101
 555,-0.00048994,-0.00049359,0.00057502,0.00042767,-0.00058822,0.001554
 84,0.00054957,-0.00019473,-0.00001828,-0.00044703,-0.00041317,-0.00022
 644,-0.00589013,0.00026221,0.00059107,-0.00103743,0.00003647,-0.000141
 15,-0.00004000,-0.03402276,0.01166076,-0.00223088,0.00031628,-0.000757
 98,0.00026029,-0.00095033,0.00162919,0.00299161,-0.00022426,-0.0011407
 6,-0.00173530,0.00005902,-0.00004610,-0.00010325,0.00000281,-0.0000136
 5,0.00001303,-0.00000222,-0.00000760,0.00002301,-0.00001933,0.00001656
 ,0.00000334,0.00006704,-0.00006357,0.00009400,-0.00002623,-0.00000011,
 -0.00001354,-0.00000148,0.00001137,-0.00002030,-0.00000174,0.00001869,
 -0.00000621,0.00008744,0.00015811,0.00001221,-0.00000744,-0.00002554,-
 0.00002414,-0.00002897,-0.00002134,0.00000484,0.00000244,-0.00000142,0
 .00001527,0.00073521,0.00031440,0.00049505,-0.00016495,-0.00010960,0.0
 0000848,0.00002517,0.00002020,-0.00036062,-0.00015161,-0.00002797,-0.0
 0001266,-0.00116850,0.00050519,0.00146924,0.00005708,-0.00006656,-0.00
 055414,0.00057673,0.00015955,-0.00047796,0.00033790,-0.00040119,-0.000
 34360,-0.22268423,0.03614748,-0.01203145,-0.05389845,-0.03290820,0.007
 94600,0.33849299,-0.00003529,-0.00005220,-0.00003436,-0.00009371,0.000
 01621,-0.00004153,-0.00012304,-0.00019783,0.00025389,-0.00006347,-0.00
 025418,-0.00005871,-0.00002820,0.00000513,-0.00004094,-0.00001367,0.00
 001661,-0.00001412,0.00003294,0.00001093,0.00000172,-0.00000419,0.0000
 0439,-0.00000919,-0.00002959,0.00001931,-0.00004596,0.00002900,0.00000
 733,0.00000463,0.00013804,0.00023217,0.00000254,0.00050803,0.00014318,
 -0.00008706,0.00007006,-0.00001506,-0.00000821,0.00004902,0.00003128,0
 .00002326,0.00001270,0.00008142,0.00003697,0.00018584,0.00004617,0.000
 09329,-0.00001480,0.00001584,-0.00001959,0.00002558,-0.00022740,0.0001
 8568,-0.00008557,0.00005087,-0.00019645,-0.00140552,0.00066769,0.00023
 616,0.00043406,-0.00047099,0.00022886,0.00032611,-0.00026267,-0.000242
 40,-0.00025411,-0.00120332,0.00038730,0.00043773,-0.00025336,0.0001240
 1,0.00015459,0.00087361,0.00222499,-0.00027397,-0.00024552,0.00027979,
 0.00000460,0.00007821,0.00000258,0.02302548,0.00285128,0.00302139,-0.0
 0002965,0.00063313,-0.00021800,0.00057196,-0.00094745,-0.00057100,0.00
 008876,0.00023633,0.00050854,-0.00002961,0.00001111,0.00003413,0.00000
 099,0.00000642,-0.00000040,0.00000395,0.00000532,-0.00000954,0.0000053
 3,-0.00000411,-0.00000047,-0.00001751,0.00001004,-0.00001312,0.0000066
 8,0.00000167,0.00000243,0.00000136,-0.00000340,0.00000303,-0.00000335,
 -0.00000220,0.00000049,-0.00001137,-0.00005134,0.00001483,0.00000269,0
 .00000645,0.00000326,0.00000258,0.00000532,-0.00000318,0.00000396,0.00
 001242,-0.00000815,0.00033559,0.00013740,0.00030663,-0.00005362,-0.000
 01471,-0.00001536,0.00009152,0.00000397,-0.00020580,-0.00011568,-0.000
 02479,-0.00000490,0.00051460,-0.00039462,-0.00091226,0.00000282,0.0000
 5612,0.00032901,-0.00025416,-0.00003441,0.00026697,-0.00016642,0.00025
 733,0.00021186,0.03439065,-0.07261318,0.00299404,-0.04601151,-0.001428
 13,0.00347860,-0.04011552,0.07473062,0.00004155,0.00003102,0.00002472,
 0.00009587,-0.00002751,0.00004026,0.00013403,0.00019939,-0.00031433,0.
 00007665,0.00014539,0.00000933,0.00003049,0.00001626,0.00003999,-0.000
 00012,-0.00000300,0.00001828,-0.00003950,-0.00001392,-0.00000134,0.000
 00390,-0.00000277,0.00001122,0.00002750,-0.00000982,0.00004991,-0.0000
 2246,-0.00001069,-0.00000246,-0.00014610,-0.00017580,0.00005364,-0.000
 61026,-0.00013267,0.00014861,-0.00007888,0.00003217,0.00003011,-0.0000
 6323,-0.00001916,-0.00002165,-0.00002976,-0.00006395,-0.00002596,-0.00
 003556,0.00005756,-0.00007914,0.00001403,-0.00001153,0.00001953,0.0000
 4603,0.00010606,-0.00005637,-0.00000160,-0.00005673,0.00019211,0.00152
 043,-0.00087112,-0.00056302,-0.00047864,0.00059229,-0.00022096,-0.0003
 3545,0.00032644,0.00041167,-0.00063194,0.00155413,-0.00005719,-0.00052
 991,0.00046264,-0.00018039,-0.00034866,-0.00050911,-0.00394607,-0.0002
 9645,0.00001865,0.00078385,-0.00004492,0.00003557,0.00003785,-0.024774
 70,0.00848257,0.00606370,-0.00039430,0.00004834,-0.00002593,-0.0010310
 8,-0.00027659,-0.00188476,-0.00121149,0.00078178,-0.00045549,0.0000299
 8,-0.00002400,-0.00005491,0.00000322,-0.00000157,0.00000098,-0.0000070
 0,-0.00000641,0.00001194,-0.00000503,0.00000484,0.00000316,0.00002027,
 -0.00001472,0.00001457,-0.00000772,-0.00000144,-0.00000360,-0.00000221
 ,0.00000331,-0.00000198,0.00000141,0.00000473,-0.00000143,0.00002003,0
 .00004965,-0.00000969,-0.00000069,-0.00000578,-0.00000184,-0.00000766,
 -0.00000503,0.00000223,-0.00000071,-0.00000903,0.00000462,-0.00013817,
 -0.00007884,-0.00018838,0.00001929,0.00000143,0.00001627,0.00003437,0.
 00001525,0.00004318,0.00003027,0.00001815,0.00000216,-0.00040142,0.000
 12030,0.00115305,-0.00005248,-0.00002083,-0.00038339,0.00027145,0.0000
 9359,-0.00030498,0.00013670,-0.00017175,-0.00027054,-0.00569665,0.0016
 0841,-0.07182188,0.01122939,0.00341893,0.01100100,-0.02136770,0.004078
 24,0.07196086,0.00002719,0.00000820,0.00002251,0.00005028,-0.00002185,
 0.00001038,0.00009098,-0.00000435,-0.00003099,0.00001501,0.00004972,0.
 00005666,0.00001925,0.00003208,0.00003057,0.00001403,-0.00000631,-0.00
 000066,-0.00000846,0.00000016,-0.00000232,-0.00000034,0.00000021,-0.00
 000050,0.00000683,0.00000305,-0.00000076,0.00000178,-0.00000323,-0.000
 00210,-0.00007355,-0.00004223,-0.00003395,-0.00016530,0.00000086,-0.00
 001706,-0.00004454,0.00002336,-0.00000074,-0.00004869,-0.00000599,-0.0
 0002750,-0.00002549,-0.00004252,-0.00003493,0.00007939,0.00006401,0.00
 002893,-0.00001304,-0.00001096,-0.00001670,0.00001732,-0.00000791,0.00
 005513,-0.00004859,-0.00005697,-0.00005313,0.00043537,-0.00041596,0.00
 021066,-0.00007427,0.00015510,-0.00011994,-0.00012629,0.00013423,0.000
 00181,0.00062549,-0.00053065,-0.00014616,-0.00000089,0.00005322,-0.000
 29497,-0.00217591,0.00082027,-0.00104442,0.00023046,-0.00034659,-0.000
 73839,0.00005000,-0.00003208,-0.00007504,0.00967309,-0.00167449,-0.007
 29503,0.00038474,-0.00035929,-0.00175837,-0.00083890,0.00151049,-0.000
 72713,0.00009176,-0.00005301,-0.00042622,0.00001295,-0.00000693,-0.000
 01643,-0.00000035,-0.00000537,0.00000327,0.00000115,-0.00000105,0.0000
 0439,-0.00000508,0.00000367,-0.00000055,0.00001532,-0.00001360,0.00002
 132,-0.00000551,-0.00000014,-0.00000262,-0.00000010,0.00000254,-0.0000
 0514,0.00000021,0.00000361,-0.00000089,0.00001662,0.00003341,0.0000015
 9,-0.00000180,-0.00000568,-0.00000551,-0.00000503,-0.00000460,0.000001
 42,-0.00000051,-0.00000108,0.00000373,0.00012289,0.00005381,0.00007504
 ,-0.00002384,-0.00002193,-0.00000042,-0.00002557,0.00005690,0.00000927
 ,0.00000995,0.00000192,-0.00000028,-0.00041941,0.00013304,0.00033603,0
 .00000767,-0.00002563,-0.00023054,0.00015464,0.00004647,-0.00011853,0.
 00009397,-0.00010770,-0.00007684,-0.07025849,0.00983491,0.01542972,0.0
 1047121,-0.01211320,-0.01100216,-0.02659669,0.02777634,0.04500557,0.07
 826707,0.00001271,-0.00006561,-0.00001519,-0.00001035,-0.00000659,-0.0
 0002647,-0.00000243,-0.00023288,0.00009924,-0.00003643,-0.00029573,-0.
 00010162,0.00000912,0.00007284,0.00001645,-0.00002458,0.00002212,0.000
 00001,0.00000947,0.00000401,0.00000101,-0.00000384,0.00000499,-0.00000
 448,-0.00001272,0.00001627,-0.00001001,0.00002186,-0.00000382,0.000003
 01,-0.00005254,0.00023987,0.00004089,0.00017431,0.00016519,-0.00000851
 ,-0.00001128,0.00003792,0.00001802,-0.00003650,0.00003372,-0.00000966,
 -0.00004156,0.00002686,0.00000013,0.00048968,0.00032204,0.00013153,-0.
 00004186,-0.00000589,-0.00003630,0.00009144,-0.00032356,0.00018481,-0.
 00024614,-0.00006237,-0.00008392,-0.00045342,0.00007100,-0.00037748,0.
 00006877,-0.00003609,0.00009022,0.00014885,-0.00002487,0.00011982,-0.0
 0062310,0.00077514,-0.00007127,-0.00018208,0.00017296,0.00055851,0.002
 74641,-0.00173733,0.00118944,0.00005547,-0.00066192,0.00058967,-0.0000
 7315,0.00003350,0.00008257,0.00079759,0.00763740,0.00302914,-0.0008345
 3,0.00050844,0.00143989,0.00072041,0.00054312,-0.00007473,-0.00002715,
 0.00017461,0.00028522,-0.00000803,-0.00001548,-0.00002021,0.00000514,0
 .00000622,0.00000408,-0.00000027,0.00000121,0.00000078,-0.00000022,0.0
 0000179,0.00000324,0.00000559,-0.00001219,0.00001486,-0.00000266,0.000
 00148,-0.00000266,-0.00000006,0.00000028,-0.00000166,-0.00000479,0.000
 00527,-0.00000221,0.00002171,0.00000545,0.00001693,0.00000143,-0.00000
 177,-0.00000262,-0.00000993,-0.00000190,-0.00000173,0.00000583,0.00001
 035,-0.00000462,0.00046405,0.00014411,0.00022445,-0.00007430,-0.000035
 53,0.00000006,0.00010742,0.00001873,-0.00018665,-0.00015027,-0.0000161
 7,-0.00000303,0.00010728,-0.00034535,-0.00023335,-0.00001018,0.0000384
 1,0.00003103,-0.00008831,0.00004115,0.00010220,-0.00007000,0.00013612,
 0.00003800,0.00848651,-0.09390111,-0.06278323,-0.00994247,-0.05278414,
 -0.04361601,0.02340437,-0.00256440,-0.01978331,-0.02488027,0.14186216,
 0.00008975,-0.00001022,0.00002571,0.00016520,-0.00004608,0.00002970,0.
 00029303,0.00012499,-0.00046583,0.00009967,-0.00003254,-0.00012387,0.0
 0006933,0.00010587,0.00009291,-0.00002342,0.00002153,0.00003137,-0.000
 06170,-0.00002133,0.00000127,0.00000417,-0.00000080,0.00001846,0.00004
 766,-0.00000799,0.00009441,-0.00002526,-0.00002557,-0.00000101,-0.0003
 6759,-0.00009844,0.00018330,-0.00093913,-0.00002702,0.00022001,-0.0001
 5671,0.00009337,0.00007742,-0.00015360,-0.00000281,-0.00004508,-0.0000
 9938,-0.00009797,-0.00004471,0.00047955,0.00044941,-0.00004228,-0.0000
 2140,-0.00002711,0.00000025,0.00003903,-0.00002315,-0.00000650,-0.0002
 7639,-0.00021096,0.00033546,0.00220150,-0.00186266,-0.00076287,-0.0005
 6632,0.00073903,-0.00019521,-0.00050453,0.00060875,0.00072926,0.000045
 20,0.00094803,-0.00016457,-0.00019098,0.00004200,-0.00060437,0.0021113
 9,-0.00134286,-0.00125459,0.00167366,-0.00030566,-0.00228929,-0.000090
 38,-0.00001474,0.00007323,0.00619315,-0.02142056,-0.04276433,-0.002116
 15,0.00093518,-0.00131166,-0.00645432,0.00485923,-0.00274088,-0.000070
 04,-0.00027568,0.00070402,0.00004916,-0.00005871,-0.00012370,0.0000112
 7,0.00000438,0.00000494,-0.00001475,-0.00001151,0.00002349,-0.00000866
 ,0.00001027,0.00000986,0.00004207,-0.00003772,0.00003865,-0.00001721,-
 0.00000135,-0.00000929,-0.00000445,0.00000636,-0.00000397,-0.00000208,
 0.00001385,-0.00000513,0.00006002,0.00010523,-0.00000381,-0.00000028,-
 0.00001244,-0.00000591,-0.00002460,-0.00001205,0.00000255,0.00000453,-
 0.00000830,0.00000570,0.00016561,-0.00001235,-0.00015971,-0.00003948,-
 0.00003002,0.00003492,0.00014051,-0.00002042,-0.00012444,-0.00010198,0
 .00001676,0.00000159,-0.00146959,0.00091226,0.00211179,-0.00018425,-0.
 00012635,-0.00116658,0.00078230,0.00022223,-0.00068031,0.00029173,-0.0
 0037317,-0.00049892,0.01013374,-0.05511285,-0.20833388,-0.00762304,-0.
 03111461,-0.00040050,0.03341550,-0.01657842,-0.01127114,-0.03700107,0.
 11914572,0.27075405\\-0.00000146,0.00000102,0.00000112,0.00000165,0.00
 000034,0.00000273,0.00000064,0.00000344,-0.00000240,-0.00000050,0.0000
 0083,0.00000036,-0.00000045,0.00000075,0.00000038,0.00000117,-0.000000
 05,0.00000101,0.00000073,0.00000108,0.00000079,-0.00000045,0.00000126,
 0.00000100,-0.00000057,-0.00000013,-0.00000018,-0.00000062,0.00000083,
 0.00000036,0.00000085,-0.00000180,0.00000013,-0.00000031,-0.00000303,0
 .00000254,0.00000035,0.00000245,0.00000193,-0.00000019,0.00000228,0.00
 000133,-0.00000144,0.00000053,0.00000046,-0.00000008,-0.00000065,-0.00
 000083,-0.00000125,-0.00000031,-0.00000137,-0.00000054,-0.00000079,-0.
 00000113,-0.00000134,-0.00000010,-0.00000031,0.00000226,-0.00000137,0.
 00000117,0.00000125,0.00000143,-0.00000072,0.00000222,0.,0.00000180,0.
 00000091,-0.00000118,-0.00000107,-0.00000013,-0.00000179,-0.00000062,0
 .00000056,-0.00000039,-0.00000014,-0.00000134,0.00000011,-0.00000088,0
 .00000025,-0.00000028,-0.00000021,0.00000059,-0.00000197,-0.00000201,0
 .00000175,-0.00000160,-0.00000061,0.,-0.00000127,-0.00000245,-0.000000
 28,-0.00000223,-0.00000212,0.00000212,0.00000078,0.00000201,0.00000207
 ,0.00000048,0.00000215,0.00000183,0.00000124,0.00000225,0.00000202,0.0
 0000169,0.00000266,-0.00000078,0.00000273,0.00000204,-0.00000102,0.000
 00248,0.00000209,-0.00000123,0.00000276,0.00000234,-0.00000004,0.00000
 244,0.00000238,-0.00000230,0.00000140,-0.00000010,-0.00000274,0.000001
 50,-0.00000013,-0.00000172,0.00000183,0.00000057,-0.00000220,0.0000012
 4,-0.00000049,-0.00000030,-0.00000046,-0.00000161,-0.00000014,-0.00000
 077,-0.00000068,0.00000041,-0.00000121,-0.00000078,0.00000055,-0.00000
 057,-0.00000032,-0.00000247,-0.00000075,-0.00000302,-0.00000033,-0.000
 00055,-0.00000041,-0.00000026,-0.00000189,-0.00000171,-0.00000169,-0.0
 0000132,-0.00000202,0.00000165,-0.00000206,0.00000020,0.00000039,-0.00
 000250,-0.00000226,0.00000040,-0.00000266,-0.00000262,0.00000153,-0.00
 000328,-0.00000261\\\@


 THAT'S WHAT MAKES US A GREAT COUNTRY.
 THE LITTLE THINGS ARE SERIOUS AND THE BIG ONES ARE NOT.
           WILL ROGERS
 Job cpu time:       0 days 19 hours  7 minutes 41.2 seconds.
 Elapsed time:       0 days  0 hours 37 minutes 49.4 seconds.
 File lengths (MBytes):  RWF=   2322 Int=      0 D2E=      0 Chk=     41 Scr=      1
 Normal termination of Gaussian 16 at Sat Jun 15 08:34:12 2019.
