 Entering Gaussian System, Link 0=g16
 Input=clay_new-glu_gluC6-BCDR-Na2_1Me2O-bisCF3-ts-b97d-custom-pcm_thf.gjf
 Output=clay_new-glu_gluC6-BCDR-Na2_1Me2O-bisCF3-ts-b97d-custom-pcm_thf.out
 Initial command:
 /home/ekwan/sw/g16/l1.exe "/scratch/users/ekwan/clay_new-glu_gluC6-BCDR-Na2_1Me2O-bisCF3-ts-b97d-custom-pcm_thf/Gau-5870.inp" -scrdir="/scratch/users/ekwan/clay_new-glu_gluC6-BCDR-Na2_1Me2O-bisCF3-ts-b97d-custom-pcm_thf/"
 Entering Link 1 = /home/ekwan/sw/g16/l1.exe PID=      5871.
  
 Copyright (c) 1988,1990,1992,1993,1995,1998,2003,2009,2016,
            Gaussian, Inc.  All Rights Reserved.
  
 This is part of the Gaussian(R) 16 program.  It is based on
 the Gaussian(R) 09 system (copyright 2009, Gaussian, Inc.),
 the Gaussian(R) 03 system (copyright 2003, Gaussian, Inc.),
 the Gaussian(R) 98 system (copyright 1998, Gaussian, Inc.),
 the Gaussian(R) 94 system (copyright 1995, Gaussian, Inc.),
 the Gaussian 92(TM) system (copyright 1992, Gaussian, Inc.),
 the Gaussian 90(TM) system (copyright 1990, Gaussian, Inc.),
 the Gaussian 88(TM) system (copyright 1988, Gaussian, Inc.),
 the Gaussian 86(TM) system (copyright 1986, Carnegie Mellon
 University), and the Gaussian 82(TM) system (copyright 1983,
 Carnegie Mellon University). Gaussian is a federally registered
 trademark of Gaussian, Inc.
  
 This software contains proprietary and confidential information,
 including trade secrets, belonging to Gaussian, Inc.
  
 This software is provided under written license and may be
 used, copied, transmitted, or stored only in accord with that
 written license.
  
 The following legend is applicable only to US Government
 contracts under FAR:
  
                    RESTRICTED RIGHTS LEGEND
  
 Use, reproduction and disclosure by the US Government is
 subject to restrictions as set forth in subparagraphs (a)
 and (c) of the Commercial Computer Software - Restricted
 Rights clause in FAR 52.227-19.
  
 Gaussian, Inc.
 340 Quinnipiac St., Bldg. 40, Wallingford CT 06492
  
  
 ---------------------------------------------------------------
 Warning -- This program may not be used in any manner that
 competes with the business of Gaussian, Inc. or will provide
 assistance to any competitor of Gaussian, Inc.  The licensee
 of this program is prohibited from giving any competitor of
 Gaussian, Inc. access to this program.  By using this program,
 the user acknowledges that Gaussian, Inc. is engaged in the
 business of creating and licensing software in the field of
 computational chemistry and represents and warrants to the
 licensee that it is not a competitor of Gaussian, Inc. and that
 it will not use this program in any manner prohibited above.
 ---------------------------------------------------------------
  

 Cite this work as:
 Gaussian 16, Revision A.03,
 M. J. Frisch, G. W. Trucks, H. B. Schlegel, G. E. Scuseria, 
 M. A. Robb, J. R. Cheeseman, G. Scalmani, V. Barone, 
 G. A. Petersson, H. Nakatsuji, X. Li, M. Caricato, A. V. Marenich, 
 J. Bloino, B. G. Janesko, R. Gomperts, B. Mennucci, H. P. Hratchian, 
 J. V. Ortiz, A. F. Izmaylov, J. L. Sonnenberg, D. Williams-Young, 
 F. Ding, F. Lipparini, F. Egidi, J. Goings, B. Peng, A. Petrone, 
 T. Henderson, D. Ranasinghe, V. G. Zakrzewski, J. Gao, N. Rega, 
 G. Zheng, W. Liang, M. Hada, M. Ehara, K. Toyota, R. Fukuda, 
 J. Hasegawa, M. Ishida, T. Nakajima, Y. Honda, O. Kitao, H. Nakai, 
 T. Vreven, K. Throssell, J. A. Montgomery, Jr., J. E. Peralta, 
 F. Ogliaro, M. J. Bearpark, J. J. Heyd, E. N. Brothers, K. N. Kudin, 
 V. N. Staroverov, T. A. Keith, R. Kobayashi, J. Normand, 
 K. Raghavachari, A. P. Rendell, J. C. Burant, S. S. Iyengar, 
 J. Tomasi, M. Cossi, J. M. Millam, M. Klene, C. Adamo, R. Cammi, 
 J. W. Ochterski, R. L. Martin, K. Morokuma, O. Farkas, 
 J. B. Foresman, and D. J. Fox, Gaussian, Inc., Wallingford CT, 2016.
 
 ******************************************
 Gaussian 16:  AS64L-G16RevA.03 25-Dec-2016
                16-Jun-2019 
 ******************************************
 %mem=48GB
 %nprocshared=32
 Will use up to   32 processors via shared memory.
 ----------------------------------------------------------------------
 #p opt=(ts,calcfc,noeigentest,maxstep=5) freq=noraman pop=none extraba
 sis 6-31g* scrf=(pcm,solvent=tetrahydrofuran) b97d
 ----------------------------------------------------------------------
 1/5=1,8=5,10=4,11=1,18=20,26=3,38=1/1,3;
 2/9=110,12=2,17=6,18=5,40=1/2;
 3/5=1,6=6,7=1,10=1,11=2,25=1,30=1,70=2201,71=2,72=20,74=-42,140=1/1,2,3;
 4//1;
 5/5=2,38=5,53=20/2;
 8/6=4,10=90,11=11/1;
 11/6=1,8=1,9=11,15=111,16=1/1,2,10;
 10/6=1,13=1/2;
 7/10=1,18=20,25=1/1,2,3,16;
 1/5=1,8=5,10=4,11=1,18=20,26=3/3(2);
 2/9=110/2;
 99//99;
 2/9=110/2;
 3/5=7,6=1,7=1,11=2,25=1,30=1,70=2205,71=1,72=20,74=-42,82=7/1,2,3;
 4/5=5,16=3,69=1/1;
 5/5=2,38=5,53=20/2;
 7//1,2,3,16;
 1/5=1,8=5,11=1,18=20,26=3/3(-5);
 2/9=110/2;
 99/9=1/99;
 Leave Link    1 at Sun Jun 16 11:40:30 2019, MaxMem=  6442450944 cpu:               4.6 elap:               0.2
 (Enter /home/ekwan/sw/g16/l101.exe)
 -----
 title
 -----
 Symbolic Z-matrix:
 Charge =  0 Multiplicity = 1
 6                    -1.77873   1.54582   2.24991 
 6                    -2.05195   2.36597   0.97368 
 6                    -1.14349   3.61061   0.91974 
 6                     0.56616   2.52784   2.25144 
 6                    -0.27316   1.23738   2.3629 
 1                    -1.22331   4.10574  -0.06472 
 1                    -1.78203   1.75217   0.09842 
 1                    -2.09502   2.14237   3.12353 
 1                     0.30221   3.18026   3.10169 
 1                    -0.01341   0.55634   1.53788 
 8                     0.23037   3.22088   1.01311 
 8                    -1.52234   4.49349   1.94903 
 8                    -3.41118   2.79397   0.89434 
 8                    -2.55058   0.34279   2.16253 
 8                    -0.0117    0.60718   3.62371 
 6                     2.09611   2.31365   2.25372 
 1                     2.32055   1.87684   3.25695 
 1                     2.52565   3.34969   2.27512 
 8                     2.59373   1.56795   1.20223 
 6                    -4.22386   1.9563    0.06892 
 1                    -3.84585   1.93178  -0.97077 
 1                    -4.26373   0.92647   0.4543 
 1                    -5.23164   2.39562   0.07275 
 6                    -3.05986  -0.1118    3.4183 
 1                    -2.24542  -0.38521   4.10714 
 1                    -3.68698   0.66769   3.89251 
 1                    -3.67653  -0.99306   3.20041 
 6                     0.86167  -0.5241    3.51009 
 1                     0.38694  -1.32785   2.92469 
 1                     1.81334  -0.25278   3.02552 
 1                     1.04997  -0.87722   4.53456 
 6                     3.83482  -1.6523   -1.31371 
 6                     3.22276  -0.31736  -0.84293 
 6                     1.82605  -0.48302  -0.30701 
 6                     2.07214  -2.85266   0.0563 
 6                     3.58024  -2.70885  -0.21741 
 1                     1.22035   0.38879  -0.10028 
 1                     3.78284   0.02782   0.05045 
 1                     3.3545   -1.96434  -2.25643 
 1                     1.56657  -3.19049  -0.85878 
 1                     4.08894  -2.38209   0.70302 
 8                     1.46166  -1.53492   0.3688 
 8                    -0.50923   0.15903  -3.99592 
 8                     3.20666   0.72284  -1.81237 
 8                     5.23319  -1.45137  -1.48613 
 8                     4.05395  -3.98206  -0.64592 
 6                     1.69814  -3.77217   1.20442 
 1                     1.99313  -4.80059   0.92238 
 1                     0.60127  -3.75493   1.33981 
 8                     2.36438  -3.34564   2.38375 
 16                   -0.29692   0.08775  -2.52432 
 8                    -0.16198   1.41415  -1.82932 
 8                     0.84422  -0.86825  -2.146 
 6                    -1.78539  -0.68304  -1.81001 
 6                    -3.03729  -0.44239  -2.39138 
 6                    -1.65956  -1.47088  -0.66355 
 6                    -4.17508  -1.01348  -1.80352 
 1                    -3.12054   0.16781  -3.28865 
 6                    -2.8061   -2.03792  -0.09092 
 1                    -0.68654  -1.64554  -0.21615 
 6                    -4.06718  -1.81547  -0.6553 
 1                    -4.95622  -2.25887  -0.21168 
 6                     4.45038   1.4517   -1.91435 
 1                     4.82034   1.71496  -0.91037 
 1                     5.2062    0.85892  -2.44622 
 1                     4.21301   2.36866  -2.46856 
 6                     5.79224  -2.19065  -2.58195 
 1                     5.67499  -3.27479  -2.43216 
 1                     5.31262  -1.89884  -3.53467 
 1                     6.85865  -1.92793  -2.61438 
 6                     4.88508  -4.63174   0.32943 
 1                     5.81544  -4.05894   0.48925 
 1                     4.35726  -4.73954   1.29214 
 1                     5.12434  -5.62211  -0.08047 
 6                     1.91737  -4.07804   3.52662 
 1                     2.47431  -3.68791   4.38874 
 1                     0.83278  -3.93122   3.68853 
 1                     2.11919  -5.16022   3.4123 
 6                    -0.82037   5.74234   1.89457 
 1                    -1.26712   6.38452   2.66519 
 1                     0.2547    5.60539   2.09884 
 1                    -0.94108   6.21492   0.90108 
 11                    1.77904   2.55671  -0.7667 
 8                     3.23897   4.44189  -1.0159 
 6                     3.51581   5.44875  -1.98835 
 1                     4.46391   5.23275  -2.51677 
 1                     2.68289   5.44194  -2.70465 
 1                     3.58974   6.44478  -1.51348 
 6                     4.26173   4.34722  -0.01818 
 1                     4.31285   5.27747   0.57713 
 1                     3.99133   3.4937    0.61905 
 1                     5.24694   4.16652  -0.48831 
 6                    -5.55092  -0.70725  -2.35555 
 9                    -6.14404   0.30381  -1.65097 
 9                    -6.38016  -1.78331  -2.2705 
 9                    -5.51214  -0.31854  -3.65627 
 6                    -2.63632  -2.97374   1.08534 
 9                    -1.65941  -2.55628   1.9413 
 9                    -2.26776  -4.21995   0.66308 
 9                    -3.77991  -3.11541   1.80798 
 
 Add virtual bond connecting atoms H37        and H10        Dist= 3.89D+00.
 Add virtual bond connecting atoms O53        and C34        Dist= 4.01D+00.
 Add virtual bond connecting atoms H60        and O42        Dist= 4.21D+00.
 Add virtual bond connecting atoms H91        and H18        Dist= 4.19D+00.
 Add virtual bond connecting atoms Na83       and O11        Dist= 4.63D+00.
 Add virtual bond connecting atoms Na83       and O19        Dist= 4.44D+00.
 Add virtual bond connecting atoms Na83       and H37        Dist= 4.41D+00.
 Add virtual bond connecting atoms Na83       and O52        Dist= 4.71D+00.
 Add virtual bond connecting atoms Na83       and O84        Dist= 4.53D+00.
 ITRead=  0  0  0  0  0  0  0  0  0  0  0  0  0  0  0  0  0  0  0  0
 ITRead=  0  0  0  0  0  0  0  0  0  0  0  0  0  0  0  0  0  0  0  0
 ITRead=  0  0  0  0  0  0  0  0  0  0  0  0  0  0  0  0  0  0  0  0
 ITRead=  0  0  0  0  0  0  0  0  0  0  0  0  0  0  0  0  0  0  0  0
 ITRead=  0  0  0  0  0  0  0  0  0  0  0  0  0  0  0  0  0  0  0  0
 MicOpt= -1 -1 -1 -1 -1 -1 -1 -1 -1 -1 -1 -1 -1 -1 -1 -1 -1 -1 -1 -1
 MicOpt= -1 -1 -1 -1 -1 -1 -1 -1 -1 -1 -1 -1 -1 -1 -1 -1 -1 -1 -1 -1
 MicOpt= -1 -1 -1 -1 -1 -1 -1 -1 -1 -1 -1 -1 -1 -1 -1 -1 -1 -1 -1 -1
 MicOpt= -1 -1 -1 -1 -1 -1 -1 -1 -1 -1 -1 -1 -1 -1 -1 -1 -1 -1 -1 -1
 MicOpt= -1 -1 -1 -1 -1 -1 -1 -1 -1 -1 -1 -1 -1 -1 -1 -1 -1 -1 -1 -1
 NAtoms=    100 NQM=      100 NQMF=       0 NMMI=      0 NMMIF=      0
                NMic=       0 NMicF=      0.
                    Isotopes and Nuclear Properties:
 (Nuclear quadrupole moments (NQMom) in fm**2, nuclear magnetic moments (NMagM)
  in nuclear magnetons)

  Atom         1           2           3           4           5           6           7           8           9          10
 IAtWgt=          12          12          12          12          12           1           1           1           1           1
 AtmWgt=  12.0000000  12.0000000  12.0000000  12.0000000  12.0000000   1.0078250   1.0078250   1.0078250   1.0078250   1.0078250
 NucSpn=           0           0           0           0           0           1           1           1           1           1
 AtZEff=   0.0000000   0.0000000   0.0000000   0.0000000   0.0000000   0.0000000   0.0000000   0.0000000   0.0000000   0.0000000
 NQMom=    0.0000000   0.0000000   0.0000000   0.0000000   0.0000000   0.0000000   0.0000000   0.0000000   0.0000000   0.0000000
 NMagM=    0.0000000   0.0000000   0.0000000   0.0000000   0.0000000   2.7928460   2.7928460   2.7928460   2.7928460   2.7928460
 AtZNuc=   6.0000000   6.0000000   6.0000000   6.0000000   6.0000000   1.0000000   1.0000000   1.0000000   1.0000000   1.0000000

  Atom        11          12          13          14          15          16          17          18          19          20
 IAtWgt=          16          16          16          16          16          12           1           1          16          12
 AtmWgt=  15.9949146  15.9949146  15.9949146  15.9949146  15.9949146  12.0000000   1.0078250   1.0078250  15.9949146  12.0000000
 NucSpn=           0           0           0           0           0           0           1           1           0           0
 AtZEff=   0.0000000   0.0000000   0.0000000   0.0000000   0.0000000   0.0000000   0.0000000   0.0000000   0.0000000   0.0000000
 NQMom=    0.0000000   0.0000000   0.0000000   0.0000000   0.0000000   0.0000000   0.0000000   0.0000000   0.0000000   0.0000000
 NMagM=    0.0000000   0.0000000   0.0000000   0.0000000   0.0000000   0.0000000   2.7928460   2.7928460   0.0000000   0.0000000
 AtZNuc=   8.0000000   8.0000000   8.0000000   8.0000000   8.0000000   6.0000000   1.0000000   1.0000000   8.0000000   6.0000000

  Atom        21          22          23          24          25          26          27          28          29          30
 IAtWgt=           1           1           1          12           1           1           1          12           1           1
 AtmWgt=   1.0078250   1.0078250   1.0078250  12.0000000   1.0078250   1.0078250   1.0078250  12.0000000   1.0078250   1.0078250
 NucSpn=           1           1           1           0           1           1           1           0           1           1
 AtZEff=   0.0000000   0.0000000   0.0000000   0.0000000   0.0000000   0.0000000   0.0000000   0.0000000   0.0000000   0.0000000
 NQMom=    0.0000000   0.0000000   0.0000000   0.0000000   0.0000000   0.0000000   0.0000000   0.0000000   0.0000000   0.0000000
 NMagM=    2.7928460   2.7928460   2.7928460   0.0000000   2.7928460   2.7928460   2.7928460   0.0000000   2.7928460   2.7928460
 AtZNuc=   1.0000000   1.0000000   1.0000000   6.0000000   1.0000000   1.0000000   1.0000000   6.0000000   1.0000000   1.0000000

  Atom        31          32          33          34          35          36          37          38          39          40
 IAtWgt=           1          12          12          12          12          12           1           1           1           1
 AtmWgt=   1.0078250  12.0000000  12.0000000  12.0000000  12.0000000  12.0000000   1.0078250   1.0078250   1.0078250   1.0078250
 NucSpn=           1           0           0           0           0           0           1           1           1           1
 AtZEff=   0.0000000   0.0000000   0.0000000   0.0000000   0.0000000   0.0000000   0.0000000   0.0000000   0.0000000   0.0000000
 NQMom=    0.0000000   0.0000000   0.0000000   0.0000000   0.0000000   0.0000000   0.0000000   0.0000000   0.0000000   0.0000000
 NMagM=    2.7928460   0.0000000   0.0000000   0.0000000   0.0000000   0.0000000   2.7928460   2.7928460   2.7928460   2.7928460
 AtZNuc=   1.0000000   6.0000000   6.0000000   6.0000000   6.0000000   6.0000000   1.0000000   1.0000000   1.0000000   1.0000000

  Atom        41          42          43          44          45          46          47          48          49          50
 IAtWgt=           1          16          16          16          16          16          12           1           1          16
 AtmWgt=   1.0078250  15.9949146  15.9949146  15.9949146  15.9949146  15.9949146  12.0000000   1.0078250   1.0078250  15.9949146
 NucSpn=           1           0           0           0           0           0           0           1           1           0
 AtZEff=   0.0000000   0.0000000   0.0000000   0.0000000   0.0000000   0.0000000   0.0000000   0.0000000   0.0000000   0.0000000
 NQMom=    0.0000000   0.0000000   0.0000000   0.0000000   0.0000000   0.0000000   0.0000000   0.0000000   0.0000000   0.0000000
 NMagM=    2.7928460   0.0000000   0.0000000   0.0000000   0.0000000   0.0000000   0.0000000   2.7928460   2.7928460   0.0000000
 AtZNuc=   1.0000000   8.0000000   8.0000000   8.0000000   8.0000000   8.0000000   6.0000000   1.0000000   1.0000000   8.0000000

  Atom        51          52          53          54          55          56          57          58          59          60
 IAtWgt=          32          16          16          12          12          12          12           1          12           1
 AtmWgt=  31.9720718  15.9949146  15.9949146  12.0000000  12.0000000  12.0000000  12.0000000   1.0078250  12.0000000   1.0078250
 NucSpn=           0           0           0           0           0           0           0           1           0           1
 AtZEff=   0.0000000   0.0000000   0.0000000   0.0000000   0.0000000   0.0000000   0.0000000   0.0000000   0.0000000   0.0000000
 NQMom=    0.0000000   0.0000000   0.0000000   0.0000000   0.0000000   0.0000000   0.0000000   0.0000000   0.0000000   0.0000000
 NMagM=    0.0000000   0.0000000   0.0000000   0.0000000   0.0000000   0.0000000   0.0000000   2.7928460   0.0000000   2.7928460
 AtZNuc=  16.0000000   8.0000000   8.0000000   6.0000000   6.0000000   6.0000000   6.0000000   1.0000000   6.0000000   1.0000000

  Atom        61          62          63          64          65          66          67          68          69          70
 IAtWgt=          12           1          12           1           1           1          12           1           1           1
 AtmWgt=  12.0000000   1.0078250  12.0000000   1.0078250   1.0078250   1.0078250  12.0000000   1.0078250   1.0078250   1.0078250
 NucSpn=           0           1           0           1           1           1           0           1           1           1
 AtZEff=   0.0000000   0.0000000   0.0000000   0.0000000   0.0000000   0.0000000   0.0000000   0.0000000   0.0000000   0.0000000
 NQMom=    0.0000000   0.0000000   0.0000000   0.0000000   0.0000000   0.0000000   0.0000000   0.0000000   0.0000000   0.0000000
 NMagM=    0.0000000   2.7928460   0.0000000   2.7928460   2.7928460   2.7928460   0.0000000   2.7928460   2.7928460   2.7928460
 AtZNuc=   6.0000000   1.0000000   6.0000000   1.0000000   1.0000000   1.0000000   6.0000000   1.0000000   1.0000000   1.0000000

  Atom        71          72          73          74          75          76          77          78          79          80
 IAtWgt=          12           1           1           1          12           1           1           1          12           1
 AtmWgt=  12.0000000   1.0078250   1.0078250   1.0078250  12.0000000   1.0078250   1.0078250   1.0078250  12.0000000   1.0078250
 NucSpn=           0           1           1           1           0           1           1           1           0           1
 AtZEff=   0.0000000   0.0000000   0.0000000   0.0000000   0.0000000   0.0000000   0.0000000   0.0000000   0.0000000   0.0000000
 NQMom=    0.0000000   0.0000000   0.0000000   0.0000000   0.0000000   0.0000000   0.0000000   0.0000000   0.0000000   0.0000000
 NMagM=    0.0000000   2.7928460   2.7928460   2.7928460   0.0000000   2.7928460   2.7928460   2.7928460   0.0000000   2.7928460
 AtZNuc=   6.0000000   1.0000000   1.0000000   1.0000000   6.0000000   1.0000000   1.0000000   1.0000000   6.0000000   1.0000000

  Atom        81          82          83          84          85          86          87          88          89          90
 IAtWgt=           1           1          23          16          12           1           1           1          12           1
 AtmWgt=   1.0078250   1.0078250  22.9897697  15.9949146  12.0000000   1.0078250   1.0078250   1.0078250  12.0000000   1.0078250
 NucSpn=           1           1           3           0           0           1           1           1           0           1
 AtZEff=   0.0000000   0.0000000   0.0000000   0.0000000   0.0000000   0.0000000   0.0000000   0.0000000   0.0000000   0.0000000
 NQMom=    0.0000000   0.0000000  10.4000000   0.0000000   0.0000000   0.0000000   0.0000000   0.0000000   0.0000000   0.0000000
 NMagM=    2.7928460   2.7928460   2.2175200   0.0000000   0.0000000   2.7928460   2.7928460   2.7928460   0.0000000   2.7928460
 AtZNuc=   1.0000000   1.0000000  11.0000000   8.0000000   6.0000000   1.0000000   1.0000000   1.0000000   6.0000000   1.0000000

  Atom        91          92          93          94          95          96          97          98          99         100
 IAtWgt=           1           1          12          19          19          19          12          19          19          19
 AtmWgt=   1.0078250   1.0078250  12.0000000  18.9984033  18.9984033  18.9984033  12.0000000  18.9984033  18.9984033  18.9984033
 NucSpn=           1           1           0           1           1           1           0           1           1           1
 AtZEff=   0.0000000   0.0000000   0.0000000   0.0000000   0.0000000   0.0000000   0.0000000   0.0000000   0.0000000   0.0000000
 NQMom=    0.0000000   0.0000000   0.0000000   0.0000000   0.0000000   0.0000000   0.0000000   0.0000000   0.0000000   0.0000000
 NMagM=    2.7928460   2.7928460   0.0000000   2.6288670   2.6288670   2.6288670   0.0000000   2.6288670   2.6288670   2.6288670
 AtZNuc=   1.0000000   1.0000000   6.0000000   9.0000000   9.0000000   9.0000000   6.0000000   9.0000000   9.0000000   9.0000000
 Leave Link  101 at Sun Jun 16 11:40:31 2019, MaxMem=  6442450944 cpu:              17.9 elap:               0.7
 (Enter /home/ekwan/sw/g16/l103.exe)

 GradGradGradGradGradGradGradGradGradGradGradGradGradGradGradGradGradGrad
 Berny optimization.
 Initialization pass.
                           ----------------------------
                           !    Initial Parameters    !
                           ! (Angstroms and Degrees)  !
 --------------------------                            --------------------------
 ! Name  Definition              Value          Derivative Info.                !
 --------------------------------------------------------------------------------
 ! R1    R(1,2)                  1.5414         calculate D2E/DX2 analytically  !
 ! R2    R(1,5)                  1.541          calculate D2E/DX2 analytically  !
 ! R3    R(1,8)                  1.1041         calculate D2E/DX2 analytically  !
 ! R4    R(1,14)                 1.432          calculate D2E/DX2 analytically  !
 ! R5    R(2,3)                  1.5419         calculate D2E/DX2 analytically  !
 ! R6    R(2,7)                  1.1026         calculate D2E/DX2 analytically  !
 ! R7    R(2,13)                 1.4272         calculate D2E/DX2 analytically  !
 ! R8    R(3,6)                  1.1048         calculate D2E/DX2 analytically  !
 ! R9    R(3,11)                 1.4311         calculate D2E/DX2 analytically  !
 ! R10   R(3,12)                 1.408          calculate D2E/DX2 analytically  !
 ! R11   R(4,5)                  1.5434         calculate D2E/DX2 analytically  !
 ! R12   R(4,9)                  1.1037         calculate D2E/DX2 analytically  !
 ! R13   R(4,11)                 1.4583         calculate D2E/DX2 analytically  !
 ! R14   R(4,16)                 1.5449         calculate D2E/DX2 analytically  !
 ! R15   R(5,10)                 1.1009         calculate D2E/DX2 analytically  !
 ! R16   R(5,15)                 1.4336         calculate D2E/DX2 analytically  !
 ! R17   R(10,37)                2.0576         calculate D2E/DX2 analytically  !
 ! R18   R(11,83)                2.451          calculate D2E/DX2 analytically  !
 ! R19   R(12,79)                1.4336         calculate D2E/DX2 analytically  !
 ! R20   R(13,20)                1.4295         calculate D2E/DX2 analytically  !
 ! R21   R(14,24)                1.4293         calculate D2E/DX2 analytically  !
 ! R22   R(15,28)                1.4337         calculate D2E/DX2 analytically  !
 ! R23   R(16,17)                1.117          calculate D2E/DX2 analytically  !
 ! R24   R(16,18)                1.1218         calculate D2E/DX2 analytically  !
 ! R25   R(16,19)                1.3818         calculate D2E/DX2 analytically  !
 ! R26   R(18,91)                2.2162         calculate D2E/DX2 analytically  !
 ! R27   R(19,83)                2.349          calculate D2E/DX2 analytically  !
 ! R28   R(20,21)                1.1065         calculate D2E/DX2 analytically  !
 ! R29   R(20,22)                1.1003         calculate D2E/DX2 analytically  !
 ! R30   R(20,23)                1.0994         calculate D2E/DX2 analytically  !
 ! R31   R(24,25)                1.1012         calculate D2E/DX2 analytically  !
 ! R32   R(24,26)                1.1071         calculate D2E/DX2 analytically  !
 ! R33   R(24,27)                1.0974         calculate D2E/DX2 analytically  !
 ! R34   R(28,29)                1.1018         calculate D2E/DX2 analytically  !
 ! R35   R(28,30)                1.1019         calculate D2E/DX2 analytically  !
 ! R36   R(28,31)                1.0999         calculate D2E/DX2 analytically  !
 ! R37   R(32,33)                1.5422         calculate D2E/DX2 analytically  !
 ! R38   R(32,36)                1.5437         calculate D2E/DX2 analytically  !
 ! R39   R(32,39)                1.1031         calculate D2E/DX2 analytically  !
 ! R40   R(32,45)                1.4232         calculate D2E/DX2 analytically  !
 ! R41   R(33,34)                1.5051         calculate D2E/DX2 analytically  !
 ! R42   R(33,38)                1.1095         calculate D2E/DX2 analytically  !
 ! R43   R(33,44)                1.422          calculate D2E/DX2 analytically  !
 ! R44   R(34,37)                1.0815         calculate D2E/DX2 analytically  !
 ! R45   R(34,42)                1.3023         calculate D2E/DX2 analytically  !
 ! R46   R(34,53)                2.12           calculate D2E/DX2 analytically  !
 ! R47   R(35,36)                1.5395         calculate D2E/DX2 analytically  !
 ! R48   R(35,40)                1.0987         calculate D2E/DX2 analytically  !
 ! R49   R(35,42)                1.4855         calculate D2E/DX2 analytically  !
 ! R50   R(35,47)                1.5177         calculate D2E/DX2 analytically  !
 ! R51   R(36,41)                1.1012         calculate D2E/DX2 analytically  !
 ! R52   R(36,46)                1.4245         calculate D2E/DX2 analytically  !
 ! R53   R(37,83)                2.3358         calculate D2E/DX2 analytically  !
 ! R54   R(42,60)                2.2292         calculate D2E/DX2 analytically  !
 ! R55   R(43,51)                1.4885         calculate D2E/DX2 analytically  !
 ! R56   R(44,63)                1.4452         calculate D2E/DX2 analytically  !
 ! R57   R(45,67)                1.4352         calculate D2E/DX2 analytically  !
 ! R58   R(46,71)                1.4367         calculate D2E/DX2 analytically  !
 ! R59   R(47,48)                1.1064         calculate D2E/DX2 analytically  !
 ! R60   R(47,49)                1.1053         calculate D2E/DX2 analytically  !
 ! R61   R(47,50)                1.4201         calculate D2E/DX2 analytically  !
 ! R62   R(50,75)                1.4291         calculate D2E/DX2 analytically  !
 ! R63   R(51,52)                1.5035         calculate D2E/DX2 analytically  !
 ! R64   R(51,53)                1.536          calculate D2E/DX2 analytically  !
 ! R65   R(51,54)                1.8221         calculate D2E/DX2 analytically  !
 ! R66   R(52,83)                2.4904         calculate D2E/DX2 analytically  !
 ! R67   R(54,55)                1.4011         calculate D2E/DX2 analytically  !
 ! R68   R(54,56)                1.3967         calculate D2E/DX2 analytically  !
 ! R69   R(55,57)                1.4022         calculate D2E/DX2 analytically  !
 ! R70   R(55,58)                1.0883         calculate D2E/DX2 analytically  !
 ! R71   R(56,59)                1.4014         calculate D2E/DX2 analytically  !
 ! R72   R(56,60)                1.0851         calculate D2E/DX2 analytically  !
 ! R73   R(57,61)                1.4047         calculate D2E/DX2 analytically  !
 ! R74   R(57,93)                1.5138         calculate D2E/DX2 analytically  !
 ! R75   R(59,61)                1.3994         calculate D2E/DX2 analytically  !
 ! R76   R(59,97)                1.5127         calculate D2E/DX2 analytically  !
 ! R77   R(61,62)                1.088          calculate D2E/DX2 analytically  !
 ! R78   R(63,64)                1.1019         calculate D2E/DX2 analytically  !
 ! R79   R(63,65)                1.098          calculate D2E/DX2 analytically  !
 ! R80   R(63,66)                1.0974         calculate D2E/DX2 analytically  !
 ! R81   R(67,68)                1.1007         calculate D2E/DX2 analytically  !
 ! R82   R(67,69)                1.1058         calculate D2E/DX2 analytically  !
 ! R83   R(67,70)                1.0988         calculate D2E/DX2 analytically  !
 ! R84   R(71,72)                1.1042         calculate D2E/DX2 analytically  !
 ! R85   R(71,73)                1.1032         calculate D2E/DX2 analytically  !
 ! R86   R(71,74)                1.0982         calculate D2E/DX2 analytically  !
 ! R87   R(75,76)                1.098          calculate D2E/DX2 analytically  !
 ! R88   R(75,77)                1.1064         calculate D2E/DX2 analytically  !
 ! R89   R(75,78)                1.1068         calculate D2E/DX2 analytically  !
 ! R90   R(79,80)                1.0981         calculate D2E/DX2 analytically  !
 ! R91   R(79,81)                1.1028         calculate D2E/DX2 analytically  !
 ! R92   R(79,82)                1.1068         calculate D2E/DX2 analytically  !
 ! R93   R(83,84)                2.3974         calculate D2E/DX2 analytically  !
 ! R94   R(84,85)                1.4269         calculate D2E/DX2 analytically  !
 ! R95   R(84,89)                1.4319         calculate D2E/DX2 analytically  !
 ! R96   R(85,86)                1.1067         calculate D2E/DX2 analytically  !
 ! R97   R(85,87)                1.0986         calculate D2E/DX2 analytically  !
 ! R98   R(85,88)                1.1059         calculate D2E/DX2 analytically  !
 ! R99   R(89,90)                1.1056         calculate D2E/DX2 analytically  !
 ! R100  R(89,91)                1.0989         calculate D2E/DX2 analytically  !
 ! R101  R(89,92)                1.1065         calculate D2E/DX2 analytically  !
 ! R102  R(93,94)                1.3677         calculate D2E/DX2 analytically  !
 ! R103  R(93,95)                1.3612         calculate D2E/DX2 analytically  !
 ! R104  R(93,96)                1.3581         calculate D2E/DX2 analytically  !
 ! R105  R(97,98)                1.3643         calculate D2E/DX2 analytically  !
 ! R106  R(97,99)                1.3664         calculate D2E/DX2 analytically  !
 ! R107  R(97,100)               1.3602         calculate D2E/DX2 analytically  !
 ! A1    A(2,1,5)              109.8998         calculate D2E/DX2 analytically  !
 ! A2    A(2,1,8)              108.4727         calculate D2E/DX2 analytically  !
 ! A3    A(2,1,14)             107.5134         calculate D2E/DX2 analytically  !
 ! A4    A(5,1,8)              109.2688         calculate D2E/DX2 analytically  !
 ! A5    A(5,1,14)             111.2799         calculate D2E/DX2 analytically  !
 ! A6    A(8,1,14)             110.3514         calculate D2E/DX2 analytically  !
 ! A7    A(1,2,3)              110.7342         calculate D2E/DX2 analytically  !
 ! A8    A(1,2,7)              108.5217         calculate D2E/DX2 analytically  !
 ! A9    A(1,2,13)             111.9862         calculate D2E/DX2 analytically  !
 ! A10   A(3,2,7)              106.1036         calculate D2E/DX2 analytically  !
 ! A11   A(3,2,13)             108.4878         calculate D2E/DX2 analytically  !
 ! A12   A(7,2,13)             110.8515         calculate D2E/DX2 analytically  !
 ! A13   A(2,3,6)              110.5097         calculate D2E/DX2 analytically  !
 ! A14   A(2,3,11)             110.0907         calculate D2E/DX2 analytically  !
 ! A15   A(2,3,12)             108.7881         calculate D2E/DX2 analytically  !
 ! A16   A(6,3,11)             104.4495         calculate D2E/DX2 analytically  !
 ! A17   A(6,3,12)             110.5444         calculate D2E/DX2 analytically  !
 ! A18   A(11,3,12)            112.4184         calculate D2E/DX2 analytically  !
 ! A19   A(5,4,9)              107.9711         calculate D2E/DX2 analytically  !
 ! A20   A(5,4,11)             109.4794         calculate D2E/DX2 analytically  !
 ! A21   A(5,4,16)             114.9937         calculate D2E/DX2 analytically  !
 ! A22   A(9,4,11)             108.5522         calculate D2E/DX2 analytically  !
 ! A23   A(9,4,16)             108.5208         calculate D2E/DX2 analytically  !
 ! A24   A(11,4,16)            107.1689         calculate D2E/DX2 analytically  !
 ! A25   A(1,5,4)              111.0176         calculate D2E/DX2 analytically  !
 ! A26   A(1,5,10)             107.4217         calculate D2E/DX2 analytically  !
 ! A27   A(1,5,15)             109.3092         calculate D2E/DX2 analytically  !
 ! A28   A(4,5,10)             109.5606         calculate D2E/DX2 analytically  !
 ! A29   A(4,5,15)             109.3832         calculate D2E/DX2 analytically  !
 ! A30   A(10,5,15)            110.1279         calculate D2E/DX2 analytically  !
 ! A31   A(5,10,37)            142.045          calculate D2E/DX2 analytically  !
 ! A32   A(3,11,4)             113.9464         calculate D2E/DX2 analytically  !
 ! A33   A(3,11,83)            129.272          calculate D2E/DX2 analytically  !
 ! A34   A(4,11,83)            110.0208         calculate D2E/DX2 analytically  !
 ! A35   A(3,12,79)            112.7497         calculate D2E/DX2 analytically  !
 ! A36   A(2,13,20)            113.4408         calculate D2E/DX2 analytically  !
 ! A37   A(1,14,24)            113.9301         calculate D2E/DX2 analytically  !
 ! A38   A(5,15,28)            112.8471         calculate D2E/DX2 analytically  !
 ! A39   A(4,16,17)            104.7465         calculate D2E/DX2 analytically  !
 ! A40   A(4,16,18)            104.5482         calculate D2E/DX2 analytically  !
 ! A41   A(4,16,19)            115.4901         calculate D2E/DX2 analytically  !
 ! A42   A(17,16,18)           105.4915         calculate D2E/DX2 analytically  !
 ! A43   A(17,16,19)           113.5824         calculate D2E/DX2 analytically  !
 ! A44   A(18,16,19)           112.0268         calculate D2E/DX2 analytically  !
 ! A45   A(16,18,91)           107.3977         calculate D2E/DX2 analytically  !
 ! A46   A(16,19,83)           106.605          calculate D2E/DX2 analytically  !
 ! A47   A(13,20,21)           111.1802         calculate D2E/DX2 analytically  !
 ! A48   A(13,20,22)           111.5192         calculate D2E/DX2 analytically  !
 ! A49   A(13,20,23)           106.5568         calculate D2E/DX2 analytically  !
 ! A50   A(21,20,22)           108.7073         calculate D2E/DX2 analytically  !
 ! A51   A(21,20,23)           108.9823         calculate D2E/DX2 analytically  !
 ! A52   A(22,20,23)           109.8514         calculate D2E/DX2 analytically  !
 ! A53   A(14,24,25)           111.4096         calculate D2E/DX2 analytically  !
 ! A54   A(14,24,26)           110.7458         calculate D2E/DX2 analytically  !
 ! A55   A(14,24,27)           106.3303         calculate D2E/DX2 analytically  !
 ! A56   A(25,24,26)           109.0147         calculate D2E/DX2 analytically  !
 ! A57   A(25,24,27)           109.9019         calculate D2E/DX2 analytically  !
 ! A58   A(26,24,27)           109.398          calculate D2E/DX2 analytically  !
 ! A59   A(15,28,29)           110.8073         calculate D2E/DX2 analytically  !
 ! A60   A(15,28,30)           111.512          calculate D2E/DX2 analytically  !
 ! A61   A(15,28,31)           106.4874         calculate D2E/DX2 analytically  !
 ! A62   A(29,28,30)           108.5481         calculate D2E/DX2 analytically  !
 ! A63   A(29,28,31)           109.5384         calculate D2E/DX2 analytically  !
 ! A64   A(30,28,31)           109.9267         calculate D2E/DX2 analytically  !
 ! A65   A(33,32,36)           108.0719         calculate D2E/DX2 analytically  !
 ! A66   A(33,32,39)           109.4472         calculate D2E/DX2 analytically  !
 ! A67   A(33,32,45)           107.742          calculate D2E/DX2 analytically  !
 ! A68   A(36,32,39)           109.9692         calculate D2E/DX2 analytically  !
 ! A69   A(36,32,45)           110.1638         calculate D2E/DX2 analytically  !
 ! A70   A(39,32,45)           111.3599         calculate D2E/DX2 analytically  !
 ! A71   A(32,33,34)           112.4399         calculate D2E/DX2 analytically  !
 ! A72   A(32,33,38)           108.3464         calculate D2E/DX2 analytically  !
 ! A73   A(32,33,44)           115.4409         calculate D2E/DX2 analytically  !
 ! A74   A(34,33,38)           102.4733         calculate D2E/DX2 analytically  !
 ! A75   A(34,33,44)           108.2249         calculate D2E/DX2 analytically  !
 ! A76   A(38,33,44)           109.0918         calculate D2E/DX2 analytically  !
 ! A77   A(33,34,37)           119.9367         calculate D2E/DX2 analytically  !
 ! A78   A(33,34,42)           122.2294         calculate D2E/DX2 analytically  !
 ! A79   A(33,34,53)            98.0999         calculate D2E/DX2 analytically  !
 ! A80   A(37,34,42)           113.2795         calculate D2E/DX2 analytically  !
 ! A81   A(37,34,53)            93.0336         calculate D2E/DX2 analytically  !
 ! A82   A(42,34,53)           100.0085         calculate D2E/DX2 analytically  !
 ! A83   A(36,35,40)           109.3555         calculate D2E/DX2 analytically  !
 ! A84   A(36,35,42)           110.9233         calculate D2E/DX2 analytically  !
 ! A85   A(36,35,47)           115.6255         calculate D2E/DX2 analytically  !
 ! A86   A(40,35,42)           105.0025         calculate D2E/DX2 analytically  !
 ! A87   A(40,35,47)           109.2913         calculate D2E/DX2 analytically  !
 ! A88   A(42,35,47)           106.0817         calculate D2E/DX2 analytically  !
 ! A89   A(32,36,35)           110.5949         calculate D2E/DX2 analytically  !
 ! A90   A(32,36,41)           108.3188         calculate D2E/DX2 analytically  !
 ! A91   A(32,36,46)           110.0765         calculate D2E/DX2 analytically  !
 ! A92   A(35,36,41)           109.3687         calculate D2E/DX2 analytically  !
 ! A93   A(35,36,46)           107.2039         calculate D2E/DX2 analytically  !
 ! A94   A(41,36,46)           111.2858         calculate D2E/DX2 analytically  !
 ! A95   A(10,37,34)           123.6166         calculate D2E/DX2 analytically  !
 ! A96   A(10,37,83)           107.1563         calculate D2E/DX2 analytically  !
 ! A97   A(34,37,83)           124.0328         calculate D2E/DX2 analytically  !
 ! A98   A(34,42,35)           119.4949         calculate D2E/DX2 analytically  !
 ! A99   A(34,42,60)            99.9941         calculate D2E/DX2 analytically  !
 ! A100  A(35,42,60)           107.2659         calculate D2E/DX2 analytically  !
 ! A101  A(33,44,63)           114.0355         calculate D2E/DX2 analytically  !
 ! A102  A(32,45,67)           113.7347         calculate D2E/DX2 analytically  !
 ! A103  A(36,46,71)           113.1005         calculate D2E/DX2 analytically  !
 ! A104  A(35,47,48)           107.7333         calculate D2E/DX2 analytically  !
 ! A105  A(35,47,49)           109.1319         calculate D2E/DX2 analytically  !
 ! A106  A(35,47,50)           109.308          calculate D2E/DX2 analytically  !
 ! A107  A(48,47,49)           108.0763         calculate D2E/DX2 analytically  !
 ! A108  A(48,47,50)           111.4562         calculate D2E/DX2 analytically  !
 ! A109  A(49,47,50)           111.0487         calculate D2E/DX2 analytically  !
 ! A110  A(47,50,75)           111.3125         calculate D2E/DX2 analytically  !
 ! A111  A(43,51,52)           115.3121         calculate D2E/DX2 analytically  !
 ! A112  A(43,51,53)           112.2886         calculate D2E/DX2 analytically  !
 ! A113  A(43,51,54)           106.9366         calculate D2E/DX2 analytically  !
 ! A114  A(52,51,53)           111.6261         calculate D2E/DX2 analytically  !
 ! A115  A(52,51,54)           105.3844         calculate D2E/DX2 analytically  !
 ! A116  A(53,51,54)           104.3032         calculate D2E/DX2 analytically  !
 ! A117  A(51,52,83)           132.2158         calculate D2E/DX2 analytically  !
 ! A118  A(34,53,51)           116.3999         calculate D2E/DX2 analytically  !
 ! A119  A(51,54,55)           119.6423         calculate D2E/DX2 analytically  !
 ! A120  A(51,54,56)           119.1309         calculate D2E/DX2 analytically  !
 ! A121  A(55,54,56)           121.1949         calculate D2E/DX2 analytically  !
 ! A122  A(54,55,57)           118.7563         calculate D2E/DX2 analytically  !
 ! A123  A(54,55,58)           120.4473         calculate D2E/DX2 analytically  !
 ! A124  A(57,55,58)           120.7931         calculate D2E/DX2 analytically  !
 ! A125  A(54,56,59)           119.3343         calculate D2E/DX2 analytically  !
 ! A126  A(54,56,60)           120.664          calculate D2E/DX2 analytically  !
 ! A127  A(59,56,60)           120.0017         calculate D2E/DX2 analytically  !
 ! A128  A(55,57,61)           120.8555         calculate D2E/DX2 analytically  !
 ! A129  A(55,57,93)           120.146          calculate D2E/DX2 analytically  !
 ! A130  A(61,57,93)           118.9076         calculate D2E/DX2 analytically  !
 ! A131  A(56,59,61)           120.5411         calculate D2E/DX2 analytically  !
 ! A132  A(56,59,97)           118.4392         calculate D2E/DX2 analytically  !
 ! A133  A(61,59,97)           120.8696         calculate D2E/DX2 analytically  !
 ! A134  A(42,60,56)           164.6548         calculate D2E/DX2 analytically  !
 ! A135  A(57,61,59)           119.3161         calculate D2E/DX2 analytically  !
 ! A136  A(57,61,62)           120.2105         calculate D2E/DX2 analytically  !
 ! A137  A(59,61,62)           120.4733         calculate D2E/DX2 analytically  !
 ! A138  A(44,63,64)           110.1912         calculate D2E/DX2 analytically  !
 ! A139  A(44,63,65)           110.7517         calculate D2E/DX2 analytically  !
 ! A140  A(44,63,66)           105.7183         calculate D2E/DX2 analytically  !
 ! A141  A(64,63,65)           109.8299         calculate D2E/DX2 analytically  !
 ! A142  A(64,63,66)           109.4593         calculate D2E/DX2 analytically  !
 ! A143  A(65,63,66)           110.8163         calculate D2E/DX2 analytically  !
 ! A144  A(45,67,68)           111.2198         calculate D2E/DX2 analytically  !
 ! A145  A(45,67,69)           110.667          calculate D2E/DX2 analytically  !
 ! A146  A(45,67,70)           106.1067         calculate D2E/DX2 analytically  !
 ! A147  A(68,67,69)           109.3267         calculate D2E/DX2 analytically  !
 ! A148  A(68,67,70)           110.0542         calculate D2E/DX2 analytically  !
 ! A149  A(69,67,70)           109.4151         calculate D2E/DX2 analytically  !
 ! A150  A(46,71,72)           110.555          calculate D2E/DX2 analytically  !
 ! A151  A(46,71,73)           111.0899         calculate D2E/DX2 analytically  !
 ! A152  A(46,71,74)           106.2865         calculate D2E/DX2 analytically  !
 ! A153  A(72,71,73)           109.1179         calculate D2E/DX2 analytically  !
 ! A154  A(72,71,74)           109.7713         calculate D2E/DX2 analytically  !
 ! A155  A(73,71,74)           109.988          calculate D2E/DX2 analytically  !
 ! A156  A(50,75,76)           106.6877         calculate D2E/DX2 analytically  !
 ! A157  A(50,75,77)           110.8328         calculate D2E/DX2 analytically  !
 ! A158  A(50,75,78)           111.19           calculate D2E/DX2 analytically  !
 ! A159  A(76,75,77)           109.5833         calculate D2E/DX2 analytically  !
 ! A160  A(76,75,78)           109.6348         calculate D2E/DX2 analytically  !
 ! A161  A(77,75,78)           108.8828         calculate D2E/DX2 analytically  !
 ! A162  A(12,79,80)           106.4732         calculate D2E/DX2 analytically  !
 ! A163  A(12,79,81)           111.2291         calculate D2E/DX2 analytically  !
 ! A164  A(12,79,82)           110.6496         calculate D2E/DX2 analytically  !
 ! A165  A(80,79,81)           109.8296         calculate D2E/DX2 analytically  !
 ! A166  A(80,79,82)           109.6256         calculate D2E/DX2 analytically  !
 ! A167  A(81,79,82)           109.0023         calculate D2E/DX2 analytically  !
 ! A168  A(11,83,19)            74.0109         calculate D2E/DX2 analytically  !
 ! A169  A(11,83,37)            83.8689         calculate D2E/DX2 analytically  !
 ! A170  A(11,83,52)            86.6575         calculate D2E/DX2 analytically  !
 ! A171  A(11,83,84)           104.3108         calculate D2E/DX2 analytically  !
 ! A172  A(19,83,37)            56.8494         calculate D2E/DX2 analytically  !
 ! A173  A(19,83,52)           115.7748         calculate D2E/DX2 analytically  !
 ! A174  A(19,83,84)           101.9417         calculate D2E/DX2 analytically  !
 ! A175  A(37,83,52)            60.6273         calculate D2E/DX2 analytically  !
 ! A176  A(37,83,84)           154.8416         calculate D2E/DX2 analytically  !
 ! A177  A(52,83,84)           142.283          calculate D2E/DX2 analytically  !
 ! A178  A(83,84,85)           138.0612         calculate D2E/DX2 analytically  !
 ! A179  A(83,84,89)           108.0922         calculate D2E/DX2 analytically  !
 ! A180  A(85,84,89)           112.5148         calculate D2E/DX2 analytically  !
 ! A181  A(84,85,86)           110.7252         calculate D2E/DX2 analytically  !
 ! A182  A(84,85,87)           107.0309         calculate D2E/DX2 analytically  !
 ! A183  A(84,85,88)           110.8459         calculate D2E/DX2 analytically  !
 ! A184  A(86,85,87)           109.6936         calculate D2E/DX2 analytically  !
 ! A185  A(86,85,88)           108.8771         calculate D2E/DX2 analytically  !
 ! A186  A(87,85,88)           109.6478         calculate D2E/DX2 analytically  !
 ! A187  A(84,89,90)           110.6446         calculate D2E/DX2 analytically  !
 ! A188  A(84,89,91)           106.2378         calculate D2E/DX2 analytically  !
 ! A189  A(84,89,92)           110.5316         calculate D2E/DX2 analytically  !
 ! A190  A(90,89,91)           110.6488         calculate D2E/DX2 analytically  !
 ! A191  A(90,89,92)           108.9661         calculate D2E/DX2 analytically  !
 ! A192  A(91,89,92)           109.793          calculate D2E/DX2 analytically  !
 ! A193  A(18,91,89)           130.2786         calculate D2E/DX2 analytically  !
 ! A194  A(57,93,94)           110.8452         calculate D2E/DX2 analytically  !
 ! A195  A(57,93,95)           111.7772         calculate D2E/DX2 analytically  !
 ! A196  A(57,93,96)           112.4088         calculate D2E/DX2 analytically  !
 ! A197  A(94,93,95)           106.7399         calculate D2E/DX2 analytically  !
 ! A198  A(94,93,96)           107.1094         calculate D2E/DX2 analytically  !
 ! A199  A(95,93,96)           107.6686         calculate D2E/DX2 analytically  !
 ! A200  A(59,97,98)           112.2676         calculate D2E/DX2 analytically  !
 ! A201  A(59,97,99)           110.7438         calculate D2E/DX2 analytically  !
 ! A202  A(59,97,100)          112.5323         calculate D2E/DX2 analytically  !
 ! A203  A(98,97,99)           106.249          calculate D2E/DX2 analytically  !
 ! A204  A(98,97,100)          107.4922         calculate D2E/DX2 analytically  !
 ! A205  A(99,97,100)          107.2153         calculate D2E/DX2 analytically  !
 ! D1    D(5,1,2,3)            -52.7725         calculate D2E/DX2 analytically  !
 ! D2    D(5,1,2,7)             63.3061         calculate D2E/DX2 analytically  !
 ! D3    D(5,1,2,13)          -174.0038         calculate D2E/DX2 analytically  !
 ! D4    D(8,1,2,3)             66.6305         calculate D2E/DX2 analytically  !
 ! D5    D(8,1,2,7)           -177.2909         calculate D2E/DX2 analytically  !
 ! D6    D(8,1,2,13)           -54.6008         calculate D2E/DX2 analytically  !
 ! D7    D(14,1,2,3)          -174.035          calculate D2E/DX2 analytically  !
 ! D8    D(14,1,2,7)           -57.9563         calculate D2E/DX2 analytically  !
 ! D9    D(14,1,2,13)           64.7337         calculate D2E/DX2 analytically  !
 ! D10   D(2,1,5,4)             52.8274         calculate D2E/DX2 analytically  !
 ! D11   D(2,1,5,10)           -66.9397         calculate D2E/DX2 analytically  !
 ! D12   D(2,1,5,15)           173.5812         calculate D2E/DX2 analytically  !
 ! D13   D(8,1,5,4)            -66.0879         calculate D2E/DX2 analytically  !
 ! D14   D(8,1,5,10)           174.145          calculate D2E/DX2 analytically  !
 ! D15   D(8,1,5,15)            54.6659         calculate D2E/DX2 analytically  !
 ! D16   D(14,1,5,4)           171.8034         calculate D2E/DX2 analytically  !
 ! D17   D(14,1,5,10)           52.0363         calculate D2E/DX2 analytically  !
 ! D18   D(14,1,5,15)          -67.4427         calculate D2E/DX2 analytically  !
 ! D19   D(2,1,14,24)         -144.7006         calculate D2E/DX2 analytically  !
 ! D20   D(5,1,14,24)           94.9057         calculate D2E/DX2 analytically  !
 ! D21   D(8,1,14,24)          -26.5739         calculate D2E/DX2 analytically  !
 ! D22   D(1,2,3,6)            170.9035         calculate D2E/DX2 analytically  !
 ! D23   D(1,2,3,11)            56.0373         calculate D2E/DX2 analytically  !
 ! D24   D(1,2,3,12)           -67.5607         calculate D2E/DX2 analytically  !
 ! D25   D(7,2,3,6)             53.3341         calculate D2E/DX2 analytically  !
 ! D26   D(7,2,3,11)           -61.5321         calculate D2E/DX2 analytically  !
 ! D27   D(7,2,3,12)           174.8699         calculate D2E/DX2 analytically  !
 ! D28   D(13,2,3,6)           -65.821          calculate D2E/DX2 analytically  !
 ! D29   D(13,2,3,11)          179.3128         calculate D2E/DX2 analytically  !
 ! D30   D(13,2,3,12)           55.7148         calculate D2E/DX2 analytically  !
 ! D31   D(1,2,13,20)          -97.9813         calculate D2E/DX2 analytically  !
 ! D32   D(3,2,13,20)          139.5002         calculate D2E/DX2 analytically  !
 ! D33   D(7,2,13,20)           23.3758         calculate D2E/DX2 analytically  !
 ! D34   D(2,3,11,4)           -60.925          calculate D2E/DX2 analytically  !
 ! D35   D(2,3,11,83)           86.9649         calculate D2E/DX2 analytically  !
 ! D36   D(6,3,11,4)          -179.5779         calculate D2E/DX2 analytically  !
 ! D37   D(6,3,11,83)          -31.688          calculate D2E/DX2 analytically  !
 ! D38   D(12,3,11,4)           60.5326         calculate D2E/DX2 analytically  !
 ! D39   D(12,3,11,83)        -151.5775         calculate D2E/DX2 analytically  !
 ! D40   D(2,3,12,79)         -174.1092         calculate D2E/DX2 analytically  !
 ! D41   D(6,3,12,79)          -52.5946         calculate D2E/DX2 analytically  !
 ! D42   D(11,3,12,79)          63.6926         calculate D2E/DX2 analytically  !
 ! D43   D(9,4,5,1)             62.7809         calculate D2E/DX2 analytically  !
 ! D44   D(9,4,5,10)          -178.7359         calculate D2E/DX2 analytically  !
 ! D45   D(9,4,5,15)           -57.9292         calculate D2E/DX2 analytically  !
 ! D46   D(11,4,5,1)           -55.2226         calculate D2E/DX2 analytically  !
 ! D47   D(11,4,5,10)           63.2606         calculate D2E/DX2 analytically  !
 ! D48   D(11,4,5,15)         -175.9327         calculate D2E/DX2 analytically  !
 ! D49   D(16,4,5,1)          -175.9101         calculate D2E/DX2 analytically  !
 ! D50   D(16,4,5,10)          -57.4269         calculate D2E/DX2 analytically  !
 ! D51   D(16,4,5,15)           63.3798         calculate D2E/DX2 analytically  !
 ! D52   D(5,4,11,3)            60.4456         calculate D2E/DX2 analytically  !
 ! D53   D(5,4,11,83)          -93.5803         calculate D2E/DX2 analytically  !
 ! D54   D(9,4,11,3)           -57.1946         calculate D2E/DX2 analytically  !
 ! D55   D(9,4,11,83)          148.7795         calculate D2E/DX2 analytically  !
 ! D56   D(16,4,11,3)         -174.2193         calculate D2E/DX2 analytically  !
 ! D57   D(16,4,11,83)          31.7547         calculate D2E/DX2 analytically  !
 ! D58   D(5,4,16,17)          -63.5721         calculate D2E/DX2 analytically  !
 ! D59   D(5,4,16,18)         -174.2828         calculate D2E/DX2 analytically  !
 ! D60   D(5,4,16,19)           62.1459         calculate D2E/DX2 analytically  !
 ! D61   D(9,4,16,17)           57.4371         calculate D2E/DX2 analytically  !
 ! D62   D(9,4,16,18)          -53.2735         calculate D2E/DX2 analytically  !
 ! D63   D(9,4,16,19)         -176.8448         calculate D2E/DX2 analytically  !
 ! D64   D(11,4,16,17)         174.4825         calculate D2E/DX2 analytically  !
 ! D65   D(11,4,16,18)          63.7719         calculate D2E/DX2 analytically  !
 ! D66   D(11,4,16,19)         -59.7994         calculate D2E/DX2 analytically  !
 ! D67   D(1,5,10,37)          121.6209         calculate D2E/DX2 analytically  !
 ! D68   D(4,5,10,37)            0.9294         calculate D2E/DX2 analytically  !
 ! D69   D(15,5,10,37)        -119.4247         calculate D2E/DX2 analytically  !
 ! D70   D(1,5,15,28)          135.3682         calculate D2E/DX2 analytically  !
 ! D71   D(4,5,15,28)         -102.8869         calculate D2E/DX2 analytically  !
 ! D72   D(10,5,15,28)          17.5741         calculate D2E/DX2 analytically  !
 ! D73   D(5,10,37,34)         131.2251         calculate D2E/DX2 analytically  !
 ! D74   D(5,10,37,83)         -24.0874         calculate D2E/DX2 analytically  !
 ! D75   D(3,11,83,19)        -155.3927         calculate D2E/DX2 analytically  !
 ! D76   D(3,11,83,37)         -98.1677         calculate D2E/DX2 analytically  !
 ! D77   D(3,11,83,52)         -37.3688         calculate D2E/DX2 analytically  !
 ! D78   D(3,11,83,84)         106.0359         calculate D2E/DX2 analytically  !
 ! D79   D(4,11,83,19)          -6.5267         calculate D2E/DX2 analytically  !
 ! D80   D(4,11,83,37)          50.6984         calculate D2E/DX2 analytically  !
 ! D81   D(4,11,83,52)         111.4972         calculate D2E/DX2 analytically  !
 ! D82   D(4,11,83,84)        -105.098          calculate D2E/DX2 analytically  !
 ! D83   D(3,12,79,80)         174.0178         calculate D2E/DX2 analytically  !
 ! D84   D(3,12,79,81)         -66.3542         calculate D2E/DX2 analytically  !
 ! D85   D(3,12,79,82)          54.9571         calculate D2E/DX2 analytically  !
 ! D86   D(2,13,20,21)         -60.3299         calculate D2E/DX2 analytically  !
 ! D87   D(2,13,20,22)          61.1718         calculate D2E/DX2 analytically  !
 ! D88   D(2,13,20,23)        -178.958          calculate D2E/DX2 analytically  !
 ! D89   D(1,14,24,25)         -63.7561         calculate D2E/DX2 analytically  !
 ! D90   D(1,14,24,26)          57.7601         calculate D2E/DX2 analytically  !
 ! D91   D(1,14,24,27)         176.5153         calculate D2E/DX2 analytically  !
 ! D92   D(5,15,28,29)         -65.0709         calculate D2E/DX2 analytically  !
 ! D93   D(5,15,28,30)          55.9638         calculate D2E/DX2 analytically  !
 ! D94   D(5,15,28,31)         175.8781         calculate D2E/DX2 analytically  !
 ! D95   D(4,16,18,91)        -128.0853         calculate D2E/DX2 analytically  !
 ! D96   D(17,16,18,91)        121.744          calculate D2E/DX2 analytically  !
 ! D97   D(19,16,18,91)         -2.3098         calculate D2E/DX2 analytically  !
 ! D98   D(4,16,19,83)          52.5453         calculate D2E/DX2 analytically  !
 ! D99   D(17,16,19,83)        173.5968         calculate D2E/DX2 analytically  !
 ! D100  D(18,16,19,83)        -66.9978         calculate D2E/DX2 analytically  !
 ! D101  D(16,18,91,89)        146.5135         calculate D2E/DX2 analytically  !
 ! D102  D(16,19,83,11)        -23.0521         calculate D2E/DX2 analytically  !
 ! D103  D(16,19,83,37)       -116.1736         calculate D2E/DX2 analytically  !
 ! D104  D(16,19,83,52)       -101.1807         calculate D2E/DX2 analytically  !
 ! D105  D(16,19,83,84)         78.6145         calculate D2E/DX2 analytically  !
 ! D106  D(36,32,33,34)        -46.9659         calculate D2E/DX2 analytically  !
 ! D107  D(36,32,33,38)         65.5627         calculate D2E/DX2 analytically  !
 ! D108  D(36,32,33,44)       -171.7974         calculate D2E/DX2 analytically  !
 ! D109  D(39,32,33,34)         72.7821         calculate D2E/DX2 analytically  !
 ! D110  D(39,32,33,38)       -174.6893         calculate D2E/DX2 analytically  !
 ! D111  D(39,32,33,44)        -52.0495         calculate D2E/DX2 analytically  !
 ! D112  D(45,32,33,34)       -165.9849         calculate D2E/DX2 analytically  !
 ! D113  D(45,32,33,38)        -53.4563         calculate D2E/DX2 analytically  !
 ! D114  D(45,32,33,44)         69.1835         calculate D2E/DX2 analytically  !
 ! D115  D(33,32,36,35)         58.0193         calculate D2E/DX2 analytically  !
 ! D116  D(33,32,36,41)        -61.8229         calculate D2E/DX2 analytically  !
 ! D117  D(33,32,36,46)        176.2971         calculate D2E/DX2 analytically  !
 ! D118  D(39,32,36,35)        -61.3993         calculate D2E/DX2 analytically  !
 ! D119  D(39,32,36,41)        178.7585         calculate D2E/DX2 analytically  !
 ! D120  D(39,32,36,46)         56.8785         calculate D2E/DX2 analytically  !
 ! D121  D(45,32,36,35)        175.49           calculate D2E/DX2 analytically  !
 ! D122  D(45,32,36,41)         55.6479         calculate D2E/DX2 analytically  !
 ! D123  D(45,32,36,46)        -66.2322         calculate D2E/DX2 analytically  !
 ! D124  D(33,32,45,67)       -144.6223         calculate D2E/DX2 analytically  !
 ! D125  D(36,32,45,67)         97.7028         calculate D2E/DX2 analytically  !
 ! D126  D(39,32,45,67)        -24.5909         calculate D2E/DX2 analytically  !
 ! D127  D(32,33,34,37)       -169.6447         calculate D2E/DX2 analytically  !
 ! D128  D(32,33,34,42)         35.9063         calculate D2E/DX2 analytically  !
 ! D129  D(32,33,34,53)        -71.3859         calculate D2E/DX2 analytically  !
 ! D130  D(38,33,34,37)         74.2429         calculate D2E/DX2 analytically  !
 ! D131  D(38,33,34,42)        -80.2061         calculate D2E/DX2 analytically  !
 ! D132  D(38,33,34,53)        172.5017         calculate D2E/DX2 analytically  !
 ! D133  D(44,33,34,37)        -40.9405         calculate D2E/DX2 analytically  !
 ! D134  D(44,33,34,42)        164.6105         calculate D2E/DX2 analytically  !
 ! D135  D(44,33,34,53)         57.3183         calculate D2E/DX2 analytically  !
 ! D136  D(32,33,44,63)        -82.931          calculate D2E/DX2 analytically  !
 ! D137  D(34,33,44,63)        150.0799         calculate D2E/DX2 analytically  !
 ! D138  D(38,33,44,63)         39.3114         calculate D2E/DX2 analytically  !
 ! D139  D(33,34,37,10)       -140.225          calculate D2E/DX2 analytically  !
 ! D140  D(33,34,37,83)         10.9871         calculate D2E/DX2 analytically  !
 ! D141  D(42,34,37,10)         16.3721         calculate D2E/DX2 analytically  !
 ! D142  D(42,34,37,83)        167.5843         calculate D2E/DX2 analytically  !
 ! D143  D(53,34,37,10)        118.6272         calculate D2E/DX2 analytically  !
 ! D144  D(53,34,37,83)        -90.1607         calculate D2E/DX2 analytically  !
 ! D145  D(33,34,42,35)        -32.4687         calculate D2E/DX2 analytically  !
 ! D146  D(33,34,42,60)       -148.9518         calculate D2E/DX2 analytically  !
 ! D147  D(37,34,42,35)        171.5411         calculate D2E/DX2 analytically  !
 ! D148  D(37,34,42,60)         55.058          calculate D2E/DX2 analytically  !
 ! D149  D(53,34,42,35)         73.8154         calculate D2E/DX2 analytically  !
 ! D150  D(53,34,42,60)        -42.6678         calculate D2E/DX2 analytically  !
 ! D151  D(33,34,53,51)       -122.0487         calculate D2E/DX2 analytically  !
 ! D152  D(37,34,53,51)         -1.2301         calculate D2E/DX2 analytically  !
 ! D153  D(42,34,53,51)        113.0527         calculate D2E/DX2 analytically  !
 ! D154  D(40,35,36,32)         61.4763         calculate D2E/DX2 analytically  !
 ! D155  D(40,35,36,41)       -179.3141         calculate D2E/DX2 analytically  !
 ! D156  D(40,35,36,46)        -58.5392         calculate D2E/DX2 analytically  !
 ! D157  D(42,35,36,32)        -53.8671         calculate D2E/DX2 analytically  !
 ! D158  D(42,35,36,41)         65.3424         calculate D2E/DX2 analytically  !
 ! D159  D(42,35,36,46)       -173.8827         calculate D2E/DX2 analytically  !
 ! D160  D(47,35,36,32)       -174.6847         calculate D2E/DX2 analytically  !
 ! D161  D(47,35,36,41)        -55.4752         calculate D2E/DX2 analytically  !
 ! D162  D(47,35,36,46)         65.2997         calculate D2E/DX2 analytically  !
 ! D163  D(36,35,42,34)         40.5623         calculate D2E/DX2 analytically  !
 ! D164  D(36,35,42,60)        153.1818         calculate D2E/DX2 analytically  !
 ! D165  D(40,35,42,34)        -77.4597         calculate D2E/DX2 analytically  !
 ! D166  D(40,35,42,60)         35.1598         calculate D2E/DX2 analytically  !
 ! D167  D(47,35,42,34)        166.8683         calculate D2E/DX2 analytically  !
 ! D168  D(47,35,42,60)        -80.5123         calculate D2E/DX2 analytically  !
 ! D169  D(36,35,47,48)        -65.8468         calculate D2E/DX2 analytically  !
 ! D170  D(36,35,47,49)        177.0406         calculate D2E/DX2 analytically  !
 ! D171  D(36,35,47,50)         55.4158         calculate D2E/DX2 analytically  !
 ! D172  D(40,35,47,48)         58.0257         calculate D2E/DX2 analytically  !
 ! D173  D(40,35,47,49)        -59.0869         calculate D2E/DX2 analytically  !
 ! D174  D(40,35,47,50)        179.2883         calculate D2E/DX2 analytically  !
 ! D175  D(42,35,47,48)        170.7526         calculate D2E/DX2 analytically  !
 ! D176  D(42,35,47,49)         53.64           calculate D2E/DX2 analytically  !
 ! D177  D(42,35,47,50)        -67.9848         calculate D2E/DX2 analytically  !
 ! D178  D(32,36,46,71)        130.54           calculate D2E/DX2 analytically  !
 ! D179  D(35,36,46,71)       -109.114          calculate D2E/DX2 analytically  !
 ! D180  D(41,36,46,71)         10.4388         calculate D2E/DX2 analytically  !
 ! D181  D(10,37,83,11)         -4.1384         calculate D2E/DX2 analytically  !
 ! D182  D(10,37,83,19)         70.7478         calculate D2E/DX2 analytically  !
 ! D183  D(10,37,83,52)        -93.7469         calculate D2E/DX2 analytically  !
 ! D184  D(10,37,83,84)        106.7211         calculate D2E/DX2 analytically  !
 ! D185  D(34,37,83,11)       -159.3223         calculate D2E/DX2 analytically  !
 ! D186  D(34,37,83,19)        -84.4361         calculate D2E/DX2 analytically  !
 ! D187  D(34,37,83,52)        111.0691         calculate D2E/DX2 analytically  !
 ! D188  D(34,37,83,84)        -48.4629         calculate D2E/DX2 analytically  !
 ! D189  D(34,42,60,56)          2.1429         calculate D2E/DX2 analytically  !
 ! D190  D(35,42,60,56)       -123.1878         calculate D2E/DX2 analytically  !
 ! D191  D(33,44,63,64)        -46.431          calculate D2E/DX2 analytically  !
 ! D192  D(33,44,63,65)         75.2951         calculate D2E/DX2 analytically  !
 ! D193  D(33,44,63,66)       -164.6106         calculate D2E/DX2 analytically  !
 ! D194  D(32,45,67,68)        -61.5989         calculate D2E/DX2 analytically  !
 ! D195  D(32,45,67,69)         60.1302         calculate D2E/DX2 analytically  !
 ! D196  D(32,45,67,70)        178.7315         calculate D2E/DX2 analytically  !
 ! D197  D(36,46,71,72)        -64.9431         calculate D2E/DX2 analytically  !
 ! D198  D(36,46,71,73)         56.3563         calculate D2E/DX2 analytically  !
 ! D199  D(36,46,71,74)        175.9838         calculate D2E/DX2 analytically  !
 ! D200  D(35,47,50,75)        172.8264         calculate D2E/DX2 analytically  !
 ! D201  D(48,47,50,75)        -68.1959         calculate D2E/DX2 analytically  !
 ! D202  D(49,47,50,75)         52.3665         calculate D2E/DX2 analytically  !
 ! D203  D(47,50,75,76)       -179.8133         calculate D2E/DX2 analytically  !
 ! D204  D(47,50,75,77)        -60.5737         calculate D2E/DX2 analytically  !
 ! D205  D(47,50,75,78)         60.6848         calculate D2E/DX2 analytically  !
 ! D206  D(43,51,52,83)       -109.5233         calculate D2E/DX2 analytically  !
 ! D207  D(53,51,52,83)         20.1811         calculate D2E/DX2 analytically  !
 ! D208  D(54,51,52,83)        132.8076         calculate D2E/DX2 analytically  !
 ! D209  D(43,51,53,34)        154.2207         calculate D2E/DX2 analytically  !
 ! D210  D(52,51,53,34)         22.9539         calculate D2E/DX2 analytically  !
 ! D211  D(54,51,53,34)        -90.3489         calculate D2E/DX2 analytically  !
 ! D212  D(43,51,54,55)        -33.9182         calculate D2E/DX2 analytically  !
 ! D213  D(43,51,54,56)        148.1116         calculate D2E/DX2 analytically  !
 ! D214  D(52,51,54,55)         89.2661         calculate D2E/DX2 analytically  !
 ! D215  D(52,51,54,56)        -88.7042         calculate D2E/DX2 analytically  !
 ! D216  D(53,51,54,55)       -153.0479         calculate D2E/DX2 analytically  !
 ! D217  D(53,51,54,56)         28.9818         calculate D2E/DX2 analytically  !
 ! D218  D(51,52,83,11)       -138.9053         calculate D2E/DX2 analytically  !
 ! D219  D(51,52,83,19)        -68.4542         calculate D2E/DX2 analytically  !
 ! D220  D(51,52,83,37)        -54.0629         calculate D2E/DX2 analytically  !
 ! D221  D(51,52,83,84)        111.8734         calculate D2E/DX2 analytically  !
 ! D222  D(51,54,55,57)       -178.1677         calculate D2E/DX2 analytically  !
 ! D223  D(51,54,55,58)          2.492          calculate D2E/DX2 analytically  !
 ! D224  D(56,54,55,57)         -0.2404         calculate D2E/DX2 analytically  !
 ! D225  D(56,54,55,58)       -179.5807         calculate D2E/DX2 analytically  !
 ! D226  D(51,54,56,59)        178.3884         calculate D2E/DX2 analytically  !
 ! D227  D(51,54,56,60)         -1.6007         calculate D2E/DX2 analytically  !
 ! D228  D(55,54,56,59)          0.4507         calculate D2E/DX2 analytically  !
 ! D229  D(55,54,56,60)       -179.5384         calculate D2E/DX2 analytically  !
 ! D230  D(54,55,57,61)         -0.165          calculate D2E/DX2 analytically  !
 ! D231  D(54,55,57,93)        176.3314         calculate D2E/DX2 analytically  !
 ! D232  D(58,55,57,61)        179.1729         calculate D2E/DX2 analytically  !
 ! D233  D(58,55,57,93)         -4.3307         calculate D2E/DX2 analytically  !
 ! D234  D(54,56,59,61)         -0.2574         calculate D2E/DX2 analytically  !
 ! D235  D(54,56,59,97)        175.3282         calculate D2E/DX2 analytically  !
 ! D236  D(60,56,59,61)        179.7317         calculate D2E/DX2 analytically  !
 ! D237  D(60,56,59,97)         -4.6827         calculate D2E/DX2 analytically  !
 ! D238  D(54,56,60,42)         17.0661         calculate D2E/DX2 analytically  !
 ! D239  D(59,56,60,42)       -162.9228         calculate D2E/DX2 analytically  !
 ! D240  D(55,57,61,59)          0.3518         calculate D2E/DX2 analytically  !
 ! D241  D(55,57,61,62)       -179.588          calculate D2E/DX2 analytically  !
 ! D242  D(93,57,61,59)       -176.1873         calculate D2E/DX2 analytically  !
 ! D243  D(93,57,61,62)          3.8729         calculate D2E/DX2 analytically  !
 ! D244  D(55,57,93,94)        -96.2571         calculate D2E/DX2 analytically  !
 ! D245  D(55,57,93,95)        144.7956         calculate D2E/DX2 analytically  !
 ! D246  D(55,57,93,96)         23.5793         calculate D2E/DX2 analytically  !
 ! D247  D(61,57,93,94)         80.3072         calculate D2E/DX2 analytically  !
 ! D248  D(61,57,93,95)        -38.6401         calculate D2E/DX2 analytically  !
 ! D249  D(61,57,93,96)       -159.8564         calculate D2E/DX2 analytically  !
 ! D250  D(56,59,61,57)         -0.1377         calculate D2E/DX2 analytically  !
 ! D251  D(56,59,61,62)        179.8019         calculate D2E/DX2 analytically  !
 ! D252  D(97,59,61,57)       -175.6152         calculate D2E/DX2 analytically  !
 ! D253  D(97,59,61,62)          4.3245         calculate D2E/DX2 analytically  !
 ! D254  D(56,59,97,98)         38.8505         calculate D2E/DX2 analytically  !
 ! D255  D(56,59,97,99)        -79.7306         calculate D2E/DX2 analytically  !
 ! D256  D(56,59,97,100)       160.2848         calculate D2E/DX2 analytically  !
 ! D257  D(61,59,97,98)       -145.5789         calculate D2E/DX2 analytically  !
 ! D258  D(61,59,97,99)         95.8399         calculate D2E/DX2 analytically  !
 ! D259  D(61,59,97,100)       -24.1446         calculate D2E/DX2 analytically  !
 ! D260  D(11,83,84,85)       -111.9808         calculate D2E/DX2 analytically  !
 ! D261  D(11,83,84,89)         82.9216         calculate D2E/DX2 analytically  !
 ! D262  D(19,83,84,85)        171.7059         calculate D2E/DX2 analytically  !
 ! D263  D(19,83,84,89)          6.6083         calculate D2E/DX2 analytically  !
 ! D264  D(37,83,84,85)        141.5286         calculate D2E/DX2 analytically  !
 ! D265  D(37,83,84,89)        -23.5691         calculate D2E/DX2 analytically  !
 ! D266  D(52,83,84,85)         -8.5957         calculate D2E/DX2 analytically  !
 ! D267  D(52,83,84,89)       -173.6933         calculate D2E/DX2 analytically  !
 ! D268  D(83,84,85,86)       -104.3204         calculate D2E/DX2 analytically  !
 ! D269  D(83,84,85,87)         15.2            calculate D2E/DX2 analytically  !
 ! D270  D(83,84,85,88)        134.7335         calculate D2E/DX2 analytically  !
 ! D271  D(89,84,85,86)         60.3347         calculate D2E/DX2 analytically  !
 ! D272  D(89,84,85,87)        179.8552         calculate D2E/DX2 analytically  !
 ! D273  D(89,84,85,88)        -60.6113         calculate D2E/DX2 analytically  !
 ! D274  D(83,84,89,90)       -126.1182         calculate D2E/DX2 analytically  !
 ! D275  D(83,84,89,91)         -5.971          calculate D2E/DX2 analytically  !
 ! D276  D(83,84,89,92)        113.0866         calculate D2E/DX2 analytically  !
 ! D277  D(85,84,89,90)         64.6047         calculate D2E/DX2 analytically  !
 ! D278  D(85,84,89,91)       -175.2481         calculate D2E/DX2 analytically  !
 ! D279  D(85,84,89,92)        -56.1905         calculate D2E/DX2 analytically  !
 ! D280  D(84,89,91,18)        -79.9205         calculate D2E/DX2 analytically  !
 ! D281  D(90,89,91,18)         40.224          calculate D2E/DX2 analytically  !
 ! D282  D(92,89,91,18)        160.5386         calculate D2E/DX2 analytically  !
 --------------------------------------------------------------------------------
 Trust Radius=5.00D-02 FncErr=1.00D-07 GrdErr=1.00D-06 EigMax=2.50D+02 EigMin=1.00D-04
 Number of steps in this run=    600 maximum allowed number of steps=    600.
 Search for a saddle point of order  1.
 GradGradGradGradGradGradGradGradGradGradGradGradGradGradGradGradGradGrad

 Leave Link  103 at Sun Jun 16 11:40:31 2019, MaxMem=  6442450944 cpu:               5.3 elap:               0.2
 (Enter /home/ekwan/sw/g16/l202.exe)
 Stoichiometry    C30H47F6NaO15S
 Framework group  C1[X(C30H47F6NaO15S)]
 Deg. of freedom   294
 Full point group                 C1      NOp   1
 Largest Abelian subgroup         C1      NOp   1
 Largest concise Abelian subgroup C1      NOp   1
                         Standard orientation:                         
 ---------------------------------------------------------------------
 Center     Atomic      Atomic             Coordinates (Angstroms)
 Number     Number       Type             X           Y           Z
 ---------------------------------------------------------------------
      1          6           0       -1.778731    1.545822    2.249914
      2          6           0       -2.051946    2.365969    0.973680
      3          6           0       -1.143493    3.610613    0.919740
      4          6           0        0.566158    2.527839    2.251437
      5          6           0       -0.273161    1.237379    2.362902
      6          1           0       -1.223310    4.105745   -0.064717
      7          1           0       -1.782033    1.752171    0.098416
      8          1           0       -2.095016    2.142369    3.123533
      9          1           0        0.302208    3.180257    3.101691
     10          1           0       -0.013407    0.556338    1.537876
     11          8           0        0.230367    3.220884    1.013110
     12          8           0       -1.522335    4.493489    1.949031
     13          8           0       -3.411175    2.793965    0.894337
     14          8           0       -2.550576    0.342786    2.162531
     15          8           0       -0.011700    0.607175    3.623714
     16          6           0        2.096106    2.313646    2.253716
     17          1           0        2.320553    1.876843    3.256950
     18          1           0        2.525650    3.349692    2.275117
     19          8           0        2.593731    1.567953    1.202231
     20          6           0       -4.223862    1.956298    0.068917
     21          1           0       -3.845850    1.931782   -0.970770
     22          1           0       -4.263731    0.926467    0.454302
     23          1           0       -5.231636    2.395620    0.072745
     24          6           0       -3.059862   -0.111796    3.418298
     25          1           0       -2.245422   -0.385208    4.107143
     26          1           0       -3.686980    0.667693    3.892513
     27          1           0       -3.676525   -0.993063    3.200411
     28          6           0        0.861674   -0.524103    3.510088
     29          1           0        0.386942   -1.327845    2.924694
     30          1           0        1.813341   -0.252782    3.025524
     31          1           0        1.049973   -0.877219    4.534562
     32          6           0        3.834817   -1.652299   -1.313705
     33          6           0        3.222755   -0.317362   -0.842927
     34          6           0        1.826045   -0.483019   -0.307007
     35          6           0        2.072145   -2.852660    0.056297
     36          6           0        3.580235   -2.708852   -0.217409
     37          1           0        1.220350    0.388787   -0.100277
     38          1           0        3.782840    0.027815    0.050447
     39          1           0        3.354499   -1.964337   -2.256432
     40          1           0        1.566574   -3.190488   -0.858777
     41          1           0        4.088945   -2.382091    0.703017
     42          8           0        1.461664   -1.534921    0.368800
     43          8           0       -0.509234    0.159033   -3.995921
     44          8           0        3.206660    0.722835   -1.812368
     45          8           0        5.233188   -1.451372   -1.486129
     46          8           0        4.053953   -3.982055   -0.645920
     47          6           0        1.698142   -3.772167    1.204422
     48          1           0        1.993130   -4.800587    0.922379
     49          1           0        0.601267   -3.754934    1.339809
     50          8           0        2.364377   -3.345638    2.383754
     51         16           0       -0.296919    0.087754   -2.524324
     52          8           0       -0.161978    1.414145   -1.829319
     53          8           0        0.844217   -0.868254   -2.146002
     54          6           0       -1.785390   -0.683038   -1.810005
     55          6           0       -3.037295   -0.442392   -2.391378
     56          6           0       -1.659557   -1.470881   -0.663546
     57          6           0       -4.175076   -1.013479   -1.803516
     58          1           0       -3.120537    0.167810   -3.288651
     59          6           0       -2.806097   -2.037916   -0.090922
     60          1           0       -0.686535   -1.645542   -0.216150
     61          6           0       -4.067176   -1.815473   -0.655296
     62          1           0       -4.956221   -2.258873   -0.211679
     63          6           0        4.450378    1.451703   -1.914348
     64          1           0        4.820340    1.714961   -0.910370
     65          1           0        5.206201    0.858922   -2.446216
     66          1           0        4.213010    2.368662   -2.468558
     67          6           0        5.792241   -2.190650   -2.581945
     68          1           0        5.674991   -3.274786   -2.432156
     69          1           0        5.312624   -1.898840   -3.534674
     70          1           0        6.858646   -1.927931   -2.614382
     71          6           0        4.885081   -4.631735    0.329425
     72          1           0        5.815443   -4.058936    0.489245
     73          1           0        4.357261   -4.739535    1.292136
     74          1           0        5.124342   -5.622112   -0.080474
     75          6           0        1.917368   -4.078040    3.526618
     76          1           0        2.474308   -3.687907    4.388744
     77          1           0        0.832776   -3.931219    3.688526
     78          1           0        2.119193   -5.160224    3.412296
     79          6           0       -0.820372    5.742341    1.894568
     80          1           0       -1.267115    6.384517    2.665188
     81          1           0        0.254704    5.605394    2.098837
     82          1           0       -0.941082    6.214918    0.901081
     83         11           0        1.779044    2.556711   -0.766695
     84          8           0        3.238972    4.441885   -1.015897
     85          6           0        3.515810    5.448751   -1.988346
     86          1           0        4.463908    5.232746   -2.516765
     87          1           0        2.682886    5.441941   -2.704651
     88          1           0        3.589741    6.444782   -1.513481
     89          6           0        4.261731    4.347222   -0.018183
     90          1           0        4.312855    5.277475    0.577127
     91          1           0        3.991329    3.493704    0.619054
     92          1           0        5.246940    4.166524   -0.488305
     93          6           0       -5.550921   -0.707251   -2.355553
     94          9           0       -6.144041    0.303809   -1.650972
     95          9           0       -6.380160   -1.783308   -2.270498
     96          9           0       -5.512136   -0.318536   -3.656265
     97          6           0       -2.636322   -2.973741    1.085344
     98          9           0       -1.659414   -2.556278    1.941300
     99          9           0       -2.267760   -4.219945    0.663079
    100          9           0       -3.779905   -3.115411    1.807984
 ---------------------------------------------------------------------
 Rotational constants (GHZ):           0.0575947           0.0438784           0.0364281
[...]
 0009737,0.00007670,0.00004254,-0.00007873,0.00018215,0.00000327,-0.000
 27551,0.00008638,-0.00001912,-0.00013293,0.00007475,-0.00001204,-0.000
 12864,-0.00089534,-0.00049901,0.00014904,0.00023811,0.00008866,0.00335
 805,0.00084671,-0.00147059,-0.00089916,-0.00088918,0.00008289,-0.00152
 963,0.00032684,-0.00014173,-0.00001166,0.00087178,0.00156740,0.0003980
 3,-0.00065423,0.00045291,0.00292868,0.00000762,0.00004056,0.00037234,0
 .00055571,0.00262488,0.00002885,-0.00019826,-0.00014476,0.01543837,-0.
 03985995,-0.00063995,0.00008528,-0.00059369,-0.00068479,-0.00423812,-0
 .00231334,0.00006212,0.00019360,-0.00065359,-0.00084295,0.00009344,0.0
 0005954,-0.00002372,-0.00000744,-0.00000760,-0.00000882,-0.00002690,-0
 .00000392,0.00001188,-0.00000590,-0.00000970,0.00000456,0.00002565,-0.
 00005102,-0.00005759,-0.00000709,0.00001856,0.00000493,-0.00000051,0.0
 0000034,0.00000787,-0.00000733,0.00000531,0.00000837,0.00001742,-0.000
 04102,0.00005457,0.00000587,0.00001236,-0.00000920,-0.00000339,-0.0000
 0740,-0.00002018,-0.00002216,0.00001595,0.00000004,0.00004027,-0.00007
 590,0.00001625,0.00002601,0.00001845,0.00001258,0.00002267,-0.00010379
 ,0.00002285,-0.00006367,0.00005415,0.00000040,0.00007348,0.00014345,-0
 .00001790,-0.00000133,-0.00003077,-0.00001319,-0.00002533,-0.00001175,
 0.00000328,-0.00000964,-0.00001873,0.00002050,0.00018004,0.00012726,-0
 .00001375,-0.00003836,-0.00002970,0.00001428,0.00001891,0.00002800,-0.
 00002788,-0.00001080,-0.00000012,0.00000593,0.00000145,0.00000332,-0.0
 0000320,-0.00000241,-0.00000831,-0.00000050,0.00002973,0.00000247,0.00
 000822,-0.00000239,-0.00001026,-0.00000096,0.00002443,0.00001683,-0.00
 000117,-0.00001242,-0.00000182,0.00000906,-0.00305404,0.00034441,-0.00
 075923,0.00082813,-0.00046040,-0.00004311,0.00092771,0.00037583,0.0001
 8671,0.00076807,-0.00036309,0.00090505,0.03836266,-0.20603981,-0.02491
 607,-0.01785675,-0.03664996,-0.03758541,-0.06286418,0.28969781,0.00028
 900,0.00038295,-0.00003176,-0.00011534,0.00000133,-0.00017097,0.000001
 31,0.00000702,0.00001231,-0.00001731,0.00010141,-0.00006774,-0.0000396
 0,0.00008491,-0.00013846,-0.00000854,-0.00003275,0.00001450,0.00000162
 ,-0.00001230,0.00000618,-0.00003603,-0.00006978,-0.00000943,-0.0000125
 4,-0.00000665,0.00000844,0.00000465,0.00002091,-0.00002528,0.00001622,
 -0.00005308,0.00008891,0.00000333,-0.00001651,0.00002708,0.00015587,0.
 00008218,0.00018479,0.00003981,-0.00071000,0.00009011,-0.00000310,-0.0
 0027154,0.00008977,0.00006931,-0.00003998,-0.00010183,0.00000989,0.000
 00603,0.00003987,-0.00002456,0.00000746,0.00002930,-0.00005114,0.00003
 862,0.00013104,-0.00005758,-0.00011528,-0.00018515,-0.00002795,-0.0000
 4136,0.00009601,-0.00000415,0.00001396,-0.00008665,-0.00000776,0.00002
 030,0.00001895,0.00019685,0.00044924,0.00003999,0.00001485,0.00001980,
 0.00009551,-0.00002578,-0.00019929,-0.00000328,-0.00033416,0.00013775,
 0.00023607,0.00002142,0.00041308,0.00024249,0.00013883,-0.00013170,-0.
 00006673,-0.00007116,-0.00008383,-0.00006930,-0.00002196,-0.00003862,-
 0.00004236,-0.00004384,0.00000903,-0.00002948,0.00001766,0.00000556,0.
 00001096,-0.00024007,-0.00003211,-0.00040842,-0.00009233,0.00002185,-0
 .00014337,0.00000600,-0.00001447,0.00002153,0.00001261,-0.00002306,-0.
 00001774,0.00001086,-0.00000604,-0.00001669,-0.00000578,0.00000763,0.0
 0001841,-0.00003709,-0.00000158,0.00004950,0.00002164,0.00000555,0.000
 00169,0.00008696,-0.00007587,0.00016666,0.00027714,0.00014909,-0.00025
 569,0.00003124,0.00000932,0.00001922,0.00001677,-0.00000279,0.00002334
 ,0.00002087,-0.00001645,0.00003020,0.00028185,0.00000961,-0.00005501,-
 0.00008498,0.00003015,0.00002697,-0.00016047,-0.00020580,-0.00038412,-
 0.00010921,0.00001318,0.00011170,-0.00115429,-0.00048962,0.00033968,0.
 00028909,0.00037331,0.00005718,0.00060196,-0.00002724,0.00017965,-0.00
 015307,-0.00074093,-0.00017954,-0.00028063,0.00034684,-0.00041047,-0.0
 0091302,0.00047213,-0.00004317,0.00033740,-0.00053581,-0.00093161,-0.0
 0001459,0.00004461,0.00007618,-0.00516254,0.01811362,0.00804089,0.0000
 1679,0.00023815,-0.00008611,0.00139170,0.00063163,0.00047548,-0.000249
 92,0.00028927,0.00004814,-0.00002326,-0.00002097,0.00000178,0.00000607
 ,0.00000315,0.00000534,0.00000361,0.00000162,-0.00000155,0.00000086,-0
 .00000035,-0.00000199,-0.00000651,-0.00000257,-0.00001053,-0.00000180,
 0.00000151,-0.00000280,0.00000105,-0.00000420,0.00000549,0.00000453,0.
 00000166,0.00000045,-0.00001148,0.00001249,-0.00003593,0.00000406,0.00
 000182,0.00000472,0.00000680,-0.00001048,0.00000881,-0.00000341,0.0000
 0136,0.00000315,0.00020333,-0.00002122,-0.00006516,-0.00001975,0.00000
 046,0.00000526,-0.00002751,-0.00002672,0.00005123,-0.00003208,0.000019
 55,0.00000796,0.00000447,0.00001889,-0.00000615,-0.00000077,0.00000056
 ,-0.00000025,-0.00000017,-0.00000034,-0.00000096,-0.00000011,-0.000005
 63,0.00000647,-0.00003638,-0.00004718,-0.00006079,0.00000794,0.0000042
 8,0.00001555,-0.00000240,-0.00000163,-0.00000507,-0.00000104,-0.000000
 69,0.00000023,0.00000190,-0.00000289,0.00000191,0.00000053,0.00000244,
 0.00000204,-0.00000946,0.00000152,-0.00001228,0.00000208,0.00000461,0.
 00000177,-0.00000050,-0.00000470,-0.00000147,0.00000090,-0.00000059,0.
 00000154,0.00106269,-0.00031564,0.00017541,-0.00031447,0.00021729,0.00
 005474,-0.00030470,-0.00006732,-0.00003515,-0.00024747,0.00013552,-0.0
 0019970,0.00690973,-0.02296492,-0.07222353,-0.01069280,-0.04653778,-0.
 01756177,-0.02187850,0.08068541,0.09376154,-0.00012196,-0.00004927,-0.
 00001408,-0.00004817,0.00008932,0.00005272,-0.00012774,0.00012435,0.00
 001525,0.00005571,0.00006665,-0.00006718,-0.00010526,0.00028320,0.0000
 1814,0.00001441,-0.00000158,-0.00000004,-0.00000106,0.00001622,-0.0000
 2187,0.00001514,-0.00004625,-0.00003660,-0.00000208,-0.00004348,-0.000
 01621,0.00006244,-0.00000324,-0.00008091,0.00008085,-0.00012448,0.0000
 3408,0.00003441,-0.00009869,-0.00005007,0.00012389,-0.00005948,-0.0000
 5853,0.00071294,0.00001045,-0.00041661,0.00025272,-0.00047635,-0.00006
 009,-0.00005777,0.00008830,0.00014859,0.00002066,0.00000643,-0.0000269
 1,-0.00000770,-0.00008279,-0.00003179,-0.00003359,-0.00018323,-0.00012
 062,-0.00005863,-0.00005756,0.00009520,0.00003639,0.00006037,-0.000084
 08,-0.00002474,0.00000406,0.00008392,0.00003240,-0.00002981,0.00000009
 ,-0.00113299,-0.00078806,0.00059002,0.00015995,0.00025515,0.00016142,0
 .00015681,0.00014011,0.00002171,0.00020683,-0.00064597,-0.00086552,-0.
 00002248,0.00087157,0.00046794,0.00013997,-0.00020050,-0.00001416,-0.0
 0006351,-0.00013320,-0.00011260,-0.00006595,-0.00009146,-0.00011859,0.
 00009092,0.00003161,-0.00008359,-0.00002208,0.00006482,-0.00003020,0.0
 0033888,0.00063219,-0.00012779,0.00007060,0.00003101,-0.00018073,0.000
 17625,-0.00013396,0.00002707,0.00000577,0.00004471,0.00000955,0.000006
 73,0.00000479,0.00003428,0.00000202,-0.00000799,-0.00000609,0.00003741
 ,-0.00000801,-0.00004034,-0.00001455,0.00000428,-0.00000524,-0.0003505
 4,-0.00046402,0.00028276,-0.00025081,-0.00019299,0.00059649,-0.0001229
 5,-0.00012607,0.00007051,-0.00018332,-0.00000816,0.00010142,-0.0001628
 2,0.00010711,-0.00000256,0.00102394,0.00015575,0.00019549,-0.00022097,
 0.00004044,0.00004050,0.00008336,-0.00039268,0.00008025,-0.00040922,0.
 00004698,-0.00040978,0.00114389,0.00065418,-0.00054860,-0.00030113,-0.
 00053266,-0.00005614,-0.00042175,-0.00009128,0.00007829,-0.00072410,-0
 .00024023,-0.00028943,0.00031427,0.00008697,0.00003475,0.00192065,-0.0
 0107845,0.00230554,0.00119004,-0.00067742,0.00064437,0.00016055,0.0000
 8322,0.00000143,-0.00951968,-0.00230908,0.01155432,0.00045943,0.000534
 25,-0.00047922,-0.00332413,0.00040429,-0.00298918,0.00189697,0.0009629
 8,-0.00043928,0.00009779,0.00006688,-0.00000551,-0.00000776,-0.0000029
 8,-0.00001103,-0.00001971,-0.00000034,0.00000399,-0.00001019,-0.000016
 14,0.00000860,0.00004075,-0.00005071,-0.00008023,0.00000760,0.00000977
 ,0.00000362,0.00000210,0.00000689,0.00001574,-0.00001978,0.00000177,0.
 00001088,0.00010413,-0.00005450,0.00006101,-0.00003100,-0.00000694,-0.
 00000842,0.00002218,-0.00001804,0.00000098,-0.00001236,0.00001868,0.00
 000261,0.00015227,-0.00022821,0.00021175,-0.00004768,0.00000553,-0.000
 04810,0.00002305,-0.00002635,0.00009074,-0.00002816,0.00007223,-0.0000
 0621,0.00000719,0.00004047,-0.00000366,0.00000141,-0.00001139,-0.00000
 591,-0.00000070,-0.00000029,0.00000358,-0.00000289,-0.00000403,0.00000
 528,0.00005057,0.00013483,-0.00001399,-0.00000919,-0.00003429,0.000012
 04,0.00000649,0.00002639,-0.00002011,-0.00000294,-0.00000105,0.0000032
 7,0.00000085,0.00000229,0.00000210,-0.00000270,-0.00000912,-0.00000133
 ,0.00000856,0.00000879,-0.00000112,-0.00000158,-0.00001219,0.00000054,
 0.00001797,0.00001923,0.00000153,-0.00000256,-0.00000109,0.00000408,-0
 .00113252,-0.00008153,0.00010404,0.00037022,-0.00019808,-0.00010804,0.
 00037071,0.00019205,-0.00001748,0.00023941,-0.00005400,0.00011216,-0.1
 6547944,-0.02502880,0.07951745,-0.06860886,-0.02087039,0.00043953,-0.0
 2804050,0.02734595,0.03057099,0.26881174,0.00018259,0.00030074,0.00005
 814,-0.00007408,0.00003404,0.00002718,0.00005058,0.00014580,0.00005573
 ,-0.00000820,0.00007590,-0.00000337,0.00002430,-0.00000051,0.00008430,
 -0.00001045,-0.00002662,0.00000072,0.00001096,0.00002013,-0.00000833,-
 0.00001709,-0.00003767,-0.00002736,0.00000106,-0.00002053,-0.00001350,
 0.00003122,-0.00000728,-0.00002222,-0.00003062,-0.00007162,-0.00002252
 ,-0.00002162,-0.00013639,-0.00004179,-0.00001730,-0.00013376,-0.000074
 20,-0.00004017,-0.00026391,-0.00013159,-0.00010419,-0.00002500,-0.0000
 6960,0.00001164,0.00000139,0.00007055,0.00000179,0.00000565,-0.0000245
 3,-0.00002311,-0.00004328,-0.00001478,-0.00006467,-0.00005705,-0.00005
 981,0.00000506,0.00014171,0.00005307,0.00001625,0.00003959,-0.00004533
 ,-0.00004740,-0.00001643,0.00003816,0.00003449,-0.00004014,-0.00000670
 ,0.00093816,0.00053783,-0.00031738,-0.00012217,-0.00014468,-0.00005801
 ,-0.00021971,-0.00036332,-0.00012458,-0.00108127,-0.00249181,-0.000828
 41,0.00008349,0.00005090,0.00008991,0.00001649,-0.00002315,0.00001542,
 -0.00002362,-0.00001502,-0.00001216,-0.00002414,-0.00000735,-0.0000452
 1,0.00006382,-0.00003251,-0.00001724,-0.00000787,0.00000545,-0.0000393
 7,0.00027870,0.00014334,0.00028381,0.00009331,-0.00023424,-0.00001674,
 0.00004851,-0.00002939,0.00000750,0.00001378,0.00004315,-0.00000174,-0
 .00000993,-0.00000183,0.00002210,0.00000346,-0.00000614,-0.00000739,-0
 .00000183,-0.00000795,0.00000702,-0.00000257,0.00000107,0.00000078,-0.
 00021674,0.00007742,-0.00005012,-0.00038306,-0.00013494,0.00065244,-0.
 00008333,-0.00003034,0.00002176,-0.00007058,0.00002655,0.00002882,-0.0
 0005895,0.00008484,-0.00000628,0.00003861,0.00004678,0.00005845,-0.000
 06230,0.00002527,-0.00000354,-0.00008254,-0.00025146,-0.00012253,-0.00
 000297,0.00007738,-0.00007694,0.00187494,0.00030304,-0.00068285,-0.000
 54698,-0.00055613,-0.00003473,-0.00074553,0.00013740,-0.00008802,-0.00
 067869,-0.00128659,0.00024726,-0.00040494,-0.00023673,0.00037907,0.002
 20323,-0.00031244,0.00317485,-0.00006875,-0.00007539,-0.00007810,0.000
 00589,0.00002266,0.00002674,-0.01948758,0.00302575,0.01612337,0.000130
 80,0.00040571,-0.00009506,-0.00048817,-0.00105574,0.00162921,0.0002300
 0,-0.00052399,0.00129932,0.00005552,0.00003749,-0.00001061,-0.00000521
 ,-0.00000406,-0.00000605,-0.00001404,-0.00000175,0.00000539,-0.0000039
 1,-0.00000633,0.00000343,0.00001763,-0.00002678,-0.00003290,-0.0000008
 7,0.00000811,0.00000298,-0.00000005,0.00000213,0.00000458,-0.00000700,
 0.00000187,0.00000486,0.00002670,-0.00002595,0.00003650,-0.00000425,0.
 00000252,-0.00000544,0.00000137,-0.00000341,-0.00000844,-0.00000901,0.
 00000855,-0.00000026,-0.00001116,-0.00006345,0.00006173,0.00000395,0.0
 0000636,-0.00000542,0.00001299,-0.00002563,0.00000813,-0.00001542,0.00
 002558,-0.00000266,0.00003346,0.00006722,-0.00000702,-0.00000042,-0.00
 001504,-0.00000671,-0.00001143,-0.00000538,0.00000206,-0.00000505,-0.0
 0000873,0.00000917,0.00009172,0.00007942,0.,-0.00001806,-0.00001791,0.
 00000529,0.00000867,0.00001567,-0.00001375,-0.00000455,-0.00000010,0.0
 0000293,0.00000044,0.00000214,-0.00000116,-0.00000142,-0.00000514,-0.0
 0000072,0.00001476,0.00000223,0.00000536,-0.00000149,-0.00000662,-0.00
 000066,0.00001253,0.00000991,-0.00000003,-0.00000552,-0.00000080,0.000
 00400,-0.00124741,0.00013469,-0.00045411,0.00037427,-0.00019401,-0.000
 01152,0.00041159,0.00015524,0.00007955,0.00026103,-0.00010309,0.000297
 33,-0.02196384,-0.07587343,0.02199911,-0.02047682,0.00612669,0.0011137
 1,0.03918889,-0.00316836,-0.02964139,0.02223135,0.07579195,0.00029851,
 0.00040297,0.00007684,-0.00011789,-0.00006552,-0.00023584,0.00007530,-
 0.00008954,0.00000351,-0.00006075,0.00006796,-0.00003512,0.00002906,-0
 .00009225,-0.00019118,-0.00001773,-0.00003556,0.00001684,0.00000443,-0
 .00002779,0.00002223,-0.00002945,-0.00000040,0.00002626,-0.00001143,0.
 00002238,0.00002209,-0.00004120,0.00003071,0.00003528,-0.00002344,0.00
 002675,0.00008684,-0.00001254,0.00006007,0.00006615,0.00011014,0.00014
 443,0.00024106,-0.00054429,-0.00061100,0.00051401,-0.00015259,-0.00002
 294,0.00015405,0.00010770,-0.00009763,-0.00020770,-0.00000103,0.000002
 17,0.00006308,-0.00001964,0.00006297,0.00005246,-0.00001949,0.00015430
 ,0.00022653,-0.00004317,-0.00013015,-0.00023445,-0.00004285,-0.0000873
 7,0.00013887,0.00000799,0.00001156,-0.00014522,-0.00002730,0.00004303,
 0.00002142,0.00184502,0.00118105,-0.00066556,-0.00013510,-0.00018677,0
 .00000076,-0.00031006,-0.00051752,-0.00004881,-0.00130156,-0.00096785,
 -0.00012564,0.00004784,-0.00008804,-0.00005141,0.00002359,0.00001393,-
 0.00001239,-0.00003446,0.00000250,0.00000230,0.00001737,0.00001317,0.0
 0003038,-0.00010740,0.00001415,0.00001962,0.00003455,-0.00001822,0.000
 04918,-0.00053857,-0.00035957,-0.00055885,-0.00012809,0.00015101,-0.00
 002777,-0.00009239,0.00005727,-0.00000547,0.00000485,-0.00006573,-0.00
 002608,0.00001533,-0.00000858,-0.00004404,-0.00000756,0.00001418,0.000
 02313,-0.00002800,0.00000987,0.00004156,0.00002293,0.00000150,0.000003
 75,0.00035007,0.00004324,0.00010811,0.00071576,0.00035245,-0.00109039,
 0.00012543,0.00007345,-0.00001923,0.00012609,-0.00001436,-0.00003617,0
 .00011109,-0.00010062,0.00002887,-0.00023204,-0.00000609,-0.00015272,0
 .00003492,-0.00000462,0.00001201,-0.00000410,-0.00005633,-0.00015597,0
 .00008905,-0.00002710,0.00029127,-0.00305110,-0.00092977,0.00076204,0.
 00079564,0.00102230,0.00018294,0.00129952,-0.00012233,0.00023025,0.002
 07691,0.00111606,-0.00036223,0.00016256,0.00030242,-0.00047045,-0.0043
 2015,0.00288729,-0.00521528,0.00010203,0.00033384,-0.00011982,-0.00002
 634,-0.00002020,-0.00003940,0.03398378,0.00862192,-0.01627346,-0.00014
 384,-0.00032440,0.00007828,0.00151908,0.00127844,-0.00224130,-0.000692
 00,0.00097915,-0.00287546,-0.00009099,-0.00006778,0.00001101,0.0000125
 3,0.00000654,0.00001252,0.00001948,0.00000299,-0.00000582,0.00000668,0
 .00000936,-0.00000729,-0.00003133,0.00003316,0.00004150,-0.00000357,-0
 .00000739,-0.00000525,0.00000014,-0.00000705,-0.00000432,0.00001531,-0
 .00000062,-0.00000675,-0.00006353,0.00004300,-0.00007059,0.00001770,0.
 00000317,0.00000943,-0.00000418,0.,0.00001088,0.00000675,-0.00001062,0
 .00000230,0.00009545,0.00009716,-0.00015342,0.00000674,-0.00000375,0.0
 0002543,-0.00004540,-0.00000792,-0.00001287,-0.00001446,-0.00001999,0.
 00001069,-0.00000545,-0.00001341,-0.00000353,-0.00000183,0.00000930,0.
 00000390,0.00000245,0.00000053,-0.00000348,0.00000224,-0.00000258,0.00
 000264,-0.00010312,-0.00014494,-0.00006981,0.00001939,0.00002732,0.000
 00872,-0.00000883,-0.00001963,0.00000940,0.00000212,-0.00000014,-0.000
 00226,0.00000138,-0.00000492,0.00000151,0.00000253,0.00000868,0.000002
 86,-0.00001958,-0.00000278,-0.00001424,0.00000373,0.00001290,0.0000017
 8,-0.00001337,-0.00001789,-0.00000240,0.00000418,0.00000016,-0.0000016
 0,0.00202740,-0.00039937,0.00051341,-0.00066571,0.00042480,0.00011235,
 -0.00063855,-0.00018447,-0.00009737,-0.00043012,0.00019428,-0.00044321
 ,0.07086902,0.02312195,-0.13438351,-0.01215058,-0.00229407,0.02116581,
 0.03007321,-0.02058534,-0.01107866,-0.12071684,-0.01462091,0.15245570\
 \-0.00000035,0.00000190,-0.00000185,0.00000033,0.00000140,-0.00000243,
 0.00000057,0.00000062,-0.00000339,-0.00000067,0.00000069,-0.00000130,0
 .00000059,0.00000134,-0.00000199,0.00000125,0.00000011,-0.00000328,0.0
 0000054,0.00000035,-0.00000255,-0.00000085,0.00000243,-0.00000275,-0.0
 0000092,0.00000172,-0.00000219,-0.00000152,0.00000224,0.00000034,0.000
 00042,0.00000149,-0.00000227,-0.00000014,0.00000158,-0.00000375,0.0000
 0051,0.00000115,-0.00000379,-0.00000092,0.00000169,-0.00000192,-0.0000
 0151,0.00000218,-0.00000059,-0.00000055,0.00000088,-0.00000141,-0.0000
 0126,0.00000160,-0.00000037,-0.00000037,-0.00000034,-0.00000137,-0.000
 00200,0.00000115,0.00000002,0.00000063,0.00000064,-0.00000356,0.000000
 97,0.00000005,-0.00000353,0.00000016,0.00000115,-0.00000281,0.00000057
 ,0.00000121,-0.00000439,-0.00000189,0.00000330,-0.00000139,-0.00000194
 ,0.00000313,-0.00000110,-0.00000142,0.00000292,-0.00000271,-0.00000172
 ,0.00000253,-0.00000154,-0.00000255,0.00000170,0.00000098,-0.00000175,
 0.00000165,0.00000050,-0.00000054,0.00000244,0.00000073,-0.00000239,0.
 00000281,0.00000065,0.00000078,-0.00000146,0.00000311,-0.00000054,-0.0
 0000119,0.00000336,0.00000125,-0.00000187,0.00000010,-0.00000028,-0.00
 000102,0.00000275,-0.00000018,-0.00000107,0.00000381,0.00000018,-0.000
 00099,0.00000120,0.00000019,-0.00000019,0.00000069,0.00000061,-0.00000
 240,0.00000238,-0.00000027,-0.00000097,0.00000296,-0.00000094,-0.00000
 059,0.00000318,-0.00000013,0.00000154,0.00000160,0.00000204,-0.0000024
 4,-0.00000094,0.00000111,-0.00000423,0.00000003,0.00000019,-0.00000232
 ,0.00000270,-0.00000065,-0.00000123,0.00000420,-0.00000153,0.00000020,
 0.00000332,-0.00000103,0.00000020,0.00000453,-0.00000130,0.00000112,0.
 00000270,-0.00000185,0.00000062,0.00000314,0.00000214,-0.00000208,-0.0
 0000020,0.00000145,-0.00000111,-0.00000061,0.00000045,-0.00000151,0.00
 000056,0.00000121,-0.00000077,-0.00000038,0.00000105,-0.00000149,-0.00
 000101,-0.00000074,0.00000020,0.00000084,0.00000097,0.00000001,-0.0000
 0256,0.00000178,-0.00000148,-0.00000211,0.00000013,0.00000056,-0.00000
 015,0.00000024,-0.00000043,-0.00000122,0.00000024,0.00000071,-0.000000
 60,-0.00000050,0.00000062,-0.00000091,0.00000083,-0.00000037,0.0000031
 3,0.00000149,-0.00000244,0.00000084,0.00000154,-0.00000432,0.00000162,
 0.00000112,-0.00000226,0.00000023,0.00000067,-0.00000314,0.00000446,0.
 00000053,-0.00000271,0.00000486,0.00000155,-0.00000362,0.00000364,0.00
 000121,-0.00000318,0.00000444,-0.00000148,-0.00000153,0.00000537,-0.00
 000078,-0.00000077,0.00000540,-0.00000017,-0.00000007,0.00000456,-0.00
 000113,-0.00000114,0.00000606,-0.00000203,0.00000259,0.00000367,-0.000
 00300,0.00000215,0.00000328,-0.00000257,0.00000190,0.00000299,-0.00000
 437,0.00000132,0.00000427,0.00000008,0.00000114,-0.00000480,0.00000019
 ,0.00000210,-0.00000497,0.00000062,0.00000126,-0.00000372,0.00000112,0
 .00000071,-0.00000455,0.00000052,-0.00000141,-0.00000187,0.00000405,-0
 .00000232,-0.00000033,0.00000205,-0.00000174,-0.00000187,0.00000275,-0
 .00000283,-0.00000137,0.00000280,-0.00000260,-0.00000256,0.00000206,-0
 .00000170,-0.00000283,0.00000050,-0.00000180,-0.00000281,0.00000088,-0
 .00000088,-0.00000130,0.00000146,0.00000109,0.00000120,0.00000111,-0.0
 0000109,-0.00000059,0.00000129,-0.00000029,-0.00000184,0.00000078,0.00
 000018,-0.00000359,0.00000084,-0.00000026,-0.00000263,0.00000169,-0.00
 000074,-0.00000280,-0.00000157,0.00000060,0.00000070,-0.00000143,0.000
 00200,0.00000081,-0.00000113,0.00000119,0.00000145,-0.00000145,0.00000
 231,-0.00000004\\\@


 THE LENGTH OF A MEETING IS PROPORTIONAL TO THE
 SQUARE OF THE PARTICIPANTS.
 Job cpu time:       3 days 13 hours 13 minutes 59.4 seconds.
 Elapsed time:       0 days  2 hours 46 minutes 40.0 seconds.
 File lengths (MBytes):  RWF=   9969 Int=      0 D2E=      0 Chk=     88 Scr=      1
 Normal termination of Gaussian 16 at Sun Jun 16 17:13:58 2019.
