 Entering Gaussian System, Link 0=g16
 Input=clay_new-glu_gluC6-bisCF3-sm-b97d3-custom-pcm_thf.gjf
 Output=clay_new-glu_gluC6-bisCF3-sm-b97d3-custom-pcm_thf.out
 Initial command:
 /home/ekwan/sw/g16/l1.exe "/scratch/users/ekwan/clay_new-glu_gluC6-bisCF3-sm-b97d3-custom-pcm_thf/Gau-32144.inp" -scrdir="/scratch/users/ekwan/clay_new-glu_gluC6-bisCF3-sm-b97d3-custom-pcm_thf/"
 Entering Link 1 = /home/ekwan/sw/g16/l1.exe PID=     32145.
  
 Copyright (c) 1988,1990,1992,1993,1995,1998,2003,2009,2016,
            Gaussian, Inc.  All Rights Reserved.
  
 This is part of the Gaussian(R) 16 program.  It is based on
 the Gaussian(R) 09 system (copyright 2009, Gaussian, Inc.),
 the Gaussian(R) 03 system (copyright 2003, Gaussian, Inc.),
 the Gaussian(R) 98 system (copyright 1998, Gaussian, Inc.),
 the Gaussian(R) 94 system (copyright 1995, Gaussian, Inc.),
 the Gaussian 92(TM) system (copyright 1992, Gaussian, Inc.),
 the Gaussian 90(TM) system (copyright 1990, Gaussian, Inc.),
 the Gaussian 88(TM) system (copyright 1988, Gaussian, Inc.),
 the Gaussian 86(TM) system (copyright 1986, Carnegie Mellon
 University), and the Gaussian 82(TM) system (copyright 1983,
 Carnegie Mellon University). Gaussian is a federally registered
 trademark of Gaussian, Inc.
  
 This software contains proprietary and confidential information,
 including trade secrets, belonging to Gaussian, Inc.
  
 This software is provided under written license and may be
 used, copied, transmitted, or stored only in accord with that
 written license.
  
 The following legend is applicable only to US Government
 contracts under FAR:
  
                    RESTRICTED RIGHTS LEGEND
  
 Use, reproduction and disclosure by the US Government is
 subject to restrictions as set forth in subparagraphs (a)
 and (c) of the Commercial Computer Software - Restricted
 Rights clause in FAR 52.227-19.
  
 Gaussian, Inc.
 340 Quinnipiac St., Bldg. 40, Wallingford CT 06492
  
  
 ---------------------------------------------------------------
 Warning -- This program may not be used in any manner that
 competes with the business of Gaussian, Inc. or will provide
 assistance to any competitor of Gaussian, Inc.  The licensee
 of this program is prohibited from giving any competitor of
 Gaussian, Inc. access to this program.  By using this program,
 the user acknowledges that Gaussian, Inc. is engaged in the
 business of creating and licensing software in the field of
 computational chemistry and represents and warrants to the
 licensee that it is not a competitor of Gaussian, Inc. and that
 it will not use this program in any manner prohibited above.
 ---------------------------------------------------------------
  

 Cite this work as:
 Gaussian 16, Revision A.03,
 M. J. Frisch, G. W. Trucks, H. B. Schlegel, G. E. Scuseria, 
 M. A. Robb, J. R. Cheeseman, G. Scalmani, V. Barone, 
 G. A. Petersson, H. Nakatsuji, X. Li, M. Caricato, A. V. Marenich, 
 J. Bloino, B. G. Janesko, R. Gomperts, B. Mennucci, H. P. Hratchian, 
 J. V. Ortiz, A. F. Izmaylov, J. L. Sonnenberg, D. Williams-Young, 
 F. Ding, F. Lipparini, F. Egidi, J. Goings, B. Peng, A. Petrone, 
 T. Henderson, D. Ranasinghe, V. G. Zakrzewski, J. Gao, N. Rega, 
 G. Zheng, W. Liang, M. Hada, M. Ehara, K. Toyota, R. Fukuda, 
 J. Hasegawa, M. Ishida, T. Nakajima, Y. Honda, O. Kitao, H. Nakai, 
 T. Vreven, K. Throssell, J. A. Montgomery, Jr., J. E. Peralta, 
 F. Ogliaro, M. J. Bearpark, J. J. Heyd, E. N. Brothers, K. N. Kudin, 
 V. N. Staroverov, T. A. Keith, R. Kobayashi, J. Normand, 
 K. Raghavachari, A. P. Rendell, J. C. Burant, S. S. Iyengar, 
 J. Tomasi, M. Cossi, J. M. Millam, M. Klene, C. Adamo, R. Cammi, 
 J. W. Ochterski, R. L. Martin, K. Morokuma, O. Farkas, 
 J. B. Foresman, and D. J. Fox, Gaussian, Inc., Wallingford CT, 2016.
 
 ******************************************
 Gaussian 16:  AS64L-G16RevA.03 25-Dec-2016
                15-Jun-2019 
 ******************************************
 %nprocshared=32
 Will use up to   32 processors via shared memory.
 %mem=48GB
 ----------------------------------------------------------------------
 #p opt freq=noraman 6-31g(d) scrf=(solvent=tetrahydrofuran,pcm) pop=no
 ne b97d empiricaldispersion=gd3 extrabasis
 ----------------------------------------------------------------------
 1/18=20,19=15,26=3,38=1/1,3;
 2/9=110,12=2,17=6,18=5,40=1/2;
 3/5=1,6=6,7=1,10=1,11=2,25=1,30=1,70=2201,71=1,72=20,74=-42,124=31/1,2,3;
 4//1;
 5/5=2,38=5,53=20/2;
 7//1,2,3,16;
 1/18=20,19=15,26=3/3(2);
 2/9=110/2;
 99//99;
 2/9=110/2;
 3/5=7,6=1,7=1,11=2,25=1,30=1,70=2205,71=1,72=20,74=-42,82=7,124=31/1,2,3;
 4/5=5,16=3,69=1/1;
 5/5=2,38=5,53=20/2;
 7//1,2,3,16;
 1/18=20,19=15,26=3/3(-5);
 2/9=110/2;
 99/9=1/99;
 Leave Link    1 at Sat Jun 15 06:58:55 2019, MaxMem=  6442450944 cpu:               5.6 elap:               0.2
 (Enter /home/ekwan/sw/g16/l101.exe)
 -----
 title
 -----
 Symbolic Z-matrix:
 Charge =  0 Multiplicity = 1
 6                     3.38173   0.48518   0.54166 
 6                     3.3377   -0.56375  -0.58581 
 6                     1.87818  -0.97942  -0.90119 
 6                     0.9882    1.09973  -0.09014 
 6                     2.39355   1.62542   0.24801 
 1                     1.81377  -1.63297  -1.77839 
 1                     3.71371  -0.08315  -1.5105 
 1                     3.0948    0.00779   1.49444 
 1                     0.557     0.621     0.8053 
 1                     2.76497   2.19684  -0.61773 
 8                     1.04715   0.10967  -1.15984 
 8                     1.42294  -1.74646   0.27959 
 8                     4.15985  -1.65936  -0.22112 
 8                     4.68163   1.06937   0.63656 
 8                     2.25735   2.46341   1.39715 
 6                     0.04123   2.22576  -0.52839 
 1                    -0.18652   2.81848   0.36781 
 1                    -0.89401   1.78121  -0.90958 
 8                     0.59046   3.14321  -1.47029 
 16                    0.10602  -2.73461   0.10005 
 8                     0.09785  -3.54309   1.32787 
 8                     0.14665  -3.35832  -1.23592 
 6                    -1.27803  -1.58113   0.15473 
 6                    -1.72033  -1.12071   1.40043 
 6                    -1.84028  -1.14216  -1.04888 
 6                    -2.76832  -0.18942   1.43116 
 1                    -1.25966  -1.47602   2.32014 
 6                    -2.88995  -0.2163   -0.99172 
 1                    -1.46793  -1.51126  -2.00124 
 6                    -3.35553   0.26406   0.24149 
 1                    -4.16638   0.98927   0.27432 
 6                     4.4918   -2.53605  -1.30653 
 1                     3.61876  -3.11761  -1.64959 
 1                     4.90979  -1.97338  -2.16087 
 1                     5.24988  -3.22978  -0.92162 
 6                     5.52831   0.46605   1.62307 
 1                     6.47436   1.02449   1.60019 
 1                     5.08516   0.54977   2.63278 
 1                     5.71763  -0.59464   1.39829 
 6                     2.90469   3.73509   1.25831 
 1                     2.72717   4.27813   2.19694 
 1                     3.98845   3.61203   1.10186 
 1                     2.47395   4.30765   0.41778 
 6                     0.65261   2.63885  -2.81115 
 1                     0.91237   3.49251  -3.45233 
 1                    -0.32332   2.22808  -3.12674 
 1                     1.41608   1.85182  -2.9197 
 6                    -3.31019   0.2907    2.76385 
 9                    -2.3666    0.22889   3.73981 
 9                    -4.36396  -0.47236   3.16671 
 9                    -3.74867   1.5759    2.68704 
 6                    -3.46935   0.34602  -2.27395 
 9                    -2.87474   1.53701  -2.59343 
 9                    -4.8008    0.58825  -2.15741 
 9                    -3.2834   -0.49117  -3.32538 
 
 ITRead=  0  0  0  0  0  0  0  0  0  0  0  0  0  0  0  0  0  0  0  0
 ITRead=  0  0  0  0  0  0  0  0  0  0  0  0  0  0  0  0  0  0  0  0
 ITRead=  0  0  0  0  0  0  0  0  0  0  0  0  0  0  0
 MicOpt= -1 -1 -1 -1 -1 -1 -1 -1 -1 -1 -1 -1 -1 -1 -1 -1 -1 -1 -1 -1
 MicOpt= -1 -1 -1 -1 -1 -1 -1 -1 -1 -1 -1 -1 -1 -1 -1 -1 -1 -1 -1 -1
 MicOpt= -1 -1 -1 -1 -1 -1 -1 -1 -1 -1 -1 -1 -1 -1 -1
 NAtoms=     55 NQM=       55 NQMF=       0 NMMI=      0 NMMIF=      0
                NMic=       0 NMicF=      0.
                    Isotopes and Nuclear Properties:
 (Nuclear quadrupole moments (NQMom) in fm**2, nuclear magnetic moments (NMagM)
  in nuclear magnetons)

  Atom         1           2           3           4           5           6           7           8           9          10
 IAtWgt=          12          12          12          12          12           1           1           1           1           1
 AtmWgt=  12.0000000  12.0000000  12.0000000  12.0000000  12.0000000   1.0078250   1.0078250   1.0078250   1.0078250   1.0078250
 NucSpn=           0           0           0           0           0           1           1           1           1           1
 AtZEff=   0.0000000   0.0000000   0.0000000   0.0000000   0.0000000   0.0000000   0.0000000   0.0000000   0.0000000   0.0000000
 NQMom=    0.0000000   0.0000000   0.0000000   0.0000000   0.0000000   0.0000000   0.0000000   0.0000000   0.0000000   0.0000000
 NMagM=    0.0000000   0.0000000   0.0000000   0.0000000   0.0000000   2.7928460   2.7928460   2.7928460   2.7928460   2.7928460
 AtZNuc=   6.0000000   6.0000000   6.0000000   6.0000000   6.0000000   1.0000000   1.0000000   1.0000000   1.0000000   1.0000000

  Atom        11          12          13          14          15          16          17          18          19          20
 IAtWgt=          16          16          16          16          16          12           1           1          16          32
 AtmWgt=  15.9949146  15.9949146  15.9949146  15.9949146  15.9949146  12.0000000   1.0078250   1.0078250  15.9949146  31.9720718
 NucSpn=           0           0           0           0           0           0           1           1           0           0
 AtZEff=   0.0000000   0.0000000   0.0000000   0.0000000   0.0000000   0.0000000   0.0000000   0.0000000   0.0000000   0.0000000
 NQMom=    0.0000000   0.0000000   0.0000000   0.0000000   0.0000000   0.0000000   0.0000000   0.0000000   0.0000000   0.0000000
 NMagM=    0.0000000   0.0000000   0.0000000   0.0000000   0.0000000   0.0000000   2.7928460   2.7928460   0.0000000   0.0000000
 AtZNuc=   8.0000000   8.0000000   8.0000000   8.0000000   8.0000000   6.0000000   1.0000000   1.0000000   8.0000000  16.0000000

  Atom        21          22          23          24          25          26          27          28          29          30
 IAtWgt=          16          16          12          12          12          12           1          12           1          12
 AtmWgt=  15.9949146  15.9949146  12.0000000  12.0000000  12.0000000  12.0000000   1.0078250  12.0000000   1.0078250  12.0000000
 NucSpn=           0           0           0           0           0           0           1           0           1           0
 AtZEff=   0.0000000   0.0000000   0.0000000   0.0000000   0.0000000   0.0000000   0.0000000   0.0000000   0.0000000   0.0000000
 NQMom=    0.0000000   0.0000000   0.0000000   0.0000000   0.0000000   0.0000000   0.0000000   0.0000000   0.0000000   0.0000000
 NMagM=    0.0000000   0.0000000   0.0000000   0.0000000   0.0000000   0.0000000   2.7928460   0.0000000   2.7928460   0.0000000
 AtZNuc=   8.0000000   8.0000000   6.0000000   6.0000000   6.0000000   6.0000000   1.0000000   6.0000000   1.0000000   6.0000000

  Atom        31          32          33          34          35          36          37          38          39          40
 IAtWgt=           1          12           1           1           1          12           1           1           1          12
 AtmWgt=   1.0078250  12.0000000   1.0078250   1.0078250   1.0078250  12.0000000   1.0078250   1.0078250   1.0078250  12.0000000
 NucSpn=           1           0           1           1           1           0           1           1           1           0
 AtZEff=   0.0000000   0.0000000   0.0000000   0.0000000   0.0000000   0.0000000   0.0000000   0.0000000   0.0000000   0.0000000
 NQMom=    0.0000000   0.0000000   0.0000000   0.0000000   0.0000000   0.0000000   0.0000000   0.0000000   0.0000000   0.0000000
 NMagM=    2.7928460   0.0000000   2.7928460   2.7928460   2.7928460   0.0000000   2.7928460   2.7928460   2.7928460   0.0000000
 AtZNuc=   1.0000000   6.0000000   1.0000000   1.0000000   1.0000000   6.0000000   1.0000000   1.0000000   1.0000000   6.0000000

  Atom        41          42          43          44          45          46          47          48          49          50
 IAtWgt=           1           1           1          12           1           1           1          12          19          19
 AtmWgt=   1.0078250   1.0078250   1.0078250  12.0000000   1.0078250   1.0078250   1.0078250  12.0000000  18.9984033  18.9984033
 NucSpn=           1           1           1           0           1           1           1           0           1           1
 AtZEff=   0.0000000   0.0000000   0.0000000   0.0000000   0.0000000   0.0000000   0.0000000   0.0000000   0.0000000   0.0000000
 NQMom=    0.0000000   0.0000000   0.0000000   0.0000000   0.0000000   0.0000000   0.0000000   0.0000000   0.0000000   0.0000000
 NMagM=    2.7928460   2.7928460   2.7928460   0.0000000   2.7928460   2.7928460   2.7928460   0.0000000   2.6288670   2.6288670
 AtZNuc=   1.0000000   1.0000000   1.0000000   6.0000000   1.0000000   1.0000000   1.0000000   6.0000000   9.0000000   9.0000000

  Atom        51          52          53          54          55
 IAtWgt=          19          12          19          19          19
 AtmWgt=  18.9984033  12.0000000  18.9984033  18.9984033  18.9984033
 NucSpn=           1           0           1           1           1
 AtZEff=   0.0000000   0.0000000   0.0000000   0.0000000   0.0000000
 NQMom=    0.0000000   0.0000000   0.0000000   0.0000000   0.0000000
 NMagM=    2.6288670   0.0000000   2.6288670   2.6288670   2.6288670
 AtZNuc=   9.0000000   6.0000000   9.0000000   9.0000000   9.0000000
 Leave Link  101 at Sat Jun 15 06:58:55 2019, MaxMem=  6442450944 cpu:              16.4 elap:               0.6
 (Enter /home/ekwan/sw/g16/l103.exe)

 GradGradGradGradGradGradGradGradGradGradGradGradGradGradGradGradGradGrad
 Berny optimization.
 Initialization pass.
                           ----------------------------
                           !    Initial Parameters    !
                           ! (Angstroms and Degrees)  !
 --------------------------                            --------------------------
 ! Name  Definition              Value          Derivative Info.                !
 --------------------------------------------------------------------------------
 ! R1    R(1,2)                  1.5406         estimate D2E/DX2                !
 ! R2    R(1,5)                  1.5372         estimate D2E/DX2                !
 ! R3    R(1,8)                  1.1036         estimate D2E/DX2                !
 ! R4    R(1,14)                 1.4283         estimate D2E/DX2                !
 ! R5    R(2,3)                  1.55           estimate D2E/DX2                !
 ! R6    R(2,7)                  1.1079         estimate D2E/DX2                !
 ! R7    R(2,13)                 1.4175         estimate D2E/DX2                !
 ! R8    R(3,6)                  1.0958         estimate D2E/DX2                !
 ! R9    R(3,11)                 1.3941         estimate D2E/DX2                !
 ! R10   R(3,12)                 1.4798         estimate D2E/DX2                !
 ! R11   R(4,5)                  1.5381         estimate D2E/DX2                !
 ! R12   R(4,9)                  1.1031         estimate D2E/DX2                !
 ! R13   R(4,11)                 1.4588         estimate D2E/DX2                !
 ! R14   R(4,16)                 1.5352         estimate D2E/DX2                !
 ! R15   R(5,10)                 1.1018         estimate D2E/DX2                !
 ! R16   R(5,15)                 1.4287         estimate D2E/DX2                !
 ! R17   R(12,20)                1.6562         estimate D2E/DX2                !
 ! R18   R(13,32)                1.4342         estimate D2E/DX2                !
 ! R19   R(14,36)                1.4332         estimate D2E/DX2                !
 ! R20   R(15,40)                1.4337         estimate D2E/DX2                !
 ! R21   R(16,17)                1.0983         estimate D2E/DX2                !
 ! R22   R(16,18)                1.1035         estimate D2E/DX2                !
 ! R23   R(16,19)                1.425          estimate D2E/DX2                !
 ! R24   R(19,44)                1.4339         estimate D2E/DX2                !
 ! R25   R(20,21)                1.4701         estimate D2E/DX2                !
 ! R26   R(20,22)                1.4749         estimate D2E/DX2                !
 ! R27   R(20,23)                1.8025         estimate D2E/DX2                !
 ! R28   R(23,24)                1.3998         estimate D2E/DX2                !
 ! R29   R(23,25)                1.3991         estimate D2E/DX2                !
 ! R30   R(24,26)                1.4023         estimate D2E/DX2                !
 ! R31   R(24,27)                1.0883         estimate D2E/DX2                !
 ! R32   R(25,28)                1.4008         estimate D2E/DX2                !
 ! R33   R(25,29)                1.0871         estimate D2E/DX2                !
 ! R34   R(26,30)                1.4021         estimate D2E/DX2                !
 ! R35   R(26,48)                1.5166         estimate D2E/DX2                !
 ! R36   R(28,30)                1.403          estimate D2E/DX2                !
 ! R37   R(28,52)                1.5153         estimate D2E/DX2                !
 ! R38   R(30,31)                1.0883         estimate D2E/DX2                !
 ! R39   R(32,33)                1.1037         estimate D2E/DX2                !
 ! R40   R(32,34)                1.1051         estimate D2E/DX2                !
 ! R41   R(32,35)                1.0973         estimate D2E/DX2                !
 ! R42   R(36,37)                1.0988         estimate D2E/DX2                !
 ! R43   R(36,38)                1.1059         estimate D2E/DX2                !
 ! R44   R(36,39)                1.1007         estimate D2E/DX2                !
 ! R45   R(40,41)                1.0988         estimate D2E/DX2                !
 ! R46   R(40,42)                1.1019         estimate D2E/DX2                !
 ! R47   R(40,43)                1.1045         estimate D2E/DX2                !
 ! R48   R(44,45)                1.0988         estimate D2E/DX2                !
 ! R49   R(44,46)                1.1049         estimate D2E/DX2                !
 ! R50   R(44,47)                1.1019         estimate D2E/DX2                !
 ! R51   R(48,49)                1.3589         estimate D2E/DX2                !
 ! R52   R(48,50)                1.362          estimate D2E/DX2                !
 ! R53   R(48,51)                1.3601         estimate D2E/DX2                !
 ! R54   R(52,53)                1.369          estimate D2E/DX2                !
 ! R55   R(52,54)                1.3583         estimate D2E/DX2                !
 ! R56   R(52,55)                1.3568         estimate D2E/DX2                !
 ! A1    A(2,1,5)              110.2963         estimate D2E/DX2                !
 ! A2    A(2,1,8)              109.2605         estimate D2E/DX2                !
 ! A3    A(2,1,14)             110.6784         estimate D2E/DX2                !
 ! A4    A(5,1,8)              108.5808         estimate D2E/DX2                !
 ! A5    A(5,1,14)             107.1198         estimate D2E/DX2                !
 ! A6    A(8,1,14)             110.8657         estimate D2E/DX2                !
 ! A7    A(1,2,3)              111.003          estimate D2E/DX2                !
 ! A8    A(1,2,7)              107.8046         estimate D2E/DX2                !
 ! A9    A(1,2,13)             108.7471         estimate D2E/DX2                !
 ! A10   A(3,2,7)              105.4321         estimate D2E/DX2                !
 ! A11   A(3,2,13)             113.0304         estimate D2E/DX2                !
 ! A12   A(7,2,13)             110.6818         estimate D2E/DX2                !
 ! A13   A(2,3,6)              112.2209         estimate D2E/DX2                !
 ! A14   A(2,3,11)             112.9267         estimate D2E/DX2                !
 ! A15   A(2,3,12)             105.446          estimate D2E/DX2                !
 ! A16   A(6,3,11)             106.4016         estimate D2E/DX2                !
 ! A17   A(6,3,12)             108.1508         estimate D2E/DX2                !
 ! A18   A(11,3,12)            111.6895         estimate D2E/DX2                !
 ! A19   A(5,4,9)              109.0874         estimate D2E/DX2                !
 ! A20   A(5,4,11)             110.8708         estimate D2E/DX2                !
 ! A21   A(5,4,16)             112.0668         estimate D2E/DX2                !
 ! A22   A(9,4,11)             108.4504         estimate D2E/DX2                !
 ! A23   A(9,4,16)             107.9943         estimate D2E/DX2                !
 ! A24   A(11,4,16)            108.2652         estimate D2E/DX2                !
 ! A25   A(1,5,4)              112.0775         estimate D2E/DX2                !
 ! A26   A(1,5,10)             108.5475         estimate D2E/DX2                !
 ! A27   A(1,5,15)             110.0423         estimate D2E/DX2                !
 ! A28   A(4,5,10)             108.211          estimate D2E/DX2                !
 ! A29   A(4,5,15)             106.8692         estimate D2E/DX2                !
 ! A30   A(10,5,15)            111.0953         estimate D2E/DX2                !
 ! A31   A(3,11,4)             114.7238         estimate D2E/DX2                !
 ! A32   A(3,12,20)            117.8642         estimate D2E/DX2                !
 ! A33   A(2,13,32)            114.3305         estimate D2E/DX2                !
 ! A34   A(1,14,36)            114.2808         estimate D2E/DX2                !
 ! A35   A(5,15,40)            113.5353         estimate D2E/DX2                !
 ! A36   A(4,16,17)            106.9057         estimate D2E/DX2                !
 ! A37   A(4,16,18)            109.0215         estimate D2E/DX2                !
 ! A38   A(4,16,19)            115.036          estimate D2E/DX2                !
 ! A39   A(17,16,18)           108.8772         estimate D2E/DX2                !
 ! A40   A(17,16,19)           105.773          estimate D2E/DX2                !
 ! A41   A(18,16,19)           110.9603         estimate D2E/DX2                !
 ! A42   A(16,19,44)           114.1011         estimate D2E/DX2                !
 ! A43   A(12,20,21)           104.0044         estimate D2E/DX2                !
 ! A44   A(12,20,22)           109.1834         estimate D2E/DX2                !
 ! A45   A(12,20,23)           103.0296         estimate D2E/DX2                !
 ! A46   A(21,20,22)           121.6067         estimate D2E/DX2                !
 ! A47   A(21,20,23)           108.8031         estimate D2E/DX2                !
 ! A48   A(22,20,23)           108.6167         estimate D2E/DX2                !
 ! A49   A(20,23,24)           118.6924         estimate D2E/DX2                !
 ! A50   A(20,23,25)           118.8976         estimate D2E/DX2                !
 ! A51   A(24,23,25)           122.3705         estimate D2E/DX2                !
 ! A52   A(23,24,26)           118.2995         estimate D2E/DX2                !
 ! A53   A(23,24,27)           120.7266         estimate D2E/DX2                !
 ! A54   A(26,24,27)           120.9738         estimate D2E/DX2                !
 ! A55   A(23,25,28)           118.2554         estimate D2E/DX2                !
 ! A56   A(23,25,29)           120.6278         estimate D2E/DX2                !
 ! A57   A(28,25,29)           121.1167         estimate D2E/DX2                !
 ! A58   A(24,26,30)           120.6099         estimate D2E/DX2                !
 ! A59   A(24,26,48)           119.7682         estimate D2E/DX2                !
 ! A60   A(30,26,48)           119.576          estimate D2E/DX2                !
 ! A61   A(25,28,30)           120.7188         estimate D2E/DX2                !
 ! A62   A(25,28,52)           119.8199         estimate D2E/DX2                !
 ! A63   A(30,28,52)           119.3321         estimate D2E/DX2                !
 ! A64   A(26,30,28)           119.7439         estimate D2E/DX2                !
 ! A65   A(26,30,31)           120.1293         estimate D2E/DX2                !
 ! A66   A(28,30,31)           120.1262         estimate D2E/DX2                !
 ! A67   A(13,32,33)           111.9789         estimate D2E/DX2                !
 ! A68   A(13,32,34)           111.1863         estimate D2E/DX2                !
 ! A69   A(13,32,35)           106.3127         estimate D2E/DX2                !
 ! A70   A(33,32,34)           109.0985         estimate D2E/DX2                !
 ! A71   A(33,32,35)           108.8066         estimate D2E/DX2                !
 ! A72   A(34,32,35)           109.3762         estimate D2E/DX2                !
 ! A73   A(14,36,37)           106.2814         estimate D2E/DX2                !
 ! A74   A(14,36,38)           111.093          estimate D2E/DX2                !
 ! A75   A(14,36,39)           111.5138         estimate D2E/DX2                !
 ! A76   A(37,36,38)           108.9995         estimate D2E/DX2                !
 ! A77   A(37,36,39)           109.7195         estimate D2E/DX2                !
 ! A78   A(38,36,39)           109.1687         estimate D2E/DX2                !
 ! A79   A(15,40,41)           106.4209         estimate D2E/DX2                !
 ! A80   A(15,40,42)           111.0254         estimate D2E/DX2                !
 ! A81   A(15,40,43)           110.9423         estimate D2E/DX2                !
 ! A82   A(41,40,42)           109.5949         estimate D2E/DX2                !
 ! A83   A(41,40,43)           109.3217         estimate D2E/DX2                !
 ! A84   A(42,40,43)           109.4764         estimate D2E/DX2                !
 ! A85   A(19,44,45)           106.4178         estimate D2E/DX2                !
 ! A86   A(19,44,46)           111.0741         estimate D2E/DX2                !
 ! A87   A(19,44,47)           111.9247         estimate D2E/DX2                !
 ! A88   A(45,44,46)           109.3282         estimate D2E/DX2                !
 ! A89   A(45,44,47)           109.4898         estimate D2E/DX2                !
 ! A90   A(46,44,47)           108.5625         estimate D2E/DX2                !
 ! A91   A(26,48,49)           111.6292         estimate D2E/DX2                !
 ! A92   A(26,48,50)           111.0383         estimate D2E/DX2                !
 ! A93   A(26,48,51)           111.3884         estimate D2E/DX2                !
 ! A94   A(49,48,50)           107.4169         estimate D2E/DX2                !
 ! A95   A(49,48,51)           107.9017         estimate D2E/DX2                !
 ! A96   A(50,48,51)           107.2575         estimate D2E/DX2                !
 ! A97   A(28,52,53)           110.7474         estimate D2E/DX2                !
 ! A98   A(28,52,54)           111.6161         estimate D2E/DX2                !
 ! A99   A(28,52,55)           111.9851         estimate D2E/DX2                !
 ! A100  A(53,52,54)           106.8959         estimate D2E/DX2                !
 ! A101  A(53,52,55)           107.2434         estimate D2E/DX2                !
 ! A102  A(54,52,55)           108.1113         estimate D2E/DX2                !
 ! D1    D(5,1,2,3)            -49.4177         estimate D2E/DX2                !
 ! D2    D(5,1,2,7)             65.5856         estimate D2E/DX2                !
 ! D3    D(5,1,2,13)          -174.3664         estimate D2E/DX2                !
 ! D4    D(8,1,2,3)             69.8642         estimate D2E/DX2                !
 ! D5    D(8,1,2,7)           -175.1326         estimate D2E/DX2                !
 ! D6    D(8,1,2,13)           -55.0845         estimate D2E/DX2                !
 ! D7    D(14,1,2,3)          -167.781          estimate D2E/DX2                !
 ! D8    D(14,1,2,7)           -52.7777         estimate D2E/DX2                !
 ! D9    D(14,1,2,13)           67.2704         estimate D2E/DX2                !
 ! D10   D(2,1,5,4)             50.7341         estimate D2E/DX2                !
 ! D11   D(2,1,5,10)           -68.7255         estimate D2E/DX2                !
 ! D12   D(2,1,5,15)           169.5045         estimate D2E/DX2                !
 ! D13   D(8,1,5,4)            -68.9598         estimate D2E/DX2                !
 ! D14   D(8,1,5,10)           171.5807         estimate D2E/DX2                !
 ! D15   D(8,1,5,15)            49.8106         estimate D2E/DX2                !
 ! D16   D(14,1,5,4)           171.2562         estimate D2E/DX2                !
 ! D17   D(14,1,5,10)           51.7967         estimate D2E/DX2                !
 ! D18   D(14,1,5,15)          -69.9734         estimate D2E/DX2                !
 ! D19   D(2,1,14,36)          -95.9774         estimate D2E/DX2                !
 ! D20   D(5,1,14,36)          143.7438         estimate D2E/DX2                !
 ! D21   D(8,1,14,36)           25.4349         estimate D2E/DX2                !
 ! D22   D(1,2,3,6)            173.159          estimate D2E/DX2                !
 ! D23   D(1,2,3,11)            52.8958         estimate D2E/DX2                !
 ! D24   D(1,2,3,12)           -69.3249         estimate D2E/DX2                !
 ! D25   D(7,2,3,6)             56.6867         estimate D2E/DX2                !
 ! D26   D(7,2,3,11)           -63.5765         estimate D2E/DX2                !
 ! D27   D(7,2,3,12)           174.2028         estimate D2E/DX2                !
 ! D28   D(13,2,3,6)           -64.342          estimate D2E/DX2                !
 ! D29   D(13,2,3,11)          175.3949         estimate D2E/DX2                !
 ! D30   D(13,2,3,12)           53.1742         estimate D2E/DX2                !
 ! D31   D(1,2,13,32)         -164.3971         estimate D2E/DX2                !
 ! D32   D(3,2,13,32)           71.8539         estimate D2E/DX2                !
 ! D33   D(7,2,13,32)          -46.1503         estimate D2E/DX2                !
 ! D34   D(2,3,11,4)           -56.9624         estimate D2E/DX2                !
 ! D35   D(6,3,11,4)           179.4967         estimate D2E/DX2                !
 ! D36   D(12,3,11,4)           61.6861         estimate D2E/DX2                !
 ! D37   D(2,3,12,20)         -161.1303         estimate D2E/DX2                !
 ! D38   D(6,3,12,20)          -40.8999         estimate D2E/DX2                !
 ! D39   D(11,3,12,20)          75.8558         estimate D2E/DX2                !
 ! D40   D(9,4,5,1)             66.5425         estimate D2E/DX2                !
 ! D41   D(9,4,5,10)          -173.8008         estimate D2E/DX2                !
 ! D42   D(9,4,5,15)           -54.0849         estimate D2E/DX2                !
 ! D43   D(11,4,5,1)           -52.821          estimate D2E/DX2                !
 ! D44   D(11,4,5,10)           66.8357         estimate D2E/DX2                !
 ! D45   D(11,4,5,15)         -173.4484         estimate D2E/DX2                !
 ! D46   D(16,4,5,1)          -173.9189         estimate D2E/DX2                !
 ! D47   D(16,4,5,10)          -54.2622         estimate D2E/DX2                !
 ! D48   D(16,4,5,15)           65.4537         estimate D2E/DX2                !
 ! D49   D(5,4,11,3)            56.5809         estimate D2E/DX2                !
 ! D50   D(9,4,11,3)           -63.1643         estimate D2E/DX2                !
 ! D51   D(16,4,11,3)          179.8958         estimate D2E/DX2                !
 ! D52   D(5,4,16,17)          -71.3454         estimate D2E/DX2                !
 ! D53   D(5,4,16,18)          171.1084         estimate D2E/DX2                !
 ! D54   D(5,4,16,19)           45.7533         estimate D2E/DX2                !
 ! D55   D(9,4,16,17)           48.8319         estimate D2E/DX2                !
 ! D56   D(9,4,16,18)          -68.7143         estimate D2E/DX2                !
 ! D57   D(9,4,16,19)          165.9306         estimate D2E/DX2                !
 ! D58   D(11,4,16,17)         166.0654         estimate D2E/DX2                !
 ! D59   D(11,4,16,18)          48.5191         estimate D2E/DX2                !
 ! D60   D(11,4,16,19)         -76.836          estimate D2E/DX2                !
 ! D61   D(1,5,15,40)          106.8274         estimate D2E/DX2                !
 ! D62   D(4,5,15,40)         -131.2548         estimate D2E/DX2                !
 ! D63   D(10,5,15,40)         -13.4145         estimate D2E/DX2                !
 ! D64   D(3,12,20,21)         168.3391         estimate D2E/DX2                !
 ! D65   D(3,12,20,22)          37.1407         estimate D2E/DX2                !
 ! D66   D(3,12,20,23)         -78.1649         estimate D2E/DX2                !
 ! D67   D(2,13,32,33)         -70.2389         estimate D2E/DX2                !
 ! D68   D(2,13,32,34)          52.0947         estimate D2E/DX2                !
 ! D69   D(2,13,32,35)         171.0534         estimate D2E/DX2                !
 ! D70   D(1,14,36,37)        -178.7599         estimate D2E/DX2                !
 ! D71   D(1,14,36,38)         -60.3238         estimate D2E/DX2                !
 ! D72   D(1,14,36,39)          61.7043         estimate D2E/DX2                !
 ! D73   D(5,15,40,41)         179.9421         estimate D2E/DX2                !
 ! D74   D(5,15,40,42)         -60.8588         estimate D2E/DX2                !
 ! D75   D(5,15,40,43)          61.1175         estimate D2E/DX2                !
 ! D76   D(4,16,19,44)          76.6768         estimate D2E/DX2                !
 ! D77   D(17,16,19,44)       -165.5845         estimate D2E/DX2                !
 ! D78   D(18,16,19,44)        -47.6653         estimate D2E/DX2                !
 ! D79   D(16,19,44,45)        169.747          estimate D2E/DX2                !
 ! D80   D(16,19,44,46)         50.8442         estimate D2E/DX2                !
 ! D81   D(16,19,44,47)        -70.6798         estimate D2E/DX2                !
 ! D82   D(12,20,23,24)        -79.9109         estimate D2E/DX2                !
 ! D83   D(12,20,23,25)         97.8607         estimate D2E/DX2                !
 ! D84   D(21,20,23,24)         30.0383         estimate D2E/DX2                !
 ! D85   D(21,20,23,25)       -152.1901         estimate D2E/DX2                !
 ! D86   D(22,20,23,24)        164.3768         estimate D2E/DX2                !
 ! D87   D(22,20,23,25)        -17.8516         estimate D2E/DX2                !
 ! D88   D(20,23,24,26)        177.9077         estimate D2E/DX2                !
 ! D89   D(20,23,24,27)         -1.9514         estimate D2E/DX2                !
 ! D90   D(25,23,24,26)          0.2177         estimate D2E/DX2                !
 ! D91   D(25,23,24,27)       -179.6414         estimate D2E/DX2                !
 ! D92   D(20,23,25,28)       -178.1917         estimate D2E/DX2                !
 ! D93   D(20,23,25,29)          1.7014         estimate D2E/DX2                !
 ! D94   D(24,23,25,28)         -0.5063         estimate D2E/DX2                !
 ! D95   D(24,23,25,29)        179.3869         estimate D2E/DX2                !
 ! D96   D(23,24,26,30)          0.0854         estimate D2E/DX2                !
 ! D97   D(23,24,26,48)        177.6122         estimate D2E/DX2                !
 ! D98   D(27,24,26,30)        179.9441         estimate D2E/DX2                !
 ! D99   D(27,24,26,48)         -2.529          estimate D2E/DX2                !
 ! D100  D(23,25,28,30)          0.4976         estimate D2E/DX2                !
 ! D101  D(23,25,28,52)        176.3384         estimate D2E/DX2                !
 ! D102  D(29,25,28,30)       -179.395          estimate D2E/DX2                !
 ! D103  D(29,25,28,52)         -3.5542         estimate D2E/DX2                !
 ! D104  D(24,26,30,28)         -0.0865         estimate D2E/DX2                !
 ! D105  D(24,26,30,31)       -179.8115         estimate D2E/DX2                !
 ! D106  D(48,26,30,28)       -177.6181         estimate D2E/DX2                !
 ! D107  D(48,26,30,31)          2.6569         estimate D2E/DX2                !
 ! D108  D(24,26,48,49)         27.4026         estimate D2E/DX2                !
 ! D109  D(24,26,48,50)        -92.4324         estimate D2E/DX2                !
 ! D110  D(24,26,48,51)        148.0948         estimate D2E/DX2                !
 ! D111  D(30,26,48,49)       -155.0448         estimate D2E/DX2                !
 ! D112  D(30,26,48,50)         85.1202         estimate D2E/DX2                !
 ! D113  D(30,26,48,51)        -34.3526         estimate D2E/DX2                !
 ! D114  D(25,28,30,26)         -0.2123         estimate D2E/DX2                !
 ! D115  D(25,28,30,31)        179.5127         estimate D2E/DX2                !
 ! D116  D(52,28,30,26)       -176.0732         estimate D2E/DX2                !
 ! D117  D(52,28,30,31)          3.6518         estimate D2E/DX2                !
 ! D118  D(25,28,52,53)        -94.5145         estimate D2E/DX2                !
 ! D119  D(25,28,52,54)        146.5121         estimate D2E/DX2                !
 ! D120  D(25,28,52,55)         25.1409         estimate D2E/DX2                !
 ! D121  D(30,28,52,53)         81.3842         estimate D2E/DX2                !
 ! D122  D(30,28,52,54)        -37.5893         estimate D2E/DX2                !
 ! D123  D(30,28,52,55)       -158.9604         estimate D2E/DX2                !
 --------------------------------------------------------------------------------
 Trust Radius=3.00D-01 FncErr=1.00D-07 GrdErr=1.00D-06 EigMax=2.50D+02 EigMin=1.00D-04
 Number of steps in this run=    291 maximum allowed number of steps=    330.
 GradGradGradGradGradGradGradGradGradGradGradGradGradGradGradGradGradGrad

 Leave Link  103 at Sat Jun 15 06:58:55 2019, MaxMem=  6442450944 cpu:               1.9 elap:               0.1
 (Enter /home/ekwan/sw/g16/l202.exe)
 Stoichiometry    C18H22F6O8S
 Framework group  C1[X(C18H22F6O8S)]
 Deg. of freedom   159
 Full point group                 C1      NOp   1
 Largest Abelian subgroup         C1      NOp   1
 Largest concise Abelian subgroup C1      NOp   1
                         Standard orientation:                         
 ---------------------------------------------------------------------
 Center     Atomic      Atomic             Coordinates (Angstroms)
 Number     Number       Type             X           Y           Z
 ---------------------------------------------------------------------
      1          6           0       -3.381733   -0.485182    0.541655
      2          6           0       -3.337702    0.563746   -0.585814
      3          6           0       -1.878181    0.979416   -0.901193
      4          6           0       -0.988199   -1.099732   -0.090140
      5          6           0       -2.393548   -1.625415    0.248014
      6          1           0       -1.813771    1.632974   -1.778392
      7          1           0       -3.713712    0.083148   -1.510499
      8          1           0       -3.094797   -0.007790    1.494437
      9          1           0       -0.557003   -0.620998    0.805299
     10          1           0       -2.764973   -2.196842   -0.617727
     11          8           0       -1.047150   -0.109667   -1.159838
     12          8           0       -1.422939    1.746462    0.279592
     13          8           0       -4.159853    1.659361   -0.221123
     14          8           0       -4.681633   -1.069373    0.636557
     15          8           0       -2.257346   -2.463409    1.397147
     16          6           0       -0.041229   -2.225765   -0.528389
     17          1           0        0.186515   -2.818482    0.367812
     18          1           0        0.894009   -1.781208   -0.909575
     19          8           0       -0.590456   -3.143205   -1.470292
     20         16           0       -0.106022    2.734611    0.100049
     21          8           0       -0.097854    3.543093    1.327874
     22          8           0       -0.146650    3.358324   -1.235917
     23          6           0        1.278026    1.581133    0.154734
     24          6           0        1.720331    1.120713    1.400431
     25          6           0        1.840275    1.142156   -1.048876
     26          6           0        2.768318    0.189416    1.431161
     27          1           0        1.259661    1.476015    2.320138
     28          6           0        2.889952    0.216297   -0.991724
     29          1           0        1.467934    1.511260   -2.001243
     30          6           0        3.355531   -0.264055    0.241487
     31          1           0        4.166378   -0.989272    0.274321
     32          6           0       -4.491795    2.536046   -1.306534
     33          1           0       -3.618763    3.117614   -1.649590
     34          1           0       -4.909787    1.973382   -2.160875
     35          1           0       -5.249881    3.229783   -0.921619
     36          6           0       -5.528307   -0.466050    1.623068
     37          1           0       -6.474363   -1.024486    1.600186
     38          1           0       -5.085156   -0.549768    2.632784
     39          1           0       -5.717630    0.594644    1.398292
     40          6           0       -2.904688   -3.735090    1.258309
     41          1           0       -2.727174   -4.278135    2.196936
     42          1           0       -3.988454   -3.612032    1.101855
     43          1           0       -2.473951   -4.307651    0.417781
     44          6           0       -0.652605   -2.638847   -2.811150
     45          1           0       -0.912368   -3.492510   -3.452326
     46          1           0        0.323321   -2.228083   -3.126739
     47          1           0       -1.416077   -1.851817   -2.919700
     48          6           0        3.310188   -0.290696    2.763849
     49          9           0        2.366599   -0.228892    3.739813
     50          9           0        4.363964    0.472357    3.166707
     51          9           0        3.748670   -1.575901    2.687041
     52          6           0        3.469352   -0.346015   -2.273953
     53          9           0        2.874740   -1.537012   -2.593432
     54          9           0        4.800798   -0.588245   -2.157405
     55          9           0        3.283400    0.491173   -3.325383
 ---------------------------------------------------------------------
 Rotational constants (GHZ):           0.1488470           0.0840270           0.0829576
 Leave Link  202 at Sat Jun 15 06:58:56 2019, MaxMem=  6442450944 cpu:               2.8 elap:               0.1
 (Enter /home/ekwan/sw/g16/l301.exe)
 Standard basis: 6-31G(d) (6D, 7F)
 Centers:      12     22     21
 SP 1 1.00
     Exponent=  8.4500000000D-02 Coefficients=  1.0000000000D+00  1.0000000000D+00
 ****
 Ernie: Thresh=  0.10000D-02 Tol=  0.10000D-05 Strict=F.
 There are   555 symmetry adapted cartesian basis functions of A   symmetry.
 There are   555 symmetry adapted basis functions of A   symmetry.
   555 basis functions,  1048 primitive gaussians,   555 cartesian basis functions
   132 alpha electrons      132 beta electrons
       nuclear repulsion energy      4318.7611292010 Hartrees.
 IExCor= 3630 DFT=T Ex+Corr=B97D ExCW=0 ScaHFX=  0.000000
 ScaDFX=  1.000000  1.000000  1.000000  1.000000 ScalE2=  1.000000  1.000000
 IRadAn=      5 IRanWt=     -1 IRanGd=            0 ICorTp=0 IEmpDi=131
 NAtoms=   55 NActive=   55 NUniq=   55 SFac= 1.00D+00 NAtFMM=   60 NAOKFM=F Big=F
 Integral buffers will be    131072 words long.
 Raffenetti 2 integral format.
 Two-electron integral symmetry is turned on.
 R6Disp:  Grimme-D3 Dispersion energy=       -0.1245905829 Hartrees.
 Nuclear repulsion after empirical dispersion term =     4318.6365386181 Hartrees.
 ------------------------------------------------------------------------------
 Polarizable Continuum Model (PCM)
 =================================
 Model                : PCM.
 Atomic radii         : UFF (Universal Force Field).
 Polarization charges : Total charges.
 Charge compensation  : None.
 Solution method      : On-the-fly selection.
 Cavity type          : Scaled VdW (van der Waals Surface) (Alpha=1.100).
 Cavity algorithm     : GePol (No added spheres)
                        Default sphere list used, NSphG=   55.
                        Lebedev-Laikov grids with approx.  5.0 points / Ang**2.
                        Smoothing algorithm: York/Karplus (Gamma=1.0000).
                        Polarization charges: spherical gaussians, with
                                              point-specific exponents (IZeta= 3).
                        Self-potential: point-specific (ISelfS= 7).
                        Self-field    : sphere-specific E.n sum rule (ISelfD= 2).
 1st derivatives      : Analytical E(r).r(x)/FMM algorithm (CHGder, D1EAlg=3).
                        Cavity 1st derivative terms included.
 Solvent              : TetraHydroFuran, Eps=   7.425700 Eps(inf)=   1.974025
 ------------------------------------------------------------------------------
 GePol: Number of generator spheres                  =      55
 GePol: Total number of spheres                      =      55
 GePol: Number of exposed spheres                    =      55 (100.00%)
 GePol: Number of points                             =    3925
 GePol: Average weight of points                     =       0.13
 GePol: Minimum weight of points                     =   0.31D-09
 GePol: Maximum weight of points                     =    0.20577
 GePol: Number of points with low weight             =     240
 GePol: Fraction of low-weight points (<1% of avg)   =       6.11%
 GePol: Cavity surface area                          =    502.519 Ang**2
 GePol: Cavity volume                                =    583.225 Ang**3
 Leave Link  301 at Sat Jun 15 06:58:56 2019, MaxMem=  6442450944 cpu:               7.2 elap:               0.3
 (Enter /home/ekwan/sw/g16/l302.exe)
 NPDir=0 NMtPBC=     1 NCelOv=     1 NCel=       1 NClECP=     1 NCelD=      1
         NCelK=      1 NCelE2=     1 NClLst=     1 CellRange=     0.0.
 One-electron integrals computed using PRISM.
 One-electron integral symmetry used in STVInt
 NBasis=   555 RedAO= T EigKep=  4.31D-04  NBF=   555
 NBsUse=   555 1.00D-06 EigRej= -1.00D+00 NBFU=   555
 Precomputing XC quadrature grid using
 IXCGrd= 4 IRadAn=           5 IRanWt=          -1 IRanGd=           0 AccXCQ= 0.00D+00.
 Generated NRdTot=       0 NPtTot=           0 NUsed=           0 NTot=          32
 NSgBfM=   545   544   544   544   545 MxSgAt=    55 MxSgA2=    55.
 Leave Link  302 at Sat Jun 15 06:59:03 2019, MaxMem=  6442450944 cpu:             210.0 elap:               7.1
 (Enter /home/ekwan/sw/g16/l303.exe)
 DipDrv:  MaxL=1.
 Leave Link  303 at Sat Jun 15 06:59:03 2019, MaxMem=  6442450944 cpu:               9.2 elap:               0.4
 (Enter /home/ekwan/sw/g16/l401.exe)
 ExpMin= 8.45D-02 ExpMax= 2.19D+04 ExpMxC= 3.30D+03 IAcc=3 IRadAn=         5 AccDes= 0.00D+00
 Harris functional with IExCor= 3630 and IRadAn=       5 diagonalized for initial guess.
 HarFok:  IExCor= 3630 AccDes= 0.00D+00 IRadAn=         5 IDoV= 1 UseB2=F ITyADJ=14
 ICtDFT=  3500011 ScaDFX=  1.000000  1.000000  1.000000  1.000000
 FoFCou: FMM=F IPFlag=           0 FMFlag=      100000 FMFlg1=           0
         NFxFlg=           0 DoJE=T BraDBF=F KetDBF=T FulRan=T
         wScrn=  0.000000 ICntrl=       500 IOpCl=  0 I1Cent=   200000004 NGrid=           0
         NMat0=    1 NMatS0=      1 NMatT0=    0 NMatD0=    1 NMtDS0=    0 NMtDT0=    0
 Petite list used in FoFCou.
 Harris En= -2297.19333947259    
 JPrj=0 DoOrth=F DoCkMO=F.
 Leave Link  401 at Sat Jun 15 06:59:12 2019, MaxMem=  6442450944 cpu:             254.6 elap:               8.3
 (Enter /home/ekwan/sw/g16/l502.exe)
 Integral symmetry usage will be decided dynamically.
 Closed shell SCF:
 Using DIIS extrapolation, IDIIS=  1040.
 NGot=  6442450944 LenX=  6441811192 LenY=  6441502612
 Requested convergence on RMS density matrix=1.00D-08 within 128 cycles.
 Requested convergence on MAX density matrix=1.00D-06.
 Requested convergence on             energy=1.00D-06.
 No special actions if energy rises.
 Fock matrices will be formed incrementally for  20 cycles.

 Cycle   1  Pass 1  IDiag  1:
 FoFJK:  IHMeth= 1 ICntrl=     500 DoSepK=F KAlg= 0 I1Cent=           0 FoldK=F
 IRaf= 710000000 NMat=       1 IRICut=       1 DoRegI=T DoRafI=F ISym2E= 0 IDoP0=0 IntGTp=1.
 FoFCou: FMM=F IPFlag=           0 FMFlag=      100000 FMFlg1=           0
         NFxFlg=           0 DoJE=T BraDBF=F KetDBF=F FulRan=T
         wScrn=  0.000000 ICntrl=       500 IOpCl=  0 I1Cent=           0 NGrid=           0
         NMat0=    1 NMatS0=      1 NMatT0=    0 NMatD0=    1 NMtDS0=    0 NMtDT0=    0
 Symmetry not used in FoFCou.
 Inv3:  Mode=1 IEnd=    46216875.
 Iteration    1 A*A^-1 deviation from unit magnitude is 5.55D-15 for   3908.
 Iteration    1 A*A^-1 deviation from orthogonality  is 4.00D-15 for   3916   2507.
 Iteration    1 A^-1*A deviation from unit magnitude is 5.33D-15 for   3908.
 Iteration    1 A^-1*A deviation from orthogonality  is 4.18D-15 for   3918   2509.
 E= -2296.23582694502    
 DIIS: error= 3.09D-02 at cycle   1 NSaved=   1.
 NSaved= 1 IEnMin= 1 EnMin= -2296.23582694502     IErMin= 1 ErrMin= 3.09D-02
 ErrMax= 3.09D-02  0.00D+00 EMaxC= 1.00D-01 BMatC= 8.77D-01 BMatP= 8.77D-01
 IDIUse=3 WtCom= 6.91D-01 WtEn= 3.09D-01
 Coeff-Com:  0.100D+01
 Coeff-En:   0.100D+01
 Coeff:      0.100D+01
 Gap=     0.071 Goal=   None    Shift=    0.000
 GapD=    0.071 DampG=0.500 DampE=0.500 DampFc=0.2500 IDamp=-1.
 Damping current iteration by 2.50D-01
 RMSDP=5.45D-03 MaxDP=7.16D-01              OVMax= 2.60D-01

 Cycle   2  Pass 1  IDiag  1:
 RMSU=  1.36D-03    CP:  1.00D+00
 E= -2296.48267905631     Delta-E=       -0.246852111293 Rises=F Damp=T
 DIIS: error= 1.07D-02 at cycle   2 NSaved=   2.
 NSaved= 2 IEnMin= 2 EnMin= -2296.48267905631     IErMin= 2 ErrMin= 1.07D-02
 ErrMax= 1.07D-02  0.00D+00 EMaxC= 1.00D-01 BMatC= 1.07D-01 BMatP= 8.77D-01
 IDIUse=3 WtCom= 8.93D-01 WtEn= 1.07D-01
 Coeff-Com: -0.335D+00 0.133D+01
 Coeff-En:   0.125D-01 0.988D+00
 Coeff:     -0.298D+00 0.130D+01
 Gap=     0.128 Goal=   None    Shift=    0.000
 RMSDP=1.29D-03 MaxDP=6.60D-02 DE=-2.47D-01 OVMax= 2.04D-01

 Cycle   3  Pass 1  IDiag  1:
 RMSU=  1.29D-03    CP:  9.97D-01  9.70D-01
 E= -2296.83217044572     Delta-E=       -0.349491389410 Rises=F Damp=F
 DIIS: error= 1.17D-02 at cycle   3 NSaved=   3.
 NSaved= 3 IEnMin= 3 EnMin= -2296.83217044572     IErMin= 2 ErrMin= 1.07D-02
 ErrMax= 1.17D-02  0.00D+00 EMaxC= 1.00D-01 BMatC= 1.51D-01 BMatP= 1.07D-01
 IDIUse=2 WtCom= 0.00D+00 WtEn= 1.00D+00
 Coeff-En:   0.000D+00 0.000D+00 0.100D+01
 Coeff:      0.000D+00 0.000D+00 0.100D+01
 Gap=     0.083 Goal=   None    Shift=    0.000
 RMSDP=3.40D-03 MaxDP=2.39D-01 DE=-3.49D-01 OVMax= 3.02D-01

 Cycle   4  Pass 1  IDiag  1:
 RMSU=  1.45D-03    CP:  1.01D+00  2.31D+00 -9.16D-01
 E= -2295.82710146444     Delta-E=        1.005068981286 Rises=F Damp=F
 DIIS: error= 3.45D-02 at cycle   4 NSaved=   4.
 NSaved= 4 IEnMin= 3 EnMin= -2296.83217044572     IErMin= 2 ErrMin= 1.07D-02
 ErrMax= 3.45D-02  0.00D+00 EMaxC= 1.00D-01 BMatC= 1.37D+00 BMatP= 1.07D-01
 IDIUse=2 WtCom= 0.00D+00 WtEn= 1.00D+00
 Coeff-En:   0.000D+00 0.000D+00 0.836D+00 0.164D+00
 Coeff:      0.000D+00 0.000D+00 0.836D+00 0.164D+00
 Gap=     0.140 Goal=   None    Shift=    0.000
 RMSDP=2.09D-03 MaxDP=1.65D-01 DE= 1.01D+00 OVMax= 2.03D-01

 Cycle   5  Pass 1  IDiag  1:
 RMSU=  4.51D-04    CP:  1.00D+00  1.35D+00  8.00D-02  3.74D-01
 E= -2296.86639846152     Delta-E=       -1.039296997085 Rises=F Damp=F
 DIIS: error= 9.85D-03 at cycle   5 NSaved=   5.
 NSaved= 5 IEnMin= 5 EnMin= -2296.86639846152     IErMin= 5 ErrMin= 9.85D-03
 ErrMax= 9.85D-03  0.00D+00 EMaxC= 1.00D-01 BMatC= 1.19D-01 BMatP= 1.07D-01
 IDIUse=3 WtCom= 9.15D-02 WtEn= 9.08D-01
 Coeff-Com: -0.524D-01 0.138D+00 0.390D+00-0.612D-01 0.586D+00
 Coeff-En:   0.000D+00 0.000D+00 0.448D+00 0.000D+00 0.552D+00
 Coeff:     -0.480D-02 0.126D-01 0.443D+00-0.561D-02 0.555D+00
 Gap=     0.103 Goal=   None    Shift=    0.000
 RMSDP=7.65D-04 MaxDP=4.81D-02 DE=-1.04D+00 OVMax= 6.48D-02

 Cycle   6  Pass 1  IDiag  1:
 RMSU=  1.25D-04    CP:  1.00D+00  1.14D+00  5.33D-01  1.42D-01  6.21D-01
 E= -2296.96498701593     Delta-E=       -0.098588554410 Rises=F Damp=F
 DIIS: error= 1.60D-03 at cycle   6 NSaved=   6.
 NSaved= 6 IEnMin= 6 EnMin= -2296.96498701593     IErMin= 6 ErrMin= 1.60D-03
 ErrMax= 1.60D-03  0.00D+00 EMaxC= 1.00D-01 BMatC= 3.29D-03 BMatP= 1.07D-01
 IDIUse=3 WtCom= 9.84D-01 WtEn= 1.60D-02
 Coeff-Com: -0.210D-01 0.402D-01 0.232D+00-0.426D-01 0.425D+00 0.367D+00
 Coeff-En:   0.000D+00 0.000D+00 0.000D+00 0.000D+00 0.000D+00 0.100D+01
 Coeff:     -0.207D-01 0.396D-01 0.228D+00-0.420D-01 0.418D+00 0.377D+00
 Gap=     0.103 Goal=   None    Shift=    0.000
 RMSDP=1.25D-04 MaxDP=1.10D-02 DE=-9.86D-02 OVMax= 1.24D-02

 Cycle   7  Pass 1  IDiag  1:
 RMSU=  5.44D-05    CP:  1.00D+00  1.17D+00  4.96D-01  1.76D-01  6.92D-01
                    CP:  3.98D-01
 E= -2296.96729302258     Delta-E=       -0.002306006651 Rises=F Damp=F
 DIIS: error= 6.03D-04 at cycle   7 NSaved=   7.
 NSaved= 7 IEnMin= 7 EnMin= -2296.96729302258     IErMin= 7 ErrMin= 6.03D-04
 ErrMax= 6.03D-04  0.00D+00 EMaxC= 1.00D-01 BMatC= 3.86D-04 BMatP= 3.29D-03
 IDIUse=3 WtCom= 9.94D-01 WtEn= 6.03D-03
 Coeff-Com: -0.124D-01 0.206D-01 0.103D+00-0.278D-01 0.215D+00 0.261D+00
 Coeff-Com:  0.441D+00
 Coeff-En:   0.000D+00 0.000D+00 0.000D+00 0.000D+00 0.000D+00 0.129D+00
 Coeff-En:   0.871D+00
 Coeff:     -0.123D-01 0.205D-01 0.102D+00-0.277D-01 0.214D+00 0.260D+00
 Coeff:      0.443D+00
 Gap=     0.103 Goal=   None    Shift=    0.000
 RMSDP=3.66D-05 MaxDP=2.36D-03 DE=-2.31D-03 OVMax= 4.21D-03

 Cycle   8  Pass 1  IDiag  1:
 RMSU=  1.65D-05    CP:  1.00D+00  1.16D+00  5.00D-01  1.71D-01  6.96D-01
                    CP:  4.72D-01  4.75D-01
 E= -2296.96760408783     Delta-E=       -0.000311065248 Rises=F Damp=F
 DIIS: error= 1.05D-04 at cycle   8 NSaved=   8.
 NSaved= 8 IEnMin= 8 EnMin= -2296.96760408783     IErMin= 8 ErrMin= 1.05D-04
 ErrMax= 1.05D-04  0.00D+00 EMaxC= 1.00D-01 BMatC= 1.96D-05 BMatP= 3.86D-04
 IDIUse=3 WtCom= 9.99D-01 WtEn= 1.05D-03
 Coeff-Com: -0.293D-02 0.445D-02 0.293D-01-0.857D-02 0.609D-01 0.106D+00
 Coeff-Com:  0.230D+00 0.581D+00
 Coeff-En:   0.000D+00 0.000D+00 0.000D+00 0.000D+00 0.000D+00 0.000D+00
 Coeff-En:   0.000D+00 0.100D+01
 Coeff:     -0.293D-02 0.445D-02 0.293D-01-0.856D-02 0.609D-01 0.106D+00
 Coeff:      0.230D+00 0.581D+00
 Gap=     0.103 Goal=   None    Shift=    0.000
 RMSDP=1.08D-05 MaxDP=5.41D-04 DE=-3.11D-04 OVMax= 1.04D-03

 Cycle   9  Pass 1  IDiag  1:
 RMSU=  6.74D-06    CP:  1.00D+00  1.16D+00  5.02D-01  1.70D-01  6.92D-01
                    CP:  4.74D-01  5.29D-01  5.91D-01
 E= -2296.96761709025     Delta-E=       -0.000013002419 Rises=F Damp=F
 DIIS: error= 5.97D-05 at cycle   9 NSaved=   9.
 NSaved= 9 IEnMin= 9 EnMin= -2296.96761709025     IErMin= 9 ErrMin= 5.97D-05
 ErrMax= 5.97D-05  0.00D+00 EMaxC= 1.00D-01 BMatC= 4.97D-06 BMatP= 1.96D-05
 IDIUse=1 WtCom= 1.00D+00 WtEn= 0.00D+00
 Coeff-Com:  0.168D-03-0.768D-03 0.597D-02-0.166D-02 0.111D-01 0.423D-01
 Coeff-Com:  0.968D-01 0.395D+00 0.451D+00
 Coeff:      0.168D-03-0.768D-03 0.597D-02-0.166D-02 0.111D-01 0.423D-01
 Coeff:      0.968D-01 0.395D+00 0.451D+00
 Gap=     0.103 Goal=   None    Shift=    0.000
 RMSDP=4.68D-06 MaxDP=3.16D-04 DE=-1.30D-05 OVMax= 4.15D-04

 Cycle  10  Pass 1  IDiag  1:
 RMSU=  2.08D-06    CP:  1.00D+00  1.16D+00  5.03D-01  1.69D-01  6.91D-01
                    CP:  4.80D-01  5.25D-01  6.59D-01  4.59D-01
 E= -2296.96762102741     Delta-E=       -0.000003937157 Rises=F Damp=F
 DIIS: error= 1.82D-05 at cycle  10 NSaved=  10.
 NSaved=10 IEnMin=10 EnMin= -2296.96762102741     IErMin=10 ErrMin= 1.82D-05
 ErrMax= 1.82D-05  0.00D+00 EMaxC= 1.00D-01 BMatC= 3.82D-07 BMatP= 4.97D-06
 IDIUse=1 WtCom= 1.00D+00 WtEn= 0.00D+00
 Coeff-Com:  0.233D-03-0.505D-03 0.186D-02-0.461D-03 0.259D-02 0.185D-01
 Coeff-Com:  0.432D-01 0.207D+00 0.288D+00 0.440D+00
 Coeff:      0.233D-03-0.505D-03 0.186D-02-0.461D-03 0.259D-02 0.185D-01
 Coeff:      0.432D-01 0.207D+00 0.288D+00 0.440D+00
 Gap=     0.103 Goal=   None    Shift=    0.000
 RMSDP=1.44D-06 MaxDP=9.93D-05 DE=-3.94D-06 OVMax= 1.46D-04

 Cycle  11  Pass 1  IDiag  1:
 RMSU=  8.02D-07    CP:  1.00D+00  1.16D+00  5.03D-01  1.69D-01  6.91D-01
                    CP:  4.80D-01  5.23D-01  6.63D-01  5.19D-01  4.60D-01
 E= -2296.96762132032     Delta-E=       -0.000000292912 Rises=F Damp=F
 DIIS: error= 5.25D-06 at cycle  11 NSaved=  11.
 NSaved=11 IEnMin=11 EnMin= -2296.96762132032     IErMin=11 ErrMin= 5.25D-06
 ErrMax= 5.25D-06  0.00D+00 EMaxC= 1.00D-01 BMatC= 4.20D-08 BMatP= 3.82D-07
 IDIUse=1 WtCom= 1.00D+00 WtEn= 0.00D+00
 Coeff-Com:  0.105D-03-0.186D-03 0.616D-03-0.153D-03 0.628D-03 0.680D-02
 Coeff-Com:  0.158D-01 0.838D-01 0.127D+00 0.293D+00 0.472D+00
 Coeff:      0.105D-03-0.186D-03 0.616D-03-0.153D-03 0.628D-03 0.680D-02
 Coeff:      0.158D-01 0.838D-01 0.127D+00 0.293D+00 0.472D+00
 Gap=     0.103 Goal=   None    Shift=    0.000
 RMSDP=4.41D-07 MaxDP=2.43D-05 DE=-2.93D-07 OVMax= 4.89D-05

 Cycle  12  Pass 1  IDiag  1:
 RMSU=  2.30D-07    CP:  1.00D+00  1.16D+00  5.03D-01  1.69D-01  6.91D-01
                    CP:  4.80D-01  5.24D-01  6.66D-01  5.12D-01  5.00D-01
                    CP:  5.63D-01
 E= -2296.96762135422     Delta-E=       -0.000000033902 Rises=F Damp=F
 DIIS: error= 1.66D-06 at cycle  12 NSaved=  12.
 NSaved=12 IEnMin=12 EnMin= -2296.96762135422     IErMin=12 ErrMin= 1.66D-06
 ErrMax= 1.66D-06  0.00D+00 EMaxC= 1.00D-01 BMatC= 4.03D-09 BMatP= 4.20D-08
 IDIUse=1 WtCom= 1.00D+00 WtEn= 0.00D+00
 Coeff-Com:  0.544D-04-0.818D-04 0.868D-04-0.167D-04-0.112D-03 0.204D-02
 Coeff-Com:  0.479D-02 0.306D-01 0.496D-01 0.141D+00 0.294D+00 0.478D+00
 Coeff:      0.544D-04-0.818D-04 0.868D-04-0.167D-04-0.112D-03 0.204D-02
 Coeff:      0.479D-02 0.306D-01 0.496D-01 0.141D+00 0.294D+00 0.478D+00
 Gap=     0.103 Goal=   None    Shift=    0.000
 RMSDP=1.47D-07 MaxDP=1.25D-05 DE=-3.39D-08 OVMax= 1.38D-05

 Cycle  13  Pass 1  IDiag  1:
 RMSU=  8.34D-08    CP:  1.00D+00  1.16D+00  5.03D-01  1.69D-01  6.91D-01
                    CP:  4.80D-01  5.24D-01  6.66D-01  5.12D-01  5.16D-01
                    CP:  6.04D-01  5.28D-01
 E= -2296.96762135728     Delta-E=       -0.000000003059 Rises=F Damp=F
 DIIS: error= 7.93D-07 at cycle  13 NSaved=  13.
 NSaved=13 IEnMin=13 EnMin= -2296.96762135728     IErMin=13 ErrMin= 7.93D-07
 ErrMax= 7.93D-07  0.00D+00 EMaxC= 1.00D-01 BMatC= 3.42D-10 BMatP= 4.03D-09
 IDIUse=1 WtCom= 1.00D+00 WtEn= 0.00D+00
 Coeff-Com:  0.168D-04-0.229D-04 0.773D-06 0.243D-05-0.819D-04 0.475D-03
 Coeff-Com:  0.982D-03 0.770D-02 0.131D-01 0.472D-01 0.110D+00 0.279D+00
 Coeff-Com:  0.541D+00
 Coeff:      0.168D-04-0.229D-04 0.773D-06 0.243D-05-0.819D-04 0.475D-03
 Coeff:      0.982D-03 0.770D-02 0.131D-01 0.472D-01 0.110D+00 0.279D+00
 Coeff:      0.541D+00
 Gap=     0.103 Goal=   None    Shift=    0.000
 RMSDP=4.38D-08 MaxDP=2.42D-06 DE=-3.06D-09 OVMax= 7.03D-06

 Cycle  14  Pass 1  IDiag  1:
 RMSU=  2.25D-08    CP:  1.00D+00  1.16D+00  5.03D-01  1.69D-01  6.91D-01
                    CP:  4.80D-01  5.24D-01  6.66D-01  5.13D-01  5.19D-01
                    CP:  5.94D-01  5.78D-01  6.15D-01
 E= -2296.96762135760     Delta-E=       -0.000000000319 Rises=F Damp=F
 DIIS: error= 2.86D-07 at cycle  14 NSaved=  14.
 NSaved=14 IEnMin=14 EnMin= -2296.96762135760     IErMin=14 ErrMin= 2.86D-07
 ErrMax= 2.86D-07  0.00D+00 EMaxC= 1.00D-01 BMatC= 3.79D-11 BMatP= 3.42D-10
 IDIUse=1 WtCom= 1.00D+00 WtEn= 0.00D+00
 Coeff-Com:  0.675D-05-0.925D-05-0.277D-05 0.243D-05-0.356D-04 0.164D-03
 Coeff-Com:  0.274D-03 0.255D-02 0.451D-02 0.192D-01 0.478D-01 0.141D+00
 Coeff-Com:  0.336D+00 0.449D+00
 Coeff:      0.675D-05-0.925D-05-0.277D-05 0.243D-05-0.356D-04 0.164D-03
 Coeff:      0.274D-03 0.255D-02 0.451D-02 0.192D-01 0.478D-01 0.141D+00
 Coeff:      0.336D+00 0.449D+00
 Gap=     0.103 Goal=   None    Shift=    0.000
 RMSDP=1.53D-08 MaxDP=1.27D-06 DE=-3.19D-10 OVMax= 3.06D-06

 Cycle  15  Pass 1  IDiag  1:
 RMSU=  8.49D-09    CP:  1.00D+00  1.16D+00  5.03D-01  1.69D-01  6.91D-01
                    CP:  4.80D-01  5.24D-01  6.66D-01  5.12D-01  5.18D-01
                    CP:  5.97D-01  5.85D-01  6.29D-01  4.93D-01
 E= -2296.96762135762     Delta-E=       -0.000000000017 Rises=F Damp=F
 DIIS: error= 7.66D-08 at cycle  15 NSaved=  15.
 NSaved=15 IEnMin=15 EnMin= -2296.96762135762     IErMin=15 ErrMin= 7.66D-08
 ErrMax= 7.66D-08  0.00D+00 EMaxC= 1.00D-01 BMatC= 3.55D-12 BMatP= 3.79D-11
 IDIUse=1 WtCom= 1.00D+00 WtEn= 0.00D+00
 Coeff-Com:  0.131D-05-0.152D-05-0.711D-06 0.469D-06-0.638D-05 0.265D-04
 Coeff-Com:  0.233D-04 0.380D-03 0.755D-03 0.445D-02 0.125D-01 0.419D-01
 Coeff-Com:  0.118D+00 0.269D+00 0.552D+00
 Coeff:      0.131D-05-0.152D-05-0.711D-06 0.469D-06-0.638D-05 0.265D-04
 Coeff:      0.233D-04 0.380D-03 0.755D-03 0.445D-02 0.125D-01 0.419D-01
 Coeff:      0.118D+00 0.269D+00 0.552D+00
 Gap=     0.103 Goal=   None    Shift=    0.000
 RMSDP=4.67D-09 MaxDP=2.60D-07 DE=-1.73D-11 OVMax= 8.25D-07

 Error on total polarization charges =  0.01057
 SCF Done:  E(RB97D) =  -2296.96762136     A.U. after   15 cycles
            NFock= 15  Conv=0.47D-08     -V/T= 2.0068
 KE= 2.281533861029D+03 PE=-1.404640989160D+04 EE= 5.149271870599D+03
 Leave Link  502 at Sat Jun 15 07:02:56 2019, MaxMem=  6442450944 cpu:            6888.3 elap:             224.6
 (Enter /home/ekwan/sw/g16/l701.exe)
 ... and contract with generalized density number  0.
 Compute integral first derivatives.
 R6Disp: Adding Grimme-D3 dispersion energy 1st derivatives to the gradient.
 D1PCM: PCM CHGder 1st derivatives, ID1Alg=3 FixD1E=F DoIter=F DoCFld=F I1PDM=0.
 GePol: Maximum number of non-zero 1st derivatives   =     217
 Leave Link  701 at Sat Jun 15 07:03:07 2019, MaxMem=  6442450944 cpu:             308.2 elap:              10.7
 (Enter /home/ekwan/sw/g16/l702.exe)
 L702 exits ... SP integral derivatives will be done elsewhere.
 Leave Link  702 at Sat Jun 15 07:03:07 2019, MaxMem=  6442450944 cpu:               2.3 elap:               0.1
 (Enter /home/ekwan/sw/g16/l703.exe)
 Integral derivatives from FoFJK, PRISM(SPDF).
 Compute integral first derivatives, UseDBF=F ICtDFT=           0.
 Calling FoFJK, ICntrl=      2527 FMM=F ISym2X=0 I1Cent= 0 IOpClX= 0 NMat=1 NMatS=1 NMatT=0.
 FoFJK:  IHMeth= 1 ICntrl=    2527 DoSepK=F KAlg= 0 I1Cent=           0 FoldK=F
 IRaf=         0 NMat=       1 IRICut=       1 DoRegI=T DoRafI=F ISym2E= 0 IDoP0=0 IntGTp=1.
 FoFCou: FMM=F IPFlag=           0 FMFlag=      100000 FMFlg1=         800
         NFxFlg=           0 DoJE=F BraDBF=F KetDBF=F FulRan=T
         wScrn=  0.000000 ICntrl=      2527 IOpCl=  0 I1Cent=           0 NGrid=           0
         NMat0=    1 NMatS0=      1 NMatT0=    0 NMatD0=    1 NMtDS0=    0 NMtDT0=    0
 Symmetry not used in FoFCou.
 Leave Link  703 at Sat Jun 15 07:03:48 2019, MaxMem=  6442450944 cpu:            1307.9 elap:              41.0
 (Enter /home/ekwan/sw/g16/l716.exe)
 Dipole        =-3.41720698D-01-1.19944478D+00-9.38795079D-01
 ***** Axes restored to original set *****
 -------------------------------------------------------------------
 Center     Atomic                   Forces (Hartrees/Bohr)
 Number     Number              X              Y              Z
 -------------------------------------------------------------------
      1        6          -0.000001498    0.000002428    0.000002724
      2        6           0.000009071   -0.000001796   -0.000000566
      3        6          -0.000000512   -0.000009691    0.000011564
      4        6          -0.000001429   -0.000002822   -0.000004784
      5        6           0.000004686   -0.000003983    0.000005342
      6        1           0.000002636    0.000003713   -0.000003465
      7        1          -0.000000458    0.000004302   -0.000001661
      8        1          -0.000000449   -0.000000673    0.000001033
      9        1          -0.000000488   -0.000001649    0.000004441
     10        1          -0.000003099    0.000000757   -0.000000753
     11        8          -0.000003960    0.000008801    0.000003149
     12        8           0.000015324    0.000011656   -0.000009127
     13        8          -0.000005359    0.000010278    0.000004630
     14        8           0.000004115   -0.000005453   -0.000005733
     15        8          -0.000012750    0.000001198   -0.000003852
     16        6          -0.000002960    0.000002704   -0.000000432
     17        1          -0.000001051   -0.000000248    0.000001331
     18        1          -0.000000153    0.000001209    0.000002004
     19        8           0.000003704   -0.000003901    0.000003253
     20       16          -0.000018043    0.000009743   -0.000008797
     21        8           0.000003336   -0.000012272    0.000014089
     22        8           0.000001440   -0.000006764   -0.000013035
     23        6          -0.000003504    0.000003592   -0.000005460
     24        6           0.000001919   -0.000000425    0.000000926
     25        6           0.000008853   -0.000003537   -0.000002684
     26        6           0.000005494   -0.000007451    0.000000337
     27        1          -0.000000693    0.000000081    0.000000829
     28        6          -0.000008940    0.000005432    0.000008085
     29        1           0.000000414    0.000001398   -0.000001397
     30        6          -0.000001762   -0.000003007   -0.000005563
     31        1           0.000000075   -0.000003405    0.000001810
     32        6           0.000002603   -0.000006154   -0.000008995
     33        1           0.000001088    0.000001048    0.000000110
     34        1          -0.000000757    0.000001610   -0.000000730
     35        1           0.000002139    0.000002514   -0.000002868
     36        6          -0.000004174    0.000001409    0.000003084
     37        1           0.000000016   -0.000001946    0.000000078
     38        1           0.000000899   -0.000001079   -0.000000942
     39        1           0.000000361   -0.000003016   -0.000002949
     40        6           0.000011037   -0.000002185    0.000007407
     41        1          -0.000000820   -0.000001518    0.000001407
     42        1          -0.000003072   -0.000000025    0.000001524
     43        1          -0.000001958    0.000001670    0.000001931
     44        6          -0.000000848    0.000003473    0.000000372
     45        1          -0.000000788    0.000002320    0.000001195
     46        1           0.000001504    0.000001929    0.000000173
     47        1          -0.000000411    0.000000639    0.000002326
     48        6           0.000001220   -0.000001729    0.000005565
     49        9          -0.000002394   -0.000002743   -0.000004718
     50        9          -0.000000332   -0.000001236   -0.000002767
     51        9           0.000001401   -0.000001217    0.000000744
     52        6          -0.000000783    0.000008680   -0.000004858
     53        9          -0.000002733   -0.000002942    0.000003192
     54        9           0.000003491    0.000001431   -0.000000059
     55        9          -0.000000645   -0.000001150    0.000001541
 -------------------------------------------------------------------
 Cartesian Forces:  Max     0.000018043 RMS     0.000004789
 Leave Link  716 at Sat Jun 15 07:03:48 2019, MaxMem=  6442450944 cpu:               2.8 elap:               0.1
 (Enter /home/ekwan/sw/g16/l103.exe)

 GradGradGradGradGradGradGradGradGradGradGradGradGradGradGradGradGradGrad
 Berny optimization.
 FormGI is forming the generalized inverse of G from B-inverse, IUseBI=4.
 GSVD:  received Info=                   1 from GESDD.
 Internal  Forces:  Max     0.000019997 RMS     0.000003365
 Search for a local minimum.
 Step number   1 out of a maximum of  291
 All quantities printed in internal units (Hartrees-Bohrs-Radians)
 RMS Force = .33645D-05 SwitMx=.10000D-02 MixMth= 2
 Mixed Optimization -- En-DIIS/RFO-DIIS
 Second derivative matrix not updated -- first step.
 ITU=  0
     Eigenvalues ---    0.00301   0.00337   0.00468   0.00522   0.00546
     Eigenvalues ---    0.00564   0.00636   0.01240   0.01243   0.01246
     Eigenvalues ---    0.01253   0.01272   0.01312   0.01317   0.01362
     Eigenvalues ---    0.01402   0.01460   0.01471   0.01498   0.01876
     Eigenvalues ---    0.02055   0.02059   0.02068   0.02075   0.02088
     Eigenvalues ---    0.02094   0.02790   0.03196   0.04330   0.04464
     Eigenvalues ---    0.04545   0.04729   0.04810   0.05159   0.05202
     Eigenvalues ---    0.05685   0.05968   0.06476   0.06906   0.06997
     Eigenvalues ---    0.07139   0.07715   0.09155   0.09939   0.09979
     Eigenvalues ---    0.10004   0.10059   0.10511   0.10533   0.10555
     Eigenvalues ---    0.10562   0.10601   0.10639   0.10653   0.10743
     Eigenvalues ---    0.10898   0.10958   0.11444   0.11804   0.11825
     Eigenvalues ---    0.14124   0.14811   0.16000   0.16000   0.16000
     Eigenvalues ---    0.16000   0.16000   0.16000   0.16000   0.16000
     Eigenvalues ---    0.16000   0.16000   0.16000   0.16000   0.16000
     Eigenvalues ---    0.16000   0.16000   0.16406   0.16673   0.17451
     Eigenvalues ---    0.18624   0.19631   0.19717   0.20646   0.22162
     Eigenvalues ---    0.23469   0.23484   0.23497   0.24934   0.24976
     Eigenvalues ---    0.24982   0.25000   0.25000   0.25000   0.25000
     Eigenvalues ---    0.25000   0.25000   0.25000   0.25000   0.25000
     Eigenvalues ---    0.25000   0.25000   0.25000   0.25919   0.26359
     Eigenvalues ---    0.27730   0.28075   0.28327   0.28951   0.30693
     Eigenvalues ---    0.30828   0.32825   0.33043   0.33126   0.33148
     Eigenvalues ---    0.33193   0.33279   0.33282   0.33303   0.33337
     Eigenvalues ---    0.33474   0.33478   0.33482   0.33610   0.33812
     Eigenvalues ---    0.33813   0.33817   0.33866   0.33980   0.34152
     Eigenvalues ---    0.34591   0.35005   0.35014   0.35145   0.35927
     Eigenvalues ---    0.40394   0.40431   0.40462   0.40533   0.41171
     Eigenvalues ---    0.41235   0.41511   0.41616   0.41721   0.41726
     Eigenvalues ---    0.42839   0.44768   0.45210   0.45371   0.45474
     Eigenvalues ---    0.45674   0.51173   0.52549   0.52924   0.53165
     Eigenvalues ---    0.53290   0.53595   0.85609   0.87487
 RFO step:  Lambda=-3.60022516D-08 EMin= 3.00639356D-03
 Linear search not attempted -- first point.
 Iteration  1 RMS(Cart)=  0.00075620 RMS(Int)=  0.00000007
 Iteration  2 RMS(Cart)=  0.00000016 RMS(Int)=  0.00000000
 ITry= 1 IFail=0 DXMaxC= 2.94D-03 DCOld= 1.00D+10 DXMaxT= 3.00D-01 DXLimC= 3.00D+00 Rises=F
 Variable       Old X    -DE/DX   Delta X   Delta X   Delta X     New X
                                 (Linear)    (Quad)   (Total)
    R1        2.91127   0.00000   0.00000  -0.00003  -0.00003   2.91124
    R2        2.90481   0.00000   0.00000   0.00000   0.00000   2.90482
    R3        2.08558   0.00000   0.00000   0.00000   0.00000   2.08559
    R4        2.69909   0.00000   0.00000  -0.00001  -0.00001   2.69908
    R5        2.92904   0.00000   0.00000  -0.00001  -0.00001   2.92903
    R6        2.09359   0.00000   0.00000   0.00001   0.00001   2.09360
    R7        2.67869   0.00000   0.00000  -0.00001  -0.00001   2.67868
    R8        2.07075   0.00000   0.00000   0.00000   0.00000   2.07075
    R9        2.63453   0.00001   0.00000   0.00001   0.00001   2.63455
   R10        2.79645  -0.00001   0.00000  -0.00003  -0.00003   2.79642
   R11        2.90655   0.00000   0.00000   0.00001   0.00001   2.90657
   R12        2.08464   0.00000   0.00000   0.00001   0.00001   2.08465
   R13        2.75664  -0.00001   0.00000  -0.00001  -0.00001   2.75664
   R14        2.90106   0.00000   0.00000   0.00000   0.00000   2.90106
   R15        2.08213   0.00000   0.00000   0.00000   0.00000   2.08213
   R16        2.69992   0.00000   0.00000   0.00000   0.00000   2.69992
   R17        3.12973   0.00002   0.00000   0.00004   0.00004   3.12977
   R18        2.71021   0.00001   0.00000   0.00002   0.00002   2.71023
   R19        2.70835   0.00000   0.00000   0.00000   0.00000   2.70835
   R20        2.70930   0.00000   0.00000   0.00001   0.00001   2.70931
   R21        2.07557   0.00000   0.00000   0.00000   0.00000   2.07557
   R22        2.08522   0.00000   0.00000   0.00000   0.00000   2.08522
   R23        2.69280   0.00000   0.00000   0.00000   0.00000   2.69279
   R24        2.70972   0.00000   0.00000   0.00000   0.00000   2.70973
   R25        2.77813   0.00002   0.00000   0.00002   0.00002   2.77815
   R26        2.78725   0.00001   0.00000   0.00002   0.00002   2.78726
   R27        3.40628   0.00000   0.00000   0.00000   0.00000   3.40628
   R28        2.64520   0.00000   0.00000   0.00000   0.00000   2.64520
   R29        2.64393   0.00000   0.00000   0.00000   0.00000   2.64393
   R30        2.65002   0.00000   0.00000  -0.00001  -0.00001   2.65001
   R31        2.05652   0.00000   0.00000   0.00000   0.00000   2.05652
   R32        2.64717   0.00001   0.00000   0.00002   0.00002   2.64719
   R33        2.05440   0.00000   0.00000   0.00000   0.00000   2.05440
   R34        2.64951   0.00000   0.00000   0.00000   0.00000   2.64951
   R35        2.86603   0.00000   0.00000   0.00000   0.00000   2.86603
   R36        2.65122  -0.00001   0.00000  -0.00001  -0.00001   2.65121
   R37        2.86342   0.00000   0.00000   0.00000   0.00000   2.86343
   R38        2.05667   0.00000   0.00000  -0.00001  -0.00001   2.05667
   R39        2.08564   0.00000   0.00000   0.00000   0.00000   2.08564
   R40        2.08830   0.00000   0.00000   0.00000   0.00000   2.08830
   R41        2.07365   0.00000   0.00000   0.00000   0.00000   2.07365
   R42        2.07646   0.00000   0.00000   0.00000   0.00000   2.07646
   R43        2.08977   0.00000   0.00000   0.00000   0.00000   2.08976
   R44        2.07993   0.00000   0.00000   0.00001   0.00001   2.07994
   R45        2.07649   0.00000   0.00000   0.00000   0.00000   2.07649
   R46        2.08228   0.00000   0.00000  -0.00001  -0.00001   2.08227
   R47        2.08714   0.00000   0.00000   0.00001   0.00001   2.08715
   R48        2.07640   0.00000   0.00000   0.00000   0.00000   2.07640
   R49        2.08792   0.00000   0.00000   0.00000   0.00000   2.08791
   R50        2.08221   0.00000   0.00000   0.00000   0.00000   2.08221
   R51        2.56800  -0.00001   0.00000  -0.00001  -0.00001   2.56799
   R52        2.57377   0.00000   0.00000   0.00000   0.00000   2.57377
   R53        2.57025   0.00000   0.00000   0.00000   0.00000   2.57025
   R54        2.58700  -0.00001   0.00000  -0.00001  -0.00001   2.58699
   R55        2.56683   0.00000   0.00000  -0.00001  -0.00001   2.56683
   R56        2.56402   0.00000   0.00000   0.00000   0.00000   2.56402
    A1        1.92503   0.00000   0.00000  -0.00001  -0.00001   1.92503
    A2        1.90695   0.00000   0.00000   0.00001   0.00001   1.90697
    A3        1.93170  -0.00001   0.00000  -0.00008  -0.00008   1.93163
    A4        1.89509   0.00000   0.00000   0.00001   0.00001   1.89510
    A5        1.86959   0.00001   0.00000   0.00006   0.00006   1.86965
    A6        1.93497   0.00000   0.00000   0.00001   0.00001   1.93498
    A7        1.93737   0.00000   0.00000  -0.00004  -0.00004   1.93733
    A8        1.88155   0.00000   0.00000   0.00000   0.00000   1.88155
    A9        1.89799   0.00000   0.00000  -0.00003  -0.00003   1.89796
   A10        1.84014   0.00000   0.00000   0.00001   0.00001   1.84014
   A11        1.97275   0.00000   0.00000   0.00004   0.00004   1.97280
   A12        1.93176   0.00000   0.00000   0.00002   0.00002   1.93179
   A13        1.95862   0.00000   0.00000  -0.00001  -0.00001   1.95861
   A14        1.97094   0.00000   0.00000  -0.00002  -0.00002   1.97092
   A15        1.84038   0.00000   0.00000  -0.00001  -0.00001   1.84037
   A16        1.85706   0.00000   0.00000  -0.00001  -0.00001   1.85704
   A17        1.88759   0.00000   0.00000   0.00004   0.00004   1.88762
   A18        1.94935   0.00000   0.00000   0.00003   0.00003   1.94938
   A19        1.90393   0.00000   0.00000   0.00001   0.00001   1.90394
   A20        1.93506   0.00000   0.00000   0.00002   0.00002   1.93508
   A21        1.95593   0.00000   0.00000  -0.00005  -0.00005   1.95588
   A22        1.89282   0.00000   0.00000   0.00003   0.00003   1.89284
   A23        1.88486   0.00000   0.00000   0.00004   0.00004   1.88490
   A24        1.88958   0.00000   0.00000  -0.00004  -0.00004   1.88954
   A25        1.95612   0.00000   0.00000   0.00003   0.00003   1.95615
   A26        1.89451   0.00000   0.00000  -0.00001  -0.00001   1.89450
   A27        1.92060   0.00000   0.00000   0.00002   0.00002   1.92062
   A28        1.88864   0.00000   0.00000  -0.00002  -0.00002   1.88862
   A29        1.86522   0.00000   0.00000  -0.00003  -0.00003   1.86519
   A30        1.93898   0.00000   0.00000   0.00001   0.00001   1.93899
   A31        2.00231   0.00000   0.00000   0.00006   0.00006   2.00236
   A32        2.05712   0.00002   0.00000   0.00007   0.00007   2.05718
   A33        1.99544   0.00001   0.00000   0.00003   0.00003   1.99547
   A34        1.99458  -0.00001   0.00000  -0.00004  -0.00004   1.99454
   A35        1.98156   0.00000   0.00000   0.00002   0.00002   1.98158
   A36        1.86586   0.00000   0.00000   0.00002   0.00002   1.86588
   A37        1.90278   0.00000   0.00000   0.00001   0.00001   1.90280
   A38        2.00776  -0.00001   0.00000  -0.00006  -0.00006   2.00770
   A39        1.90027   0.00000   0.00000   0.00000   0.00000   1.90027
   A40        1.84609   0.00000   0.00000   0.00001   0.00001   1.84610
   A41        1.93662   0.00000   0.00000   0.00002   0.00002   1.93664
   A42        1.99144   0.00000   0.00000   0.00001   0.00001   1.99145
   A43        1.81522  -0.00001   0.00000  -0.00004  -0.00004   1.81517
   A44        1.90561   0.00000   0.00000   0.00002   0.00002   1.90563
   A45        1.79821   0.00000   0.00000   0.00002   0.00002   1.79823
   A46        2.12244   0.00000   0.00000  -0.00001  -0.00001   2.12242
   A47        1.89897   0.00000   0.00000   0.00000   0.00000   1.89897
   A48        1.89572   0.00000   0.00000   0.00003   0.00003   1.89574
   A49        2.07157  -0.00001   0.00000  -0.00002  -0.00002   2.07155
   A50        2.07516   0.00000   0.00000   0.00002   0.00002   2.07517
   A51        2.13577   0.00000   0.00000   0.00001   0.00001   2.13578
   A52        2.06472   0.00000   0.00000  -0.00001  -0.00001   2.06471
   A53        2.10708   0.00000   0.00000   0.00002   0.00002   2.10710
   A54        2.11139   0.00000   0.00000  -0.00001  -0.00001   2.11138
   A55        2.06395   0.00000   0.00000  -0.00001  -0.00001   2.06394
   A56        2.10535   0.00000   0.00000   0.00001   0.00001   2.10536
   A57        2.11389   0.00000   0.00000   0.00000   0.00000   2.11389
   A58        2.10504   0.00000   0.00000   0.00001   0.00001   2.10505
   A59        2.09035   0.00000   0.00000   0.00001   0.00001   2.09036
   A60        2.08700   0.00000   0.00000  -0.00002  -0.00002   2.08698
   A61        2.10694   0.00000   0.00000   0.00000   0.00000   2.10694
   A62        2.09125   0.00000   0.00000  -0.00001  -0.00001   2.09125
   A63        2.08274   0.00000   0.00000   0.00001   0.00001   2.08274
[...]
 007764,0.00000683,0.00004018,0.00000953,0.00005428,0.00002777,-0.00001
 483,-0.00000038,0.00004484,-0.00003424,0.00056926,0.00049910,0.0010487
 1,-0.00007810,-0.00000750,-0.00011576,-0.00012535,0.00002345,-0.000294
 84,-0.00010784,-0.00010189,-0.00001824,0.00232804,-0.00168197,-0.00576
 159,0.00017478,0.00032675,0.00201472,-0.00160006,-0.00024141,0.0017490
 9,-0.00077986,0.00120246,0.00131117,0.02170502,-0.00721459,0.53116239,
 0.00007767,-0.00013244,0.00003028,0.00007209,-0.00004512,-0.00004443,0
 .00014823,-0.00048771,0.00028131,-0.00013771,-0.00067452,-0.00009765,0
 .00004412,0.00028861,0.00006694,-0.00001544,0.00003074,-0.00000966,0.0
 0001343,0.00001202,-0.00000404,-0.00001031,0.00000958,-0.00001438,-0.0
 0001128,0.00004009,-0.00003949,0.00005669,-0.00001036,0.00001426,-0.00
 021741,0.00040218,-0.00005420,0.00025591,0.00031636,-0.00018095,-0.000
 09641,0.00010612,0.00000434,-0.00018258,0.00004155,-0.00008706,-0.0001
 3026,-0.00007055,-0.00008656,0.00176620,0.00129851,0.00010104,-0.00023
 244,-0.00007227,-0.00017697,-0.00110952,-0.00036852,-0.00020259,-0.000
 66802,-0.00066637,-0.00032562,-0.00035488,-0.00018091,0.00014490,0.000
 09446,-0.00001335,-0.00000657,0.00007662,0.00004200,-0.00001875,0.0005
 0159,-0.00053160,0.00042546,0.00016161,-0.00019922,-0.00038017,-0.0004
 3259,-0.00028552,0.00097427,-0.00042949,-0.00007652,-0.00016777,0.0000
 1933,-0.00000477,0.00001853,0.00993467,-0.00036536,-0.00214005,-0.0000
 7425,-0.00008234,-0.00001536,0.00004878,0.00099897,-0.00005219,-0.0000
 1372,-0.00006981,-0.00037982,0.00001255,-0.00003540,-0.00004473,0.0000
 0398,-0.00000002,0.00001121,0.00000340,0.00000159,0.00000809,-0.000010
 23,0.00001067,0.00000215,0.00003845,-0.00003981,0.00008525,-0.00001818
 ,0.00000139,-0.00001133,0.00000182,0.00000488,-0.00001620,-0.00000779,
 0.00001527,-0.00000853,0.00007942,0.00010851,0.00002495,-0.00000600,-0
 .00002010,-0.00002116,-0.00002797,-0.00001279,0.00000145,0.00001025,0.
 00002123,0.00000775,0.00146997,0.00063959,0.00108690,-0.00031241,-0.00
 015972,-0.00001854,-0.00135557,-0.00014956,-0.00041309,-0.00034210,-0.
 00007921,-0.00002911,-0.00023129,-0.00008777,0.00005100,0.00006774,0.0
 0001686,-0.00001020,0.00006222,0.00003238,-0.00001323,0.00003926,0.000
 00717,-0.00000165,-0.08397694,-0.04165597,0.01662080,0.12110974,-0.000
 00864,-0.00020786,-0.00002859,-0.00011352,-0.00001036,-0.00010010,-0.0
 0013540,-0.00066863,0.00071304,-0.00021264,-0.00098704,-0.00012024,-0.
 00001838,0.00021863,-0.00001906,-0.00003818,0.00005483,-0.00004105,0.0
 0007027,0.00002748,-0.00000467,-0.00001417,0.00001721,-0.00002864,-0.0
 0005942,0.00005335,-0.00013506,0.00009699,0.00000991,0.00001584,0.0001
 0417,0.00075493,-0.00009272,0.00122668,0.00049516,-0.00036267,0.000047
 88,0.00005844,-0.00001139,-0.00004771,0.00009881,-0.00003191,-0.000074
 23,0.00011407,-0.00001049,0.00134878,0.00098558,0.00042887,-0.00014061
 ,-0.00002817,-0.00014003,0.00022712,-0.00089590,0.00064276,-0.00055283
 ,-0.00021268,-0.00053805,-0.00261854,0.00142708,0.00018097,0.00063258,
 -0.00069034,0.00037759,0.00065075,-0.00051495,-0.00031471,0.00119394,0
 .00056146,0.00043964,-0.00013408,-0.00020416,0.00076370,-0.00161297,0.
 00089356,0.00160732,0.00158164,0.00078253,0.00151824,-0.00015253,-0.00
 011875,0.00000585,-0.01036767,-0.02550439,0.01943381,-0.00089138,-0.00
 035843,-0.00026878,0.00175864,-0.00256419,-0.00139969,-0.00092187,-0.0
 0058780,0.00015418,-0.00004922,-0.00000018,0.00002539,0.00000603,0.000
 01187,0.00000963,0.00000938,0.00000926,-0.00001311,0.00000253,0.000000
 17,0.00000248,-0.00000247,-0.00001746,0.00004054,-0.00000112,0.0000047
 6,-0.00000503,0.00000289,-0.00000283,-0.00000675,-0.00001180,0.0000089
 5,-0.00000525,0.00003956,-0.00002106,0.00006037,0.00000187,-0.00000246
 ,-0.00001049,-0.00001718,0.00000041,-0.00000558,0.00001353,0.00004010,
 -0.00001526,0.00140467,0.00086696,0.00110025,-0.00025667,-0.00013051,-
 0.00001912,0.00019167,-0.00036306,-0.00077760,-0.00047798,-0.00010152,
 -0.00003743,0.00110960,-0.00107884,-0.00180201,0.00006185,0.00020636,0
 .00088389,-0.00049794,-0.00000861,0.00054335,-0.00031250,0.00062734,0.
 00036373,-0.04532339,-0.17839687,0.04527701,0.10018204,0.26735174,0.00
 006716,0.00002741,0.00003459,0.00015717,-0.00003934,0.00004776,0.00023
 740,0.00027502,-0.00052308,0.00002729,0.00001462,-0.00011310,0.0000468
 9,0.00011405,0.00005266,-0.00000393,0.00000153,0.00003232,-0.00006404,
 -0.00001950,0.00000361,0.00000599,-0.00000601,0.00001902,0.00003771,-0
 .00001061,0.00011506,-0.00004608,-0.00002497,0.00000123,-0.00026378,-0
 .00026495,0.00016731,-0.00106359,-0.00018869,0.00030553,-0.00011962,0.
 00004996,0.00004631,-0.00012380,-0.00003250,-0.00003851,-0.00005668,-0
 .00012447,-0.00003387,0.00039376,0.00072381,-0.00034393,-0.00004184,-0
 .00003984,0.00000989,-0.00097785,-0.00006005,-0.00080088,-0.00012676,-
 0.00024827,0.00072590,0.00217041,-0.00179489,-0.00048070,-0.00052625,0
 .00070896,-0.00031219,-0.00051212,0.00056699,0.00046277,-0.00161192,-0
 .00042579,-0.00113846,-0.00060746,0.00079800,-0.00036268,0.00270686,-0
 .00054902,-0.00230776,-0.00084990,-0.00085665,0.00018527,0.00010703,0.
 00009268,0.00003787,0.00738354,0.03375063,-0.00851489,0.00031629,0.000
 68481,-0.00002828,-0.00122220,0.00097359,0.00141986,0.00040892,0.00033
 233,0.00013668,0.00005206,-0.00004285,-0.00008637,0.00000396,-0.000002
 69,0.00000064,-0.00001134,-0.00000918,0.00002144,-0.00000857,0.0000087
 5,0.00000369,0.00003272,-0.00002085,0.00003218,-0.00001498,-0.00000287
 ,-0.00000647,-0.00000188,0.00000638,-0.00000408,0.00000164,0.00000727,
 -0.00000410,0.00003955,0.00010438,-0.00002849,-0.00000304,-0.00001255,
 -0.00000269,-0.00001437,-0.00000920,0.00000501,-0.00000068,-0.00001813
 ,0.00001275,-0.00051869,-0.00040227,-0.00070969,0.00009816,0.00004570,
 0.00006041,0.00014409,0.00004160,0.00033091,0.00015826,0.00006451,0.00
 003376,-0.00081683,0.00064694,0.00163544,-0.00002927,-0.00012361,-0.00
 064452,0.00045298,0.00006631,-0.00049916,0.00024691,-0.00041040,-0.000
 34473,0.01863913,0.04739542,-0.08709352,-0.02817602,-0.05134598,0.0797
 0118,0.00013642,0.00000305,0.00008520,0.00024083,-0.00008580,0.0000555
 7,0.00033011,-0.00006400,-0.00030866,0.00004870,0.00001578,0.00003172,
 0.00009139,0.00020772,0.00015022,0.00001047,-0.00000428,0.00002653,-0.
 00005393,-0.00001013,-0.00000662,-0.00000359,-0.00000022,0.00000189,0.
 00003068,0.00001183,0.00006357,0.00000236,-0.00002293,0.00000311,-0.00
 043108,-0.00008284,-0.00002678,-0.00090068,-0.00002807,0.00010177,-0.0
 0020759,0.00012821,0.00001555,-0.00024962,-0.00002744,-0.00011800,-0.0
 0013096,-0.00020420,-0.00013751,0.00075667,0.00059777,0.00008655,-0.00
 008893,-0.00006050,-0.00009109,-0.00002816,-0.00005522,0.00018423,-0.0
 0038047,-0.00037461,-0.00005576,0.00220302,-0.00172669,-0.00032249,-0.
 00068302,0.00102706,-0.00064243,-0.00053478,0.00065936,0.00037651,-0.0
 0069584,0.00170290,0.00049017,-0.00019129,-0.00008501,-0.00047041,-0.0
 0039311,-0.00093567,-0.00628753,0.00025013,0.00041978,-0.00107000,0.00
 003016,-0.00014615,-0.00003606,-0.03470986,0.01191051,-0.00206214,0.00
 033875,-0.00071921,0.00035269,-0.00127789,0.00211616,0.00266063,-0.000
 32362,-0.00125052,-0.00159702,0.00006911,-0.00006460,-0.00009789,0.000
 00157,-0.00001234,0.00001011,-0.00000223,-0.00000490,0.00002548,-0.000
 02162,0.00001838,0.00000036,0.00007103,-0.00005313,0.00010599,-0.00002
 789,-0.00000270,-0.00001342,0.00000040,0.00001036,-0.00002224,-0.00000
 165,0.00001770,-0.00000804,0.00008850,0.00016848,-0.00000463,-0.000007
 87,-0.00002880,-0.00002210,-0.00003010,-0.00001704,0.00000703,0.000001
 71,0.00000013,0.00001766,0.00060343,0.00031564,0.00035796,-0.00013660,
 -0.00010252,0.00002104,0.00004344,0.00001655,-0.00033241,-0.00012127,-
 0.00002303,-0.00001722,-0.00125047,0.00072865,0.00151643,0.00005800,-0
 .00012996,-0.00059153,0.00063696,0.00010381,-0.00052473,0.00035046,-0.
 00048268,-0.00032264,-0.22854050,0.03721807,-0.01253652,-0.05588077,-0
 .03081249,0.01413928,0.34547160,-0.00003235,-0.00004844,-0.00002710,-0
 .00008462,0.00001178,-0.00003451,-0.00010618,-0.00014587,0.00023667,-0
 .00005142,-0.00022754,-0.00002349,-0.00002437,-0.00000464,-0.00004338,
 -0.00001309,0.00001298,-0.00001617,0.00002815,0.00000949,-0.00000056,-
 0.00000270,0.00000420,-0.00000757,-0.00002487,0.00001253,-0.00005199,0
 .00002567,0.00000805,0.00000372,0.00011987,0.00020355,-0.00001303,0.00
 044857,0.00012407,-0.00009388,0.00005831,-0.00001241,-0.00000426,0.000
 04606,0.00003094,0.00001969,0.00001054,0.00008023,0.00003059,0.0001406
 2,0.00002686,0.00007285,-0.00001061,0.00001191,-0.00001036,0.00004457,
 -0.00017160,0.00017826,-0.00006282,0.00004616,-0.00014519,-0.00124102,
 0.00057789,0.00012673,0.00038667,-0.00039443,0.00025502,0.00028940,-0.
 00024997,-0.00016615,-0.00028308,-0.00100229,0.00045997,0.00036258,-0.
 00016908,0.00010043,0.00012300,0.00109882,0.00180510,-0.00032971,-0.00
 015861,0.00038806,-0.00000037,0.00008645,0.00000512,0.02059559,0.00399
 687,0.00266933,-0.00010120,0.00058465,-0.00028175,0.00057556,-0.001064
 30,-0.00067196,-0.00014344,0.00060150,0.00058689,-0.00002846,0.0000123
 5,0.00002694,0.00000198,0.00000610,0.00000025,0.00000291,0.00000365,-0
 .00000897,0.00000524,-0.00000396,0.00000058,-0.00001587,0.00000712,-0.
 00001429,0.00000627,0.00000171,0.00000190,0.00000056,-0.00000316,0.000
 00353,-0.00000269,-0.00000154,0.00000066,-0.00001051,-0.00004820,0.000
 01722,0.00000292,0.00000660,0.00000318,0.00000214,0.00000454,-0.000003
 17,0.00000325,0.00001077,-0.00000917,0.00023989,0.00012309,0.00021253,
 -0.00003416,-0.00000985,-0.00001210,0.00008685,-0.00001507,-0.00015663
 ,-0.00008919,-0.00001779,-0.00000552,0.00047795,-0.00049172,-0.0007194
 5,-0.00000663,0.00008518,0.00027514,-0.00022927,0.00000644,0.00023002,
 -0.00015510,0.00027803,0.00015017,0.03685094,-0.07586774,0.00244842,-0
 .04460688,0.00122611,0.00605714,-0.04792144,0.07953513,0.00004770,0.00
 003910,0.00002482,0.00011037,-0.00002792,0.00004608,0.00015050,0.00018
 766,-0.00038014,0.00008236,0.00017008,-0.00001610,0.00003349,0.0000229
 2,0.00004739,0.00000011,-0.00000046,0.00002265,-0.00004419,-0.00001524
 ,0.00000117,0.00000344,-0.00000401,0.00001234,0.00002689,-0.00000776,0
 .00007293,-0.00002678,-0.00001349,-0.00000094,-0.00016042,-0.00019168,
 0.00008057,-0.00070110,-0.00013687,0.00019603,-0.00008318,0.00003824,0
 .00002943,-0.00007292,-0.00002604,-0.00002285,-0.00003063,-0.00007840,
 -0.00002595,-0.00003406,0.00006574,-0.00009888,0.00001943,-0.00000627,
 0.00002057,0.00001895,0.00011244,-0.00011381,-0.00000594,-0.00005147,0
 .00022173,0.00172793,-0.00104468,-0.00050646,-0.00054207,0.00063225,-0
 .00032226,-0.00037730,0.00041367,0.00040581,-0.00065933,0.00167566,-0.
 00025823,-0.00058903,0.00045613,-0.00023942,-0.00042023,-0.00105816,-0
 .00414292,-0.00030033,0.00016522,0.00079002,-0.00005411,0.00003799,0.0
 0002637,-0.02708865,0.00887318,0.00541131,-0.00037333,-0.00002035,0.00
 002144,-0.00148397,-0.00031777,-0.00233391,-0.00151531,0.00087163,-0.0
 0065534,0.00003501,-0.00003232,-0.00005965,0.00000317,-0.00000178,0.00
 000088,-0.00000737,-0.00000606,0.00001451,-0.00000617,0.00000615,0.000
 00216,0.00002337,-0.00001383,0.00001876,-0.00000907,-0.00000234,-0.000
 00362,-0.00000152,0.00000417,-0.00000256,0.00000152,0.00000471,-0.0000
 0209,0.00002264,0.00005711,-0.00001638,-0.00000111,-0.00000688,-0.0000
 0110,-0.00000879,-0.00000466,0.00000295,-0.00000054,-0.00000992,0.0000
 0670,-0.00015894,-0.00011829,-0.00021730,0.00002270,0.00000426,0.00001
 900,0.00001487,0.00002605,0.00007521,0.00004118,0.00002181,0.00000343,
 -0.00045126,0.00032259,0.00125707,-0.00005835,-0.00006891,-0.00043195,
 0.00030859,0.00005404,-0.00035385,0.00015609,-0.00024745,-0.00026946,-
 0.00639577,0.00115435,-0.07501820,0.01984819,0.00564576,0.00950834,-0.
 02367285,0.00520408,0.07562755,0.00003297,0.00001129,0.00002565,0.0000
 5939,-0.00002400,0.00001099,0.00009955,-0.00002229,-0.00003259,0.00001
 226,0.00006157,0.00005517,0.00002345,0.00004172,0.00003245,0.00001449,
 -0.00000849,0.00000365,-0.00000895,0.00000010,-0.00000256,-0.00000095,
 -0.00000059,-0.00000122,0.00000829,0.00000273,0.00000301,0.00000173,-0
 .00000377,0.00000006,-0.00009255,-0.00004705,-0.00004110,-0.00019091,0
 .00000738,-0.00001698,-0.00005172,0.00002880,-0.00000350,-0.00005981,-
 0.00001105,-0.00003173,-0.00002986,-0.00005559,-0.00003826,0.00011100,
 0.00009224,0.00002319,-0.00001530,-0.00001474,-0.00001951,0.00000551,0
 .00001104,0.00006080,-0.00005648,-0.00007746,-0.00004452,0.00048856,-0
 .00044614,0.00025196,-0.00008869,0.00016254,-0.00015194,-0.00014085,0.
 00015629,-0.00000734,0.00057842,-0.00054503,-0.00007640,-0.00000065,0.
 00001568,-0.00030496,-0.00217722,0.00055789,-0.00141671,0.00029285,-0.
 00049313,-0.00076316,0.00004866,-0.00003188,-0.00007041,0.00992190,-0.
 00347289,-0.00839959,-0.00000341,-0.00043293,-0.00171245,-0.00116017,0
 .00150072,-0.00105080,0.00009029,-0.00009146,-0.00040941,0.00001735,-0
 .00001281,-0.00001649,-0.00000086,-0.00000551,0.00000281,0.00000154,-0
 .00000026,0.00000538,-0.00000642,0.00000462,-0.00000132,0.00001864,-0.
 00001316,0.00002783,-0.00000675,-0.00000071,-0.00000303,0.00000035,0.0
 0000252,-0.00000643,0.00000004,0.00000408,-0.00000149,0.00001985,0.000
 04056,-0.00000192,-0.00000206,-0.00000737,-0.00000580,-0.00000635,-0.0
 0000412,0.00000209,-0.00000042,-0.00000046,0.00000477,0.00010994,0.000
 06594,0.00007198,-0.00002634,-0.00002712,0.00000197,-0.00002974,0.0000
 4896,-0.00002067,0.00001036,0.00000020,-0.00000137,-0.00047142,0.00022
 481,0.00039272,0.00000015,-0.00005690,-0.00026735,0.00018993,0.0000347
 1,-0.00014773,0.00010395,-0.00013690,-0.00008015,-0.07229955,0.0095967
 9,0.00936907,0.01011533,-0.01608748,-0.01026168,-0.02456054,0.03467599
 ,0.04263613,0.07911121,0.00002567,-0.00006473,-0.00000441,0.00001549,-
 0.00001577,-0.00001653,0.00004470,-0.00020192,0.00004223,-0.00001516,-
 0.00029376,-0.00009173,0.00001911,0.00008425,0.00001982,-0.00002729,0.
 00002616,0.00000041,-0.00000059,0.00000145,-0.00000027,-0.00000292,0.0
 0000410,-0.00000205,-0.00000827,0.00001238,0.00000815,0.00001717,-0.00
 000608,0.00000606,-0.00010447,0.00022378,0.00005055,0.00002563,0.00015
 775,0.00001415,-0.00003437,0.00005511,0.00002433,-0.00005827,0.0000290
 3,-0.00001888,-0.00005159,0.00001043,-0.00000943,0.00053745,0.00038873
 ,0.00008245,-0.00004357,-0.00001156,-0.00003278,0.00011344,-0.00027124
 ,0.00020804,-0.00026871,-0.00009312,0.00000713,-0.00009709,-0.00028240
 ,-0.00045872,-0.00002316,0.00008905,0.00004657,0.00007142,0.00009474,0
 .00022665,-0.00060946,0.00087062,-0.00021090,-0.00022504,0.00024151,0.
 00044250,0.00302668,-0.00166643,0.00119440,0.00030078,-0.00068692,0.00
 036078,-0.00008260,0.00004044,0.00008524,0.00171698,0.00439706,-0.0030
 1795,-0.00095891,0.00045576,0.00125553,-0.00027348,0.00108859,-0.00059
 890,-0.00002767,0.00017400,0.00039343,-0.00000246,-0.00002805,-0.00003
 799,0.00000788,0.00000771,0.00000515,-0.00000255,-0.00000036,0.0000043
 8,-0.00000157,0.00000377,0.00000410,0.00001179,-0.00001501,0.00002193,
 -0.00000522,0.00000046,-0.00000405,-0.00000025,0.00000111,-0.00000201,
 -0.00000451,0.00000684,-0.00000354,0.00002935,0.00002073,0.00001379,0.
 00000118,-0.00000369,-0.00000250,-0.00001345,-0.00000218,-0.00000091,0
 .00000583,0.00000991,-0.00000421,0.00039611,0.00013504,0.00013739,-0.0
 0006322,-0.00003451,0.00000894,0.00010428,-0.00002199,-0.00018748,-0.0
 0014290,-0.00001001,-0.00000803,-0.00011571,-0.00020466,0.00012159,-0.
 00003764,0.00000939,-0.00015163,0.00002703,0.00007215,-0.00001326,-0.0
 0002423,0.00007810,-0.00004261,0.00734884,-0.11612720,-0.07736951,-0.0
 1344385,-0.06323000,-0.03647269,0.02814122,-0.00872753,-0.02275398,-0.
 02521787,0.18320898,0.00009836,0.00000213,0.00003203,0.00018446,-0.000
 04960,0.00003926,0.00031625,0.00009088,-0.00052350,0.00011171,0.000004
 95,-0.00013399,0.00007346,0.00011219,0.00009501,-0.00002193,0.00002475
 ,0.00003258,-0.00006643,-0.00002105,0.00000372,0.00000319,-0.00000316,
 0.00001870,0.00004182,-0.00000546,0.00013206,-0.00003024,-0.00002780,0
 .00000436,-0.00038942,-0.00010448,0.00019730,-0.00103795,-0.00002319,0
 .00025656,-0.00016086,0.00010571,0.00006910,-0.00016702,-0.00001554,-0
 .00005002,-0.00009666,-0.00012024,-0.00004804,0.00046280,0.00045442,-0
 .00009936,-0.00001178,-0.00001874,0.00000047,0.00002941,0.00001877,-0.
 00004753,-0.00026703,-0.00019472,0.00038338,0.00241143,-0.00206585,-0.
 00052089,-0.00061604,0.00077262,-0.00032013,-0.00055089,0.00073357,0.0
 0067033,0.00014315,0.00088415,-0.00020377,-0.00017754,-0.00007720,-0.0
 0070067,0.00163085,-0.00127375,-0.00187186,0.00168297,-0.00042910,-0.0
 0232618,-0.00009969,-0.00001386,0.00005627,0.00455722,-0.02837608,-0.0
 3981160,-0.00192066,0.00066170,-0.00130526,-0.00681639,0.00433002,-0.0
 0310765,-0.00008355,-0.00027860,0.00072124,0.00005390,-0.00007326,-0.0
 0012762,0.00001178,0.00000431,0.00000539,-0.00001454,-0.00001030,0.000
 02702,-0.00001061,0.00001272,0.00000736,0.00004676,-0.00003416,0.00004
 709,-0.00001920,-0.00000337,-0.00000926,-0.00000271,0.00000772,-0.0000
 0497,-0.00000151,0.00001333,-0.00000657,0.00006298,0.00011486,-0.00001
 606,-0.00000113,-0.00001426,-0.00000410,-0.00002623,-0.00001015,0.0000
 0406,0.00000429,-0.00000810,0.00000837,0.00010059,-0.00005839,-0.00021
 028,-0.00002660,-0.00002593,0.00003971,0.00011055,-0.00001160,-0.00007
 903,-0.00006908,0.00002334,-0.00000200,-0.00155349,0.00130124,0.002166
 28,-0.00020022,-0.00026171,-0.00123790,0.00084650,0.00012933,-0.000748
 29,0.00031903,-0.00049972,-0.00047067,0.00475659,-0.07083219,-0.195861
 55,-0.00656098,-0.02254275,0.00927275,0.03051148,-0.01904957,-0.008473
 82,-0.02757111,0.13673119,0.24403216\\0.00000262,0.00000121,0.00000254
 ,0.00000344,-0.00000215,0.00000112,0.00000204,-0.00000460,0.00000800,-
 0.00000024,0.00000372,-0.00000275,-0.00000266,-0.00000303,-0.00000030,
 -0.00000061,-0.00000085,-0.00000040,-0.00000156,-0.00000007,-0.0000009
 4,-0.00000096,0.00000286,0.00000233,0.00000058,-0.00000126,0.00000243,
 0.00000188,-0.00000147,-0.00000087,-0.00000353,-0.00000130,0.00000704,
 0.00000944,0.00000281,-0.00000548,-0.00001028,0.00000464,0.00000320,-0
 .00000040,0.00000114,-0.00000170,0.00000116,0.00000067,-0.00000006,0.0
 0000040,-0.00000451,-0.00000769,0.00000121,-0.00000010,-0.00000066,-0.
 00000116,0.00000151,0.00000129,0.00000138,-0.00000158,0.00000153,-0.00
 001281,0.00001786,-0.00000208,0.00000250,-0.00001137,0.00002049,0.0000
 0089,-0.00000896,-0.00001062,-0.00000505,0.00000380,0.00000257,0.00000
 466,-0.00000395,0.00000108,0.00000495,-0.00000187,-0.00000229,-0.00000
 366,0.00000210,-0.00000465,-0.00000098,0.00000351,0.00000267,-0.000001
 12,-0.00000015,0.00000333,-0.00000029,-0.00000067,0.00000088,0.0000030
 3,0.00000154,-0.00000191,-0.00000012,-0.00000194,0.00000112,0.00000293
 ,-0.00000679,-0.00000573,0.00000011,-0.00000078,0.00000351,-0.00000077
 ,-0.00000153,0.00000264,0.00000068,0.00000007,0.00000232,0.00000012,0.
 00000067,0.00000160,0.00000025,0.00000024,0.00000012,0.00000059,0.0000
 0157,-0.00000047,0.00000039,0.00000058,0.00000015,-0.00000171,-0.00000
 091,-0.00000063,0.00000046,0.00000112,-0.00000356,0.00000021,0.0000008
 8,-0.00000217,0.00000110,0.00000140,-0.00000313,0.00000493,-0.00000105
 ,-0.00000915,-0.00000070,-0.00000062,-0.00000167,0.00000178,-0.0000012
 0,-0.00000165,-0.00000238,0.00000077,-0.00000085,-0.00000165,0.0000049
 7,0.00000228,0.00000034,0.00000391,-0.00000187,0.00000128,0.00000331,-
 0.00000012,0.00000106,-0.00000152,0.00000039,-0.00000112,0.00000144,-0
 .00000539,-0.00000386,-0.00000403,0.00000171,0.00000205,-0.00000011,-0
 .00000141,-0.00000084,0.00000011,0.00000384\\\@


 DIATOMIC MOLECULES ARE PECULIAR BECAUSE THEY ONLY HAVE TWO ENDS,
 AND THESE ENDS ARE VERY CLOSE TOGETHER.
 KLAUS RUEDENBERG, REV.MOD.PHYS. PG 176, 32, (1960)
 Job cpu time:       0 days 18 hours 48 minutes 32.8 seconds.
 Elapsed time:       0 days  0 hours 37 minutes 40.3 seconds.
 File lengths (MBytes):  RWF=   2318 Int=      0 D2E=      0 Chk=     38 Scr=      1
 Normal termination of Gaussian 16 at Sat Jun 15 07:54:57 2019.
