 Entering Gaussian System, Link 0=g16
 Input=clay_new-glu_gluC6-bisCF3-sm-b1b95-custom-pcm_thf.gjf
 Output=clay_new-glu_gluC6-bisCF3-sm-b1b95-custom-pcm_thf.out
 Initial command:
 /home/ekwan/sw/g16/l1.exe "/scratch/users/ekwan/clay_new-glu_gluC6-bisCF3-sm-b1b95-custom-pcm_thf/Gau-20897.inp" -scrdir="/scratch/users/ekwan/clay_new-glu_gluC6-bisCF3-sm-b1b95-custom-pcm_thf/"
 Entering Link 1 = /home/ekwan/sw/g16/l1.exe PID=     20898.
  
 Copyright (c) 1988,1990,1992,1993,1995,1998,2003,2009,2016,
            Gaussian, Inc.  All Rights Reserved.
  
 This is part of the Gaussian(R) 16 program.  It is based on
 the Gaussian(R) 09 system (copyright 2009, Gaussian, Inc.),
 the Gaussian(R) 03 system (copyright 2003, Gaussian, Inc.),
 the Gaussian(R) 98 system (copyright 1998, Gaussian, Inc.),
 the Gaussian(R) 94 system (copyright 1995, Gaussian, Inc.),
 the Gaussian 92(TM) system (copyright 1992, Gaussian, Inc.),
 the Gaussian 90(TM) system (copyright 1990, Gaussian, Inc.),
 the Gaussian 88(TM) system (copyright 1988, Gaussian, Inc.),
 the Gaussian 86(TM) system (copyright 1986, Carnegie Mellon
 University), and the Gaussian 82(TM) system (copyright 1983,
 Carnegie Mellon University). Gaussian is a federally registered
 trademark of Gaussian, Inc.
  
 This software contains proprietary and confidential information,
 including trade secrets, belonging to Gaussian, Inc.
  
 This software is provided under written license and may be
 used, copied, transmitted, or stored only in accord with that
 written license.
  
 The following legend is applicable only to US Government
 contracts under FAR:
  
                    RESTRICTED RIGHTS LEGEND
  
 Use, reproduction and disclosure by the US Government is
 subject to restrictions as set forth in subparagraphs (a)
 and (c) of the Commercial Computer Software - Restricted
 Rights clause in FAR 52.227-19.
  
 Gaussian, Inc.
 340 Quinnipiac St., Bldg. 40, Wallingford CT 06492
  
  
 ---------------------------------------------------------------
 Warning -- This program may not be used in any manner that
 competes with the business of Gaussian, Inc. or will provide
 assistance to any competitor of Gaussian, Inc.  The licensee
 of this program is prohibited from giving any competitor of
 Gaussian, Inc. access to this program.  By using this program,
 the user acknowledges that Gaussian, Inc. is engaged in the
 business of creating and licensing software in the field of
 computational chemistry and represents and warrants to the
 licensee that it is not a competitor of Gaussian, Inc. and that
 it will not use this program in any manner prohibited above.
 ---------------------------------------------------------------
  

 Cite this work as:
 Gaussian 16, Revision A.03,
 M. J. Frisch, G. W. Trucks, H. B. Schlegel, G. E. Scuseria, 
 M. A. Robb, J. R. Cheeseman, G. Scalmani, V. Barone, 
 G. A. Petersson, H. Nakatsuji, X. Li, M. Caricato, A. V. Marenich, 
 J. Bloino, B. G. Janesko, R. Gomperts, B. Mennucci, H. P. Hratchian, 
 J. V. Ortiz, A. F. Izmaylov, J. L. Sonnenberg, D. Williams-Young, 
 F. Ding, F. Lipparini, F. Egidi, J. Goings, B. Peng, A. Petrone, 
 T. Henderson, D. Ranasinghe, V. G. Zakrzewski, J. Gao, N. Rega, 
 G. Zheng, W. Liang, M. Hada, M. Ehara, K. Toyota, R. Fukuda, 
 J. Hasegawa, M. Ishida, T. Nakajima, Y. Honda, O. Kitao, H. Nakai, 
 T. Vreven, K. Throssell, J. A. Montgomery, Jr., J. E. Peralta, 
 F. Ogliaro, M. J. Bearpark, J. J. Heyd, E. N. Brothers, K. N. Kudin, 
 V. N. Staroverov, T. A. Keith, R. Kobayashi, J. Normand, 
 K. Raghavachari, A. P. Rendell, J. C. Burant, S. S. Iyengar, 
 J. Tomasi, M. Cossi, J. M. Millam, M. Klene, C. Adamo, R. Cammi, 
 J. W. Ochterski, R. L. Martin, K. Morokuma, O. Farkas, 
 J. B. Foresman, and D. J. Fox, Gaussian, Inc., Wallingford CT, 2016.
 
 ******************************************
 Gaussian 16:  AS64L-G16RevA.03 25-Dec-2016
                15-Jun-2019 
 ******************************************
 %nprocshared=32
 Will use up to   32 processors via shared memory.
 %mem=48GB
 ----------------------------------------------------------------------
 #p opt freq=noraman 6-31g(d) scrf=(solvent=tetrahydrofuran,pcm) pop=no
 ne b1b95 extrabasis
 ----------------------------------------------------------------------
 1/18=20,19=15,26=3,38=1/1,3;
 2/9=110,12=2,17=6,18=5,40=1/2;
 3/5=1,6=6,7=1,10=1,11=2,25=1,30=1,70=2201,71=1,72=20,74=-17/1,2,3;
 4//1;
 5/5=2,38=5,53=20/2;
 7//1,2,3,16;
 1/18=20,19=15,26=3/3(2);
 2/9=110/2;
 99//99;
 2/9=110/2;
 3/5=7,6=1,7=1,11=2,25=1,30=1,70=2205,71=1,72=20,74=-17,82=7/1,2,3;
 4/5=5,16=3,69=1/1;
 5/5=2,38=5,53=20/2;
 7//1,2,3,16;
 1/18=20,19=15,26=3/3(-5);
 2/9=110/2;
 99/9=1/99;
 Leave Link    1 at Sat Jun 15 10:13:57 2019, MaxMem=  6442450944 cpu:               8.3 elap:               0.3
 (Enter /home/ekwan/sw/g16/l101.exe)
 -----
 title
 -----
 Symbolic Z-matrix:
 Charge =  0 Multiplicity = 1
 6                     3.44945  -0.08507   0.72688 
 6                     3.35062  -0.3857   -0.76287 
 6                     1.88918  -0.40098  -1.21599 
 6                     1.21374   1.05305   0.52741 
 6                     2.63936   1.15938   1.05519 
 1                     1.79248  -0.51638  -2.29457 
 1                     3.82953   0.44085  -1.30841 
 1                     3.04221  -0.93086   1.29666 
 1                     0.69598   0.24621   1.06195 
 1                     3.11894   2.02467   0.58247 
 8                     1.21366   0.75257  -0.87513 
 8                     1.29206  -1.56321  -0.58338 
 8                     4.00689  -1.59181  -1.02972 
 8                     4.78424   0.1618    1.09898 
 8                     2.56475   1.33514   2.45047 
 6                     0.42692   2.33221   0.75068 
 1                     0.24725   2.41416   1.82405 
 1                    -0.54116   2.25239   0.2403 
 8                     1.09348   3.50958   0.37243 
 16                   -0.00614  -2.24207  -1.25565 
 8                    -0.07182  -3.56188  -0.66412 
 8                     0.06925  -2.05946  -2.69525 
 6                    -1.36755  -1.28436  -0.64314 
 6                    -1.95722  -1.64597   0.55945 
 6                    -1.8172   -0.20561  -1.39099 
 6                    -3.03084  -0.89512   1.02022 
 1                    -1.59143  -2.49923   1.11693 
 6                    -2.88798   0.53222  -0.90685 
 1                    -1.34915   0.04406  -2.33443 
 6                    -3.4973    0.19304   0.29486 
 1                    -4.33505   0.77173   0.6629 
 6                     4.38633  -1.76317  -2.38059 
 1                     3.52092  -1.89313  -3.03945 
 1                     4.97963  -0.91149  -2.73325 
 1                     4.99399  -2.66603  -2.4233 
 6                     5.45283  -0.95268   1.65336 
 1                     6.45616  -0.6159    1.91623 
 1                     4.94751  -1.30346   2.56131 
 1                     5.52145  -1.77767   0.94008 
 6                     3.30376   2.44349   2.92227 
 1                     3.16358   2.47977   4.00309 
 1                     4.36888   2.33051   2.69905 
 1                     2.93631   3.37615   2.47932 
 6                     1.04592   3.79609  -1.00968 
 1                     1.37031   4.83047  -1.12943 
 1                     0.02414   3.695    -1.39528 
 1                     1.70426   3.14375  -1.59033 
 6                    -3.72785  -1.3004    2.28778 
 9                    -2.88347  -1.89029   3.14248 
 9                    -4.71847  -2.17005   2.04388 
 9                    -4.27069  -0.24454   2.90644 
 6                    -3.35777   1.74099  -1.6634 
 9                    -2.73053   2.85352  -1.24106 
 9                    -4.66929   1.94553  -1.4988 
 9                    -3.11701   1.62665  -2.97375 
 
 ITRead=  0  0  0  0  0  0  0  0  0  0  0  0  0  0  0  0  0  0  0  0
 ITRead=  0  0  0  0  0  0  0  0  0  0  0  0  0  0  0  0  0  0  0  0
 ITRead=  0  0  0  0  0  0  0  0  0  0  0  0  0  0  0
 MicOpt= -1 -1 -1 -1 -1 -1 -1 -1 -1 -1 -1 -1 -1 -1 -1 -1 -1 -1 -1 -1
 MicOpt= -1 -1 -1 -1 -1 -1 -1 -1 -1 -1 -1 -1 -1 -1 -1 -1 -1 -1 -1 -1
 MicOpt= -1 -1 -1 -1 -1 -1 -1 -1 -1 -1 -1 -1 -1 -1 -1
 NAtoms=     55 NQM=       55 NQMF=       0 NMMI=      0 NMMIF=      0
                NMic=       0 NMicF=      0.
                    Isotopes and Nuclear Properties:
 (Nuclear quadrupole moments (NQMom) in fm**2, nuclear magnetic moments (NMagM)
  in nuclear magnetons)

  Atom         1           2           3           4           5           6           7           8           9          10
 IAtWgt=          12          12          12          12          12           1           1           1           1           1
 AtmWgt=  12.0000000  12.0000000  12.0000000  12.0000000  12.0000000   1.0078250   1.0078250   1.0078250   1.0078250   1.0078250
 NucSpn=           0           0           0           0           0           1           1           1           1           1
 AtZEff=   0.0000000   0.0000000   0.0000000   0.0000000   0.0000000   0.0000000   0.0000000   0.0000000   0.0000000   0.0000000
 NQMom=    0.0000000   0.0000000   0.0000000   0.0000000   0.0000000   0.0000000   0.0000000   0.0000000   0.0000000   0.0000000
 NMagM=    0.0000000   0.0000000   0.0000000   0.0000000   0.0000000   2.7928460   2.7928460   2.7928460   2.7928460   2.7928460
 AtZNuc=   6.0000000   6.0000000   6.0000000   6.0000000   6.0000000   1.0000000   1.0000000   1.0000000   1.0000000   1.0000000

  Atom        11          12          13          14          15          16          17          18          19          20
 IAtWgt=          16          16          16          16          16          12           1           1          16          32
 AtmWgt=  15.9949146  15.9949146  15.9949146  15.9949146  15.9949146  12.0000000   1.0078250   1.0078250  15.9949146  31.9720718
 NucSpn=           0           0           0           0           0           0           1           1           0           0
 AtZEff=   0.0000000   0.0000000   0.0000000   0.0000000   0.0000000   0.0000000   0.0000000   0.0000000   0.0000000   0.0000000
 NQMom=    0.0000000   0.0000000   0.0000000   0.0000000   0.0000000   0.0000000   0.0000000   0.0000000   0.0000000   0.0000000
 NMagM=    0.0000000   0.0000000   0.0000000   0.0000000   0.0000000   0.0000000   2.7928460   2.7928460   0.0000000   0.0000000
 AtZNuc=   8.0000000   8.0000000   8.0000000   8.0000000   8.0000000   6.0000000   1.0000000   1.0000000   8.0000000  16.0000000

  Atom        21          22          23          24          25          26          27          28          29          30
 IAtWgt=          16          16          12          12          12          12           1          12           1          12
 AtmWgt=  15.9949146  15.9949146  12.0000000  12.0000000  12.0000000  12.0000000   1.0078250  12.0000000   1.0078250  12.0000000
 NucSpn=           0           0           0           0           0           0           1           0           1           0
 AtZEff=   0.0000000   0.0000000   0.0000000   0.0000000   0.0000000   0.0000000   0.0000000   0.0000000   0.0000000   0.0000000
 NQMom=    0.0000000   0.0000000   0.0000000   0.0000000   0.0000000   0.0000000   0.0000000   0.0000000   0.0000000   0.0000000
 NMagM=    0.0000000   0.0000000   0.0000000   0.0000000   0.0000000   0.0000000   2.7928460   0.0000000   2.7928460   0.0000000
 AtZNuc=   8.0000000   8.0000000   6.0000000   6.0000000   6.0000000   6.0000000   1.0000000   6.0000000   1.0000000   6.0000000

  Atom        31          32          33          34          35          36          37          38          39          40
 IAtWgt=           1          12           1           1           1          12           1           1           1          12
 AtmWgt=   1.0078250  12.0000000   1.0078250   1.0078250   1.0078250  12.0000000   1.0078250   1.0078250   1.0078250  12.0000000
 NucSpn=           1           0           1           1           1           0           1           1           1           0
 AtZEff=   0.0000000   0.0000000   0.0000000   0.0000000   0.0000000   0.0000000   0.0000000   0.0000000   0.0000000   0.0000000
 NQMom=    0.0000000   0.0000000   0.0000000   0.0000000   0.0000000   0.0000000   0.0000000   0.0000000   0.0000000   0.0000000
 NMagM=    2.7928460   0.0000000   2.7928460   2.7928460   2.7928460   0.0000000   2.7928460   2.7928460   2.7928460   0.0000000
 AtZNuc=   1.0000000   6.0000000   1.0000000   1.0000000   1.0000000   6.0000000   1.0000000   1.0000000   1.0000000   6.0000000

  Atom        41          42          43          44          45          46          47          48          49          50
 IAtWgt=           1           1           1          12           1           1           1          12          19          19
 AtmWgt=   1.0078250   1.0078250   1.0078250  12.0000000   1.0078250   1.0078250   1.0078250  12.0000000  18.9984033  18.9984033
 NucSpn=           1           1           1           0           1           1           1           0           1           1
 AtZEff=   0.0000000   0.0000000   0.0000000   0.0000000   0.0000000   0.0000000   0.0000000   0.0000000   0.0000000   0.0000000
 NQMom=    0.0000000   0.0000000   0.0000000   0.0000000   0.0000000   0.0000000   0.0000000   0.0000000   0.0000000   0.0000000
 NMagM=    2.7928460   2.7928460   2.7928460   0.0000000   2.7928460   2.7928460   2.7928460   0.0000000   2.6288670   2.6288670
 AtZNuc=   1.0000000   1.0000000   1.0000000   6.0000000   1.0000000   1.0000000   1.0000000   6.0000000   9.0000000   9.0000000

  Atom        51          52          53          54          55
 IAtWgt=          19          12          19          19          19
 AtmWgt=  18.9984033  12.0000000  18.9984033  18.9984033  18.9984033
 NucSpn=           1           0           1           1           1
 AtZEff=   0.0000000   0.0000000   0.0000000   0.0000000   0.0000000
 NQMom=    0.0000000   0.0000000   0.0000000   0.0000000   0.0000000
 NMagM=    2.6288670   0.0000000   2.6288670   2.6288670   2.6288670
 AtZNuc=   9.0000000   6.0000000   9.0000000   9.0000000   9.0000000
 Leave Link  101 at Sat Jun 15 10:13:57 2019, MaxMem=  6442450944 cpu:              17.3 elap:               0.7
 (Enter /home/ekwan/sw/g16/l103.exe)

 GradGradGradGradGradGradGradGradGradGradGradGradGradGradGradGradGradGrad
 Berny optimization.
 Initialization pass.
                           ----------------------------
                           !    Initial Parameters    !
                           ! (Angstroms and Degrees)  !
 --------------------------                            --------------------------
 ! Name  Definition              Value          Derivative Info.                !
 --------------------------------------------------------------------------------
 ! R1    R(1,2)                  1.523          estimate D2E/DX2                !
 ! R2    R(1,5)                  1.5208         estimate D2E/DX2                !
 ! R3    R(1,8)                  1.0981         estimate D2E/DX2                !
 ! R4    R(1,14)                 1.4075         estimate D2E/DX2                !
 ! R5    R(2,3)                  1.5302         estimate D2E/DX2                !
 ! R6    R(2,7)                  1.1001         estimate D2E/DX2                !
 ! R7    R(2,13)                 1.3988         estimate D2E/DX2                !
 ! R8    R(3,6)                  1.089          estimate D2E/DX2                !
 ! R9    R(3,11)                 1.3796         estimate D2E/DX2                !
 ! R10   R(3,12)                 1.4517         estimate D2E/DX2                !
 ! R11   R(4,5)                  1.5239         estimate D2E/DX2                !
 ! R12   R(4,9)                  1.0976         estimate D2E/DX2                !
 ! R13   R(4,11)                 1.4344         estimate D2E/DX2                !
 ! R14   R(4,16)                 1.5183         estimate D2E/DX2                !
 ! R15   R(5,10)                 1.0964         estimate D2E/DX2                !
 ! R16   R(5,15)                 1.4083         estimate D2E/DX2                !
 ! R17   R(12,20)                1.6119         estimate D2E/DX2                !
 ! R18   R(13,32)                1.4136         estimate D2E/DX2                !
 ! R19   R(14,36)                1.4129         estimate D2E/DX2                !
 ! R20   R(15,40)                1.4132         estimate D2E/DX2                !
 ! R21   R(16,17)                1.0914         estimate D2E/DX2                !
 ! R22   R(16,18)                1.0973         estimate D2E/DX2                !
 ! R23   R(16,19)                1.4048         estimate D2E/DX2                !
 ! R24   R(19,44)                1.4123         estimate D2E/DX2                !
 ! R25   R(20,21)                1.4478         estimate D2E/DX2                !
 ! R26   R(20,22)                1.4531         estimate D2E/DX2                !
 ! R27   R(20,23)                1.7736         estimate D2E/DX2                !
 ! R28   R(23,24)                1.3873         estimate D2E/DX2                !
 ! R29   R(23,25)                1.3875         estimate D2E/DX2                !
 ! R30   R(24,26)                1.3888         estimate D2E/DX2                !
 ! R31   R(24,27)                1.0829         estimate D2E/DX2                !
 ! R32   R(25,28)                1.3876         estimate D2E/DX2                !
 ! R33   R(25,29)                1.0823         estimate D2E/DX2                !
 ! R34   R(26,30)                1.3885         estimate D2E/DX2                !
 ! R35   R(26,48)                1.5023         estimate D2E/DX2                !
 ! R36   R(28,30)                1.3894         estimate D2E/DX2                !
 ! R37   R(28,52)                1.5014         estimate D2E/DX2                !
 ! R38   R(30,31)                1.0827         estimate D2E/DX2                !
 ! R39   R(32,33)                1.0954         estimate D2E/DX2                !
 ! R40   R(32,34)                1.0962         estimate D2E/DX2                !
 ! R41   R(32,35)                1.0891         estimate D2E/DX2                !
 ! R42   R(36,37)                1.0905         estimate D2E/DX2                !
 ! R43   R(36,38)                1.0967         estimate D2E/DX2                !
 ! R44   R(36,39)                1.0927         estimate D2E/DX2                !
 ! R45   R(40,41)                1.0905         estimate D2E/DX2                !
 ! R46   R(40,42)                1.0941         estimate D2E/DX2                !
 ! R47   R(40,43)                1.0959         estimate D2E/DX2                !
 ! R48   R(44,45)                1.0907         estimate D2E/DX2                !
 ! R49   R(44,46)                1.0968         estimate D2E/DX2                !
 ! R50   R(44,47)                1.0937         estimate D2E/DX2                !
 ! R51   R(48,49)                1.3384         estimate D2E/DX2                !
 ! R52   R(48,50)                1.3406         estimate D2E/DX2                !
 ! R53   R(48,51)                1.3388         estimate D2E/DX2                !
 ! R54   R(52,53)                1.3452         estimate D2E/DX2                !
 ! R55   R(52,54)                1.3376         estimate D2E/DX2                !
 ! R56   R(52,55)                1.3372         estimate D2E/DX2                !
 ! A1    A(2,1,5)              109.7631         estimate D2E/DX2                !
 ! A2    A(2,1,8)              109.3563         estimate D2E/DX2                !
 ! A3    A(2,1,14)             110.7783         estimate D2E/DX2                !
 ! A4    A(5,1,8)              108.7063         estimate D2E/DX2                !
 ! A5    A(5,1,14)             107.7323         estimate D2E/DX2                !
 ! A6    A(8,1,14)             110.4643         estimate D2E/DX2                !
 ! A7    A(1,2,3)              110.7081         estimate D2E/DX2                !
 ! A8    A(1,2,7)              107.9706         estimate D2E/DX2                !
 ! A9    A(1,2,13)             109.0484         estimate D2E/DX2                !
 ! A10   A(3,2,7)              106.0482         estimate D2E/DX2                !
 ! A11   A(3,2,13)             112.5193         estimate D2E/DX2                !
 ! A12   A(7,2,13)             110.4272         estimate D2E/DX2                !
 ! A13   A(2,3,6)              112.2807         estimate D2E/DX2                !
 ! A14   A(2,3,11)             112.7159         estimate D2E/DX2                !
 ! A15   A(2,3,12)             105.7716         estimate D2E/DX2                !
 ! A16   A(6,3,11)             106.8473         estimate D2E/DX2                !
 ! A17   A(6,3,12)             108.0727         estimate D2E/DX2                !
 ! A18   A(11,3,12)            111.122          estimate D2E/DX2                !
 ! A19   A(5,4,9)              108.8994         estimate D2E/DX2                !
 ! A20   A(5,4,11)             110.6908         estimate D2E/DX2                !
 ! A21   A(5,4,16)             112.0302         estimate D2E/DX2                !
 ! A22   A(9,4,11)             108.7944         estimate D2E/DX2                !
 ! A23   A(9,4,16)             107.6517         estimate D2E/DX2                !
 ! A24   A(11,4,16)            108.6788         estimate D2E/DX2                !
 ! A25   A(1,5,4)              111.4983         estimate D2E/DX2                !
 ! A26   A(1,5,10)             108.6461         estimate D2E/DX2                !
 ! A27   A(1,5,15)             110.1352         estimate D2E/DX2                !
 ! A28   A(4,5,10)             108.3568         estimate D2E/DX2                !
 ! A29   A(4,5,15)             107.5952         estimate D2E/DX2                !
 ! A30   A(10,5,15)            110.5998         estimate D2E/DX2                !
 ! A31   A(3,11,4)             114.6285         estimate D2E/DX2                !
 ! A32   A(3,12,20)            119.1244         estimate D2E/DX2                !
 ! A33   A(2,13,32)            114.3789         estimate D2E/DX2                !
 ! A34   A(1,14,36)            114.4637         estimate D2E/DX2                !
 ! A35   A(5,15,40)            113.6373         estimate D2E/DX2                !
 ! A36   A(4,16,17)            107.0501         estimate D2E/DX2                !
 ! A37   A(4,16,18)            109.1184         estimate D2E/DX2                !
 ! A38   A(4,16,19)            114.8728         estimate D2E/DX2                !
 ! A39   A(17,16,18)           108.5224         estimate D2E/DX2                !
 ! A40   A(17,16,19)           106.259          estimate D2E/DX2                !
 ! A41   A(18,16,19)           110.7525         estimate D2E/DX2                !
 ! A42   A(16,19,44)           114.6788         estimate D2E/DX2                !
 ! A43   A(12,20,21)           104.4815         estimate D2E/DX2                !
 ! A44   A(12,20,22)           108.5713         estimate D2E/DX2                !
 ! A45   A(12,20,23)           104.286          estimate D2E/DX2                !
 ! A46   A(21,20,22)           121.4458         estimate D2E/DX2                !
 ! A47   A(21,20,23)           108.4406         estimate D2E/DX2                !
 ! A48   A(22,20,23)           108.3061         estimate D2E/DX2                !
 ! A49   A(20,23,24)           119.0033         estimate D2E/DX2                !
 ! A50   A(20,23,25)           118.8445         estimate D2E/DX2                !
 ! A51   A(24,23,25)           122.1485         estimate D2E/DX2                !
 ! A52   A(23,24,26)           118.3763         estimate D2E/DX2                !
 ! A53   A(23,24,27)           120.534          estimate D2E/DX2                !
 ! A54   A(26,24,27)           121.0873         estimate D2E/DX2                !
 ! A55   A(23,25,28)           118.388          estimate D2E/DX2                !
 ! A56   A(23,25,29)           120.5984         estimate D2E/DX2                !
 ! A57   A(28,25,29)           121.0096         estimate D2E/DX2                !
 ! A58   A(24,26,30)           120.6707         estimate D2E/DX2                !
 ! A59   A(24,26,48)           119.5226         estimate D2E/DX2                !
 ! A60   A(30,26,48)           119.7594         estimate D2E/DX2                !
 ! A61   A(25,28,30)           120.6902         estimate D2E/DX2                !
 ! A62   A(25,28,52)           119.587          estimate D2E/DX2                !
 ! A63   A(30,28,52)           119.6799         estimate D2E/DX2                !
 ! A64   A(26,30,28)           119.725          estimate D2E/DX2                !
 ! A65   A(26,30,31)           120.084          estimate D2E/DX2                !
 ! A66   A(28,30,31)           120.1905         estimate D2E/DX2                !
 ! A67   A(13,32,33)           112.1546         estimate D2E/DX2                !
 ! A68   A(13,32,34)           111.0103         estimate D2E/DX2                !
 ! A69   A(13,32,35)           106.722          estimate D2E/DX2                !
 ! A70   A(33,32,34)           109.0418         estimate D2E/DX2                !
 ! A71   A(33,32,35)           108.593          estimate D2E/DX2                !
 ! A72   A(34,32,35)           109.2356         estimate D2E/DX2                !
 ! A73   A(14,36,37)           106.639          estimate D2E/DX2                !
 ! A74   A(14,36,38)           111.044          estimate D2E/DX2                !
 ! A75   A(14,36,39)           111.66           estimate D2E/DX2                !
 ! A76   A(37,36,38)           108.853          estimate D2E/DX2                !
 ! A77   A(37,36,39)           109.435          estimate D2E/DX2                !
 ! A78   A(38,36,39)           109.1389         estimate D2E/DX2                !
 ! A79   A(15,40,41)           106.8435         estimate D2E/DX2                !
 ! A80   A(15,40,42)           111.0987         estimate D2E/DX2                !
 ! A81   A(15,40,43)           110.9262         estimate D2E/DX2                !
 ! A82   A(41,40,42)           109.3174         estimate D2E/DX2                !
 ! A83   A(41,40,43)           109.2191         estimate D2E/DX2                !
 ! A84   A(42,40,43)           109.3792         estimate D2E/DX2                !
 ! A85   A(19,44,45)           106.8477         estimate D2E/DX2                !
 ! A86   A(19,44,46)           110.8997         estimate D2E/DX2                !
 ! A87   A(19,44,47)           112.2281         estimate D2E/DX2                !
 ! A88   A(45,44,46)           109.0201         estimate D2E/DX2                !
 ! A89   A(45,44,47)           109.1695         estimate D2E/DX2                !
 ! A90   A(46,44,47)           108.6124         estimate D2E/DX2                !
 ! A91   A(26,48,49)           111.408          estimate D2E/DX2                !
 ! A92   A(26,48,50)           111.3679         estimate D2E/DX2                !
 ! A93   A(26,48,51)           111.4246         estimate D2E/DX2                !
 ! A94   A(49,48,50)           107.2449         estimate D2E/DX2                !
 ! A95   A(49,48,51)           107.957          estimate D2E/DX2                !
 ! A96   A(50,48,51)           107.2224         estimate D2E/DX2                !
 ! A97   A(28,52,53)           111.2075         estimate D2E/DX2                !
 ! A98   A(28,52,54)           111.5872         estimate D2E/DX2                !
 ! A99   A(28,52,55)           111.63           estimate D2E/DX2                !
 ! A100  A(53,52,54)           106.9839         estimate D2E/DX2                !
 ! A101  A(53,52,55)           107.1233         estimate D2E/DX2                !
 ! A102  A(54,52,55)           108.072          estimate D2E/DX2                !
 ! D1    D(5,1,2,3)            -50.8115         estimate D2E/DX2                !
 ! D2    D(5,1,2,7)             64.8665         estimate D2E/DX2                !
 ! D3    D(5,1,2,13)          -175.1228         estimate D2E/DX2                !
 ! D4    D(8,1,2,3)             68.3601         estimate D2E/DX2                !
 ! D5    D(8,1,2,7)           -175.9619         estimate D2E/DX2                !
 ! D6    D(8,1,2,13)           -55.9512         estimate D2E/DX2                !
 ! D7    D(14,1,2,3)          -169.6586         estimate D2E/DX2                !
 ! D8    D(14,1,2,7)           -53.9806         estimate D2E/DX2                !
 ! D9    D(14,1,2,13)           66.0301         estimate D2E/DX2                !
 ! D10   D(2,1,5,4)             52.1588         estimate D2E/DX2                !
 ! D11   D(2,1,5,10)           -67.191          estimate D2E/DX2                !
 ! D12   D(2,1,5,15)           171.5292         estimate D2E/DX2                !
 ! D13   D(8,1,5,4)            -67.4113         estimate D2E/DX2                !
 ! D14   D(8,1,5,10)           173.239          estimate D2E/DX2                !
 ! D15   D(8,1,5,15)            51.9592         estimate D2E/DX2                !
 ! D16   D(14,1,5,4)           172.8658         estimate D2E/DX2                !
 ! D17   D(14,1,5,10)           53.5161         estimate D2E/DX2                !
 ! D18   D(14,1,5,15)          -67.7637         estimate D2E/DX2                !
 ! D19   D(2,1,14,36)          -97.5553         estimate D2E/DX2                !
 ! D20   D(5,1,14,36)          142.3771         estimate D2E/DX2                !
 ! D21   D(8,1,14,36)           23.7751         estimate D2E/DX2                !
 ! D22   D(1,2,3,6)            174.3779         estimate D2E/DX2                !
 ! D23   D(1,2,3,11)            53.6425         estimate D2E/DX2                !
 ! D24   D(1,2,3,12)           -67.9705         estimate D2E/DX2                !
 ! D25   D(7,2,3,6)             57.5087         estimate D2E/DX2                !
 ! D26   D(7,2,3,11)           -63.2268         estimate D2E/DX2                !
 ! D27   D(7,2,3,12)           175.1602         estimate D2E/DX2                !
 ! D28   D(13,2,3,6)           -63.316          estimate D2E/DX2                !
 ! D29   D(13,2,3,11)          175.9486         estimate D2E/DX2                !
 ! D30   D(13,2,3,12)           54.3356         estimate D2E/DX2                !
 ! D31   D(1,2,13,32)         -159.527          estimate D2E/DX2                !
 ! D32   D(3,2,13,32)           77.2347         estimate D2E/DX2                !
 ! D33   D(7,2,13,32)          -41.0441         estimate D2E/DX2                !
 ! D34   D(2,3,11,4)           -57.3305         estimate D2E/DX2                !
 ! D35   D(6,3,11,4)           178.874          estimate D2E/DX2                !
 ! D36   D(12,3,11,4)           61.1986         estimate D2E/DX2                !
 ! D37   D(2,3,12,20)         -155.4467         estimate D2E/DX2                !
 ! D38   D(6,3,12,20)          -35.0099         estimate D2E/DX2                !
 ! D39   D(11,3,12,20)          81.9188         estimate D2E/DX2                !
 ! D40   D(9,4,5,1)             65.5878         estimate D2E/DX2                !
 ! D41   D(9,4,5,10)          -174.891          estimate D2E/DX2                !
 ! D42   D(9,4,5,15)           -55.279          estimate D2E/DX2                !
 ! D43   D(11,4,5,1)           -53.971          estimate D2E/DX2                !
 ! D44   D(11,4,5,10)           65.5503         estimate D2E/DX2                !
 ! D45   D(11,4,5,15)         -174.8377         estimate D2E/DX2                !
 ! D46   D(16,4,5,1)          -175.4464         estimate D2E/DX2                !
 ! D47   D(16,4,5,10)          -55.9251         estimate D2E/DX2                !
 ! D48   D(16,4,5,15)           63.6869         estimate D2E/DX2                !
 ! D49   D(5,4,11,3)            57.14           estimate D2E/DX2                !
 ! D50   D(9,4,11,3)           -62.4818         estimate D2E/DX2                !
 ! D51   D(16,4,11,3)         -179.429          estimate D2E/DX2                !
 ! D52   D(5,4,16,17)          -70.0879         estimate D2E/DX2                !
 ! D53   D(5,4,16,18)          172.6547         estimate D2E/DX2                !
 ! D54   D(5,4,16,19)           47.6207         estimate D2E/DX2                !
 ! D55   D(9,4,16,17)           49.6112         estimate D2E/DX2                !
 ! D56   D(9,4,16,18)          -67.6462         estimate D2E/DX2                !
 ! D57   D(9,4,16,19)          167.3198         estimate D2E/DX2                !
 ! D58   D(11,4,16,17)         167.2869         estimate D2E/DX2                !
 ! D59   D(11,4,16,18)          50.0296         estimate D2E/DX2                !
 ! D60   D(11,4,16,19)         -75.0045         estimate D2E/DX2                !
 ! D61   D(1,5,15,40)          110.2199         estimate D2E/DX2                !
 ! D62   D(4,5,15,40)         -128.0607         estimate D2E/DX2                !
 ! D63   D(10,5,15,40)          -9.8863         estimate D2E/DX2                !
 ! D64   D(3,12,20,21)         162.0848         estimate D2E/DX2                !
 ! D65   D(3,12,20,22)          31.1512         estimate D2E/DX2                !
 ! D66   D(3,12,20,23)         -84.1562         estimate D2E/DX2                !
 ! D67   D(2,13,32,33)         -68.493          estimate D2E/DX2                !
 ! D68   D(2,13,32,34)          53.7652         estimate D2E/DX2                !
 ! D69   D(2,13,32,35)         172.7048         estimate D2E/DX2                !
 ! D70   D(1,14,36,37)        -178.5919         estimate D2E/DX2                !
 ! D71   D(1,14,36,38)         -60.1447         estimate D2E/DX2                !
 ! D72   D(1,14,36,39)          61.9131         estimate D2E/DX2                !
 ! D73   D(5,15,40,41)         179.5756         estimate D2E/DX2                !
 ! D74   D(5,15,40,42)         -61.2627         estimate D2E/DX2                !
 ! D75   D(5,15,40,43)          60.6292         estimate D2E/DX2                !
 ! D76   D(4,16,19,44)          80.845          estimate D2E/DX2                !
 ! D77   D(17,16,19,44)       -161.0            estimate D2E/DX2                !
 ! D78   D(18,16,19,44)        -43.33           estimate D2E/DX2                !
 ! D79   D(16,19,44,45)        166.1885         estimate D2E/DX2                !
 ! D80   D(16,19,44,46)         47.4943         estimate D2E/DX2                !
 ! D81   D(16,19,44,47)        -74.1822         estimate D2E/DX2                !
 ! D82   D(12,20,23,24)        -88.0342         estimate D2E/DX2                !
 ! D83   D(12,20,23,25)         92.6549         estimate D2E/DX2                !
 ! D84   D(21,20,23,24)         22.8769         estimate D2E/DX2                !
 ! D85   D(21,20,23,25)       -156.4339         estimate D2E/DX2                !
 ! D86   D(22,20,23,24)        156.4722         estimate D2E/DX2                !
 ! D87   D(22,20,23,25)        -22.8387         estimate D2E/DX2                !
 ! D88   D(20,23,24,26)       -179.3647         estimate D2E/DX2                !
 ! D89   D(20,23,24,27)          0.0797         estimate D2E/DX2                !
 ! D90   D(25,23,24,26)         -0.0776         estimate D2E/DX2                !
 ! D91   D(25,23,24,27)        179.3667         estimate D2E/DX2                !
 ! D92   D(20,23,25,28)        179.6195         estimate D2E/DX2                !
 ! D93   D(20,23,25,29)          0.3372         estimate D2E/DX2                !
 ! D94   D(24,23,25,28)          0.3313         estimate D2E/DX2                !
 ! D95   D(24,23,25,29)       -178.951          estimate D2E/DX2                !
 ! D96   D(23,24,26,30)         -0.2153         estimate D2E/DX2                !
 ! D97   D(23,24,26,48)        177.2755         estimate D2E/DX2                !
 ! D98   D(27,24,26,30)       -179.6564         estimate D2E/DX2                !
 ! D99   D(27,24,26,48)         -2.1656         estimate D2E/DX2                !
 ! D100  D(23,25,28,30)         -0.2972         estimate D2E/DX2                !
 ! D101  D(23,25,28,52)        177.3138         estimate D2E/DX2                !
 ! D102  D(29,25,28,30)        178.9821         estimate D2E/DX2                !
 ! D103  D(29,25,28,52)         -3.407          estimate D2E/DX2                !
 ! D104  D(24,26,30,28)          0.2467         estimate D2E/DX2                !
 ! D105  D(24,26,30,31)        179.9927         estimate D2E/DX2                !
 ! D106  D(48,26,30,28)       -177.2382         estimate D2E/DX2                !
 ! D107  D(48,26,30,31)          2.5079         estimate D2E/DX2                !
 ! D108  D(24,26,48,49)         31.061          estimate D2E/DX2                !
 ! D109  D(24,26,48,50)        -88.63           estimate D2E/DX2                !
 ! D110  D(24,26,48,51)        151.6963         estimate D2E/DX2                !
 ! D111  D(30,26,48,49)       -151.4251         estimate D2E/DX2                !
 ! D112  D(30,26,48,50)         88.8839         estimate D2E/DX2                !
 ! D113  D(30,26,48,51)        -30.7897         estimate D2E/DX2                !
 ! D114  D(25,28,30,26)          0.0157         estimate D2E/DX2                !
 ! D115  D(25,28,30,31)       -179.7301         estimate D2E/DX2                !
 ! D116  D(52,28,30,26)       -177.5931         estimate D2E/DX2                !
 ! D117  D(52,28,30,31)          2.6611         estimate D2E/DX2                !
 ! D118  D(25,28,52,53)        -90.7691         estimate D2E/DX2                !
 ! D119  D(25,28,52,54)        149.8584         estimate D2E/DX2                !
 ! D120  D(25,28,52,55)         28.8088         estimate D2E/DX2                !
 ! D121  D(30,28,52,53)         86.8662         estimate D2E/DX2                !
 ! D122  D(30,28,52,54)        -32.5063         estimate D2E/DX2                !
 ! D123  D(30,28,52,55)       -153.5559         estimate D2E/DX2                !
 --------------------------------------------------------------------------------
 Trust Radius=3.00D-01 FncErr=1.00D-07 GrdErr=1.00D-06 EigMax=2.50D+02 EigMin=1.00D-04
 Number of steps in this run=    291 maximum allowed number of steps=    330.
 GradGradGradGradGradGradGradGradGradGradGradGradGradGradGradGradGradGrad

 Leave Link  103 at Sat Jun 15 10:13:58 2019, MaxMem=  6442450944 cpu:               2.2 elap:               0.1
 (Enter /home/ekwan/sw/g16/l202.exe)
 Stoichiometry    C18H22F6O8S
 Framework group  C1[X(C18H22F6O8S)]
 Deg. of freedom   159
 Full point group                 C1      NOp   1
 Largest Abelian subgroup         C1      NOp   1
 Largest concise Abelian subgroup C1      NOp   1
                         Standard orientation:                         
 ---------------------------------------------------------------------
 Center     Atomic      Atomic             Coordinates (Angstroms)
 Number     Number       Type             X           Y           Z
 ---------------------------------------------------------------------
      1          6           0        3.449452   -0.085072    0.726883
      2          6           0        3.350625   -0.385698   -0.762872
      3          6           0        1.889179   -0.400983   -1.215985
      4          6           0        1.213738    1.053054    0.527405
      5          6           0        2.639357    1.159382    1.055188
      6          1           0        1.792479   -0.516379   -2.294569
      7          1           0        3.829529    0.440854   -1.308411
      8          1           0        3.042212   -0.930864    1.296657
      9          1           0        0.695977    0.246210    1.061953
     10          1           0        3.118939    2.024674    0.582467
     11          8           0        1.213656    0.752567   -0.875134
     12          8           0        1.292063   -1.563213   -0.583380
     13          8           0        4.006888   -1.591814   -1.029721
     14          8           0        4.784244    0.161803    1.098976
     15          8           0        2.564753    1.335139    2.450467
     16          6           0        0.426920    2.332205    0.750680
     17          1           0        0.247253    2.414158    1.824046
     18          1           0       -0.541155    2.252386    0.240302
     19          8           0        1.093480    3.509582    0.372428
     20         16           0       -0.006137   -2.242074   -1.255645
     21          8           0       -0.071817   -3.561882   -0.664118
     22          8           0        0.069253   -2.059461   -2.695252
     23          6           0       -1.367545   -1.284359   -0.643143
     24          6           0       -1.957222   -1.645965    0.559451
     25          6           0       -1.817200   -0.205614   -1.390992
     26          6           0       -3.030839   -0.895118    1.020220
     27          1           0       -1.591425   -2.499229    1.116925
     28          6           0       -2.887983    0.532220   -0.906845
     29          1           0       -1.349154    0.044058   -2.334429
     30          6           0       -3.497302    0.193035    0.294863
     31          1           0       -4.335049    0.771727    0.662904
     32          6           0        4.386331   -1.763166   -2.380588
     33          1           0        3.520921   -1.893126   -3.039447
     34          1           0        4.979632   -0.911493   -2.733249
     35          1           0        4.993992   -2.666026   -2.423302
     36          6           0        5.452830   -0.952682    1.653357
     37          1           0        6.456161   -0.615895    1.916229
     38          1           0        4.947510   -1.303458    2.561306
     39          1           0        5.521446   -1.777666    0.940078
     40          6           0        3.303763    2.443490    2.922269
     41          1           0        3.163576    2.479766    4.003092
     42          1           0        4.368884    2.330513    2.699045
     43          1           0        2.936307    3.376150    2.479318
     44          6           0        1.045916    3.796088   -1.009685
     45          1           0        1.370307    4.830472   -1.129430
     46          1           0        0.024140    3.695002   -1.395280
     47          1           0        1.704261    3.143751   -1.590334
     48          6           0       -3.727847   -1.300399    2.287783
     49          9           0       -2.883472   -1.890285    3.142483
     50          9           0       -4.718469   -2.170048    2.043883
     51          9           0       -4.270688   -0.244535    2.906439
     52          6           0       -3.357765    1.740986   -1.663399
     53          9           0       -2.730525    2.853516   -1.241063
     54          9           0       -4.669295    1.945529   -1.498796
     55          9           0       -3.117012    1.626646   -2.973748
 ---------------------------------------------------------------------
 Rotational constants (GHZ):           0.1526481           0.0822887           0.0782914
 Leave Link  202 at Sat Jun 15 10:13:58 2019, MaxMem=  6442450944 cpu:               4.1 elap:               0.2
 (Enter /home/ekwan/sw/g16/l301.exe)
 Standard basis: 6-31G(d) (6D, 7F)
 Centers:      12     22     21
 SP 1 1.00
     Exponent=  8.4500000000D-02 Coefficients=  1.0000000000D+00  1.0000000000D+00
 ****
 Ernie: Thresh=  0.10000D-02 Tol=  0.10000D-05 Strict=F.
 There are   555 symmetry adapted cartesian basis functions of A   symmetry.
 There are   555 symmetry adapted basis functions of A   symmetry.
   555 basis functions,  1048 primitive gaussians,   555 cartesian basis functions
   132 alpha electrons      132 beta electrons
       nuclear repulsion energy      4320.0385670216 Hartrees.
 IExCor=  411 DFT=T Ex+Corr=B1B95 ExCW=0 ScaHFX=  0.280000
 ScaDFX=  0.720000  0.720000  1.000000  1.000000 ScalE2=  1.000000  1.000000
 IRadAn=      5 IRanWt=     -1 IRanGd=            0 ICorTp=0 IEmpDi=  4
 NAtoms=   55 NActive=   55 NUniq=   55 SFac= 1.00D+00 NAtFMM=   60 NAOKFM=F Big=F
 Integral buffers will be    131072 words long.
 Raffenetti 2 integral format.
 Two-electron integral symmetry is turned on.
 ------------------------------------------------------------------------------
 Polarizable Continuum Model (PCM)
 =================================
 Model                : PCM.
 Atomic radii         : UFF (Universal Force Field).
 Polarization charges : Total charges.
 Charge compensation  : None.
 Solution method      : On-the-fly selection.
 Cavity type          : Scaled VdW (van der Waals Surface) (Alpha=1.100).
 Cavity algorithm     : GePol (No added spheres)
                        Default sphere list used, NSphG=   55.
                        Lebedev-Laikov grids with approx.  5.0 points / Ang**2.
                        Smoothing algorithm: York/Karplus (Gamma=1.0000).
                        Polarization charges: spherical gaussians, with
                                              point-specific exponents (IZeta= 3).
                        Self-potential: point-specific (ISelfS= 7).
                        Self-field    : sphere-specific E.n sum rule (ISelfD= 2).
 1st derivatives      : Analytical E(r).r(x)/FMM algorithm (CHGder, D1EAlg=3).
                        Cavity 1st derivative terms included.
 Solvent              : TetraHydroFuran, Eps=   7.425700 Eps(inf)=   1.974025
 ------------------------------------------------------------------------------
 GePol: Number of generator spheres                  =      55
 GePol: Total number of spheres                      =      55
 GePol: Number of exposed spheres                    =      55 (100.00%)
 GePol: Number of points                             =    3938
 GePol: Average weight of points                     =       0.13
 GePol: Minimum weight of points                     =   0.12D-09
 GePol: Maximum weight of points                     =    0.20577
 GePol: Number of points with low weight             =     252
 GePol: Fraction of low-weight points (<1% of avg)   =       6.40%
 GePol: Cavity surface area                          =    499.559 Ang**2
 GePol: Cavity volume                                =    575.738 Ang**3
 Leave Link  301 at Sat Jun 15 10:13:58 2019, MaxMem=  6442450944 cpu:               7.1 elap:               0.3
 (Enter /home/ekwan/sw/g16/l302.exe)
 NPDir=0 NMtPBC=     1 NCelOv=     1 NCel=       1 NClECP=     1 NCelD=      1
         NCelK=      1 NCelE2=     1 NClLst=     1 CellRange=     0.0.
 One-electron integrals computed using PRISM.
 One-electron integral symmetry used in STVInt
 NBasis=   555 RedAO= T EigKep=  3.90D-04  NBF=   555
 NBsUse=   555 1.00D-06 EigRej= -1.00D+00 NBFU=   555
 Precomputing XC quadrature grid using
 IXCGrd= 4 IRadAn=           5 IRanWt=          -1 IRanGd=           0 AccXCQ= 0.00D+00.
 Generated NRdTot=       0 NPtTot=           0 NUsed=           0 NTot=          32
 NSgBfM=   544   543   543   544   544 MxSgAt=    55 MxSgA2=    55.
 Leave Link  302 at Sat Jun 15 10:14:06 2019, MaxMem=  6442450944 cpu:             221.5 elap:               7.5
 (Enter /home/ekwan/sw/g16/l303.exe)
 DipDrv:  MaxL=1.
 Leave Link  303 at Sat Jun 15 10:14:07 2019, MaxMem=  6442450944 cpu:               9.9 elap:               0.6
 (Enter /home/ekwan/sw/g16/l401.exe)
 ExpMin= 8.45D-02 ExpMax= 2.19D+04 ExpMxC= 3.30D+03 IAcc=3 IRadAn=         5 AccDes= 0.00D+00
 Harris functional with IExCor=  409 and IRadAn=       5 diagonalized for initial guess.
 HarFok:  IExCor=  409 AccDes= 0.00D+00 IRadAn=         5 IDoV= 1 UseB2=F ITyADJ=14
 ICtDFT=  3500011 ScaDFX=  1.000000  1.000000  1.000000  1.000000
 FoFCou: FMM=F IPFlag=           0 FMFlag=      100000 FMFlg1=           0
         NFxFlg=           0 DoJE=T BraDBF=F KetDBF=T FulRan=T
         wScrn=  0.000000 ICntrl=       500 IOpCl=  0 I1Cent=   200000004 NGrid=           0
         NMat0=    1 NMatS0=      1 NMatT0=    0 NMatD0=    1 NMtDS0=    0 NMtDT0=    0
 Petite list used in FoFCou.
 Harris En= -2297.48529659936    
 JPrj=0 DoOrth=F DoCkMO=F.
 Leave Link  401 at Sat Jun 15 10:14:13 2019, MaxMem=  6442450944 cpu:             191.2 elap:               6.1
 (Enter /home/ekwan/sw/g16/l502.exe)
 Integral symmetry usage will be decided dynamically.
 Closed shell SCF:
 Using DIIS extrapolation, IDIIS=  1040.
 NGot=  6442450944 LenX=  6441811192 LenY=  6441502612
 Requested convergence on RMS density matrix=1.00D-08 within 128 cycles.
 Requested convergence on MAX density matrix=1.00D-06.
 Requested convergence on             energy=1.00D-06.
 No special actions if energy rises.
 Fock matrices will be formed incrementally for  20 cycles.

 Cycle   1  Pass 1  IDiag  1:
 FoFJK:  IHMeth= 1 ICntrl=       0 DoSepK=F KAlg= 0 I1Cent=           0 FoldK=F
 IRaf= 700000000 NMat=       1 IRICut=       1 DoRegI=T DoRafI=F ISym2E= 0 IDoP0=0 IntGTp=1.
 FoFCou: FMM=F IPFlag=           0 FMFlag=      100000 FMFlg1=           0
         NFxFlg=           0 DoJE=F BraDBF=F KetDBF=F FulRan=T
         wScrn=  0.000000 ICntrl=         0 IOpCl=  0 I1Cent=           0 NGrid=           0
         NMat0=    1 NMatS0=      1 NMatT0=    0 NMatD0=    1 NMtDS0=    0 NMtDT0=    0
 Symmetry not used in FoFCou.
 Inv3:  Mode=1 IEnd=    46523532.
 Iteration    1 A*A^-1 deviation from unit magnitude is 6.66D-15 for   3937.
 Iteration    1 A*A^-1 deviation from orthogonality  is 3.95D-15 for   3932   2631.
 Iteration    1 A^-1*A deviation from unit magnitude is 6.66D-15 for   3937.
 Iteration    1 A^-1*A deviation from orthogonality  is 4.53D-15 for   3923   2555.
 E= -2296.86205682083    
 DIIS: error= 2.08D-02 at cycle   1 NSaved=   1.
 NSaved= 1 IEnMin= 1 EnMin= -2296.86205682083     IErMin= 1 ErrMin= 2.08D-02
 ErrMax= 2.08D-02  0.00D+00 EMaxC= 1.00D-01 BMatC= 8.11D-01 BMatP= 8.11D-01
 IDIUse=3 WtCom= 7.92D-01 WtEn= 2.08D-01
 Coeff-Com:  0.100D+01
 Coeff-En:   0.100D+01
 Coeff:      0.100D+01
 Gap=     0.187 Goal=   None    Shift=    0.000
 GapD=    0.187 DampG=1.000 DampE=0.500 DampFc=0.5000 IDamp=-1.
 Damping current iteration by 5.00D-01
 RMSDP=3.73D-03 MaxDP=4.76D-01              OVMax= 1.76D-01

 Cycle   2  Pass 1  IDiag  1:
 RMSU=  1.86D-03    CP:  9.97D-01
 E= -2297.08201358236     Delta-E=       -0.219956761523 Rises=F Damp=T
 DIIS: error= 7.16D-03 at cycle   2 NSaved=   2.
 NSaved= 2 IEnMin= 2 EnMin= -2297.08201358236     IErMin= 2 ErrMin= 7.16D-03
 ErrMax= 7.16D-03  0.00D+00 EMaxC= 1.00D-01 BMatC= 9.15D-02 BMatP= 8.11D-01
 IDIUse=3 WtCom= 9.28D-01 WtEn= 7.16D-02
 Coeff-Com:  0.144D+00 0.856D+00
 Coeff-En:   0.262D+00 0.738D+00
 Coeff:      0.152D+00 0.848D+00
 Gap=     0.227 Goal=   None    Shift=    0.000
 RMSDP=1.15D-03 MaxDP=1.18D-01 DE=-2.20D-01 OVMax= 1.36D-01

 Cycle   3  Pass 1  IDiag  1:
 RMSU=  9.65D-04    CP:  9.90D-01  6.75D-01
 E= -2297.44593579136     Delta-E=       -0.363922209004 Rises=F Damp=F
 DIIS: error= 6.91D-03 at cycle   3 NSaved=   3.
 NSaved= 3 IEnMin= 3 EnMin= -2297.44593579136     IErMin= 3 ErrMin= 6.91D-03
 ErrMax= 6.91D-03  0.00D+00 EMaxC= 1.00D-01 BMatC= 5.82D-02 BMatP= 9.15D-02
 IDIUse=3 WtCom= 9.31D-01 WtEn= 6.91D-02
 Coeff-Com:  0.590D-04 0.433D+00 0.567D+00
 Coeff-En:   0.000D+00 0.000D+00 0.100D+01
 Coeff:      0.549D-04 0.403D+00 0.597D+00
 Gap=     0.195 Goal=   None    Shift=    0.000
 RMSDP=6.78D-04 MaxDP=4.06D-02 DE=-3.64D-01 OVMax= 5.78D-02

 Cycle   4  Pass 1  IDiag  1:
 RMSU=  4.08D-04    CP:  9.93D-01  8.29D-01  5.27D-01
 E= -2297.48227605229     Delta-E=       -0.036340260934 Rises=F Damp=F
 DIIS: error= 3.14D-03 at cycle   4 NSaved=   4.
 NSaved= 4 IEnMin= 4 EnMin= -2297.48227605229     IErMin= 4 ErrMin= 3.14D-03
 ErrMax= 3.14D-03  0.00D+00 EMaxC= 1.00D-01 BMatC= 1.42D-02 BMatP= 5.82D-02
 IDIUse=3 WtCom= 9.69D-01 WtEn= 3.14D-02
 Coeff-Com: -0.211D-01 0.998D-01 0.355D+00 0.566D+00
 Coeff-En:   0.000D+00 0.000D+00 0.211D+00 0.789D+00
 Coeff:     -0.204D-01 0.966D-01 0.351D+00 0.573D+00
 Gap=     0.196 Goal=   None    Shift=    0.000
 RMSDP=2.51D-04 MaxDP=1.58D-02 DE=-3.63D-02 OVMax= 2.20D-02

 Cycle   5  Pass 1  IDiag  1:
 RMSU=  9.43D-05    CP:  9.92D-01  7.96D-01  6.71D-01  5.70D-01
 E= -2297.49324579798     Delta-E=       -0.010969745690 Rises=F Damp=F
 DIIS: error= 7.70D-04 at cycle   5 NSaved=   5.
 NSaved= 5 IEnMin= 5 EnMin= -2297.49324579798     IErMin= 5 ErrMin= 7.70D-04
 ErrMax= 7.70D-04  0.00D+00 EMaxC= 1.00D-01 BMatC= 7.83D-04 BMatP= 1.42D-02
 IDIUse=3 WtCom= 9.92D-01 WtEn= 7.70D-03
 Coeff-Com: -0.984D-02 0.258D-01 0.141D+00 0.296D+00 0.547D+00
 Coeff-En:   0.000D+00 0.000D+00 0.000D+00 0.000D+00 0.100D+01
 Coeff:     -0.976D-02 0.256D-01 0.140D+00 0.294D+00 0.550D+00
 Gap=     0.196 Goal=   None    Shift=    0.000
 RMSDP=5.38D-05 MaxDP=4.09D-03 DE=-1.10D-02 OVMax= 5.83D-03

 Cycle   6  Pass 1  IDiag  1:
 RMSU=  3.06D-05    CP:  9.92D-01  8.01D-01  6.74D-01  6.20D-01  5.98D-01
 E= -2297.49387222331     Delta-E=       -0.000626425326 Rises=F Damp=F
 DIIS: error= 1.48D-04 at cycle   6 NSaved=   6.
 NSaved= 6 IEnMin= 6 EnMin= -2297.49387222331     IErMin= 6 ErrMin= 1.48D-04
 ErrMax= 1.48D-04  0.00D+00 EMaxC= 1.00D-01 BMatC= 4.54D-05 BMatP= 7.83D-04
 IDIUse=3 WtCom= 9.99D-01 WtEn= 1.48D-03
 Coeff-Com: -0.316D-02 0.509D-02 0.384D-01 0.940D-01 0.263D+00 0.603D+00
 Coeff-En:   0.000D+00 0.000D+00 0.000D+00 0.000D+00 0.000D+00 0.100D+01
 Coeff:     -0.316D-02 0.509D-02 0.383D-01 0.938D-01 0.262D+00 0.604D+00
 Gap=     0.196 Goal=   None    Shift=    0.000
 RMSDP=1.41D-05 MaxDP=8.84D-04 DE=-6.26D-04 OVMax= 1.40D-03

 Cycle   7  Pass 1  IDiag  1:
 RMSU=  7.50D-06    CP:  9.92D-01  8.00D-01  6.75D-01  6.25D-01  6.45D-01
                    CP:  6.53D-01
 E= -2297.49390901986     Delta-E=       -0.000036796545 Rises=F Damp=F
 DIIS: error= 3.27D-05 at cycle   7 NSaved=   7.
 NSaved= 7 IEnMin= 7 EnMin= -2297.49390901986     IErMin= 7 ErrMin= 3.27D-05
 ErrMax= 3.27D-05  0.00D+00 EMaxC= 1.00D-01 BMatC= 2.43D-06 BMatP= 4.54D-05
 IDIUse=1 WtCom= 1.00D+00 WtEn= 0.00D+00
 Coeff-Com: -0.913D-03 0.700D-03 0.854D-02 0.247D-01 0.872D-01 0.271D+00
 Coeff-Com:  0.609D+00
 Coeff:     -0.913D-03 0.700D-03 0.854D-02 0.247D-01 0.872D-01 0.271D+00
 Coeff:      0.609D+00
 Gap=     0.196 Goal=   None    Shift=    0.000
 RMSDP=3.65D-06 MaxDP=2.40D-04 DE=-3.68D-05 OVMax= 4.03D-04

 Cycle   8  Pass 1  IDiag  1:
 RMSU=  2.49D-06    CP:  9.92D-01  8.00D-01  6.74D-01  6.25D-01  6.49D-01
                    CP:  7.05D-01  7.25D-01
 E= -2297.49391090126     Delta-E=       -0.000001881409 Rises=F Damp=F
 DIIS: error= 1.11D-05 at cycle   8 NSaved=   8.
 NSaved= 8 IEnMin= 8 EnMin= -2297.49391090126     IErMin= 8 ErrMin= 1.11D-05
 ErrMax= 1.11D-05  0.00D+00 EMaxC= 1.00D-01 BMatC= 3.08D-07 BMatP= 2.43D-06
 IDIUse=1 WtCom= 1.00D+00 WtEn= 0.00D+00
 Coeff-Com: -0.642D-04-0.212D-03-0.747D-03 0.343D-04 0.101D-01 0.575D-01
 Coeff-Com:  0.294D+00 0.639D+00
 Coeff:     -0.642D-04-0.212D-03-0.747D-03 0.343D-04 0.101D-01 0.575D-01
 Coeff:      0.294D+00 0.639D+00
 Gap=     0.196 Goal=   None    Shift=    0.000
 RMSDP=1.25D-06 MaxDP=7.66D-05 DE=-1.88D-06 OVMax= 9.47D-05

 Cycle   9  Pass 1  IDiag  1:
 RMSU=  9.09D-07    CP:  9.92D-01  8.00D-01  6.74D-01  6.25D-01  6.52D-01
                    CP:  7.10D-01  7.84D-01  7.37D-01
 E= -2297.49391110249     Delta-E=       -0.000000201222 Rises=F Damp=F
 DIIS: error= 6.42D-06 at cycle   9 NSaved=   9.
 NSaved= 9 IEnMin= 9 EnMin= -2297.49391110249     IErMin= 9 ErrMin= 6.42D-06
 ErrMax= 6.42D-06  0.00D+00 EMaxC= 1.00D-01 BMatC= 5.56D-08 BMatP= 3.08D-07
 IDIUse=1 WtCom= 1.00D+00 WtEn= 0.00D+00
 Coeff-Com:  0.447D-04-0.144D-03-0.119D-02-0.235D-02-0.286D-02 0.562D-02
 Coeff-Com:  0.104D+00 0.365D+00 0.532D+00
 Coeff:      0.447D-04-0.144D-03-0.119D-02-0.235D-02-0.286D-02 0.562D-02
 Coeff:      0.104D+00 0.365D+00 0.532D+00
 Gap=     0.196 Goal=   None    Shift=    0.000
 RMSDP=5.29D-07 MaxDP=4.07D-05 DE=-2.01D-07 OVMax= 5.11D-05

 Cycle  10  Pass 1  IDiag  1:
 RMSU=  2.97D-07    CP:  9.92D-01  8.00D-01  6.75D-01  6.25D-01  6.52D-01
                    CP:  7.09D-01  7.98D-01  8.07D-01  5.93D-01
 E= -2297.49391114487     Delta-E=       -0.000000042380 Rises=F Damp=F
 DIIS: error= 1.90D-06 at cycle  10 NSaved=  10.
 NSaved=10 IEnMin=10 EnMin= -2297.49391114487     IErMin=10 ErrMin= 1.90D-06
 ErrMax= 1.90D-06  0.00D+00 EMaxC= 1.00D-01 BMatC= 4.56D-09 BMatP= 5.56D-08
 IDIUse=1 WtCom= 1.00D+00 WtEn= 0.00D+00
 Coeff-Com:  0.272D-04-0.513D-04-0.550D-03-0.122D-02-0.251D-02-0.244D-02
 Coeff-Com:  0.254D-01 0.127D+00 0.283D+00 0.571D+00
 Coeff:      0.272D-04-0.513D-04-0.550D-03-0.122D-02-0.251D-02-0.244D-02
 Coeff:      0.254D-01 0.127D+00 0.283D+00 0.571D+00
 Gap=     0.196 Goal=   None    Shift=    0.000
 RMSDP=1.53D-07 MaxDP=1.16D-05 DE=-4.24D-08 OVMax= 2.22D-05

 Cycle  11  Pass 1  IDiag  1:
 RMSU=  1.03D-07    CP:  9.92D-01  8.00D-01  6.75D-01  6.25D-01  6.52D-01
                    CP:  7.10D-01  8.01D-01  8.12D-01  6.72D-01  7.44D-01
 E= -2297.49391114842     Delta-E=       -0.000000003554 Rises=F Damp=F
 DIIS: error= 4.94D-07 at cycle  11 NSaved=  11.
 NSaved=11 IEnMin=11 EnMin= -2297.49391114842     IErMin=11 ErrMin= 4.94D-07
 ErrMax= 4.94D-07  0.00D+00 EMaxC= 1.00D-01 BMatC= 5.62D-10 BMatP= 4.56D-09
 IDIUse=1 WtCom= 1.00D+00 WtEn= 0.00D+00
 Coeff-Com:  0.971D-05-0.112D-04-0.151D-03-0.365D-03-0.109D-02-0.230D-02
 Coeff-Com: -0.147D-02 0.158D-01 0.804D-01 0.310D+00 0.599D+00
 Coeff:      0.971D-05-0.112D-04-0.151D-03-0.365D-03-0.109D-02-0.230D-02
 Coeff:     -0.147D-02 0.158D-01 0.804D-01 0.310D+00 0.599D+00
 Gap=     0.196 Goal=   None    Shift=    0.000
 RMSDP=5.30D-08 MaxDP=4.63D-06 DE=-3.55D-09 OVMax= 4.27D-06

 Cycle  12  Pass 1  IDiag  1:
 RMSU=  3.05D-08    CP:  9.92D-01  8.00D-01  6.75D-01  6.25D-01  6.52D-01
                    CP:  7.11D-01  8.01D-01  8.18D-01  6.83D-01  8.07D-01
                    CP:  6.95D-01
 E= -2297.49391114887     Delta-E=       -0.000000000447 Rises=F Damp=F
 DIIS: error= 1.26D-07 at cycle  12 NSaved=  12.
 NSaved=12 IEnMin=12 EnMin= -2297.49391114887     IErMin=12 ErrMin= 1.26D-07
 ErrMax= 1.26D-07  0.00D+00 EMaxC= 1.00D-01 BMatC= 3.36D-11 BMatP= 5.62D-10
 IDIUse=1 WtCom= 1.00D+00 WtEn= 0.00D+00
 Coeff-Com:  0.137D-05 0.303D-06-0.477D-05-0.217D-04-0.204D-03-0.700D-03
 Coeff-Com: -0.321D-02-0.752D-02 0.263D-02 0.673D-01 0.246D+00 0.696D+00
 Coeff:      0.137D-05 0.303D-06-0.477D-05-0.217D-04-0.204D-03-0.700D-03
 Coeff:     -0.321D-02-0.752D-02 0.263D-02 0.673D-01 0.246D+00 0.696D+00
 Gap=     0.196 Goal=   None    Shift=    0.000
 RMSDP=1.57D-08 MaxDP=7.21D-07 DE=-4.47D-10 OVMax= 2.30D-06

 Cycle  13  Pass 1  IDiag  1:
 RMSU=  1.16D-08    CP:  9.92D-01  8.00D-01  6.75D-01  6.25D-01  6.52D-01
                    CP:  7.11D-01  8.02D-01  8.19D-01  6.85D-01  8.17D-01
                    CP:  7.51D-01  7.86D-01
 E= -2297.49391114884     Delta-E=        0.000000000024 Rises=F Damp=F
 DIIS: error= 6.93D-08 at cycle  13 NSaved=  13.
 NSaved=13 IEnMin=12 EnMin= -2297.49391114887     IErMin=13 ErrMin= 6.93D-08
 ErrMax= 6.93D-08  0.00D+00 EMaxC= 1.00D-01 BMatC= 7.45D-12 BMatP= 3.36D-11
 IDIUse=1 WtCom= 1.00D+00 WtEn= 0.00D+00
 Coeff-Com: -0.748D-07 0.104D-05 0.118D-04 0.231D-04-0.568D-05-0.128D-03
 Coeff-Com: -0.135D-02-0.528D-02-0.608D-02 0.496D-02 0.655D-01 0.374D+00
 Coeff-Com:  0.568D+00
 Coeff:     -0.748D-07 0.104D-05 0.118D-04 0.231D-04-0.568D-05-0.128D-03
 Coeff:     -0.135D-02-0.528D-02-0.608D-02 0.496D-02 0.655D-01 0.374D+00
 Coeff:      0.568D+00
 Gap=     0.196 Goal=   None    Shift=    0.000
 RMSDP=6.40D-09 MaxDP=3.85D-07 DE= 2.36D-11 OVMax= 1.34D-06

 Error on total polarization charges =  0.00984
 SCF Done:  E(RB1B95) =  -2297.49391115     A.U. after   13 cycles
            NFock= 13  Conv=0.64D-08     -V/T= 2.0067
 KE= 2.282285268250D+03 PE=-1.404788113705D+04 EE= 5.148063390634D+03
 Leave Link  502 at Sat Jun 15 10:20:40 2019, MaxMem=  6442450944 cpu:           11707.9 elap:             386.7
 (Enter /home/ekwan/sw/g16/l701.exe)
 ... and contract with generalized density number  0.
 Compute integral first derivatives.
 D1PCM: PCM CHGder 1st derivatives, ID1Alg=3 FixD1E=F DoIter=F DoCFld=F I1PDM=0.
 GePol: Maximum number of non-zero 1st derivatives   =     227
 Leave Link  701 at Sat Jun 15 10:20:51 2019, MaxMem=  6442450944 cpu:             324.2 elap:              11.3
 (Enter /home/ekwan/sw/g16/l702.exe)
 L702 exits ... SP integral derivatives will be done elsewhere.
 Leave Link  702 at Sat Jun 15 10:20:51 2019, MaxMem=  6442450944 cpu:               2.6 elap:               0.1
 (Enter /home/ekwan/sw/g16/l703.exe)
 Integral derivatives from FoFJK, PRISM(SPDF).
 Compute integral first derivatives, UseDBF=F ICtDFT=           0.
 Calling FoFJK, ICntrl=      2127 FMM=F ISym2X=0 I1Cent= 0 IOpClX= 0 NMat=1 NMatS=1 NMatT=0.
 FoFJK:  IHMeth= 1 ICntrl=    2127 DoSepK=F KAlg= 0 I1Cent=           0 FoldK=F
 IRaf=         0 NMat=       1 IRICut=       1 DoRegI=T DoRafI=F ISym2E= 0 IDoP0=0 IntGTp=1.
 FoFCou: FMM=F IPFlag=           0 FMFlag=      100000 FMFlg1=         800
         NFxFlg=           0 DoJE=F BraDBF=F KetDBF=F FulRan=T
         wScrn=  0.000000 ICntrl=      2127 IOpCl=  0 I1Cent=           0 NGrid=           0
         NMat0=    1 NMatS0=      1 NMatT0=    0 NMatD0=    1 NMtDS0=    0 NMtDT0=    0
 Symmetry not used in FoFCou.
 Leave Link  703 at Sat Jun 15 10:21:37 2019, MaxMem=  6442450944 cpu:            1379.1 elap:              45.8
 (Enter /home/ekwan/sw/g16/l716.exe)
 Dipole        = 4.12030029D-01 1.46459614D+00-1.70772448D-01
 ***** Axes restored to original set *****
 -------------------------------------------------------------------
 Center     Atomic                   Forces (Hartrees/Bohr)
 Number     Number              X              Y              Z
 -------------------------------------------------------------------
      1        6          -0.000007795   -0.000006710   -0.000009922
      2        6          -0.000006567    0.000008884    0.000011991
      3        6           0.000003561    0.000023259   -0.000006300
      4        6           0.000004683   -0.000001059    0.000013133
      5        6          -0.000000237   -0.000006298   -0.000007883
      6        1           0.000000785   -0.000004215    0.000001774
      7        1           0.000003674   -0.000007994    0.000002541
      8        1          -0.000002222   -0.000002626    0.000004459
      9        1           0.000001117    0.000001118   -0.000001883
     10        1           0.000003234   -0.000004283    0.000003331
     11        8           0.000006493   -0.000017836   -0.000011200
     12        8          -0.000026165   -0.000014292    0.000002950
     13        8           0.000002366   -0.000016331   -0.000000011
     14        8           0.000003603   -0.000004390    0.000008460
     15        8          -0.000000179   -0.000000227    0.000005217
     16        6           0.000001700   -0.000000356    0.000001852
     17        1          -0.000000060    0.000003303   -0.000003530
     18        1           0.000005600    0.000001987   -0.000002920
     19        8           0.000000048    0.000008699   -0.000007320
     20       16           0.000012266    0.000008385    0.000007793
     21        8          -0.000004169    0.000000041   -0.000001100
     22        8          -0.000002031   -0.000001945   -0.000002226
     23        6          -0.000000258   -0.000001842    0.000004288
     24        6          -0.000006315    0.000004031   -0.000003667
     25        6          -0.000001864    0.000008028   -0.000003242
     26        6          -0.000004894    0.000008866   -0.000003598
     27        1          -0.000005171    0.000004504   -0.000000994
     28        6           0.000004852    0.000006757   -0.000004699
     29        1           0.000000553    0.000002264   -0.000002157
     30        6           0.000001071    0.000007146   -0.000001085
     31        1          -0.000000136    0.000008651   -0.000005061
     32        6          -0.000003352   -0.000006385    0.000008166
     33        1          -0.000001048   -0.000006637    0.000003157
     34        1           0.000001038   -0.000007419    0.000003633
     35        1          -0.000002104   -0.000007958    0.000005301
     36        6          -0.000003648   -0.000004721    0.000004479
     37        1          -0.000003200   -0.000008349    0.000006100
     38        1          -0.000005072   -0.000006042    0.000004758
     39        1          -0.000003982   -0.000007933    0.000005546
     40        6          -0.000000231   -0.000003884    0.000000978
     41        1          -0.000000761   -0.000000822    0.000001529
     42        1           0.000001250   -0.000004449    0.000003008
     43        1           0.000005081   -0.000002577    0.000001684
     44        6           0.000007521   -0.000002090    0.000006113
     45        1           0.000009613   -0.000002750   -0.000002331
     46        1           0.000004287    0.000001097   -0.000003025
     47        1           0.000006779   -0.000005140   -0.000002597
     48        6          -0.000002889    0.000011058   -0.000003644
     49        9          -0.000006254    0.000009041   -0.000002195
     50        9          -0.000006427    0.000007410   -0.000004351
     51        9          -0.000003561    0.000008276   -0.000005060
     52        6           0.000005202    0.000006673   -0.000003696
     53        9           0.000005407    0.000004555   -0.000005247
     54        9           0.000003021    0.000008707   -0.000005705
     55        9           0.000005788    0.000004821   -0.000005591
 -------------------------------------------------------------------
 Cartesian Forces:  Max     0.000026165 RMS     0.000006227
 Leave Link  716 at Sat Jun 15 10:21:37 2019, MaxMem=  6442450944 cpu:               2.7 elap:               0.1
 (Enter /home/ekwan/sw/g16/l103.exe)

 GradGradGradGradGradGradGradGradGradGradGradGradGradGradGradGradGradGrad
 Berny optimization.
 FormGI is forming the generalized inverse of G from B-inverse, IUseBI=4.
 GSVD:  received Info=                   1 from GESDD.
 Internal  Forces:  Max     0.000017577 RMS     0.000002917
 Search for a local minimum.
 Step number   1 out of a maximum of  291
 All quantities printed in internal units (Hartrees-Bohrs-Radians)
 RMS Force = .29167D-05 SwitMx=.10000D-02 MixMth= 2
 Mixed Optimization -- En-DIIS/RFO-DIIS
 Second derivative matrix not updated -- first step.
 ITU=  0
     Eigenvalues ---    0.00524   0.00673   0.00719   0.00735   0.00736
     Eigenvalues ---    0.00748   0.01008   0.01475   0.01512   0.01517
     Eigenvalues ---    0.01521   0.01529   0.01582   0.01593   0.01613
     Eigenvalues ---    0.01628   0.01673   0.01681   0.01708   0.02235
     Eigenvalues ---    0.02238   0.02244   0.02247   0.02254   0.02254
     Eigenvalues ---    0.02462   0.02973   0.03401   0.04513   0.04667
     Eigenvalues ---    0.04728   0.04905   0.04975   0.05286   0.05334
     Eigenvalues ---    0.05861   0.06104   0.06580   0.07014   0.07106
     Eigenvalues ---    0.07272   0.07832   0.09318   0.10045   0.10067
     Eigenvalues ---    0.10097   0.10159   0.10581   0.10596   0.10618
     Eigenvalues ---    0.10619   0.10644   0.10812   0.10879   0.10954
     Eigenvalues ---    0.10985   0.10988   0.11474   0.11837   0.11869
     Eigenvalues ---    0.14148   0.14853   0.15999   0.15999   0.16000
     Eigenvalues ---    0.16000   0.16000   0.16000   0.16000   0.16000
     Eigenvalues ---    0.16000   0.16000   0.16000   0.16000   0.16000
     Eigenvalues ---    0.16000   0.16000   0.16410   0.16984   0.17442
     Eigenvalues ---    0.18663   0.19616   0.19807   0.20899   0.22146
     Eigenvalues ---    0.23484   0.23488   0.23503   0.24975   0.24979
     Eigenvalues ---    0.24998   0.25000   0.25000   0.25000   0.25000
     Eigenvalues ---    0.25000   0.25000   0.25000   0.25000   0.25000
     Eigenvalues ---    0.25000   0.25000   0.25000   0.27645   0.28308
     Eigenvalues ---    0.29195   0.29476   0.29746   0.30533   0.32141
     Eigenvalues ---    0.32231   0.33675   0.33892   0.33944   0.33985
     Eigenvalues ---    0.34041   0.34049   0.34078   0.34102   0.34135
     Eigenvalues ---    0.34195   0.34342   0.34392   0.34498   0.34654
     Eigenvalues ---    0.34738   0.34754   0.34757   0.34912   0.34924
     Eigenvalues ---    0.35648   0.35675   0.35712   0.38019   0.38933
     Eigenvalues ---    0.43262   0.43395   0.43444   0.43499   0.43540
     Eigenvalues ---    0.43642   0.44275   0.44399   0.44827   0.45822
     Eigenvalues ---    0.47145   0.47499   0.47630   0.47666   0.47763
     Eigenvalues ---    0.48990   0.56059   0.57079   0.57485   0.57554
     Eigenvalues ---    0.57757   0.57842   0.94568   0.96931
 RFO step:  Lambda=-2.52137130D-08 EMin= 5.24193003D-03
 Linear search not attempted -- first point.
 Iteration  1 RMS(Cart)=  0.00078832 RMS(Int)=  0.00000005
 Iteration  2 RMS(Cart)=  0.00000016 RMS(Int)=  0.00000000
 ITry= 1 IFail=0 DXMaxC= 2.96D-03 DCOld= 1.00D+10 DXMaxT= 3.00D-01 DXLimC= 3.00D+00 Rises=F
 Variable       Old X    -DE/DX   Delta X   Delta X   Delta X     New X
                                 (Linear)    (Quad)   (Total)
    R1        2.87804   0.00000   0.00000  -0.00001  -0.00001   2.87803
    R2        2.87382   0.00000   0.00000   0.00000   0.00000   2.87381
    R3        2.07513   0.00000   0.00000   0.00000   0.00000   2.07513
    R4        2.65980   0.00001   0.00000   0.00001   0.00001   2.65981
    R5        2.89157   0.00000   0.00000   0.00000   0.00000   2.89157
    R6        2.07883   0.00000   0.00000   0.00000   0.00000   2.07883
    R7        2.64332   0.00001   0.00000   0.00002   0.00002   2.64335
    R8        2.05799   0.00000   0.00000   0.00000   0.00000   2.05799
    R9        2.60699  -0.00002   0.00000  -0.00004  -0.00004   2.60696
   R10        2.74337   0.00001   0.00000   0.00003   0.00003   2.74340
   R11        2.87974   0.00000   0.00000  -0.00001  -0.00001   2.87973
   R12        2.07424   0.00000   0.00000  -0.00001  -0.00001   2.07423
   R13        2.71056   0.00001   0.00000   0.00002   0.00002   2.71058
   R14        2.86913   0.00001   0.00000   0.00002   0.00002   2.86915
   R15        2.07198   0.00000   0.00000   0.00000   0.00000   2.07198
   R16        2.66127   0.00001   0.00000   0.00001   0.00001   2.66128
   R17        3.04599  -0.00002   0.00000  -0.00004  -0.00004   3.04595
   R18        2.67126   0.00000   0.00000  -0.00001  -0.00001   2.67125
   R19        2.67008   0.00000   0.00000   0.00000   0.00000   2.67008
   R20        2.67059   0.00000   0.00000   0.00000   0.00000   2.67059
   R21        2.06241   0.00000   0.00000   0.00000   0.00000   2.06241
   R22        2.07356   0.00000   0.00000  -0.00001  -0.00001   2.07356
   R23        2.65477   0.00000   0.00000   0.00000   0.00000   2.65478
   R24        2.66886  -0.00001   0.00000  -0.00001  -0.00001   2.66884
   R25        2.73594   0.00000   0.00000   0.00000   0.00000   2.73594
   R26        2.74596   0.00000   0.00000   0.00000   0.00000   2.74596
   R27        3.35170   0.00000   0.00000   0.00000   0.00000   3.35170
   R28        2.62169   0.00000   0.00000   0.00000   0.00000   2.62169
   R29        2.62200   0.00000   0.00000   0.00001   0.00001   2.62201
   R30        2.62443   0.00000   0.00000   0.00000   0.00000   2.62443
   R31        2.04636   0.00000   0.00000   0.00000   0.00000   2.04636
   R32        2.62214   0.00000   0.00000   0.00000   0.00000   2.62214
   R33        2.04534   0.00000   0.00000   0.00000   0.00000   2.04534
   R34        2.62380   0.00000   0.00000   0.00000   0.00000   2.62380
   R35        2.83886   0.00000   0.00000   0.00000   0.00000   2.83886
   R36        2.62558   0.00000   0.00000   0.00000   0.00000   2.62558
   R37        2.83722   0.00000   0.00000   0.00000   0.00000   2.83722
   R38        2.04594   0.00000   0.00000   0.00000   0.00000   2.04594
   R39        2.07002   0.00000   0.00000   0.00000   0.00000   2.07002
   R40        2.07158   0.00000   0.00000   0.00000   0.00000   2.07158
   R41        2.05818   0.00000   0.00000   0.00000   0.00000   2.05818
   R42        2.06076   0.00000   0.00000   0.00000   0.00000   2.06076
   R43        2.07247   0.00000   0.00000   0.00000   0.00000   2.07247
   R44        2.06497   0.00000   0.00000   0.00000   0.00000   2.06497
   R45        2.06071   0.00000   0.00000   0.00000   0.00000   2.06071
   R46        2.06757   0.00000   0.00000   0.00000   0.00000   2.06757
   R47        2.07103   0.00000   0.00000   0.00000   0.00000   2.07102
   R48        2.06103   0.00000   0.00000   0.00000   0.00000   2.06103
   R49        2.07262   0.00000   0.00000   0.00001   0.00001   2.07262
   R50        2.06674   0.00000   0.00000   0.00001   0.00001   2.06675
   R51        2.52930   0.00000   0.00000   0.00000   0.00000   2.52930
   R52        2.53330   0.00000   0.00000   0.00000   0.00000   2.53330
   R53        2.52988   0.00000   0.00000   0.00000   0.00000   2.52987
   R54        2.54203   0.00000   0.00000   0.00000   0.00000   2.54203
   R55        2.52761   0.00000   0.00000   0.00000   0.00000   2.52761
   R56        2.52690   0.00000   0.00000   0.00000   0.00000   2.52691
    A1        1.91573   0.00000   0.00000   0.00002   0.00002   1.91575
    A2        1.90863   0.00000   0.00000   0.00000   0.00000   1.90863
    A3        1.93345   0.00000   0.00000   0.00002   0.00002   1.93347
    A4        1.89728   0.00000   0.00000  -0.00001  -0.00001   1.89727
    A5        1.88028   0.00000   0.00000  -0.00002  -0.00002   1.88026
    A6        1.92796   0.00000   0.00000  -0.00002  -0.00002   1.92795
    A7        1.93222   0.00000   0.00000   0.00001   0.00001   1.93224
    A8        1.88444   0.00000   0.00000   0.00001   0.00001   1.88445
    A9        1.90325   0.00000   0.00000  -0.00001  -0.00001   1.90325
   A10        1.85089   0.00000   0.00000   0.00002   0.00002   1.85091
   A11        1.96383   0.00000   0.00000  -0.00002  -0.00002   1.96381
   A12        1.92732   0.00000   0.00000  -0.00001  -0.00001   1.92731
   A13        1.95967   0.00000   0.00000   0.00002   0.00002   1.95968
   A14        1.96726   0.00000   0.00000   0.00002   0.00002   1.96729
   A15        1.84606   0.00000   0.00000   0.00000   0.00000   1.84606
   A16        1.86484   0.00000   0.00000   0.00000   0.00000   1.86484
   A17        1.88622   0.00000   0.00000  -0.00001  -0.00001   1.88621
   A18        1.93945   0.00000   0.00000  -0.00003  -0.00003   1.93942
   A19        1.90065   0.00000   0.00000  -0.00003  -0.00003   1.90062
   A20        1.93192   0.00000   0.00000  -0.00001  -0.00001   1.93191
   A21        1.95530   0.00001   0.00000   0.00007   0.00007   1.95537
   A22        1.89882   0.00000   0.00000   0.00000   0.00000   1.89882
   A23        1.87888   0.00000   0.00000   0.00000   0.00000   1.87888
   A24        1.89680  -0.00001   0.00000  -0.00004  -0.00004   1.89677
   A25        1.94601   0.00000   0.00000  -0.00002  -0.00002   1.94600
   A26        1.89623   0.00000   0.00000   0.00000   0.00000   1.89624
   A27        1.92222   0.00000   0.00000  -0.00002  -0.00002   1.92220
   A28        1.89118   0.00000   0.00000   0.00004   0.00004   1.89122
   A29        1.87789   0.00000   0.00000  -0.00001  -0.00001   1.87788
   A30        1.93033   0.00000   0.00000   0.00000   0.00000   1.93033
   A31        2.00064   0.00000   0.00000   0.00001   0.00001   2.00066
   A32        2.07911   0.00000   0.00000  -0.00001  -0.00001   2.07910
   A33        1.99629   0.00000   0.00000  -0.00001  -0.00001   1.99628
   A34        1.99777   0.00000   0.00000   0.00001   0.00001   1.99777
   A35        1.98334   0.00001   0.00000   0.00003   0.00003   1.98337
   A36        1.86838   0.00000   0.00000   0.00005   0.00005   1.86843
   A37        1.90448   0.00000   0.00000  -0.00004  -0.00004   1.90443
   A38        2.00491   0.00000   0.00000   0.00002   0.00002   2.00492
   A39        1.89407   0.00000   0.00000   0.00000   0.00000   1.89407
   A40        1.85457   0.00000   0.00000   0.00004   0.00004   1.85461
   A41        1.93300   0.00000   0.00000  -0.00005  -0.00005   1.93294
   A42        2.00152  -0.00001   0.00000  -0.00005  -0.00005   2.00148
   A43        1.82355   0.00000   0.00000   0.00001   0.00001   1.82356
   A44        1.89493   0.00000   0.00000   0.00002   0.00002   1.89494
   A45        1.82013  -0.00001   0.00000  -0.00006  -0.00006   1.82007
   A46        2.11963   0.00000   0.00000  -0.00001  -0.00001   2.11962
   A47        1.89264   0.00000   0.00000   0.00001   0.00001   1.89266
   A48        1.89030   0.00000   0.00000   0.00002   0.00002   1.89032
   A49        2.07700   0.00000   0.00000   0.00001   0.00001   2.07700
   A50        2.07423   0.00000   0.00000   0.00000   0.00000   2.07423
   A51        2.13189   0.00000   0.00000  -0.00001  -0.00001   2.13189
   A52        2.06606   0.00000   0.00000   0.00000   0.00000   2.06606
   A53        2.10371   0.00000   0.00000   0.00000   0.00000   2.10371
   A54        2.11337   0.00000   0.00000   0.00000   0.00000   2.11337
   A55        2.06626   0.00000   0.00000   0.00000   0.00000   2.06626
   A56        2.10484   0.00000   0.00000   0.00000   0.00000   2.10484
   A57        2.11202   0.00000   0.00000  -0.00001  -0.00001   2.11201
   A58        2.10610   0.00000   0.00000   0.00000   0.00000   2.10610
   A59        2.08606   0.00000   0.00000  -0.00001  -0.00001   2.08605
   A60        2.09020   0.00000   0.00000   0.00001   0.00001   2.09021
   A61        2.10644   0.00000   0.00000   0.00000   0.00000   2.10644
   A62        2.08719   0.00000   0.00000  -0.00001  -0.00001   2.08718
   A63        2.08881   0.00000   0.00000   0.00001   0.00001   2.08881
   A64        2.08960   0.00000   0.00000   0.00000   0.00000   2.08959
   A65        2.09586   0.00000   0.00000   0.00000   0.00000   2.09586
   A66        2.09772   0.00000   0.00000   0.00000   0.00000   2.09772
   A67        1.95747   0.00000   0.00000   0.00000   0.00000   1.95747
   A68        1.93749   0.00000   0.00000   0.00000   0.00000   1.93750
   A69        1.86265   0.00000   0.00000   0.00000   0.00000   1.86265
   A70        1.90314   0.00000   0.00000   0.00000   0.00000   1.90314
   A71        1.89530   0.00000   0.00000   0.00000   0.00000   1.89530
   A72        1.90652   0.00000   0.00000   0.00000   0.00000   1.90652
   A73        1.86120   0.00000   0.00000   0.00000   0.00000   1.86120
   A74        1.93808   0.00000   0.00000   0.00000   0.00000   1.93809
   A75        1.94883   0.00000   0.00000   0.00000   0.00000   1.94884
   A76        1.89984   0.00000   0.00000   0.00000   0.00000   1.89984
   A77        1.91000   0.00000   0.00000   0.00000   0.00000   1.91000
   A78        1.90483   0.00000   0.00000   0.00000   0.00000   1.90483
   A79        1.86477   0.00000   0.00000   0.00000   0.00000   1.86477
   A80        1.93904   0.00000   0.00000   0.00000   0.00000   1.93904
   A81        1.93603   0.00000   0.00000   0.00002   0.00002   1.93605
   A82        1.90795   0.00000   0.00000   0.00000   0.00000   1.90794
   A83        1.90623   0.00000   0.00000  -0.00001  -0.00001   1.90623
   A84        1.90903   0.00000   0.00000  -0.00001  -0.00001   1.90902
   A85        1.86484   0.00000   0.00000   0.00001   0.00001   1.86485
   A86        1.93557   0.00000   0.00000  -0.00001  -0.00001   1.93556
   A87        1.95875   0.00000   0.00000   0.00000   0.00000   1.95875
   A88        1.90276   0.00000   0.00000   0.00000   0.00000   1.90276
   A89        1.90537   0.00000   0.00000   0.00000   0.00000   1.90537
   A90        1.89564   0.00000   0.00000   0.00000   0.00000   1.89564
   A91        1.94444   0.00000   0.00000   0.00000   0.00000   1.94443
   A92        1.94374   0.00000   0.00000   0.00000   0.00000   1.94374
   A93        1.94473   0.00000   0.00000   0.00001   0.00001   1.94473
   A94        1.87178   0.00000   0.00000   0.00000   0.00000   1.87177
   A95        1.88421   0.00000   0.00000   0.00000   0.00000   1.88420
   A96        1.87138   0.00000   0.00000   0.00000   0.00000   1.87139
   A97        1.94094   0.00000   0.00000   0.00000   0.00000   1.94094
[...]
 0072,-0.00001426,0.00000002,-0.00000127,-0.00002585,-0.00000097,-0.000
 15254,-0.00017197,-0.00008756,0.00000037,0.00001652,0.00001834,0.00004
 932,0.00001139,0.00000013,-0.00001853,0.00000247,-0.00000635,-0.000468
 34,-0.00008832,0.00032570,0.00007932,0.00008139,-0.00003701,-0.0002190
 9,-0.00007548,0.00022557,0.00019463,-0.00004227,-0.00003100,0.00124355
 ,0.00220186,-0.00259811,-0.00005945,-0.00053938,0.00081857,-0.00084042
 ,-0.00080910,0.00047787,-0.00044487,-0.00020273,0.00086188,-0.00587020
 ,-0.03605577,0.57235781,0.00003004,-0.00009397,-0.00002751,0.00004332,
 -0.00000220,-0.00004205,0.00003223,-0.00048413,0.00000407,-0.00009403,
 -0.00031343,-0.00021829,0.00004925,0.00012898,0.00013454,-0.00000935,0
 .00002039,0.00000244,0.00001651,0.00000488,0.00000255,-0.00000470,0.00
 000932,-0.00000516,0.00000114,0.00001519,-0.00001098,0.00002014,-0.000
 00803,-0.00000153,-0.00016314,0.00032189,0.00012148,0.00033639,0.00030
 755,-0.00000355,-0.00005818,0.00007154,0.00003872,-0.00011122,0.000073
 81,-0.00003314,-0.00008966,0.00000117,-0.00006894,0.00092168,0.0004534
 0,0.00028105,-0.00011395,0.00001332,-0.00009022,-0.00200983,0.00034063
 ,-0.00100554,-0.00053714,-0.00024644,-0.00014758,-0.00052910,-0.000071
 44,0.00015224,0.00012835,-0.00010053,-0.00001200,0.00011909,0.00001910
 ,-0.00005510,0.00068295,-0.00082202,0.00033192,0.00036178,-0.00003559,
 -0.00051023,-0.00057210,-0.00103795,0.00071046,-0.00040265,0.00023796,
 -0.00023329,0.00000768,-0.00002459,-0.00000727,0.00931774,-0.00234805,
 -0.00263969,-0.00010155,-0.00010387,-0.00009064,0.00009779,0.00068953,
 0.00072061,-0.00002720,0.00020855,-0.00039100,0.00000777,-0.00000444,-
 0.00003463,0.00000139,-0.00000625,0.00000656,0.00000281,-0.00000065,0.
 00000504,-0.00000605,0.00000539,0.00000394,0.00001872,-0.00005256,0.00
 003358,-0.00000938,0.00000563,-0.00000531,0.00000245,0.00000598,-0.000
 00657,-0.00000298,0.00001084,0.00000045,0.00005679,0.00003925,0.000044
 73,-0.00000328,-0.00000375,-0.00001543,-0.00001691,-0.00000419,-0.0000
 0185,0.00001118,0.00001387,0.00000949,0.00048362,-0.00008063,0.0001308
 2,-0.00008149,-0.00005468,-0.00001577,-0.00385210,-0.00099730,0.000375
 48,-0.00005288,0.00001534,0.00002331,-0.00014343,-0.00002253,-0.000193
 02,0.00006576,-0.00000702,0.00005985,0.00001082,-0.00000818,0.00004380
 ,0.00001519,0.00000331,0.00005394,-0.10340955,-0.06934951,-0.01988859,
 0.15343511,-0.00006102,-0.00013853,-0.00012033,-0.00013179,0.00009543,
 -0.00007054,-0.00038618,-0.00104012,0.00034252,-0.00029313,-0.00057885
 ,-0.00052727,0.00000758,0.00011233,0.00003518,-0.00003130,0.00005723,-
 0.00001219,0.00008541,0.00001269,0.00001342,-0.00001053,0.00002885,-0.
 00002119,-0.00005625,0.00005085,-0.00006677,0.00006425,-0.00000179,0.0
 0001138,0.00028773,0.00072714,0.00032193,0.00168398,0.00066170,-0.0000
 8734,0.00009063,0.00002699,-0.00001979,0.00002595,0.00008843,0.0000421
 9,-0.00002650,0.00012702,0.00008603,0.00129401,0.00026217,0.00066805,-
 0.00011435,0.00004592,-0.00008823,0.00057061,-0.00098780,0.00057551,-0
 .00055365,0.00014811,-0.00034083,-0.00358420,0.00166944,0.00138442,0.0
 0083872,-0.00115069,-0.00010745,0.00089340,-0.00040278,-0.00084757,0.0
 0169296,-0.00007459,0.00159157,0.00021719,-0.00103162,0.00036380,-0.00
 242566,-0.00040443,0.00251019,0.00168660,0.00021651,0.00188379,-0.0002
 1012,-0.00006129,-0.00014621,-0.01845230,-0.04549662,-0.00766766,-0.00
 087809,-0.00057349,-0.00071423,0.00268791,-0.00165293,-0.00230215,-0.0
 0101085,-0.00061029,-0.00055824,-0.00006185,-0.00000441,0.00005564,0.0
 0000194,0.00000158,0.00001165,0.00001508,0.00001705,-0.00000775,0.0000
 0328,-0.00000374,-0.00000139,-0.00001516,-0.00001152,0.00001138,0.0000
 0606,0.00000409,0.00000101,0.00000180,-0.00000337,-0.00000519,-0.00000
 949,0.00000705,0.00000033,0.00001149,-0.00007827,0.00001856,0.00000345
 ,0.00000416,-0.00000246,-0.00000818,0.00000778,-0.00000277,0.00001930,
 0.00003854,0.00000126,0.00090622,-0.00001158,0.00058723,-0.00011674,-0
 .00003934,-0.00003072,-0.00110134,-0.00035290,-0.00025537,-0.00023448,
 -0.00000159,-0.00000591,0.00167367,0.00044914,-0.00249427,-0.00004612,
 -0.00046082,0.00106914,-0.00070320,-0.00047565,0.00045796,-0.00047154,
 0.00027113,0.00078356,-0.07186572,-0.23125970,-0.04075107,0.12855205,0
 .29350438,0.00003179,-0.00006027,-0.00002316,0.00005241,-0.00002790,-0
 .00002463,0.00009905,-0.00007641,-0.00011050,-0.00004991,-0.00021134,-
 0.00022540,0.00004351,0.00009657,0.00010050,-0.00001626,0.00002009,0.0
 0001049,-0.00001292,-0.00000065,-0.00000128,-0.00000074,-0.00000012,0.
 00000393,0.00001165,-0.00000570,0.00002029,0.00000179,-0.00001202,-0.0
 0000257,-0.00014919,0.00010893,0.00015207,-0.00019934,0.00004664,0.000
 10086,-0.00005963,0.00004685,0.00006040,-0.00009504,0.00004777,-0.0000
 1939,-0.00007352,-0.00000942,-0.00003469,0.00058792,0.00046391,0.00025
 185,-0.00003687,-0.00000141,-0.00002527,-0.00124664,0.00031966,-0.0011
 1873,-0.00038443,-0.00024953,0.00008141,0.00042024,-0.00040741,-0.0006
 2041,-0.00009859,0.00020778,0.00008053,-0.00008473,0.00004909,0.000287
 49,-0.00056407,0.00033863,-0.00077459,-0.00061401,0.00041421,0.0003483
 8,0.00136128,0.00046171,-0.00064949,-0.00011837,-0.00083048,0.00051563
 ,0.00001834,-0.00001180,0.00004298,0.00088000,0.00983366,0.01122574,-0
 .00016362,0.00039753,0.00006146,0.00004449,-0.00077998,-0.00021426,-0.
 00001564,-0.00005831,0.00005868,0.00001661,-0.00000264,-0.00005924,0.0
 0000553,-0.00000027,0.00000571,-0.00000437,-0.00000535,0.00000545,-0.0
 0000401,0.00000343,0.00000572,0.00001726,-0.00003716,0.00001885,-0.000
 00859,0.00000365,-0.00000497,0.00000050,0.00000371,-0.00000159,-0.0000
 0166,0.00000890,0.00000016,0.00004710,0.00003802,0.00003057,0.00000010
 ,-0.00000411,-0.00000683,-0.00001594,-0.00000214,-0.00000056,0.0000084
 1,0.00000636,0.00000255,0.00029986,0.00003091,0.00007463,-0.00005406,-
 0.00002930,0.00000927,0.00051067,0.00003933,-0.00016657,-0.00009673,0.
 00000563,0.00001121,-0.00012376,-0.00027815,0.00023639,0.00002357,0.00
 004169,-0.00003251,0.00010898,0.00011330,-0.00004126,0.00004493,0.0000
 5777,-0.00006099,-0.01998353,-0.03920594,-0.08262539,0.04858507,0.0883
 9645,0.10838819,0.00010661,-0.00004575,0.00006265,0.00018269,-0.000116
 96,-0.00000610,0.00034290,0.00012042,-0.00025592,0.00002874,-0.0000239
 2,0.00008199,0.00009268,0.00008838,0.00018355,0.00001684,-0.00001997,0
 .00001258,-0.00004424,-0.00000122,-0.00001023,-0.00000074,-0.00000461,
 0.00000633,0.00003230,0.00000372,0.00002993,-0.00000442,-0.00001004,-0
 .00000947,-0.00041821,-0.00006647,-0.00009728,-0.00090492,-0.00009792,
 0.00004277,-0.00016993,0.00010735,0.00007648,-0.00021369,0.00006051,-0
 .00010022,-0.00012962,-0.00007932,-0.00018310,0.00071956,0.00031012,0.
 00029684,-0.00008674,-0.00000597,-0.00008038,-0.00010915,-0.00009228,0
 .00004691,-0.00040296,-0.00023644,-0.00014147,0.00218168,-0.00127141,-
 0.00101763,-0.00063619,0.00121130,-0.00000938,-0.00053184,0.00037999,0
 .00062770,-0.00078863,0.00107691,0.00132916,-0.00007268,0.00014524,-0.
 00047405,-0.00018559,0.00365343,-0.00553109,0.00038720,0.00102847,-0.0
 0058125,0.00007554,-0.00011434,-0.00011309,-0.03391779,0.01166177,0.00
 352694,0.00039409,-0.00074929,-0.00015967,-0.00146827,-0.00040466,0.00
 386401,0.00025703,-0.00011287,-0.00218240,0.00006451,-0.00000722,-0.00
 009675,-0.00000066,-0.00001480,0.00000088,-0.00000491,-0.00001341,0.00
 001537,-0.00001498,0.00001394,0.00000679,0.00004911,-0.00009016,0.0000
 5456,-0.00002089,0.00000628,-0.00001003,0.00000353,0.00001410,-0.00000
 969,0.00000261,0.00001354,0.00000152,0.00008847,0.00011003,0.00006459,
 -0.00000681,-0.00000941,-0.00002493,-0.00002262,-0.00001131,-0.0000002
 2,0.00000613,-0.00000038,0.00001312,0.00044415,0.00002265,0.00022239,-
 0.00009330,-0.00006347,-0.00001797,-0.00004874,0.00009818,-0.00011510,
 -0.00005355,0.00000268,-0.00000158,-0.00136458,-0.00023354,0.00134201,
 0.00012862,0.00021631,-0.00049552,0.00060306,0.00034836,-0.00025304,0.
 00039782,-0.00019853,-0.00045187,-0.27778548,0.05540517,0.00759923,-0.
 06477816,-0.03229646,-0.00921887,0.40935241,-0.00005941,-0.00003177,-0
 .00006177,-0.00011415,0.00007422,-0.00002474,-0.00026410,-0.00044871,0
 .00023289,-0.00011911,-0.00019194,-0.00019613,-0.00003131,0.00000702,-
 0.00005244,-0.00001489,0.00002379,-0.00001130,0.00004853,0.00000657,0.
 00000875,-0.00000364,0.00001249,-0.00001123,-0.00003068,0.00002006,-0.
 00003863,0.00002532,0.00000398,0.00000760,0.00022786,0.00028338,0.0001
 3212,0.00093203,0.00027910,-0.00005304,0.00009390,-0.00002658,-0.00003
 971,0.00008504,0.00001039,0.00004781,0.00003788,0.00007271,0.00009087,
 0.00016044,-0.00004546,0.00008987,-0.00000812,0.00001980,-0.00000274,-
 0.00001445,-0.00018554,0.00002375,-0.00005678,0.00014175,-0.00010649,-
 0.00236222,0.00085161,0.00091364,0.00069554,-0.00094287,-0.00001295,0.
 00054072,-0.00023071,-0.00060744,0.00030377,-0.00203837,-0.00072891,0.
 00072117,-0.00050583,-0.00002178,0.00015090,-0.00168028,0.00470538,-0.
 00004252,-0.00012091,-0.00035286,0.00000451,0.00005700,0.00001690,0.03
 666766,-0.00318268,-0.00075824,0.00009158,0.00058590,0.00013235,0.0009
 0717,-0.00094651,0.00004926,0.00059684,-0.00057149,0.00072412,-0.00004
 553,0.00000066,0.00005976,0.00000010,0.00000462,0.00000344,0.00000834,
 0.00001169,-0.00000821,0.00000594,-0.00000592,-0.00000346,-0.00002247,
 0.00002657,-0.00001390,0.00000963,-0.00000070,0.00000406,-0.00000032,-
 0.00000595,0.00000092,-0.00000431,-0.00000243,-0.00000025,-0.00002824,
 -0.00006719,-0.00001625,0.00000334,0.00000487,0.00000730,0.00000569,0.
 00000647,-0.00000088,0.00000405,0.00001393,-0.00000387,0.00018774,-0.0
 0003110,0.00016136,-0.00001392,0.00000942,-0.00000845,-0.00000031,0.00
 001463,-0.00006372,-0.00005990,-0.00000577,-0.00000394,0.00089075,0.00
 038367,-0.00141873,-0.00002571,-0.00021491,0.00049276,-0.00041464,-0.0
 0027673,0.00026543,-0.00028768,0.00013011,0.00045161,0.05039266,-0.088
 28573,0.00267185,-0.04876512,0.00238027,-0.00349785,-0.04884448,0.0844
 1440,0.00002379,-0.00000087,0.00000779,0.00004137,-0.00003434,0.000004
 43,0.00010070,0.00017035,-0.00012815,0.00003622,0.00001449,-0.00001023
 ,0.00001730,0.00001072,0.00002386,-0.00000464,0.00000191,0.00000729,-0
 .00002245,-0.00000306,-0.00000366,0.00000140,-0.00000478,0.00000587,0.
 00001101,-0.00000920,0.00002055,-0.00000826,-0.00000478,-0.00000250,-0
 .00008302,-0.00007465,0.00002594,-0.00041234,-0.00010232,0.00007488,-0
 .00004001,0.00001639,0.00003688,-0.00004039,0.00000546,-0.00001077,-0.
 00002610,-0.00001711,-0.00001733,0.00007318,0.00007917,0.00000181,0.00
 000457,-0.00000609,0.00000655,0.00002076,-0.00001578,0.00002164,-0.000
 05571,-0.00007458,0.00008055,0.00092525,-0.00038294,-0.00064728,-0.000
 26155,0.00040547,0.00005706,-0.00019832,0.00006749,0.00036582,-0.00085
 630,0.00076573,0.00056101,-0.00024074,0.00030646,-0.00004624,-0.000036
 78,0.00165314,-0.00245855,-0.00060669,-0.00022069,0.00068469,-0.000047
 75,0.00003396,0.00005736,-0.01382801,0.00603600,0.01020619,-0.00033467
 ,0.00025661,0.00002102,-0.00055942,0.00045066,-0.00218744,-0.00134991,
 0.00083007,0.00039809,0.00001572,-0.00000162,-0.00004182,0.00000395,0.
 00000067,0.00000164,-0.00000494,-0.00000515,0.00000373,-0.00000210,0.0
 0000182,0.00000317,0.00000965,-0.00001269,0.00000378,-0.00000411,0.000
 00067,-0.00000226,-0.00000047,0.00000152,0.00000078,0.00000057,0.00000
 286,0.00000020,0.00001690,0.00002167,0.00000779,0.00000057,-0.00000218
 ,-0.00000072,-0.00000585,-0.00000109,0.00000031,0.00000164,-0.00000186
 ,-0.00000032,0.00001817,0.00000943,-0.00005998,-0.00000355,-0.00000732
 ,0.00000520,0.00002946,0.00001281,-0.00002185,-0.00001749,0.00000633,0
 .00000339,-0.00026077,-0.00045201,0.00059530,-0.00002704,0.00013294,-0
 .00021317,0.00018577,0.00017399,-0.00010005,0.00007814,0.00005093,-0.0
 0017442,0.01336808,0.00086342,-0.07687372,-0.01340820,-0.00330920,0.01
 162623,-0.04106034,0.00559023,0.08394732,0.00002454,-0.00000838,0.0000
 2305,0.00004269,-0.00002540,-0.00000518,0.00008298,-0.00004045,-0.0000
 1917,0.00000165,0.00001275,0.00007984,0.00002267,0.00001480,0.00003899
 ,0.00001288,-0.00000882,-0.00000115,-0.00000351,0.00000159,-0.00000174
 ,-0.00000075,0.00000048,-0.00000115,0.00000373,0.00000579,-0.00000336,
 0.00000194,-0.00000008,-0.00000193,-0.00010084,0.00000009,-0.00007302,
 -0.00012673,0.00003416,-0.00002539,-0.00003948,0.00002923,0.00000775,-
 0.00004896,0.00001453,-0.00002901,-0.00002829,-0.00001903,-0.00005228,
 0.00009331,0.00002031,0.00004986,-0.00001713,-0.00000115,-0.00002176,-
 0.00000526,-0.00001990,0.00004614,-0.00006187,-0.00001548,-0.00009342,
 0.00032382,-0.00045825,0.00008060,-0.00003987,0.00017507,-0.00005187,-
 0.00010641,0.00013559,0.00002012,0.00055212,-0.00045390,-0.00043675,0.
 00003108,0.00015398,-0.00015808,-0.00185022,0.00048446,-0.00029415,0.0
 0033979,-0.00001555,-0.00077637,0.00007026,0.00001760,-0.00006221,0.01
 052610,0.00167377,-0.00514247,0.00015618,0.00082674,-0.00171828,-0.000
 88082,0.00149871,-0.00016273,0.00014970,0.00024856,-0.00041473,0.00001
 418,-0.00000231,-0.00001271,-0.00000180,-0.00000603,-0.00000051,0.0000
 0118,-0.00000183,0.00000362,-0.00000450,0.00000409,0.00000041,0.000012
 12,-0.00002337,0.00001534,-0.00000471,0.00000156,-0.00000215,0.0000012
 7,0.00000380,-0.00000355,0.00000076,0.00000288,0.00000069,0.00001877,0
 .00002456,0.00001489,-0.00000207,-0.00000220,-0.00000699,-0.00000421,-
 0.00000299,0.00000009,0.00000062,0.00000020,0.00000375,0.00010939,-0.0
 0000068,0.00009582,-0.00002702,-0.00001792,-0.00001276,-0.00003597,0.0
 0003595,0.00000843,0.00001273,-0.00000102,-0.00000071,-0.00037903,-0.0
 0000741,0.00025117,0.00002909,0.00006897,-0.00016549,0.00014325,0.0000
 8121,-0.00005090,0.00009131,-0.00005428,-0.00008129,-0.07815175,0.0029
 0014,0.02953823,0.01090231,-0.00816507,-0.01972600,-0.03167796,0.00783
 493,0.05882371,0.08982670,-0.00003807,-0.00003559,-0.00004594,-0.00007
 617,0.00004638,-0.00001743,-0.00020226,-0.00037463,0.00015802,-0.00009
 649,-0.00017485,-0.00016196,-0.00001655,0.00001776,-0.00001821,-0.0000
 1298,0.00001678,-0.00000659,0.00003591,0.00000544,0.00000555,-0.000003
 42,0.00001076,-0.00000920,-0.00002560,0.00001743,-0.00002877,0.0000220
 7,0.00000242,0.00000521,0.00015807,0.00025409,0.00010575,0.00069532,0.
 00019879,-0.00002032,0.00005887,-0.00000741,-0.00002366,0.00004630,0.0
 0001855,0.00002808,0.00001701,0.00005523,0.00005442,0.00024309,-0.0000
 0061,0.00013840,-0.00002113,0.00001521,-0.00001519,0.00001240,-0.00018
 643,-0.00001070,-0.00010693,0.00009800,-0.00011633,-0.00158237,0.00093
 893,0.00037620,0.00035082,-0.00048074,-0.00000022,0.00042214,-0.000222
 99,-0.00035224,-0.00063509,0.00025141,0.00001628,-0.00023696,-0.000245
 06,0.00086077,0.00092685,-0.00100293,0.00061678,-0.00086621,-0.0015008
 3,0.00094614,-0.00003510,0.00003573,0.00004716,-0.00326796,0.00516005,
 0.03030374,0.00056929,-0.00128843,0.00168878,0.00369169,-0.00214057,0.
 00042000,0.00009298,0.00032908,0.00014629,-0.00003263,-0.00000114,0.00
 003790,0.00000007,0.00000184,0.00000364,0.00000693,0.00000870,-0.00000
 511,0.00000322,-0.00000328,-0.00000201,-0.00001341,0.00001059,-0.00000
 423,0.00000580,0.00000031,0.00000224,0.00000028,-0.00000322,-0.0000008
 0,-0.00000354,-0.00000023,-0.00000004,-0.00001345,-0.00004592,-0.00000
 540,0.00000184,0.00000302,0.00000268,0.00000223,0.00000422,-0.00000087
 ,0.00000437,0.00001272,-0.00000155,0.00021061,-0.00002204,0.00014885,-
 0.00002149,0.00000152,-0.00000837,-0.00000287,0.00001684,-0.00004736,-
 0.00005846,-0.00000448,-0.00000320,0.00096690,-0.00004587,-0.00141767,
 0.00001452,-0.00021289,0.00056127,-0.00050405,-0.00027377,0.00028636,-
 0.00025677,0.00014118,0.00038402,0.00390742,-0.07693070,0.00299599,-0.
 00651985,-0.01410729,-0.05579650,0.00913778,0.01019501,-0.01322902,-0.
 00695500,0.08144392,0.00007502,-0.00003480,0.00000038,0.00012320,-0.00
 007692,-0.00000940,0.00030392,0.00026059,-0.00035592,0.00006988,-0.000
 05234,-0.00014713,0.00006935,0.00006183,0.00010753,-0.00002122,0.00001
 644,0.00002277,-0.00005457,-0.00000748,-0.00000716,0.00000262,-0.00001
 137,0.00001612,0.00003872,-0.00002752,0.00006146,-0.00002038,-0.000017
 18,-0.00000737,-0.00034545,-0.00009470,0.00015382,-0.00095174,-0.00010
 947,0.00021802,-0.00012787,0.00006614,0.00012202,-0.00014340,0.0000376
 1,-0.00003150,-0.00010445,-0.00004601,-0.00006084,0.00061107,0.0003682
 5,0.00018093,-0.00003079,-0.00001316,-0.00000951,-0.00000580,-0.000095
 55,-0.00005162,-0.00034707,-0.00029834,0.00022753,0.00219279,-0.001296
 96,-0.00159321,-0.00055670,0.00077629,0.00017766,-0.00049078,0.0002243
 2,0.00098829,-0.00004407,0.00132248,0.00039286,-0.00033930,0.00026773,
 -0.00028274,0.00346118,-0.00171882,-0.00099081,0.00185058,0.00071562,-
 0.00156923,-0.00011474,-0.00008247,0.00005693,0.00811847,0.00176833,-0
 .04309574,-0.00232966,0.00102509,-0.00032874,-0.00571322,0.00565835,-0
 .00106620,-0.00025807,-0.00063754,0.00058587,0.00004314,-0.00000528,-0
 .00013344,0.00001302,0.00000212,0.00000803,-0.00001414,-0.00001486,0.0
 0001158,-0.00000654,0.00000565,0.00001101,0.00003145,-0.00004785,0.000
 01738,-0.00001414,0.00000338,-0.00000778,-0.00000094,0.00000530,0.0000
 0175,0.00000024,0.00001159,0.00000029,0.00006660,0.00007402,0.00003657
 ,0.00000070,-0.00000697,-0.00000611,-0.00002248,-0.00000447,-0.0000001
 0,0.00000863,-0.00000127,0.00000169,0.00019026,0.00004004,-0.00016580,
 -0.00003436,-0.00003454,0.00001558,0.00008578,0.00002619,-0.00009646,-
 0.00009619,0.00002046,0.00001115,-0.00158677,-0.00035040,0.00195974,-0
 .00006020,0.00046356,-0.00101895,0.00079054,0.00052848,-0.00034057,0.0
 0032076,-0.00003725,-0.00053940,0.02437297,0.00978950,-0.28921612,-0.0
 1271302,-0.04066010,-0.04697334,0.04320038,-0.00876411,-0.02586763,-0.
 05949322,0.03100836,0.40858586\\-0.00000135,0.00000307,-0.00000672,-0.
 00000345,0.00001729,0.00000036,-0.00000195,-0.00000030,-0.00000324,-0.
 00000077,-0.00000901,-0.00000551,-0.00000175,-0.00000018,-0.00000578,0
 .00000001,0.00000240,-0.00000158,-0.00000071,0.00000461,-0.00000326,0.
 00000423,0.00000292,-0.00000059,0.00000521,0.00000063,-0.00000044,-0.0
 0000034,0.,-0.00000032,0.00000835,0.00000783,-0.00000697,0.00000889,-0
 .00000277,-0.00000173,-0.00000115,0.00000033,-0.00000676,0.00000201,0.
 00000796,0.00000122,0.00000787,-0.00000470,0.00000073,-0.00000408,0.00
 000464,0.00001917,-0.00000771,-0.00000002,0.00000056,0.00000735,0.0000
 0218,0.00000193,-0.00001744,0.00000715,-0.00001629,-0.00000738,0.00000
 291,-0.00000147,0.00001239,0.00000409,-0.00000233,0.00000278,-0.000005
 71,-0.00000252,0.00000208,-0.00000527,0.00000177,0.00000169,-0.0000040
 1,-0.00000221,-0.00000830,0.00000488,0.00000026,0.00000898,-0.00001541
 ,0.00000396,0.00000502,-0.00000380,0.00000231,-0.00000276,-0.00000432,
 0.00000640,-0.00000580,-0.00000222,0.00000163,-0.00000076,-0.00001128,
 0.00000804,-0.00000224,-0.00000827,0.00000587,0.00000043,0.00000787,-0
 .00000326,0.00000002,0.00000645,-0.00000361,-0.00000011,0.00000918,-0.
 00000443,0.00000196,0.00000804,-0.00000472,0.00000439,0.00000778,-0.00
 000454,0.00000357,0.00000810,-0.00000548,0.00000490,0.00000544,-0.0000
 0418,0.00000421,0.00000611,-0.00000593,-0.00000825,0.00001190,-0.00000
 011,0.00000210,0.00000172,0.00000010,0.00000121,0.00000349,-0.00000173
 ,0.00000673,-0.00000002,0.00000762,-0.00001450,0.00000121,0.00001309,-
 0.00000840,-0.00000072,0.00000011,-0.00000201,-0.00000022,0.00000169,-
 0.00000069,-0.00000896,-0.00000202,0.00000732,-0.00001053,0.00000235,0
 .00000530,-0.00000606,0.00000079,0.00000368,-0.00000981,0.00000323,0.0
 0000529,-0.00000869,0.00000514,-0.00000575,-0.00001079,0.00000346,-0.0
 0001229,-0.00000582,0.00000495,-0.00000458,-0.00000693,0.00000695,-0.0
 0000348,-0.00000439,0.00000405\\\@


 I LOVE MANKIND - IT'S PEOPLE I CAN'T STAND.
     -- LINUS OF PEANUTS
 Job cpu time:       1 days 10 hours 37 minutes  1.7 seconds.
 Elapsed time:       0 days  1 hours  8 minutes 57.9 seconds.
 File lengths (MBytes):  RWF=   2319 Int=      0 D2E=      0 Chk=     38 Scr=      1
 Normal termination of Gaussian 16 at Sat Jun 15 11:40:02 2019.
