 Entering Gaussian System, Link 0=g16
 Input=clay_new-glu_gluC6-BCDR-Na2_1Me2O-bisCF3-ts-m06l_d3-custom-pcm_thf.gjf
 Output=clay_new-glu_gluC6-BCDR-Na2_1Me2O-bisCF3-ts-m06l_d3-custom-pcm_thf.out
 Initial command:
 /home/ekwan/sw/g16/l1.exe "/scratch/users/ekwan/clay_new-glu_gluC6-BCDR-Na2_1Me2O-bisCF3-ts-m06l_d3-custom-pcm_thf/Gau-45070.inp" -scrdir="/scratch/users/ekwan/clay_new-glu_gluC6-BCDR-Na2_1Me2O-bisCF3-ts-m06l_d3-custom-pcm_thf/"
 Entering Link 1 = /home/ekwan/sw/g16/l1.exe PID=     45071.
  
 Copyright (c) 1988,1990,1992,1993,1995,1998,2003,2009,2016,
            Gaussian, Inc.  All Rights Reserved.
  
 This is part of the Gaussian(R) 16 program.  It is based on
 the Gaussian(R) 09 system (copyright 2009, Gaussian, Inc.),
 the Gaussian(R) 03 system (copyright 2003, Gaussian, Inc.),
 the Gaussian(R) 98 system (copyright 1998, Gaussian, Inc.),
 the Gaussian(R) 94 system (copyright 1995, Gaussian, Inc.),
 the Gaussian 92(TM) system (copyright 1992, Gaussian, Inc.),
 the Gaussian 90(TM) system (copyright 1990, Gaussian, Inc.),
 the Gaussian 88(TM) system (copyright 1988, Gaussian, Inc.),
 the Gaussian 86(TM) system (copyright 1986, Carnegie Mellon
 University), and the Gaussian 82(TM) system (copyright 1983,
 Carnegie Mellon University). Gaussian is a federally registered
 trademark of Gaussian, Inc.
  
 This software contains proprietary and confidential information,
 including trade secrets, belonging to Gaussian, Inc.
  
 This software is provided under written license and may be
 used, copied, transmitted, or stored only in accord with that
 written license.
  
 The following legend is applicable only to US Government
 contracts under FAR:
  
                    RESTRICTED RIGHTS LEGEND
  
 Use, reproduction and disclosure by the US Government is
 subject to restrictions as set forth in subparagraphs (a)
 and (c) of the Commercial Computer Software - Restricted
 Rights clause in FAR 52.227-19.
  
 Gaussian, Inc.
 340 Quinnipiac St., Bldg. 40, Wallingford CT 06492
  
  
 ---------------------------------------------------------------
 Warning -- This program may not be used in any manner that
 competes with the business of Gaussian, Inc. or will provide
 assistance to any competitor of Gaussian, Inc.  The licensee
 of this program is prohibited from giving any competitor of
 Gaussian, Inc. access to this program.  By using this program,
 the user acknowledges that Gaussian, Inc. is engaged in the
 business of creating and licensing software in the field of
 computational chemistry and represents and warrants to the
 licensee that it is not a competitor of Gaussian, Inc. and that
 it will not use this program in any manner prohibited above.
 ---------------------------------------------------------------
  

 Cite this work as:
 Gaussian 16, Revision A.03,
 M. J. Frisch, G. W. Trucks, H. B. Schlegel, G. E. Scuseria, 
 M. A. Robb, J. R. Cheeseman, G. Scalmani, V. Barone, 
 G. A. Petersson, H. Nakatsuji, X. Li, M. Caricato, A. V. Marenich, 
 J. Bloino, B. G. Janesko, R. Gomperts, B. Mennucci, H. P. Hratchian, 
 J. V. Ortiz, A. F. Izmaylov, J. L. Sonnenberg, D. Williams-Young, 
 F. Ding, F. Lipparini, F. Egidi, J. Goings, B. Peng, A. Petrone, 
 T. Henderson, D. Ranasinghe, V. G. Zakrzewski, J. Gao, N. Rega, 
 G. Zheng, W. Liang, M. Hada, M. Ehara, K. Toyota, R. Fukuda, 
 J. Hasegawa, M. Ishida, T. Nakajima, Y. Honda, O. Kitao, H. Nakai, 
 T. Vreven, K. Throssell, J. A. Montgomery, Jr., J. E. Peralta, 
 F. Ogliaro, M. J. Bearpark, J. J. Heyd, E. N. Brothers, K. N. Kudin, 
 V. N. Staroverov, T. A. Keith, R. Kobayashi, J. Normand, 
 K. Raghavachari, A. P. Rendell, J. C. Burant, S. S. Iyengar, 
 J. Tomasi, M. Cossi, J. M. Millam, M. Klene, C. Adamo, R. Cammi, 
 J. W. Ochterski, R. L. Martin, K. Morokuma, O. Farkas, 
 J. B. Foresman, and D. J. Fox, Gaussian, Inc., Wallingford CT, 2016.
 
 ******************************************
 Gaussian 16:  AS64L-G16RevA.03 25-Dec-2016
                16-Jun-2019 
 ******************************************
 %mem=48GB
 %nprocshared=32
 Will use up to   32 processors via shared memory.
 ----------------------------------------------------------------------
 #p opt=(calcfc,ts,noeigentest,maxstep=1) freq=noraman 6-31g(d) scrf=(s
 olvent=tetrahydrofuran,pcm) pop=none empiricaldispersion=gd3 extrabasi
 s m06l
 ----------------------------------------------------------------------
 1/5=1,8=1,10=4,11=1,18=20,26=3,38=1/1,3;
 2/9=110,12=2,17=6,18=5,40=1/2;
 3/5=1,6=6,7=1,10=1,11=2,25=1,30=1,70=2201,71=2,72=20,74=-53,124=31,140=1/1,2,3;
 4//1;
 5/5=2,38=5,53=20/2;
 8/6=4,10=90,11=11/1;
 11/6=1,8=1,9=11,15=111,16=1/1,2,10;
 10/6=1,13=1/2;
 7/10=1,18=20,25=1/1,2,3,16;
 1/5=1,8=1,10=4,11=1,18=20,26=3/3(2);
 2/9=110/2;
 99//99;
 2/9=110/2;
 3/5=7,6=1,7=1,11=2,25=1,30=1,70=2205,71=1,72=20,74=-53,82=7,124=31/1,2,3;
 4/5=5,16=3,69=1/1;
 5/5=2,38=5,53=20/2;
 7//1,2,3,16;
 1/5=1,8=1,11=1,18=20,26=3/3(-5);
 2/9=110/2;
 99/9=1/99;
 Leave Link    1 at Sun Jun 16 17:44:26 2019, MaxMem=  6442450944 cpu:               6.5 elap:               0.3
 (Enter /home/ekwan/sw/g16/l101.exe)
 -----
 title
 -----
 Symbolic Z-matrix:
 Charge =  0 Multiplicity = 1
 6                    -1.81935   1.55731   2.17351 
 6                    -2.15444   2.33378   0.90552 
 6                    -1.28763   3.58192   0.79375 
 6                     0.46576   2.60409   2.09861 
 6                    -0.3195    1.30354   2.25163 
 1                    -1.41128   4.06025  -0.19338 
 1                    -1.9154    1.69971   0.03435 
 1                    -2.13245   2.15557   3.0472 
 1                     0.19198   3.27066   2.93444 
 1                    -0.05349   0.61563   1.42881 
 8                     0.08439   3.24022   0.85582 
 8                    -1.65911   4.46679   1.81034 
 8                    -3.51573   2.72398   0.87389 
 8                    -2.55503   0.34225   2.13807 
 8                    -0.01273   0.69974   3.50113 
 6                     1.98382   2.43791   2.05813 
 1                     2.26533   2.01934   3.05389 
 1                     2.38896   3.48262   2.06771 
 8                     2.4431    1.70974   0.99802 
 6                    -4.32562   1.8686    0.09732 
 1                    -3.99709   1.8479   -0.95654 
 1                    -4.32512   0.83955   0.48331 
 1                    -5.34274   2.27013   0.13667 
 6                    -3.03576  -0.07556   3.39756 
 1                    -2.22246  -0.38513   4.06817 
 1                    -3.6138    0.72482   3.88716 
 1                    -3.69805  -0.92738   3.21589 
 6                     0.87486  -0.39456   3.38065 
 1                     0.40893  -1.2303    2.83559 
 1                     1.80099  -0.11861   2.85272 
 1                     1.11791  -0.72071   4.39699 
 6                     3.85032  -1.59533  -1.27737 
 6                     3.19822  -0.28869  -0.84227 
 6                     1.83047  -0.49125  -0.28822 
 6                     2.15491  -2.8258    0.10945 
 6                     3.63577  -2.62948  -0.17661 
 1                     1.20988   0.37694  -0.09442 
 1                     3.7469    0.10832   0.03679 
 1                     3.38915  -1.9432   -2.21653 
 1                     1.64612  -3.20312  -0.78828 
 1                     4.13416  -2.27405   0.73883 
 8                     1.50856  -1.53582   0.40099 
 8                    -0.49576   0.08284  -3.89706 
 8                     3.13597   0.7209   -1.82466 
 8                     5.23509  -1.3684   -1.45358 
 8                     4.15858  -3.88128  -0.57548 
 6                     1.84521  -3.71651   1.27909 
 1                     2.17118  -4.74202   1.03243 
 1                     0.75314  -3.74699   1.44182 
 8                     2.51023  -3.22158   2.41443 
 16                   -0.27144  -0.00541  -2.44898 
 8                    -0.14457   1.29478  -1.74224 
 8                     0.8588   -0.94446  -2.08707 
 6                    -1.73059  -0.77745  -1.74812 
 6                    -2.9725   -0.56395  -2.34164 
 6                    -1.61501  -1.54251  -0.59565 
 6                    -4.10312  -1.13183  -1.76388 
 1                    -3.04856   0.03048  -3.24855 
 6                    -2.75447  -2.11312  -0.03342 
 1                    -0.64343  -1.70122  -0.13386 
 6                    -4.00162  -1.91114  -0.61057 
 1                    -4.89064  -2.35593  -0.17021 
 6                     4.34991   1.45569  -1.96335 
 1                     4.73635   1.74717  -0.97612 
 1                     5.11228   0.87836  -2.49626 
 1                     4.10364   2.35536  -2.53549 
 6                     5.77872  -2.03396  -2.57984 
 1                     5.66459  -3.12293  -2.50302 
 1                     5.30379  -1.68874  -3.51167 
 1                     6.84169  -1.78015  -2.60775 
 6                     5.13739  -4.3889    0.31624 
 1                     6.0171   -3.73026   0.35622 
 1                     4.73347  -4.50662   1.33315 
 1                     5.43533  -5.36649  -0.07053 
 6                     2.18984  -3.97613   3.56335 
 1                     2.73122  -3.53172   4.40166 
 1                     1.10778  -3.94421   3.77096 
 1                     2.49392  -5.02906   3.44971 
 6                    -0.97228   5.70224   1.72779 
 1                    -1.40868   6.35856   2.4839 
 1                     0.10283   5.58304   1.92324 
 1                    -1.10014   6.15735   0.7329 
 11                    1.60723   2.67897  -0.91377 
 8                     3.13247   4.44966  -0.85458 
 6                     3.29216   5.54621  -1.72935 
 1                     4.19336   5.42689  -2.35201 
 1                     2.41044   5.58637  -2.37405 
 1                     3.37549   6.4909   -1.17061 
 6                     4.22967   4.32758   0.03351 
 1                     4.29736   5.20549   0.69417 
 1                     4.05464   3.41982   0.62089 
 1                     5.17493   4.23627  -0.52604 
 6                    -5.46335  -0.875    -2.33866 
 9                    -6.16315  -0.0096   -1.56749 
 9                    -6.19646  -2.00428  -2.4076 
 9                    -5.40686  -0.34861  -3.57354 
 6                    -2.59223  -3.00753   1.15812 
 9                    -1.6764   -2.53344   2.02793 
 9                    -2.16123  -4.2364    0.78951 
 9                    -3.74471  -3.17841   1.83178 
 
 Add virtual bond connecting atoms H37        and H10        Dist= 3.77D+00.
 Add virtual bond connecting atoms H37        and O19        Dist= 4.00D+00.
 Add virtual bond connecting atoms O53        and C34        Dist= 3.96D+00.
 Add virtual bond connecting atoms H60        and O42        Dist= 4.20D+00.
 Add virtual bond connecting atoms O84        and Na83       Dist= 4.42D+00.
 Add virtual bond connecting atoms H91        and H18        Dist= 4.17D+00.
 ITRead=  0  0  0  0  0  0  0  0  0  0  0  0  0  0  0  0  0  0  0  0
 ITRead=  0  0  0  0  0  0  0  0  0  0  0  0  0  0  0  0  0  0  0  0
 ITRead=  0  0  0  0  0  0  0  0  0  0  0  0  0  0  0  0  0  0  0  0
 ITRead=  0  0  0  0  0  0  0  0  0  0  0  0  0  0  0  0  0  0  0  0
 ITRead=  0  0  0  0  0  0  0  0  0  0  0  0  0  0  0  0  0  0  0  0
 MicOpt= -1 -1 -1 -1 -1 -1 -1 -1 -1 -1 -1 -1 -1 -1 -1 -1 -1 -1 -1 -1
 MicOpt= -1 -1 -1 -1 -1 -1 -1 -1 -1 -1 -1 -1 -1 -1 -1 -1 -1 -1 -1 -1
 MicOpt= -1 -1 -1 -1 -1 -1 -1 -1 -1 -1 -1 -1 -1 -1 -1 -1 -1 -1 -1 -1
 MicOpt= -1 -1 -1 -1 -1 -1 -1 -1 -1 -1 -1 -1 -1 -1 -1 -1 -1 -1 -1 -1
 MicOpt= -1 -1 -1 -1 -1 -1 -1 -1 -1 -1 -1 -1 -1 -1 -1 -1 -1 -1 -1 -1
 NAtoms=    100 NQM=      100 NQMF=       0 NMMI=      0 NMMIF=      0
                NMic=       0 NMicF=      0.
                    Isotopes and Nuclear Properties:
 (Nuclear quadrupole moments (NQMom) in fm**2, nuclear magnetic moments (NMagM)
  in nuclear magnetons)

  Atom         1           2           3           4           5           6           7           8           9          10
 IAtWgt=          12          12          12          12          12           1           1           1           1           1
 AtmWgt=  12.0000000  12.0000000  12.0000000  12.0000000  12.0000000   1.0078250   1.0078250   1.0078250   1.0078250   1.0078250
 NucSpn=           0           0           0           0           0           1           1           1           1           1
 AtZEff=   0.0000000   0.0000000   0.0000000   0.0000000   0.0000000   0.0000000   0.0000000   0.0000000   0.0000000   0.0000000
 NQMom=    0.0000000   0.0000000   0.0000000   0.0000000   0.0000000   0.0000000   0.0000000   0.0000000   0.0000000   0.0000000
 NMagM=    0.0000000   0.0000000   0.0000000   0.0000000   0.0000000   2.7928460   2.7928460   2.7928460   2.7928460   2.7928460
 AtZNuc=   6.0000000   6.0000000   6.0000000   6.0000000   6.0000000   1.0000000   1.0000000   1.0000000   1.0000000   1.0000000

  Atom        11          12          13          14          15          16          17          18          19          20
 IAtWgt=          16          16          16          16          16          12           1           1          16          12
 AtmWgt=  15.9949146  15.9949146  15.9949146  15.9949146  15.9949146  12.0000000   1.0078250   1.0078250  15.9949146  12.0000000
 NucSpn=           0           0           0           0           0           0           1           1           0           0
 AtZEff=   0.0000000   0.0000000   0.0000000   0.0000000   0.0000000   0.0000000   0.0000000   0.0000000   0.0000000   0.0000000
 NQMom=    0.0000000   0.0000000   0.0000000   0.0000000   0.0000000   0.0000000   0.0000000   0.0000000   0.0000000   0.0000000
 NMagM=    0.0000000   0.0000000   0.0000000   0.0000000   0.0000000   0.0000000   2.7928460   2.7928460   0.0000000   0.0000000
 AtZNuc=   8.0000000   8.0000000   8.0000000   8.0000000   8.0000000   6.0000000   1.0000000   1.0000000   8.0000000   6.0000000

  Atom        21          22          23          24          25          26          27          28          29          30
 IAtWgt=           1           1           1          12           1           1           1          12           1           1
 AtmWgt=   1.0078250   1.0078250   1.0078250  12.0000000   1.0078250   1.0078250   1.0078250  12.0000000   1.0078250   1.0078250
 NucSpn=           1           1           1           0           1           1           1           0           1           1
 AtZEff=   0.0000000   0.0000000   0.0000000   0.0000000   0.0000000   0.0000000   0.0000000   0.0000000   0.0000000   0.0000000
 NQMom=    0.0000000   0.0000000   0.0000000   0.0000000   0.0000000   0.0000000   0.0000000   0.0000000   0.0000000   0.0000000
 NMagM=    2.7928460   2.7928460   2.7928460   0.0000000   2.7928460   2.7928460   2.7928460   0.0000000   2.7928460   2.7928460
 AtZNuc=   1.0000000   1.0000000   1.0000000   6.0000000   1.0000000   1.0000000   1.0000000   6.0000000   1.0000000   1.0000000

  Atom        31          32          33          34          35          36          37          38          39          40
 IAtWgt=           1          12          12          12          12          12           1           1           1           1
 AtmWgt=   1.0078250  12.0000000  12.0000000  12.0000000  12.0000000  12.0000000   1.0078250   1.0078250   1.0078250   1.0078250
 NucSpn=           1           0           0           0           0           0           1           1           1           1
 AtZEff=   0.0000000   0.0000000   0.0000000   0.0000000   0.0000000   0.0000000   0.0000000   0.0000000   0.0000000   0.0000000
 NQMom=    0.0000000   0.0000000   0.0000000   0.0000000   0.0000000   0.0000000   0.0000000   0.0000000   0.0000000   0.0000000
 NMagM=    2.7928460   0.0000000   0.0000000   0.0000000   0.0000000   0.0000000   2.7928460   2.7928460   2.7928460   2.7928460
 AtZNuc=   1.0000000   6.0000000   6.0000000   6.0000000   6.0000000   6.0000000   1.0000000   1.0000000   1.0000000   1.0000000

  Atom        41          42          43          44          45          46          47          48          49          50
 IAtWgt=           1          16          16          16          16          16          12           1           1          16
 AtmWgt=   1.0078250  15.9949146  15.9949146  15.9949146  15.9949146  15.9949146  12.0000000   1.0078250   1.0078250  15.9949146
 NucSpn=           1           0           0           0           0           0           0           1           1           0
 AtZEff=   0.0000000   0.0000000   0.0000000   0.0000000   0.0000000   0.0000000   0.0000000   0.0000000   0.0000000   0.0000000
 NQMom=    0.0000000   0.0000000   0.0000000   0.0000000   0.0000000   0.0000000   0.0000000   0.0000000   0.0000000   0.0000000
 NMagM=    2.7928460   0.0000000   0.0000000   0.0000000   0.0000000   0.0000000   0.0000000   2.7928460   2.7928460   0.0000000
 AtZNuc=   1.0000000   8.0000000   8.0000000   8.0000000   8.0000000   8.0000000   6.0000000   1.0000000   1.0000000   8.0000000

  Atom        51          52          53          54          55          56          57          58          59          60
 IAtWgt=          32          16          16          12          12          12          12           1          12           1
 AtmWgt=  31.9720718  15.9949146  15.9949146  12.0000000  12.0000000  12.0000000  12.0000000   1.0078250  12.0000000   1.0078250
 NucSpn=           0           0           0           0           0           0           0           1           0           1
 AtZEff=   0.0000000   0.0000000   0.0000000   0.0000000   0.0000000   0.0000000   0.0000000   0.0000000   0.0000000   0.0000000
 NQMom=    0.0000000   0.0000000   0.0000000   0.0000000   0.0000000   0.0000000   0.0000000   0.0000000   0.0000000   0.0000000
 NMagM=    0.0000000   0.0000000   0.0000000   0.0000000   0.0000000   0.0000000   0.0000000   2.7928460   0.0000000   2.7928460
 AtZNuc=  16.0000000   8.0000000   8.0000000   6.0000000   6.0000000   6.0000000   6.0000000   1.0000000   6.0000000   1.0000000

  Atom        61          62          63          64          65          66          67          68          69          70
 IAtWgt=          12           1          12           1           1           1          12           1           1           1
 AtmWgt=  12.0000000   1.0078250  12.0000000   1.0078250   1.0078250   1.0078250  12.0000000   1.0078250   1.0078250   1.0078250
 NucSpn=           0           1           0           1           1           1           0           1           1           1
 AtZEff=   0.0000000   0.0000000   0.0000000   0.0000000   0.0000000   0.0000000   0.0000000   0.0000000   0.0000000   0.0000000
 NQMom=    0.0000000   0.0000000   0.0000000   0.0000000   0.0000000   0.0000000   0.0000000   0.0000000   0.0000000   0.0000000
 NMagM=    0.0000000   2.7928460   0.0000000   2.7928460   2.7928460   2.7928460   0.0000000   2.7928460   2.7928460   2.7928460
 AtZNuc=   6.0000000   1.0000000   6.0000000   1.0000000   1.0000000   1.0000000   6.0000000   1.0000000   1.0000000   1.0000000

  Atom        71          72          73          74          75          76          77          78          79          80
 IAtWgt=          12           1           1           1          12           1           1           1          12           1
 AtmWgt=  12.0000000   1.0078250   1.0078250   1.0078250  12.0000000   1.0078250   1.0078250   1.0078250  12.0000000   1.0078250
 NucSpn=           0           1           1           1           0           1           1           1           0           1
 AtZEff=   0.0000000   0.0000000   0.0000000   0.0000000   0.0000000   0.0000000   0.0000000   0.0000000   0.0000000   0.0000000
 NQMom=    0.0000000   0.0000000   0.0000000   0.0000000   0.0000000   0.0000000   0.0000000   0.0000000   0.0000000   0.0000000
 NMagM=    0.0000000   2.7928460   2.7928460   2.7928460   0.0000000   2.7928460   2.7928460   2.7928460   0.0000000   2.7928460
 AtZNuc=   6.0000000   1.0000000   1.0000000   1.0000000   6.0000000   1.0000000   1.0000000   1.0000000   6.0000000   1.0000000

  Atom        81          82          83          84          85          86          87          88          89          90
 IAtWgt=           1           1          23          16          12           1           1           1          12           1
 AtmWgt=   1.0078250   1.0078250  22.9897697  15.9949146  12.0000000   1.0078250   1.0078250   1.0078250  12.0000000   1.0078250
 NucSpn=           1           1           3           0           0           1           1           1           0           1
 AtZEff=   0.0000000   0.0000000   0.0000000   0.0000000   0.0000000   0.0000000   0.0000000   0.0000000   0.0000000   0.0000000
 NQMom=    0.0000000   0.0000000  10.4000000   0.0000000   0.0000000   0.0000000   0.0000000   0.0000000   0.0000000   0.0000000
 NMagM=    2.7928460   2.7928460   2.2175200   0.0000000   0.0000000   2.7928460   2.7928460   2.7928460   0.0000000   2.7928460
 AtZNuc=   1.0000000   1.0000000  11.0000000   8.0000000   6.0000000   1.0000000   1.0000000   1.0000000   6.0000000   1.0000000

  Atom        91          92          93          94          95          96          97          98          99         100
 IAtWgt=           1           1          12          19          19          19          12          19          19          19
 AtmWgt=   1.0078250   1.0078250  12.0000000  18.9984033  18.9984033  18.9984033  12.0000000  18.9984033  18.9984033  18.9984033
 NucSpn=           1           1           0           1           1           1           0           1           1           1
 AtZEff=   0.0000000   0.0000000   0.0000000   0.0000000   0.0000000   0.0000000   0.0000000   0.0000000   0.0000000   0.0000000
 NQMom=    0.0000000   0.0000000   0.0000000   0.0000000   0.0000000   0.0000000   0.0000000   0.0000000   0.0000000   0.0000000
 NMagM=    2.7928460   2.7928460   0.0000000   2.6288670   2.6288670   2.6288670   0.0000000   2.6288670   2.6288670   2.6288670
 AtZNuc=   1.0000000   1.0000000   6.0000000   9.0000000   9.0000000   9.0000000   6.0000000   9.0000000   9.0000000   9.0000000
 Leave Link  101 at Sun Jun 16 17:44:27 2019, MaxMem=  6442450944 cpu:              16.0 elap:               0.8
 (Enter /home/ekwan/sw/g16/l103.exe)

 GradGradGradGradGradGradGradGradGradGradGradGradGradGradGradGradGradGrad
 Berny optimization.
 Initialization pass.
                           ----------------------------
                           !    Initial Parameters    !
                           ! (Angstroms and Degrees)  !
 --------------------------                            --------------------------
 ! Name  Definition              Value          Derivative Info.                !
 --------------------------------------------------------------------------------
 ! R1    R(1,2)                  1.5241         calculate D2E/DX2 analytically  !
 ! R2    R(1,5)                  1.5232         calculate D2E/DX2 analytically  !
 ! R3    R(1,8)                  1.1042         calculate D2E/DX2 analytically  !
 ! R4    R(1,14)                 1.4209         calculate D2E/DX2 analytically  !
 ! R5    R(2,3)                  1.5237         calculate D2E/DX2 analytically  !
 ! R6    R(2,7)                  1.1037         calculate D2E/DX2 analytically  !
 ! R7    R(2,13)                 1.4165         calculate D2E/DX2 analytically  !
 ! R8    R(3,6)                  1.1039         calculate D2E/DX2 analytically  !
 ! R9    R(3,11)                 1.4153         calculate D2E/DX2 analytically  !
 ! R10   R(3,12)                 1.398          calculate D2E/DX2 analytically  !
 ! R11   R(4,5)                  1.5269         calculate D2E/DX2 analytically  !
 ! R12   R(4,9)                  1.1036         calculate D2E/DX2 analytically  !
 ! R13   R(4,11)                 1.4473         calculate D2E/DX2 analytically  !
 ! R14   R(4,16)                 1.5277         calculate D2E/DX2 analytically  !
 ! R15   R(5,10)                 1.105          calculate D2E/DX2 analytically  !
 ! R16   R(5,15)                 1.4212         calculate D2E/DX2 analytically  !
 ! R17   R(10,37)                1.9933         calculate D2E/DX2 analytically  !
 ! R18   R(12,79)                1.4159         calculate D2E/DX2 analytically  !
 ! R19   R(13,20)                1.4109         calculate D2E/DX2 analytically  !
 ! R20   R(14,24)                1.4114         calculate D2E/DX2 analytically  !
 ! R21   R(15,28)                1.4142         calculate D2E/DX2 analytically  !
 ! R22   R(16,17)                1.1162         calculate D2E/DX2 analytically  !
 ! R23   R(16,18)                1.1206         calculate D2E/DX2 analytically  !
 ! R24   R(16,19)                1.3656         calculate D2E/DX2 analytically  !
 ! R25   R(18,91)                2.2072         calculate D2E/DX2 analytically  !
 ! R26   R(19,37)                2.1191         calculate D2E/DX2 analytically  !
 ! R27   R(19,83)                2.3007         calculate D2E/DX2 analytically  !
 ! R28   R(20,21)                1.1041         calculate D2E/DX2 analytically  !
 ! R29   R(20,22)                1.0991         calculate D2E/DX2 analytically  !
 ! R30   R(20,23)                1.0942         calculate D2E/DX2 analytically  !
 ! R31   R(24,25)                1.0986         calculate D2E/DX2 analytically  !
 ! R32   R(24,26)                1.102          calculate D2E/DX2 analytically  !
 ! R33   R(24,27)                1.0942         calculate D2E/DX2 analytically  !
 ! R34   R(28,29)                1.1012         calculate D2E/DX2 analytically  !
 ! R35   R(28,30)                1.1012         calculate D2E/DX2 analytically  !
 ! R36   R(28,31)                1.0947         calculate D2E/DX2 analytically  !
 ! R37   R(32,33)                1.5238         calculate D2E/DX2 analytically  !
 ! R38   R(32,36)                1.5255         calculate D2E/DX2 analytically  !
 ! R39   R(32,39)                1.1026         calculate D2E/DX2 analytically  !
 ! R40   R(32,45)                1.4143         calculate D2E/DX2 analytically  !
 ! R41   R(33,34)                1.4895         calculate D2E/DX2 analytically  !
 ! R42   R(33,38)                1.1097         calculate D2E/DX2 analytically  !
 ! R43   R(33,44)                1.41           calculate D2E/DX2 analytically  !
 ! R44   R(34,37)                1.0846         calculate D2E/DX2 analytically  !
 ! R45   R(34,42)                1.2922         calculate D2E/DX2 analytically  !
 ! R46   R(34,53)                2.0941         calculate D2E/DX2 analytically  !
 ! R47   R(35,36)                1.521          calculate D2E/DX2 analytically  !
 ! R48   R(35,40)                1.0987         calculate D2E/DX2 analytically  !
 ! R49   R(35,42)                1.472          calculate D2E/DX2 analytically  !
 ! R50   R(35,47)                1.5024         calculate D2E/DX2 analytically  !
 ! R51   R(36,41)                1.1012         calculate D2E/DX2 analytically  !
 ! R52   R(36,46)                1.414          calculate D2E/DX2 analytically  !
 ! R53   R(42,60)                2.2236         calculate D2E/DX2 analytically  !
 ! R54   R(43,51)                1.468          calculate D2E/DX2 analytically  !
 ! R55   R(44,63)                1.4258         calculate D2E/DX2 analytically  !
 ! R56   R(45,67)                1.4167         calculate D2E/DX2 analytically  !
 ! R57   R(46,71)                1.4181         calculate D2E/DX2 analytically  !
 ! R58   R(47,48)                1.104          calculate D2E/DX2 analytically  !
 ! R59   R(47,49)                1.1046         calculate D2E/DX2 analytically  !
 ! R60   R(47,50)                1.4058         calculate D2E/DX2 analytically  !
 ! R61   R(50,75)                1.4114         calculate D2E/DX2 analytically  !
 ! R62   R(51,52)                1.4853         calculate D2E/DX2 analytically  !
 ! R63   R(51,53)                1.5134         calculate D2E/DX2 analytically  !
 ! R64   R(51,54)                1.7934         calculate D2E/DX2 analytically  !
 ! R65   R(54,55)                1.3929         calculate D2E/DX2 analytically  !
 ! R66   R(54,56)                1.3881         calculate D2E/DX2 analytically  !
 ! R67   R(55,57)                1.3909         calculate D2E/DX2 analytically  !
 ! R68   R(55,58)                1.087          calculate D2E/DX2 analytically  !
 ! R69   R(56,59)                1.3929         calculate D2E/DX2 analytically  !
 ! R70   R(56,60)                1.0874         calculate D2E/DX2 analytically  !
 ! R71   R(57,61)                1.3956         calculate D2E/DX2 analytically  !
 ! R72   R(57,93)                1.4989         calculate D2E/DX2 analytically  !
 ! R73   R(59,61)                1.389          calculate D2E/DX2 analytically  !
 ! R74   R(59,97)                1.4987         calculate D2E/DX2 analytically  !
 ! R75   R(61,62)                1.0872         calculate D2E/DX2 analytically  !
 ! R76   R(63,64)                1.0995         calculate D2E/DX2 analytically  !
 ! R77   R(63,65)                1.0948         calculate D2E/DX2 analytically  !
 ! R78   R(63,66)                1.0943         calculate D2E/DX2 analytically  !
 ! R79   R(67,68)                1.0976         calculate D2E/DX2 analytically  !
 ! R80   R(67,69)                1.1014         calculate D2E/DX2 analytically  !
 ! R81   R(67,70)                1.0932         calculate D2E/DX2 analytically  !
 ! R82   R(71,72)                1.0997         calculate D2E/DX2 analytically  !
 ! R83   R(71,73)                1.1005         calculate D2E/DX2 analytically  !
 ! R84   R(71,74)                1.0927         calculate D2E/DX2 analytically  !
 ! R85   R(75,76)                1.0924         calculate D2E/DX2 analytically  !
 ! R86   R(75,77)                1.1023         calculate D2E/DX2 analytically  !
 ! R87   R(75,78)                1.1018         calculate D2E/DX2 analytically  !
 ! R88   R(79,80)                1.0922         calculate D2E/DX2 analytically  !
 ! R89   R(79,81)                1.0992         calculate D2E/DX2 analytically  !
 ! R90   R(79,82)                1.1015         calculate D2E/DX2 analytically  !
 ! R91   R(83,84)                2.3378         calculate D2E/DX2 analytically  !
 ! R92   R(84,85)                1.4118         calculate D2E/DX2 analytically  !
 ! R93   R(84,89)                1.4168         calculate D2E/DX2 analytically  !
 ! R94   R(85,86)                1.1019         calculate D2E/DX2 analytically  !
 ! R95   R(85,87)                1.093          calculate D2E/DX2 analytically  !
 ! R96   R(85,88)                1.1007         calculate D2E/DX2 analytically  !
 ! R97   R(89,90)                1.1008         calculate D2E/DX2 analytically  !
 ! R98   R(89,91)                1.0953         calculate D2E/DX2 analytically  !
 ! R99   R(89,92)                1.1022         calculate D2E/DX2 analytically  !
 ! R100  R(93,94)                1.354          calculate D2E/DX2 analytically  !
 ! R101  R(93,95)                1.3481         calculate D2E/DX2 analytically  !
 ! R102  R(93,96)                1.3436         calculate D2E/DX2 analytically  !
 ! R103  R(97,98)                1.3491         calculate D2E/DX2 analytically  !
 ! R104  R(97,99)                1.3534         calculate D2E/DX2 analytically  !
 ! R105  R(97,100)               1.3458         calculate D2E/DX2 analytically  !
 ! A1    A(2,1,5)              110.1232         calculate D2E/DX2 analytically  !
 ! A2    A(2,1,8)              108.6566         calculate D2E/DX2 analytically  !
 ! A3    A(2,1,14)             107.5219         calculate D2E/DX2 analytically  !
 ! A4    A(5,1,8)              109.2017         calculate D2E/DX2 analytically  !
 ! A5    A(5,1,14)             111.632          calculate D2E/DX2 analytically  !
 ! A6    A(8,1,14)             109.6488         calculate D2E/DX2 analytically  !
 ! A7    A(1,2,3)              110.687          calculate D2E/DX2 analytically  !
 ! A8    A(1,2,7)              108.4437         calculate D2E/DX2 analytically  !
 ! A9    A(1,2,13)             111.7285         calculate D2E/DX2 analytically  !
 ! A10   A(3,2,7)              106.827          calculate D2E/DX2 analytically  !
 ! A11   A(3,2,13)             108.6289         calculate D2E/DX2 analytically  !
 ! A12   A(7,2,13)             110.4133         calculate D2E/DX2 analytically  !
 ! A13   A(2,3,6)              110.9057         calculate D2E/DX2 analytically  !
 ! A14   A(2,3,11)             110.5183         calculate D2E/DX2 analytically  !
 ! A15   A(2,3,12)             108.2985         calculate D2E/DX2 analytically  !
 ! A16   A(6,3,11)             104.6211         calculate D2E/DX2 analytically  !
 ! A17   A(6,3,12)             110.2569         calculate D2E/DX2 analytically  !
 ! A18   A(11,3,12)            112.2419         calculate D2E/DX2 analytically  !
 ! A19   A(5,4,9)              108.1184         calculate D2E/DX2 analytically  !
 ! A20   A(5,4,11)             108.9605         calculate D2E/DX2 analytically  !
 ! A21   A(5,4,16)             114.9002         calculate D2E/DX2 analytically  !
 ! A22   A(9,4,11)             108.6335         calculate D2E/DX2 analytically  !
 ! A23   A(9,4,16)             109.4083         calculate D2E/DX2 analytically  !
 ! A24   A(11,4,16)            106.6729         calculate D2E/DX2 analytically  !
 ! A25   A(1,5,4)              111.0603         calculate D2E/DX2 analytically  !
 ! A26   A(1,5,10)             107.6122         calculate D2E/DX2 analytically  !
 ! A27   A(1,5,15)             109.1723         calculate D2E/DX2 analytically  !
 ! A28   A(4,5,10)             109.3794         calculate D2E/DX2 analytically  !
 ! A29   A(4,5,15)             109.8136         calculate D2E/DX2 analytically  !
 ! A30   A(10,5,15)            109.7685         calculate D2E/DX2 analytically  !
 ! A31   A(5,10,37)            142.7644         calculate D2E/DX2 analytically  !
 ! A32   A(3,11,4)             113.5298         calculate D2E/DX2 analytically  !
 ! A33   A(3,12,79)            112.3941         calculate D2E/DX2 analytically  !
 ! A34   A(2,13,20)            113.3872         calculate D2E/DX2 analytically  !
 ! A35   A(1,14,24)            114.032          calculate D2E/DX2 analytically  !
 ! A36   A(5,15,28)            112.9122         calculate D2E/DX2 analytically  !
 ! A37   A(4,16,17)            105.5311         calculate D2E/DX2 analytically  !
 ! A38   A(4,16,18)            104.9295         calculate D2E/DX2 analytically  !
 ! A39   A(4,16,19)            114.3787         calculate D2E/DX2 analytically  !
 ! A40   A(17,16,18)           104.5242         calculate D2E/DX2 analytically  !
 ! A41   A(17,16,19)           114.0627         calculate D2E/DX2 analytically  !
 ! A42   A(18,16,19)           112.467          calculate D2E/DX2 analytically  !
 ! A43   A(16,18,91)           103.9289         calculate D2E/DX2 analytically  !
 ! A44   A(16,19,37)           122.6714         calculate D2E/DX2 analytically  !
 ! A45   A(16,19,83)           107.3524         calculate D2E/DX2 analytically  !
 ! A46   A(37,19,83)            67.9848         calculate D2E/DX2 analytically  !
 ! A47   A(13,20,21)           111.4646         calculate D2E/DX2 analytically  !
 ! A48   A(13,20,22)           111.9674         calculate D2E/DX2 analytically  !
 ! A49   A(13,20,23)           106.9363         calculate D2E/DX2 analytically  !
 ! A50   A(21,20,22)           108.5144         calculate D2E/DX2 analytically  !
 ! A51   A(21,20,23)           108.5305         calculate D2E/DX2 analytically  !
 ! A52   A(22,20,23)           109.3521         calculate D2E/DX2 analytically  !
 ! A53   A(14,24,25)           112.0848         calculate D2E/DX2 analytically  !
 ! A54   A(14,24,26)           111.1078         calculate D2E/DX2 analytically  !
 ! A55   A(14,24,27)           106.7652         calculate D2E/DX2 analytically  !
 ! A56   A(25,24,26)           108.7699         calculate D2E/DX2 analytically  !
 ! A57   A(25,24,27)           109.2731         calculate D2E/DX2 analytically  !
 ! A58   A(26,24,27)           108.7647         calculate D2E/DX2 analytically  !
 ! A59   A(15,28,29)           111.3392         calculate D2E/DX2 analytically  !
 ! A60   A(15,28,30)           112.0122         calculate D2E/DX2 analytically  !
 ! A61   A(15,28,31)           106.9058         calculate D2E/DX2 analytically  !
 ! A62   A(29,28,30)           107.9835         calculate D2E/DX2 analytically  !
 ! A63   A(29,28,31)           109.1088         calculate D2E/DX2 analytically  !
 ! A64   A(30,28,31)           109.4529         calculate D2E/DX2 analytically  !
 ! A65   A(33,32,36)           108.3656         calculate D2E/DX2 analytically  !
 ! A66   A(33,32,39)           109.5584         calculate D2E/DX2 analytically  !
 ! A67   A(33,32,45)           108.4818         calculate D2E/DX2 analytically  !
 ! A68   A(36,32,39)           109.9934         calculate D2E/DX2 analytically  !
 ! A69   A(36,32,45)           109.6572         calculate D2E/DX2 analytically  !
 ! A70   A(39,32,45)           110.7347         calculate D2E/DX2 analytically  !
 ! A71   A(32,33,34)           112.4921         calculate D2E/DX2 analytically  !
 ! A72   A(32,33,38)           108.7467         calculate D2E/DX2 analytically  !
 ! A73   A(32,33,44)           115.7171         calculate D2E/DX2 analytically  !
 ! A74   A(34,33,38)           102.0058         calculate D2E/DX2 analytically  !
 ! A75   A(34,33,44)           108.4196         calculate D2E/DX2 analytically  !
 ! A76   A(38,33,44)           108.5171         calculate D2E/DX2 analytically  !
 ! A77   A(33,34,37)           118.8806         calculate D2E/DX2 analytically  !
 ! A78   A(33,34,42)           122.4844         calculate D2E/DX2 analytically  !
 ! A79   A(33,34,53)            97.8149         calculate D2E/DX2 analytically  !
 ! A80   A(37,34,42)           114.1557         calculate D2E/DX2 analytically  !
 ! A81   A(37,34,53)            93.5104         calculate D2E/DX2 analytically  !
 ! A82   A(42,34,53)            99.6496         calculate D2E/DX2 analytically  !
 ! A83   A(36,35,40)           109.97           calculate D2E/DX2 analytically  !
 ! A84   A(36,35,42)           110.5881         calculate D2E/DX2 analytically  !
 ! A85   A(36,35,47)           115.0645         calculate D2E/DX2 analytically  !
 ! A86   A(40,35,42)           105.0369         calculate D2E/DX2 analytically  !
 ! A87   A(40,35,47)           109.6967         calculate D2E/DX2 analytically  !
 ! A88   A(42,35,47)           105.9522         calculate D2E/DX2 analytically  !
 ! A89   A(32,36,35)           111.1096         calculate D2E/DX2 analytically  !
 ! A90   A(32,36,41)           108.5048         calculate D2E/DX2 analytically  !
 ! A91   A(32,36,46)           110.1568         calculate D2E/DX2 analytically  !
 ! A92   A(35,36,41)           109.0232         calculate D2E/DX2 analytically  !
 ! A93   A(35,36,46)           107.3835         calculate D2E/DX2 analytically  !
 ! A94   A(41,36,46)           110.6637         calculate D2E/DX2 analytically  !
 ! A95   A(10,37,19)            84.2371         calculate D2E/DX2 analytically  !
 ! A96   A(10,37,34)           126.5145         calculate D2E/DX2 analytically  !
 ! A97   A(19,37,34)           105.2229         calculate D2E/DX2 analytically  !
 ! A98   A(34,42,35)           119.5634         calculate D2E/DX2 analytically  !
 ! A99   A(34,42,60)            99.9585         calculate D2E/DX2 analytically  !
 ! A100  A(35,42,60)           108.1872         calculate D2E/DX2 analytically  !
 ! A101  A(33,44,63)           113.5268         calculate D2E/DX2 analytically  !
 ! A102  A(32,45,67)           113.5404         calculate D2E/DX2 analytically  !
 ! A103  A(36,46,71)           113.2488         calculate D2E/DX2 analytically  !
 ! A104  A(35,47,48)           108.4155         calculate D2E/DX2 analytically  !
 ! A105  A(35,47,49)           109.564          calculate D2E/DX2 analytically  !
 ! A106  A(35,47,50)           108.8144         calculate D2E/DX2 analytically  !
 ! A107  A(48,47,49)           107.4105         calculate D2E/DX2 analytically  !
 ! A108  A(48,47,50)           111.5802         calculate D2E/DX2 analytically  !
 ! A109  A(49,47,50)           111.0046         calculate D2E/DX2 analytically  !
 ! A110  A(47,50,75)           111.2126         calculate D2E/DX2 analytically  !
 ! A111  A(43,51,52)           115.4548         calculate D2E/DX2 analytically  !
 ! A112  A(43,51,53)           112.788          calculate D2E/DX2 analytically  !
 ! A113  A(43,51,54)           106.6811         calculate D2E/DX2 analytically  !
 ! A114  A(52,51,53)           111.4439         calculate D2E/DX2 analytically  !
 ! A115  A(52,51,54)           105.093          calculate D2E/DX2 analytically  !
 ! A116  A(53,51,54)           104.3041         calculate D2E/DX2 analytically  !
 ! A117  A(34,53,51)           114.6876         calculate D2E/DX2 analytically  !
 ! A118  A(51,54,55)           119.5324         calculate D2E/DX2 analytically  !
 ! A119  A(51,54,56)           119.6021         calculate D2E/DX2 analytically  !
 ! A120  A(55,54,56)           120.8289         calculate D2E/DX2 analytically  !
 ! A121  A(54,55,57)           119.0245         calculate D2E/DX2 analytically  !
 ! A122  A(54,55,58)           120.1128         calculate D2E/DX2 analytically  !
 ! A123  A(57,55,58)           120.86           calculate D2E/DX2 analytically  !
 ! A124  A(54,56,59)           119.5248         calculate D2E/DX2 analytically  !
 ! A125  A(54,56,60)           120.4923         calculate D2E/DX2 analytically  !
 ! A126  A(59,56,60)           119.9825         calculate D2E/DX2 analytically  !
 ! A127  A(55,57,61)           120.8057         calculate D2E/DX2 analytically  !
 ! A128  A(55,57,93)           120.5601         calculate D2E/DX2 analytically  !
 ! A129  A(61,57,93)           118.5931         calculate D2E/DX2 analytically  !
 ! A130  A(56,59,61)           120.4801         calculate D2E/DX2 analytically  !
 ! A131  A(56,59,97)           118.4796         calculate D2E/DX2 analytically  !
 ! A132  A(61,59,97)           120.9539         calculate D2E/DX2 analytically  !
 ! A133  A(42,60,56)           162.9424         calculate D2E/DX2 analytically  !
 ! A134  A(57,61,59)           119.3326         calculate D2E/DX2 analytically  !
 ! A135  A(57,61,62)           120.2429         calculate D2E/DX2 analytically  !
 ! A136  A(59,61,62)           120.4244         calculate D2E/DX2 analytically  !
 ! A137  A(44,63,64)           110.3978         calculate D2E/DX2 analytically  !
 ! A138  A(44,63,65)           111.6225         calculate D2E/DX2 analytically  !
 ! A139  A(44,63,66)           106.437          calculate D2E/DX2 analytically  !
 ! A140  A(64,63,65)           109.3967         calculate D2E/DX2 analytically  !
 ! A141  A(64,63,66)           109.3055         calculate D2E/DX2 analytically  !
 ! A142  A(65,63,66)           109.6209         calculate D2E/DX2 analytically  !
 ! A143  A(45,67,68)           111.7506         calculate D2E/DX2 analytically  !
 ! A144  A(45,67,69)           111.0932         calculate D2E/DX2 analytically  !
 ! A145  A(45,67,70)           106.5195         calculate D2E/DX2 analytically  !
 ! A146  A(68,67,69)           108.9866         calculate D2E/DX2 analytically  !
 ! A147  A(68,67,70)           109.4648         calculate D2E/DX2 analytically  !
 ! A148  A(69,67,70)           108.9601         calculate D2E/DX2 analytically  !
 ! A149  A(46,71,72)           111.1388         calculate D2E/DX2 analytically  !
 ! A150  A(46,71,73)           111.4698         calculate D2E/DX2 analytically  !
 ! A151  A(46,71,74)           106.6111         calculate D2E/DX2 analytically  !
 ! A152  A(72,71,73)           108.9102         calculate D2E/DX2 analytically  !
 ! A153  A(72,71,74)           109.3042         calculate D2E/DX2 analytically  !
 ! A154  A(73,71,74)           109.3567         calculate D2E/DX2 analytically  !
 ! A155  A(50,75,76)           107.1392         calculate D2E/DX2 analytically  !
 ! A156  A(50,75,77)           111.1428         calculate D2E/DX2 analytically  !
 ! A157  A(50,75,78)           111.3633         calculate D2E/DX2 analytically  !
 ! A158  A(76,75,77)           109.2797         calculate D2E/DX2 analytically  !
 ! A159  A(76,75,78)           109.3377         calculate D2E/DX2 analytically  !
 ! A160  A(77,75,78)           108.5431         calculate D2E/DX2 analytically  !
 ! A161  A(12,79,80)           106.8659         calculate D2E/DX2 analytically  !
 ! A162  A(12,79,81)           111.6812         calculate D2E/DX2 analytically  !
 ! A163  A(12,79,82)           110.9082         calculate D2E/DX2 analytically  !
 ! A164  A(80,79,81)           109.4426         calculate D2E/DX2 analytically  !
 ! A165  A(80,79,82)           109.307          calculate D2E/DX2 analytically  !
 ! A166  A(81,79,82)           108.5988         calculate D2E/DX2 analytically  !
 ! A167  A(19,83,84)            93.4978         calculate D2E/DX2 analytically  !
 ! A168  A(83,84,85)           130.2718         calculate D2E/DX2 analytically  !
 ! A169  A(83,84,89)           117.1195         calculate D2E/DX2 analytically  !
 ! A170  A(85,84,89)           111.5742         calculate D2E/DX2 analytically  !
 ! A171  A(84,85,86)           111.0108         calculate D2E/DX2 analytically  !
 ! A172  A(84,85,87)           107.6232         calculate D2E/DX2 analytically  !
 ! A173  A(84,85,88)           111.1408         calculate D2E/DX2 analytically  !
 ! A174  A(86,85,87)           109.2952         calculate D2E/DX2 analytically  !
 ! A175  A(86,85,88)           108.5349         calculate D2E/DX2 analytically  !
 ! A176  A(87,85,88)           109.2047         calculate D2E/DX2 analytically  !
 ! A177  A(84,89,90)           110.7985         calculate D2E/DX2 analytically  !
 ! A178  A(84,89,91)           106.4874         calculate D2E/DX2 analytically  !
 ! A179  A(84,89,92)           110.6739         calculate D2E/DX2 analytically  !
 ! A180  A(90,89,91)           110.4221         calculate D2E/DX2 analytically  !
 ! A181  A(90,89,92)           108.5416         calculate D2E/DX2 analytically  !
 ! A182  A(91,89,92)           109.9153         calculate D2E/DX2 analytically  !
 ! A183  A(18,91,89)           116.6504         calculate D2E/DX2 analytically  !
 ! A184  A(57,93,94)           111.1092         calculate D2E/DX2 analytically  !
 ! A185  A(57,93,95)           111.6893         calculate D2E/DX2 analytically  !
 ! A186  A(57,93,96)           112.4223         calculate D2E/DX2 analytically  !
 ! A187  A(94,93,95)           106.4665         calculate D2E/DX2 analytically  !
 ! A188  A(94,93,96)           107.1456         calculate D2E/DX2 analytically  !
 ! A189  A(95,93,96)           107.7005         calculate D2E/DX2 analytically  !
 ! A190  A(59,97,98)           112.1088         calculate D2E/DX2 analytically  !
 ! A191  A(59,97,99)           111.0882         calculate D2E/DX2 analytically  !
 ! A192  A(59,97,100)          112.3979         calculate D2E/DX2 analytically  !
 ! A193  A(98,97,99)           106.1706         calculate D2E/DX2 analytically  !
 ! A194  A(98,97,100)          107.6511         calculate D2E/DX2 analytically  !
 ! A195  A(99,97,100)          107.0825         calculate D2E/DX2 analytically  !
 ! D1    D(5,1,2,3)            -51.9449         calculate D2E/DX2 analytically  !
 ! D2    D(5,1,2,7)             64.9351         calculate D2E/DX2 analytically  !
 ! D3    D(5,1,2,13)          -173.1468         calculate D2E/DX2 analytically  !
 ! D4    D(8,1,2,3)             67.6205         calculate D2E/DX2 analytically  !
 ! D5    D(8,1,2,7)           -175.4995         calculate D2E/DX2 analytically  !
 ! D6    D(8,1,2,13)           -53.5814         calculate D2E/DX2 analytically  !
 ! D7    D(14,1,2,3)          -173.7745         calculate D2E/DX2 analytically  !
 ! D8    D(14,1,2,7)           -56.8945         calculate D2E/DX2 analytically  !
 ! D9    D(14,1,2,13)           65.0236         calculate D2E/DX2 analytically  !
 ! D10   D(2,1,5,4)             52.9566         calculate D2E/DX2 analytically  !
 ! D11   D(2,1,5,10)           -66.7332         calculate D2E/DX2 analytically  !
 ! D12   D(2,1,5,15)           174.1843         calculate D2E/DX2 analytically  !
 ! D13   D(8,1,5,4)            -66.277          calculate D2E/DX2 analytically  !
 ! D14   D(8,1,5,10)           174.0332         calculate D2E/DX2 analytically  !
 ! D15   D(8,1,5,15)            54.9507         calculate D2E/DX2 analytically  !
 ! D16   D(14,1,5,4)           172.3132         calculate D2E/DX2 analytically  !
 ! D17   D(14,1,5,10)           52.6235         calculate D2E/DX2 analytically  !
 ! D18   D(14,1,5,15)          -66.459          calculate D2E/DX2 analytically  !
 ! D19   D(2,1,14,24)         -143.0177         calculate D2E/DX2 analytically  !
 ! D20   D(5,1,14,24)           96.0971         calculate D2E/DX2 analytically  !
 ! D21   D(8,1,14,24)          -25.0531         calculate D2E/DX2 analytically  !
 ! D22   D(1,2,3,6)            171.0476         calculate D2E/DX2 analytically  !
 ! D23   D(1,2,3,11)            55.4865         calculate D2E/DX2 analytically  !
 ! D24   D(1,2,3,12)           -67.8423         calculate D2E/DX2 analytically  !
 ! D25   D(7,2,3,6)             53.1751         calculate D2E/DX2 analytically  !
 ! D26   D(7,2,3,11)           -62.386          calculate D2E/DX2 analytically  !
 ! D27   D(7,2,3,12)           174.2852         calculate D2E/DX2 analytically  !
 ! D28   D(13,2,3,6)           -65.935          calculate D2E/DX2 analytically  !
 ! D29   D(13,2,3,11)          178.5039         calculate D2E/DX2 analytically  !
 ! D30   D(13,2,3,12)           55.1751         calculate D2E/DX2 analytically  !
 ! D31   D(1,2,13,20)          -98.6543         calculate D2E/DX2 analytically  !
 ! D32   D(3,2,13,20)          138.9577         calculate D2E/DX2 analytically  !
 ! D33   D(7,2,13,20)           22.1232         calculate D2E/DX2 analytically  !
 ! D34   D(2,3,11,4)           -61.2471         calculate D2E/DX2 analytically  !
 ! D35   D(6,3,11,4)           179.3212         calculate D2E/DX2 analytically  !
 ! D36   D(12,3,11,4)           59.7658         calculate D2E/DX2 analytically  !
 ! D37   D(2,3,12,79)         -175.6771         calculate D2E/DX2 analytically  !
 ! D38   D(6,3,12,79)          -54.1665         calculate D2E/DX2 analytically  !
 ! D39   D(11,3,12,79)          62.041          calculate D2E/DX2 analytically  !
 ! D40   D(9,4,5,1)             61.895          calculate D2E/DX2 analytically  !
 ! D41   D(9,4,5,10)          -179.4748         calculate D2E/DX2 analytically  !
 ! D42   D(9,4,5,15)           -58.9555         calculate D2E/DX2 analytically  !
 ! D43   D(11,4,5,1)           -56.002          calculate D2E/DX2 analytically  !
 ! D44   D(11,4,5,10)           62.6281         calculate D2E/DX2 analytically  !
 ! D45   D(11,4,5,15)         -176.8525         calculate D2E/DX2 analytically  !
 ! D46   D(16,4,5,1)          -175.6015         calculate D2E/DX2 analytically  !
 ! D47   D(16,4,5,10)          -56.9713         calculate D2E/DX2 analytically  !
 ! D48   D(16,4,5,15)           63.548          calculate D2E/DX2 analytically  !
 ! D49   D(5,4,11,3)            61.1625         calculate D2E/DX2 analytically  !
 ! D50   D(9,4,11,3)           -56.4091         calculate D2E/DX2 analytically  !
 ! D51   D(16,4,11,3)         -174.2526         calculate D2E/DX2 analytically  !
 ! D52   D(5,4,16,17)          -63.3617         calculate D2E/DX2 analytically  !
 ! D53   D(5,4,16,18)         -173.4512         calculate D2E/DX2 analytically  !
 ! D54   D(5,4,16,19)           62.8347         calculate D2E/DX2 analytically  !
 ! D55   D(9,4,16,17)           58.4447         calculate D2E/DX2 analytically  !
 ! D56   D(9,4,16,18)          -51.6447         calculate D2E/DX2 analytically  !
 ! D57   D(9,4,16,19)         -175.3588         calculate D2E/DX2 analytically  !
 ! D58   D(11,4,16,17)         175.777          calculate D2E/DX2 analytically  !
 ! D59   D(11,4,16,18)          65.6875         calculate D2E/DX2 analytically  !
 ! D60   D(11,4,16,19)         -58.0265         calculate D2E/DX2 analytically  !
 ! D61   D(1,5,10,37)          129.1299         calculate D2E/DX2 analytically  !
 ! D62   D(4,5,10,37)            8.3773         calculate D2E/DX2 analytically  !
 ! D63   D(15,5,10,37)        -112.1696         calculate D2E/DX2 analytically  !
 ! D64   D(1,5,15,28)          134.9575         calculate D2E/DX2 analytically  !
 ! D65   D(4,5,15,28)         -103.0598         calculate D2E/DX2 analytically  !
 ! D66   D(10,5,15,28)          17.2237         calculate D2E/DX2 analytically  !
 ! D67   D(5,10,37,19)          22.7041         calculate D2E/DX2 analytically  !
 ! D68   D(5,10,37,34)         127.3975         calculate D2E/DX2 analytically  !
 ! D69   D(3,12,79,80)         173.6509         calculate D2E/DX2 analytically  !
 ! D70   D(3,12,79,81)         -66.6901         calculate D2E/DX2 analytically  !
 ! D71   D(3,12,79,82)          54.5949         calculate D2E/DX2 analytically  !
 ! D72   D(2,13,20,21)         -60.9261         calculate D2E/DX2 analytically  !
 ! D73   D(2,13,20,22)          60.8447         calculate D2E/DX2 analytically  !
 ! D74   D(2,13,20,23)        -179.3969         calculate D2E/DX2 analytically  !
 ! D75   D(1,14,24,25)         -68.4635         calculate D2E/DX2 analytically  !
 ! D76   D(1,14,24,26)          53.4643         calculate D2E/DX2 analytically  !
 ! D77   D(1,14,24,27)         171.916          calculate D2E/DX2 analytically  !
 ! D78   D(5,15,28,29)         -66.2362         calculate D2E/DX2 analytically  !
 ! D79   D(5,15,28,30)          54.7926         calculate D2E/DX2 analytically  !
 ! D80   D(5,15,28,31)         174.6812         calculate D2E/DX2 analytically  !
 ! D81   D(4,16,18,91)        -139.0535         calculate D2E/DX2 analytically  !
 ! D82   D(17,16,18,91)        110.1322         calculate D2E/DX2 analytically  !
 ! D83   D(19,16,18,91)        -14.1262         calculate D2E/DX2 analytically  !
 ! D84   D(4,16,19,37)         -20.3149         calculate D2E/DX2 analytically  !
 ! D85   D(4,16,19,83)          54.2491         calculate D2E/DX2 analytically  !
 ! D86   D(17,16,19,37)        101.3069         calculate D2E/DX2 analytically  !
 ! D87   D(17,16,19,83)        175.8709         calculate D2E/DX2 analytically  !
 ! D88   D(18,16,19,37)       -139.885          calculate D2E/DX2 analytically  !
 ! D89   D(18,16,19,83)        -65.321          calculate D2E/DX2 analytically  !
 ! D90   D(16,18,91,89)        145.8496         calculate D2E/DX2 analytically  !
 ! D91   D(16,19,37,10)        -13.019          calculate D2E/DX2 analytically  !
 ! D92   D(16,19,37,34)       -139.3417         calculate D2E/DX2 analytically  !
 ! D93   D(83,19,37,10)       -110.0772         calculate D2E/DX2 analytically  !
 ! D94   D(83,19,37,34)        123.6001         calculate D2E/DX2 analytically  !
 ! D95   D(16,19,83,84)         76.5071         calculate D2E/DX2 analytically  !
 ! D96   D(37,19,83,84)       -164.5656         calculate D2E/DX2 analytically  !
 ! D97   D(36,32,33,34)        -45.8966         calculate D2E/DX2 analytically  !
 ! D98   D(36,32,33,38)         66.3302         calculate D2E/DX2 analytically  !
 ! D99   D(36,32,33,44)       -171.2775         calculate D2E/DX2 analytically  !
 ! D100  D(39,32,33,34)         74.121          calculate D2E/DX2 analytically  !
 ! D101  D(39,32,33,38)       -173.6522         calculate D2E/DX2 analytically  !
 ! D102  D(39,32,33,44)        -51.2599         calculate D2E/DX2 analytically  !
 ! D103  D(45,32,33,34)       -164.8884         calculate D2E/DX2 analytically  !
 ! D104  D(45,32,33,38)        -52.6616         calculate D2E/DX2 analytically  !
 ! D105  D(45,32,33,44)         69.7307         calculate D2E/DX2 analytically  !
 ! D106  D(33,32,36,35)         57.6957         calculate D2E/DX2 analytically  !
 ! D107  D(33,32,36,41)        -62.1495         calculate D2E/DX2 analytically  !
 ! D108  D(33,32,36,46)        176.5683         calculate D2E/DX2 analytically  !
 ! D109  D(39,32,36,35)        -62.0497         calculate D2E/DX2 analytically  !
 ! D110  D(39,32,36,41)        178.1051         calculate D2E/DX2 analytically  !
 ! D111  D(39,32,36,46)         56.8229         calculate D2E/DX2 analytically  !
 ! D112  D(45,32,36,35)        175.9428         calculate D2E/DX2 analytically  !
 ! D113  D(45,32,36,41)         56.0977         calculate D2E/DX2 analytically  !
 ! D114  D(45,32,36,46)        -65.1846         calculate D2E/DX2 analytically  !
 ! D115  D(33,32,45,67)       -140.1447         calculate D2E/DX2 analytically  !
 ! D116  D(36,32,45,67)        101.6803         calculate D2E/DX2 analytically  !
 ! D117  D(39,32,45,67)        -19.8832         calculate D2E/DX2 analytically  !
 ! D118  D(32,33,34,37)       -170.3163         calculate D2E/DX2 analytically  !
 ! D119  D(32,33,34,42)         34.8314         calculate D2E/DX2 analytically  !
 ! D120  D(32,33,34,53)        -71.9045         calculate D2E/DX2 analytically  !
 ! D121  D(38,33,34,37)         73.345          calculate D2E/DX2 analytically  !
 ! D122  D(38,33,34,42)        -81.5073         calculate D2E/DX2 analytically  !
 ! D123  D(38,33,34,53)        171.7569         calculate D2E/DX2 analytically  !
 ! D124  D(44,33,34,37)        -41.0513         calculate D2E/DX2 analytically  !
 ! D125  D(44,33,34,42)        164.0964         calculate D2E/DX2 analytically  !
 ! D126  D(44,33,34,53)         57.3605         calculate D2E/DX2 analytically  !
 ! D127  D(32,33,44,63)        -81.4067         calculate D2E/DX2 analytically  !
 ! D128  D(34,33,44,63)        151.1522         calculate D2E/DX2 analytically  !
 ! D129  D(38,33,44,63)         41.1073         calculate D2E/DX2 analytically  !
 ! D130  D(33,34,37,10)       -143.069          calculate D2E/DX2 analytically  !
 ! D131  D(33,34,37,19)        -48.9408         calculate D2E/DX2 analytically  !
 ! D132  D(42,34,37,10)         13.7982         calculate D2E/DX2 analytically  !
 ! D133  D(42,34,37,19)        107.9263         calculate D2E/DX2 analytically  !
 ! D134  D(53,34,37,10)        116.0123         calculate D2E/DX2 analytically  !
 ! D135  D(53,34,37,19)       -149.8596         calculate D2E/DX2 analytically  !
 ! D136  D(33,34,42,35)        -31.9351         calculate D2E/DX2 analytically  !
 ! D137  D(33,34,42,60)       -149.5758         calculate D2E/DX2 analytically  !
 ! D138  D(37,34,42,35)        172.1322         calculate D2E/DX2 analytically  !
 ! D139  D(37,34,42,60)         54.4915         calculate D2E/DX2 analytically  !
 ! D140  D(53,34,42,35)         73.834          calculate D2E/DX2 analytically  !
 ! D141  D(53,34,42,60)        -43.8066         calculate D2E/DX2 analytically  !
 ! D142  D(33,34,53,51)       -120.4104         calculate D2E/DX2 analytically  !
 ! D143  D(37,34,53,51)         -0.6187         calculate D2E/DX2 analytically  !
 ! D144  D(42,34,53,51)        114.6144         calculate D2E/DX2 analytically  !
 ! D145  D(40,35,36,32)         61.7765         calculate D2E/DX2 analytically  !
 ! D146  D(40,35,36,41)       -178.6872         calculate D2E/DX2 analytically  !
 ! D147  D(40,35,36,46)        -58.7487         calculate D2E/DX2 analytically  !
 ! D148  D(42,35,36,32)        -53.778          calculate D2E/DX2 analytically  !
 ! D149  D(42,35,36,41)         65.7583         calculate D2E/DX2 analytically  !
 ! D150  D(42,35,36,46)       -174.3033         calculate D2E/DX2 analytically  !
 ! D151  D(47,35,36,32)       -173.7638         calculate D2E/DX2 analytically  !
 ! D152  D(47,35,36,41)        -54.2275         calculate D2E/DX2 analytically  !
 ! D153  D(47,35,36,46)         65.711          calculate D2E/DX2 analytically  !
 ! D154  D(36,35,42,34)         40.3326         calculate D2E/DX2 analytically  !
 ! D155  D(36,35,42,60)        153.638          calculate D2E/DX2 analytically  !
 ! D156  D(40,35,42,34)        -78.2663         calculate D2E/DX2 analytically  !
 ! D157  D(40,35,42,60)         35.0391         calculate D2E/DX2 analytically  !
 ! D158  D(47,35,42,34)        165.6453         calculate D2E/DX2 analytically  !
 ! D159  D(47,35,42,60)        -81.0493         calculate D2E/DX2 analytically  !
 ! D160  D(36,35,47,48)        -66.4472         calculate D2E/DX2 analytically  !
 ! D161  D(36,35,47,49)        176.6158         calculate D2E/DX2 analytically  !
 ! D162  D(36,35,47,50)         55.085          calculate D2E/DX2 analytically  !
 ! D163  D(40,35,47,48)         58.1558         calculate D2E/DX2 analytically  !
 ! D164  D(40,35,47,49)        -58.7813         calculate D2E/DX2 analytically  !
 ! D165  D(40,35,47,50)        179.688          calculate D2E/DX2 analytically  !
 ! D166  D(42,35,47,48)        171.0437         calculate D2E/DX2 analytically  !
 ! D167  D(42,35,47,49)         54.1066         calculate D2E/DX2 analytically  !
 ! D168  D(42,35,47,50)        -67.4241         calculate D2E/DX2 analytically  !
 ! D169  D(32,36,46,71)        122.4907         calculate D2E/DX2 analytically  !
 ! D170  D(35,36,46,71)       -116.3828         calculate D2E/DX2 analytically  !
 ! D171  D(41,36,46,71)          2.5056         calculate D2E/DX2 analytically  !
 ! D172  D(34,42,60,56)          6.178          calculate D2E/DX2 analytically  !
 ! D173  D(35,42,60,56)       -119.6222         calculate D2E/DX2 analytically  !
 ! D174  D(33,44,63,64)        -46.6064         calculate D2E/DX2 analytically  !
 ! D175  D(33,44,63,65)         75.3004         calculate D2E/DX2 analytically  !
 ! D176  D(33,44,63,66)       -165.1258         calculate D2E/DX2 analytically  !
 ! D177  D(32,45,67,68)        -60.6216         calculate D2E/DX2 analytically  !
 ! D178  D(32,45,67,69)         61.3391         calculate D2E/DX2 analytically  !
 ! D179  D(32,45,67,70)        179.8704         calculate D2E/DX2 analytically  !
 ! D180  D(36,46,71,72)        -63.1495         calculate D2E/DX2 analytically  !
 ! D181  D(36,46,71,73)         58.5487         calculate D2E/DX2 analytically  !
 ! D182  D(36,46,71,74)        177.8239         calculate D2E/DX2 analytically  !
 ! D183  D(35,47,50,75)        176.4761         calculate D2E/DX2 analytically  !
 ! D184  D(48,47,50,75)        -63.9429         calculate D2E/DX2 analytically  !
 ! D185  D(49,47,50,75)         55.8283         calculate D2E/DX2 analytically  !
 ! D186  D(47,50,75,76)       -179.4866         calculate D2E/DX2 analytically  !
 ! D187  D(47,50,75,77)        -60.1641         calculate D2E/DX2 analytically  !
 ! D188  D(47,50,75,78)         60.9939         calculate D2E/DX2 analytically  !
 ! D189  D(43,51,53,34)        152.5631         calculate D2E/DX2 analytically  !
 ! D190  D(52,51,53,34)         20.8138         calculate D2E/DX2 analytically  !
 ! D191  D(54,51,53,34)        -92.0692         calculate D2E/DX2 analytically  !
 ! D192  D(43,51,54,55)        -31.9427         calculate D2E/DX2 analytically  !
 ! D193  D(43,51,54,56)        150.2394         calculate D2E/DX2 analytically  !
 ! D194  D(52,51,54,55)         91.1179         calculate D2E/DX2 analytically  !
 ! D195  D(52,51,54,56)        -86.7            calculate D2E/DX2 analytically  !
 ! D196  D(53,51,54,55)       -151.5254         calculate D2E/DX2 analytically  !
 ! D197  D(53,51,54,56)         30.6568         calculate D2E/DX2 analytically  !
 ! D198  D(51,54,55,57)       -177.9027         calculate D2E/DX2 analytically  !
 ! D199  D(51,54,55,58)          2.7039         calculate D2E/DX2 analytically  !
 ! D200  D(56,54,55,57)         -0.1123         calculate D2E/DX2 analytically  !
 ! D201  D(56,54,55,58)       -179.5056         calculate D2E/DX2 analytically  !
 ! D202  D(51,54,56,59)        178.3647         calculate D2E/DX2 analytically  !
 ! D203  D(51,54,56,60)         -1.8808         calculate D2E/DX2 analytically  !
 ! D204  D(55,54,56,59)          0.5757         calculate D2E/DX2 analytically  !
 ! D205  D(55,54,56,60)       -179.6697         calculate D2E/DX2 analytically  !
 ! D206  D(54,55,57,61)         -0.3397         calculate D2E/DX2 analytically  !
 ! D207  D(54,55,57,93)        177.2947         calculate D2E/DX2 analytically  !
 ! D208  D(58,55,57,61)        179.049          calculate D2E/DX2 analytically  !
 ! D209  D(58,55,57,93)         -3.3166         calculate D2E/DX2 analytically  !
 ! D210  D(54,56,59,61)         -0.5942         calculate D2E/DX2 analytically  !
 ! D211  D(54,56,59,97)        176.0607         calculate D2E/DX2 analytically  !
 ! D212  D(60,56,59,61)        179.65           calculate D2E/DX2 analytically  !
 ! D213  D(60,56,59,97)         -3.6951         calculate D2E/DX2 analytically  !
 ! D214  D(54,56,60,42)         13.4619         calculate D2E/DX2 analytically  !
 ! D215  D(59,56,60,42)       -166.7847         calculate D2E/DX2 analytically  !
 ! D216  D(55,57,61,59)          0.3206         calculate D2E/DX2 analytically  !
 ! D217  D(55,57,61,62)       -179.608          calculate D2E/DX2 analytically  !
 ! D218  D(93,57,61,59)       -177.3595         calculate D2E/DX2 analytically  !
 ! D219  D(93,57,61,62)          2.7119         calculate D2E/DX2 analytically  !
 ! D220  D(55,57,93,94)       -105.3494         calculate D2E/DX2 analytically  !
 ! D221  D(55,57,93,95)        135.93           calculate D2E/DX2 analytically  !
 ! D222  D(55,57,93,96)         14.7264         calculate D2E/DX2 analytically  !
 ! D223  D(61,57,93,94)         72.3366         calculate D2E/DX2 analytically  !
 ! D224  D(61,57,93,95)        -46.384          calculate D2E/DX2 analytically  !
 ! D225  D(61,57,93,96)       -167.5876         calculate D2E/DX2 analytically  !
 ! D226  D(56,59,61,57)          0.1508         calculate D2E/DX2 analytically  !
 ! D227  D(56,59,61,62)       -179.9207         calculate D2E/DX2 analytically  !
 ! D228  D(97,59,61,57)       -176.4206         calculate D2E/DX2 analytically  !
 ! D229  D(97,59,61,62)          3.508          calculate D2E/DX2 analytically  !
 ! D230  D(56,59,97,98)         40.5765         calculate D2E/DX2 analytically  !
 ! D231  D(56,59,97,99)        -78.0329         calculate D2E/DX2 analytically  !
 ! D232  D(56,59,97,100)       162.0033         calculate D2E/DX2 analytically  !
 ! D233  D(61,59,97,98)       -142.7851         calculate D2E/DX2 analytically  !
 ! D234  D(61,59,97,99)         98.6055         calculate D2E/DX2 analytically  !
 ! D235  D(61,59,97,100)       -21.3583         calculate D2E/DX2 analytically  !
 ! D236  D(19,83,84,85)       -179.9443         calculate D2E/DX2 analytically  !
 ! D237  D(19,83,84,89)         12.7996         calculate D2E/DX2 analytically  !
 ! D238  D(83,84,85,86)       -106.7703         calculate D2E/DX2 analytically  !
 ! D239  D(83,84,85,87)         12.7947         calculate D2E/DX2 analytically  !
 ! D240  D(83,84,85,88)        132.325          calculate D2E/DX2 analytically  !
 ! D241  D(89,84,85,86)         61.041          calculate D2E/DX2 analytically  !
 ! D242  D(89,84,85,87)       -179.3941         calculate D2E/DX2 analytically  !
 ! D243  D(89,84,85,88)        -59.8638         calculate D2E/DX2 analytically  !
 ! D244  D(83,84,89,90)       -126.7214         calculate D2E/DX2 analytically  !
 ! D245  D(83,84,89,91)         -6.6099         calculate D2E/DX2 analytically  !
 ! D246  D(83,84,89,92)        112.8209         calculate D2E/DX2 analytically  !
 ! D247  D(85,84,89,90)         63.706          calculate D2E/DX2 analytically  !
 ! D248  D(85,84,89,91)       -176.1825         calculate D2E/DX2 analytically  !
 ! D249  D(85,84,89,92)        -56.7517         calculate D2E/DX2 analytically  !
 ! D250  D(84,89,91,18)        -69.2746         calculate D2E/DX2 analytically  !
 ! D251  D(90,89,91,18)         51.0798         calculate D2E/DX2 analytically  !
 ! D252  D(92,89,91,18)        170.8023         calculate D2E/DX2 analytically  !
 --------------------------------------------------------------------------------
 Trust Radius=1.00D-02 FncErr=1.00D-07 GrdErr=1.00D-06 EigMax=2.50D+02 EigMin=1.00D-04
 Number of steps in this run=    562 maximum allowed number of steps=    600.
 Search for a saddle point of order  1.
 GradGradGradGradGradGradGradGradGradGradGradGradGradGradGradGradGradGrad

 Leave Link  103 at Sun Jun 16 17:44:27 2019, MaxMem=  6442450944 cpu:               8.5 elap:               0.6
 (Enter /home/ekwan/sw/g16/l202.exe)
 Stoichiometry    C30H47F6NaO15S
 Framework group  C1[X(C30H47F6NaO15S)]
 Deg. of freedom   294
 Full point group                 C1      NOp   1
 Largest Abelian subgroup         C1      NOp   1
 Largest concise Abelian subgroup C1      NOp   1
                         Standard orientation:                         
 ---------------------------------------------------------------------
 Center     Atomic      Atomic             Coordinates (Angstroms)
 Number     Number       Type             X           Y           Z
 ---------------------------------------------------------------------
      1          6           0       -1.819349    1.557309    2.173513
      2          6           0       -2.154445    2.333783    0.905517
      3          6           0       -1.287629    3.581917    0.793746
      4          6           0        0.465756    2.604089    2.098610
      5          6           0       -0.319497    1.303536    2.251634
      6          1           0       -1.411275    4.060250   -0.193377
      7          1           0       -1.915398    1.699711    0.034348
      8          1           0       -2.132445    2.155574    3.047198
      9          1           0        0.191979    3.270662    2.934439
     10          1           0       -0.053491    0.615629    1.428805
     11          8           0        0.084388    3.240220    0.855816
     12          8           0       -1.659111    4.466792    1.810343
     13          8           0       -3.515728    2.723977    0.873893
     14          8           0       -2.555027    0.342248    2.138068
     15          8           0       -0.012733    0.699739    3.501131
     16          6           0        1.983818    2.437905    2.058129
     17          1           0        2.265326    2.019345    3.053887
     18          1           0        2.388958    3.482621    2.067706
     19          8           0        2.443097    1.709741    0.998017
     20          6           0       -4.325622    1.868596    0.097318
     21          1           0       -3.997087    1.847902   -0.956536
     22          1           0       -4.325124    0.839550    0.483308
     23          1           0       -5.342737    2.270126    0.136673
     24          6           0       -3.035756   -0.075561    3.397564
     25          1           0       -2.222455   -0.385130    4.068171
     26          1           0       -3.613803    0.724815    3.887160
     27          1           0       -3.698047   -0.927377    3.215885
     28          6           0        0.874857   -0.394563    3.380648
     29          1           0        0.408934   -1.230297    2.835590
     30          1           0        1.800990   -0.118607    2.852722
     31          1           0        1.117906   -0.720713    4.396987
     32          6           0        3.850320   -1.595333   -1.277373
     33          6           0        3.198223   -0.288686   -0.842272
     34          6           0        1.830469   -0.491250   -0.288219
     35          6           0        2.154911   -2.825802    0.109450
     36          6           0        3.635767   -2.629475   -0.176609
     37          1           0        1.209881    0.376939   -0.094421
     38          1           0        3.746903    0.108318    0.036793
     39          1           0        3.389146   -1.943203   -2.216535
     40          1           0        1.646118   -3.203121   -0.788280
     41          1           0        4.134156   -2.274051    0.738830
     42          8           0        1.508560   -1.535818    0.400987
     43          8           0       -0.495762    0.082835   -3.897056
     44          8           0        3.135967    0.720901   -1.824664
     45          8           0        5.235092   -1.368394   -1.453579
     46          8           0        4.158577   -3.881282   -0.575480
     47          6           0        1.845213   -3.716505    1.279086
     48          1           0        2.171184   -4.742015    1.032433
     49          1           0        0.753136   -3.746988    1.441822
     50          8           0        2.510232   -3.221579    2.414434
     51         16           0       -0.271443   -0.005410   -2.448984
     52          8           0       -0.144566    1.294784   -1.742244
     53          8           0        0.858801   -0.944455   -2.087072
     54          6           0       -1.730585   -0.777445   -1.748124
     55          6           0       -2.972499   -0.563948   -2.341637
     56          6           0       -1.615009   -1.542505   -0.595645
     57          6           0       -4.103122   -1.131830   -1.763881
     58          1           0       -3.048565    0.030479   -3.248546
     59          6           0       -2.754473   -2.113123   -0.033421
     60          1           0       -0.643425   -1.701224   -0.133863
     61          6           0       -4.001617   -1.911144   -0.610567
     62          1           0       -4.890637   -2.355934   -0.170212
     63          6           0        4.349907    1.455691   -1.963352
     64          1           0        4.736353    1.747167   -0.976122
     65          1           0        5.112284    0.878358   -2.496255
     66          1           0        4.103637    2.355363   -2.535488
     67          6           0        5.778718   -2.033959   -2.579838
     68          1           0        5.664590   -3.122930   -2.503022
     69          1           0        5.303792   -1.688737   -3.511666
     70          1           0        6.841690   -1.780148   -2.607748
     71          6           0        5.137386   -4.388904    0.316244
     72          1           0        6.017096   -3.730256    0.356223
     73          1           0        4.733465   -4.506619    1.333152
     74          1           0        5.435329   -5.366492   -0.070530
     75          6           0        2.189839   -3.976129    3.563348
     76          1           0        2.731222   -3.531717    4.401662
     77          1           0        1.107779   -3.944213    3.770963
     78          1           0        2.493923   -5.029057    3.449707
     79          6           0       -0.972285    5.702243    1.727785
     80          1           0       -1.408685    6.358557    2.483903
     81          1           0        0.102824    5.583040    1.923242
     82          1           0       -1.100136    6.157355    0.732896
     83         11           0        1.607229    2.678967   -0.913774
     84          8           0        3.132469    4.449656   -0.854584
     85          6           0        3.292163    5.546212   -1.729345
     86          1           0        4.193361    5.426885   -2.352012
     87          1           0        2.410439    5.586367   -2.374049
     88          1           0        3.375488    6.490902   -1.170614
     89          6           0        4.229672    4.327575    0.033506
     90          1           0        4.297360    5.205492    0.694167
     91          1           0        4.054641    3.419819    0.620894
     92          1           0        5.174928    4.236272   -0.526037
     93          6           0       -5.463352   -0.874996   -2.338658
     94          9           0       -6.163150   -0.009604   -1.567488
     95          9           0       -6.196460   -2.004281   -2.407601
     96          9           0       -5.406860   -0.348606   -3.573540
     97          6           0       -2.592225   -3.007534    1.158124
     98          9           0       -1.676401   -2.533442    2.027925
     99          9           0       -2.161233   -4.236398    0.789506
    100          9           0       -3.744707   -3.178409    1.831780
 ---------------------------------------------------------------------
 Rotational constants (GHZ):           0.0587138           0.0446499           0.0366743
 Leave Link  202 at Sun Jun 16 17:44:29 2019, MaxMem=  6442450944 cpu:              18.0 elap:               1.2
 (Enter /home/ekwan/sw/g16/l301.exe)
 Standard basis: 6-31G(d) (6D, 7F)
 Centers:      19     53     43     52
 SP 1 1.00
     Exponent=  8.4500000000D-02 Coefficients=  1.0000000000D+00  1.0000000000D+00
 ****
 Ernie: Thresh=  0.10000D-02 Tol=  0.10000D-05 Strict=F.
 There are   913 symmetry adapted cartesian basis functions of A   symmetry.
 There are   913 symmetry adapted basis functions of A   symmetry.
   913 basis functions,  1736 primitive gaussians,   913 cartesian basis functions
   214 alpha electrons      214 beta electrons
       nuclear repulsion energy      9771.6886844709 Hartrees.
 IExCor= 4134 DFT=T Ex+Corr=M06L ExCW=0 ScaHFX=  0.000000
 ScaDFX=  1.000000  1.000000  1.000000  1.000000 ScalE2=  1.000000  1.000000
 IRadAn=      5 IRanWt=     -1 IRanGd=            0 ICorTp=0 IEmpDi=131
 NAtoms=  100 NActive=  100 NUniq=  100 SFac= 1.00D+00 NAtFMM=   60 NAOKFM=T Big=T
 Integral buffers will be    131072 words long.
 Raffenetti 2 integral format.
 Two-electron integral symmetry is turned on.
 R6Disp:  Grimme-D3 Dispersion energy=       -0.0169045891 Hartrees.
 Nuclear repulsion after empirical dispersion term =     9771.6717798818 Hartrees.
 Force inversion solution in PCM.
 ------------------------------------------------------------------------------
 Polarizable Continuum Model (PCM)
 =================================
 Model                : PCM.
 Atomic radii         : UFF (Universal Force Field).
 Polarization charges : Total charges.
 Charge compensation  : None.
 Solution method      : Matrix inversion.
 Cavity type          : Scaled VdW (van der Waals Surface) (Alpha=1.100).
 Cavity algorithm     : GePol (No added spheres)
                        Default sphere list used, NSphG=  100.
                        Lebedev-Laikov grids with approx.  5.0 points / Ang**2.
                        Smoothing algorithm: York/Karplus (Gamma=1.0000).
                        Polarization charges: spherical gaussians, with
                                              point-specific exponents (IZeta= 3).
                        Self-potential: point-specific (ISelfS= 7).
                        Self-field    : sphere-specific E.n sum rule (ISelfD= 2).
 1st derivatives      : Analytical E(r).r(x)/FMM algorithm (CHGder, D1EAlg=3).
                        Cavity 1st derivative terms included.
 2nd derivatives      : Analytical E(r).r(xy)/FMM algorithm (CHGder, D2EAlg=3).
                        Cavity 2nd derivative terms included.
 Solvent              : TetraHydroFuran, Eps=   7.425700 Eps(inf)=   1.974025
 ------------------------------------------------------------------------------
 GePol: Number of generator spheres                  =     100
 GePol: Total number of spheres                      =     100
 GePol: Number of exposed spheres                    =     100 (100.00%)
 GePol: Number of points                             =    5929
 GePol: Average weight of points                     =       0.12
 GePol: Minimum weight of points                     =   0.17D-11
 GePol: Maximum weight of points                     =    0.21593
 GePol: Number of points with low weight             =     459
 GePol: Fraction of low-weight points (<1% of avg)   =       7.74%
 GePol: Cavity surface area                          =    732.173 Ang**2
 GePol: Cavity volume                                =    966.495 Ang**3
 Leave Link  301 at Sun Jun 16 17:44:29 2019, MaxMem=  6442450944 cpu:               9.6 elap:               0.7
[...]
 0017755,-0.00000388,-0.00080749,-0.00006882,-0.00007112,-0.00005518,0.
 00006487,-0.00003730,-0.00041659,-0.00070373,-0.00049238,0.00028778,0.
 00028594,0.00020540,0.00344633,0.00085331,-0.00148379,-0.00091919,-0.0
 0091352,0.00007085,-0.00158880,0.00033342,-0.00012159,-0.00018215,0.00
 095704,0.00151758,0.00055371,-0.00071395,0.00048332,0.00299873,0.00051
 550,0.00024848,0.00044066,0.00065814,0.00280806,0.00002626,-0.00018404
 ,-0.00017000,0.01891718,-0.04146641,-0.00009090,-0.00004220,-0.0007222
 2,-0.00067475,-0.00430993,-0.00280108,0.00050876,0.00022627,-0.0007002
 0,-0.00084134,0.00009768,0.00006237,-0.00002703,-0.00000761,-0.0000074
 0,-0.00001032,-0.00002695,-0.00000240,0.00001432,0.00000012,-0.0000098
 5,0.00000234,0.00002135,-0.00004507,-0.00005437,-0.00000695,0.00001731
 ,0.00000612,0.00000068,-0.00000103,0.00000456,-0.00000602,0.00000378,0
 .00000746,0.00000851,-0.00002668,0.00004690,0.00000718,0.00001175,-0.0
 0000904,-0.00000977,-0.00000462,-0.00001999,-0.00002087,0.00001176,0.0
 0000052,0.00000252,-0.00001092,-0.00002361,0.00003058,0.00001398,0.000
 01726,0.00001120,-0.00008560,-0.00000220,-0.00005364,0.00002829,0.0000
 0777,0.00007985,0.00015435,-0.00002679,-0.00000055,-0.00003077,-0.0000
 1266,-0.00002652,-0.00000830,0.00000258,-0.00000883,-0.00001723,0.0000
 2456,0.00017999,0.00015703,-0.00002007,-0.00004378,-0.00004328,0.00000
 776,0.00001459,0.00003098,-0.00002591,-0.00001081,-0.00000184,0.000006
 93,0.00000318,0.00000577,-0.00000302,-0.00000205,-0.00000865,-0.000001
 98,0.00002880,0.00000125,0.00001086,-0.00000219,-0.00000988,-0.0000005
 7,0.00002832,0.00001739,0.00000038,-0.00001271,-0.00000480,0.00001129,
 -0.00313744,0.00019386,-0.00078619,0.00085004,-0.00037314,-0.00004346,
 0.00093212,0.00047206,0.00026713,0.00080049,-0.00041466,0.00090030,0.0
 5074993,-0.22452968,-0.02207076,-0.01584649,-0.04515775,-0.04176176,-0
 .08310268,0.31761277,0.00027525,0.00039405,-0.00005215,-0.00010727,-0.
 00001695,-0.00017164,-0.00000171,-0.00000872,0.00000391,-0.00002701,0.
 00009419,-0.00007430,-0.00004369,0.00008135,-0.00016229,-0.00000697,-0
 .00003018,0.00001631,0.00000918,-0.00001864,0.00001064,-0.00003034,-0.
 00006827,-0.00000450,-0.00001114,-0.00000455,0.00001097,0.00000751,0.0
 0001911,-0.00001170,0.00002586,-0.00004179,0.00009682,0.00000320,-0.00
 000343,0.00003436,0.00015489,0.00009857,0.00018465,0.00005954,-0.00076
 728,0.00014374,0.00001800,-0.00027577,0.00011555,0.00007113,-0.0000436
 1,-0.00011478,0.00000956,0.00000259,0.00003942,-0.00002154,0.00001229,
 0.00002979,-0.00004780,0.00005798,0.00015071,-0.00006676,-0.00011923,-
 0.00017575,-0.00001925,-0.00004872,0.00008399,0.00000489,0.00001745,-0
 .00007783,-0.00000948,0.00002362,0.00001867,0.00011402,0.00038181,-0.0
 0001843,0.00007276,0.00000897,0.00009710,-0.00001532,-0.00018839,0.000
 02588,-0.00029922,0.00014120,0.00016209,-0.00001516,0.00039716,0.00021
 822,0.00005830,-0.00008827,-0.00006358,-0.00006672,-0.00008800,-0.0000
 6345,-0.00001756,-0.00003649,-0.00002921,-0.00004734,0.00000310,-0.000
 01851,0.00001431,0.00000108,0.00001304,-0.00026441,-0.00007770,-0.0003
 9731,-0.00008063,0.00001390,-0.00011581,-0.00001599,-0.00000094,0.0000
 0980,0.00000614,-0.00002982,-0.00002668,0.00001641,-0.00000599,-0.0000
 1748,-0.00000684,0.00000503,0.00001726,-0.00004189,-0.00000451,0.00003
 396,0.00002125,0.00000460,0.00000199,0.00015102,-0.00004713,0.00015208
 ,0.00030910,0.00018016,-0.00030864,0.00004515,0.00002206,0.00001869,0.
 00003490,0.00000021,0.00001294,0.00003968,-0.00002280,0.00003123,-0.00
 006071,-0.00001164,-0.00008760,-0.00003364,0.00001656,0.00001188,-0.00
 076230,-0.00024717,-0.00052658,-0.00001775,0.00002347,0.00018508,-0.00
 126222,-0.00057105,0.00038534,0.00031487,0.00043614,0.00007152,0.00065
 492,-0.00000408,0.00016366,-0.00009031,-0.00086133,-0.00020975,-0.0004
 2804,0.00041645,-0.00045660,-0.00111927,0.00029892,-0.00003750,0.00037
 730,-0.00059103,-0.00122014,-0.00001875,0.00004978,0.00010462,-0.00725
 555,0.02129769,0.00777638,0.00002068,0.00024126,-0.00001726,0.00167467
 ,0.00065909,0.00056579,-0.00030073,0.00035656,0.00011335,-0.00003290,-
 0.00002799,0.00000272,0.00000688,0.00000334,0.00000632,0.00000568,0.00
 000125,-0.00000232,-0.00000040,0.00000148,-0.00000188,-0.00000968,0.00
 000184,-0.00000168,-0.00000275,0.00000068,-0.00000224,0.00000072,-0.00
 000418,0.00000330,0.00000586,0.00000158,-0.00000055,-0.00002648,0.0000
 1382,-0.00003816,0.00000616,0.00000280,0.00000379,0.00000180,-0.000003
 86,0.00000916,-0.00000065,-0.00000071,0.00000183,0.00015457,0.00003281
 ,-0.00009605,-0.00001346,-0.00000559,0.00001034,-0.00003507,-0.0000205
 1,0.00003486,-0.00002827,0.00000681,0.00001131,0.00000167,0.00001343,-
 0.00000591,-0.00000073,0.00000209,0.00000014,0.00000076,0.00000036,-0.
 00000124,0.00000059,-0.00000441,0.00000620,-0.00004495,-0.00006770,-0.
 00005594,0.00001151,0.00000751,0.00001529,-0.00000214,-0.00000223,-0.0
 0000502,-0.00000118,-0.00000046,0.00000012,0.00000162,-0.00000343,0.00
 000105,0.00000082,0.00000264,0.00000255,-0.00001048,0.00000078,-0.0000
 1143,0.00000181,0.00000565,0.00000164,-0.00000186,-0.00000452,-0.00000
 208,0.00000101,-0.00000050,0.00000142,0.00120195,-0.00029257,0.0001982
 6,-0.00036170,0.00020594,0.00007297,-0.00033405,-0.00009511,-0.0000698
 6,-0.00028623,0.00016175,-0.00022918,0.00822610,-0.02184625,-0.0739507
 7,-0.00762836,-0.05085691,-0.01822262,-0.02524261,0.08043920,0.0942811
 0,-0.00005812,0.00003184,0.00000929,-0.00009615,0.00009532,0.00004827,
 -0.00012438,0.00014338,0.00001909,0.00005805,0.00008661,-0.00007441,-0
 .00014636,0.00030572,0.00002653,0.00001270,-0.00001159,0.00000393,-0.0
 0000535,0.00001372,-0.00002674,0.00001590,-0.00005504,-0.00004548,-0.0
 0000602,-0.00005187,-0.00001614,0.00006743,-0.00000818,-0.00007225,0.0
 0007992,-0.00013546,0.00003984,0.00003316,-0.00012019,-0.00004964,0.00
 016789,-0.00005173,-0.00004411,0.00067026,-0.00019535,-0.00039919,0.00
 026000,-0.00052432,-0.00005188,-0.00004695,0.00008955,0.00014393,0.000
 01981,0.00000787,-0.00002632,-0.00001164,-0.00008528,-0.00002422,-0.00
 004614,-0.00020584,-0.00012369,-0.00006344,-0.00007777,0.00006493,0.00
 002691,0.00006764,-0.00006516,-0.00004346,-0.00000702,0.00007907,0.000
 03613,-0.00003463,0.00000154,-0.00105894,-0.00053867,0.00056195,0.0001
 6675,0.00019874,0.00011558,0.00017036,0.00004716,-0.00000027,0.0001713
 8,-0.00055633,-0.00064523,-0.00007198,0.00088047,0.00046389,0.00000954
 ,-0.00017156,-0.00001811,-0.00006596,-0.00014201,-0.00010931,-0.000065
 74,-0.00009554,-0.00010464,0.00009436,0.00002185,-0.00007735,-0.000018
 11,0.00006380,-0.00004193,0.00033293,0.00057662,-0.00012291,0.00009960
 ,-0.00001838,-0.00014550,0.00016846,-0.00011463,0.00001699,0.00000282,
 0.00005422,0.00001110,-0.00000236,0.00000876,0.00003313,0.00000410,-0.
 00000175,-0.00000482,0.00002293,-0.00000842,-0.00003983,-0.00001748,0.
 00000229,-0.00000475,-0.00026910,-0.00036156,0.00020348,-0.00027811,-0
 .00022191,0.00067079,-0.00013099,-0.00013211,0.00006919,-0.00018380,-0
 .00000481,0.00010691,-0.00017997,0.00010008,-0.00000005,0.00094870,0.0
 0015635,0.00015655,-0.00019021,0.00002182,0.00003210,-0.00009082,-0.00
 030627,0.00010145,-0.00038995,0.00002535,-0.00040107,0.00125501,0.0007
 1634,-0.00058305,-0.00031567,-0.00057000,-0.00005580,-0.00046406,-0.00
 009824,0.00009796,-0.00092970,-0.00030372,-0.00030282,0.00037647,0.000
 10100,0.00001251,0.00205938,-0.00127016,0.00292191,0.00131390,-0.00069
 171,0.00069027,0.00017786,0.00010172,-0.00001131,-0.01189557,-0.003166
 44,0.01201577,0.00057410,0.00051024,-0.00051936,-0.00378562,0.00046444
 ,-0.00316293,0.00237300,0.00073562,0.00012790,0.00010651,0.00007512,-0
 .00000958,-0.00000821,-0.00000252,-0.00001259,-0.00002111,0.00000144,0
 .00000703,-0.00000486,-0.00001813,0.00000679,0.00004155,-0.00004847,-0
 .00008768,0.00000751,0.00001039,0.00000233,0.00000398,0.00000358,0.000
 01510,-0.00001923,0.00000061,0.00001010,0.00011631,-0.00004642,0.00007
 360,-0.00002559,-0.00001041,-0.00000825,0.00001876,-0.00000765,-0.0000
 0629,-0.00001170,0.00001751,0.00000055,0.00010898,-0.00020164,0.000217
 50,-0.00003780,-0.00000399,-0.00004162,0.00000063,0.00000036,0.0000384
 4,-0.00002849,0.00006360,-0.00000122,0.00001206,0.00005134,-0.00000781
 ,0.00000141,-0.00001279,-0.00000627,-0.00000220,0.00000062,0.00000296,
 -0.00000296,-0.00000478,0.00000814,0.00005225,0.00014768,-0.00001921,-
 0.00001256,-0.00004433,0.00001112,0.00000327,0.00003169,-0.00002060,-0
 .00000376,-0.00000282,0.00000433,0.00000269,0.00000303,0.00000257,-0.0
 0000275,-0.00000966,-0.00000254,0.00000657,0.00000899,0.00000026,-0.00
 000072,-0.00001178,0.00000065,0.00002217,0.00001778,0.00000397,-0.0000
 0373,-0.00000272,0.00000558,-0.00118884,-0.00012380,0.00010785,0.00040
 076,-0.00016562,-0.00014031,0.00037073,0.00021605,0.00001302,0.0002573
 0,-0.00005042,0.00011270,-0.18959749,-0.03222420,0.09072383,-0.0718924
 5,-0.02566453,-0.00256438,-0.03687359,0.03050791,0.03248324,0.30748693
 ,0.00014509,0.00032640,0.00006834,-0.00008290,0.00004449,0.00004174,0.
 00004188,0.00016776,0.00004389,-0.00000068,0.00008232,-0.00000517,0.00
 000600,0.00002348,0.00010244,-0.00000816,-0.00003163,0.00000594,0.0000
 0299,0.00002208,-0.00001529,-0.00000225,-0.00003801,-0.00004114,-0.000
 00139,-0.00002778,-0.00001467,0.00003368,-0.00000431,-0.00002779,-0.00
 002973,-0.00008355,-0.00002269,-0.00002695,-0.00015689,-0.00004197,0.0
 0000397,-0.00015206,-0.00007013,0.00012321,-0.00012270,-0.00002257,-0.
 00009361,-0.00006729,-0.00007988,0.00001064,0.00001058,0.00008016,0.00
 000149,0.00000721,-0.00002643,-0.00002388,-0.00004903,-0.00001312,-0.0
 0007230,-0.00008226,-0.00007238,0.00000405,0.00012817,0.00004509,0.000
 00865,0.00004465,-0.00002866,-0.00005686,0.00000154,0.00002239,0.00003
 658,-0.00004361,-0.00000688,0.00085755,0.00052938,-0.00024058,-0.00010
 685,-0.00011438,-0.00004752,-0.00020380,-0.00032179,-0.00010203,-0.001
 16011,-0.00157210,-0.00039025,0.00007473,0.00011003,0.00011775,-0.0000
 0951,-0.00002888,0.00001358,-0.00002782,-0.00002567,-0.00001534,-0.000
 02837,-0.00001627,-0.00004980,0.00007095,-0.00003638,-0.00001921,-0.00
 000400,0.00000675,-0.00004233,0.00029349,0.00015840,0.00027881,0.00011
 457,-0.00026233,-0.00001235,0.00005453,-0.00002732,0.00000689,0.000017
 11,0.00003642,0.00000049,-0.00001520,0.00000067,0.00002262,0.00000517,
 -0.00000236,-0.00000619,-0.00000320,-0.00000732,0.00000920,-0.00000366
 ,0.00000109,0.00000072,-0.00022626,0.00010025,-0.00006611,-0.00041821,
 -0.00016287,0.00073117,-0.00009541,-0.00003961,0.00002087,-0.00007993,
 0.00002842,0.00003556,-0.00007282,0.00008747,-0.00000772,0.00001333,0.
 00001712,0.00004139,-0.00005784,0.00002256,-0.00000698,0.00001121,-0.0
 0018417,-0.00006579,0.00000115,0.00008856,-0.00007602,0.00205785,0.000
 36999,-0.00073696,-0.00059085,-0.00062097,-0.00005144,-0.00081181,0.00
 013816,-0.00007949,-0.00083688,-0.00145089,0.00035712,-0.00044493,-0.0
 0027563,0.00038967,0.00235607,-0.00028057,0.00369855,-0.00012714,-0.00
 006590,-0.00009246,0.00000191,0.00002657,0.00002044,-0.02204886,0.0022
 1094,0.01701811,0.00017239,0.00038995,-0.00013670,-0.00060127,-0.00067
 907,0.00061888,-0.00002384,-0.00031188,0.00079446,0.00006554,0.0000449
 7,-0.00001317,-0.00000593,-0.00000407,-0.00000763,-0.00001571,-0.00000
 069,0.00000728,-0.00000066,-0.00000794,0.00000253,0.00001897,-0.000027
 65,-0.00003938,-0.00000026,0.00000849,0.00000309,0.00000100,0.00000115
 ,0.00000453,-0.00000762,0.00000118,0.00000512,0.00003485,-0.00002224,0
 .00003970,-0.00000451,0.00000100,-0.00000552,0.00000098,-0.00000258,-0
 .00000980,-0.00000968,0.00000820,-0.00000005,-0.00001390,-0.00006132,0
 .00006762,0.00000396,0.00000434,-0.00000612,0.00001331,-0.00001811,0.0
 0000035,-0.00001526,0.00002206,-0.00000055,0.00003738,0.00007526,-0.00
 001195,0.00000002,-0.00001570,-0.00000671,-0.00001227,-0.00000382,0.00
 000186,-0.00000476,-0.00000821,0.00001161,0.00009522,0.00010553,-0.000
 00403,-0.00002193,-0.00002749,0.00000290,0.00000663,0.00001928,-0.0000
 1398,-0.00000486,-0.00000121,0.00000371,0.00000161,0.00000345,-0.00000
 081,-0.00000145,-0.00000582,-0.00000166,0.00001464,0.00000218,0.000006
 54,-0.00000128,-0.00000712,-0.00000043,0.00001580,0.00001088,0.0000012
 7,-0.00000600,-0.00000232,0.00000537,-0.00132297,0.00008363,-0.0005236
 4,0.00040997,-0.00016763,-0.00000498,0.00044451,0.00020811,0.00012473,
 0.00028106,-0.00011185,0.00031016,-0.02691515,-0.07909578,0.02575425,-
 0.02566647,0.00320756,0.00030357,0.04225338,-0.00248166,-0.02910174,0.
 03220891,0.08043001,0.00023097,0.00035700,0.00002209,-0.00007175,-0.00
 008260,-0.00022514,0.00006402,-0.00011311,-0.00000860,-0.00006854,0.00
 004949,-0.00004404,0.00003491,-0.00009423,-0.00021912,-0.00001377,-0.0
 0002472,0.00001542,0.00001761,-0.00003192,0.00002801,-0.00002488,-0.00
 000013,0.00003155,-0.00000805,0.00002726,0.00002400,-0.00003788,0.0000
 2874,0.00003671,-0.00000844,0.00004005,0.00009571,-0.00000933,0.000083
 94,0.00007086,0.00007905,0.00015416,0.00022425,-0.00043907,-0.00045755
 ,0.00055958,-0.00010907,-0.00003549,0.00017153,0.00010137,-0.00009769,
 -0.00021436,0.00000034,-0.00000208,0.00006182,-0.00001432,0.00006592,0
 .00004743,-0.00000993,0.00018103,0.00024653,-0.00004047,-0.00011003,-0
 .00020023,-0.00002804,-0.00009665,0.00011034,0.00002880,0.00001076,-0.
 00012168,-0.00003042,0.00004575,0.00001909,0.00142198,0.00093785,-0.00
 060683,-0.00009255,-0.00012143,0.00003350,-0.00026118,-0.00036327,0.00
 000621,-0.00109794,-0.00029351,0.00015598,0.00002308,-0.00003949,-0.00
 003512,0.00001822,0.00000142,-0.00002076,-0.00003310,-0.00000844,-0.00
 000415,0.00001672,0.00001017,0.00002890,-0.00011308,0.00001847,0.00002
 139,0.00002425,-0.00001678,0.00005480,-0.00054245,-0.00035651,-0.00055
 535,-0.00015788,0.00018167,-0.00004409,-0.00009747,0.00005213,-0.00000
 424,-0.00000053,-0.00006748,-0.00003659,0.00002787,-0.00001076,-0.0000
 4228,-0.00001051,0.00000723,0.00002082,-0.00001568,0.00001145,0.000036
 17,0.00002504,0.00000197,0.00000311,0.00037803,0.00000267,0.00013336,0
 .00076686,0.00041342,-0.00120098,0.00014024,0.00008469,-0.00001391,0.0
 0013477,-0.00001498,-0.00004292,0.00013044,-0.00010042,0.00003004,-0.0
 0025337,-0.00003156,-0.00015341,0.00003586,-0.00000469,0.00001312,0.00
 011430,-0.00000450,-0.00010119,0.00009573,-0.00002416,0.00029804,-0.00
 326887,-0.00105656,0.00078154,0.00083730,0.00111033,0.00020896,0.00137
 604,-0.00010643,0.00021973,0.00245930,0.00127832,-0.00049356,0.0001393
 7,0.00033639,-0.00048109,-0.00452596,0.00323631,-0.00605627,0.00029819
 ,0.00037900,-0.00015229,-0.00001178,-0.00002449,-0.00003514,0.03764046
 ,0.01028945,-0.01743576,-0.00019359,-0.00034180,0.00010464,0.00148850,
 0.00016927,-0.00054049,0.00011588,0.00064436,-0.00193817,-0.00010220,-
 0.00007711,0.00001422,0.00001343,0.00000641,0.00001404,0.00002158,0.00
 000157,-0.00000830,0.00000135,0.00001169,-0.00000563,-0.00003239,0.000
 03275,0.00004937,-0.00000425,-0.00000764,-0.00000429,-0.00000126,-0.00
 000506,-0.00000471,0.00001544,0.00000024,-0.00000673,-0.00007711,0.000
 03636,-0.00007598,0.00001582,0.00000571,0.00000822,-0.00000394,-0.0000
 0029,0.00001435,0.00000803,-0.00001044,0.00000224,0.00008916,0.0001086
 1,-0.00016262,0.00000714,-0.00000282,0.00002400,-0.00004468,-0.0000154
 2,-0.00000272,-0.00001286,-0.00002034,0.00001048,-0.00001122,-0.000024
 28,-0.00000054,-0.00000173,0.00001124,0.00000424,0.00000425,0.00000052
 ,-0.00000323,0.00000291,-0.00000103,0.00000077,-0.00011166,-0.00017761
 ,-0.00006109,0.00002501,0.00003604,0.00001044,-0.00000587,-0.00002208,
 0.00000843,0.00000208,0.00000121,-0.00000281,-0.00000006,-0.00000616,0
 .00000037,0.00000271,0.00000879,0.00000413,-0.00001895,-0.00000321,-0.
 00001422,0.00000286,0.00001327,0.00000153,-0.00001646,-0.00001609,-0.0
 0000432,0.00000466,0.00000140,-0.00000253,0.00212362,-0.00036307,0.000
 61550,-0.00072559,0.00037026,0.00012251,-0.00066600,-0.00022493,-0.000
 16967,-0.00045296,0.00021719,-0.00046178,0.07994076,0.02713062,-0.1400
 8932,-0.01540179,-0.00382195,0.02166121,0.03113352,-0.02051524,-0.0086
 1940,-0.13239892,-0.01875632,0.15424641\\-0.00000138,-0.00000304,0.000
 00020,-0.00000103,-0.00000148,0.00000034,-0.00000222,-0.00000121,0.000
 00147,-0.00000176,-0.00000100,0.00000094,-0.00000086,-0.00000164,0.000
 00053,-0.00000247,-0.00000107,0.00000166,-0.00000085,-0.00000166,0.000
 00023,-0.00000171,-0.00000288,0.00000083,-0.00000238,-0.00000133,0.000
 00151,-0.00000053,-0.00000097,0.00000015,-0.00000190,-0.00000024,0.000
 00145,-0.00000275,-0.00000270,0.00000139,-0.00000231,-0.00000282,0.000
 00074,-0.00000043,-0.00000275,-0.00000027,-0.00000059,-0.00000195,0.00
 000023,-0.00000175,0.00000046,0.00000096,-0.00000152,-0.00000033,0.000
 00135,-0.00000241,0.00000025,0.00000183,-0.00000088,0.00000072,0.00000
 083,-0.00000047,-0.00000275,-0.00000026,-0.00000103,-0.00000220,0.0000
 0058,-0.00000021,-0.00000328,0.,-0.00000173,-0.00000379,0.00000019,-0.
 00000045,-0.00000350,-0.00000020,-0.00000018,-0.00000358,-0.00000085,-
 0.00000055,-0.00000465,-0.00000054,0.00000035,-0.00000407,-0.00000115,
 -0.00000015,-0.00000078,-0.00000012,0.00000060,-0.00000163,-0.00000072
 ,-0.00000004,-0.00000050,0.00000003,0.00000005,-0.00000159,-0.00000043
 ,0.00000144,0.00000288,-0.00000068,0.00000103,0.00000251,0.00000047,0.
 00000012,0.00000167,0.00000010,0.00000250,0.00000113,-0.00000080,0.000
 00190,0.00000232,-0.00000019,0.00000009,0.00000032,0.00000005,-0.00000
 009,0.00000204,0.00000005,0.00000161,0.00000293,-0.00000064,0.00000194
 ,0.00000098,-0.00000193,0.00000132,0.00000203,-0.00000096,0.00000100,0
 .00000008,-0.00000057,0.00000075,0.00000134,0.00000068,-0.00000007,0.0
 0000246,0.00000051,0.00000112,0.00000380,0.00000026,0.00000288,0.00000
 228,-0.00000155,0.00000247,0.00000033,-0.00000167,0.00000302,0.0000008
 0,-0.00000207,0.00000225,-0.00000039,-0.00000178,0.00000181,0.00000013
 ,-0.00000148,0.00000073,-0.00000050,-0.00000205,-0.00000033,0.00000158
 ,0.00000090,0.00000086,0.00000134,-0.00000058,0.00000073,-0.00000062,-
 0.00000040,0.00000097,-0.00000103,-0.00000080,0.00000194,-0.00000120,-
 0.00000172,0.00000069,-0.00000199,-0.00000138,0.00000052,-0.00000061,-
 0.00000070,0.00000072,-0.00000273,-0.00000096,0.00000126,0.00000012,-0
 .00000084,0.00000192,-0.00000253,-0.00000140,0.00000155,-0.00000339,-0
 .00000183,-0.00000049,0.00000371,0.00000082,-0.00000097,0.00000328,0.0
 0000141,-0.00000013,0.00000405,0.00000087,-0.00000102,0.00000376,0.000
 00152,0.00000201,0.00000450,-0.00000066,0.00000244,0.00000448,-0.00000
 081,0.00000166,0.00000482,-0.00000034,0.00000158,0.00000539,-0.0000000
 5,0.00000309,0.00000355,-0.00000180,0.00000224,0.00000318,-0.00000107,
 0.00000277,0.00000211,-0.00000136,0.00000362,0.00000310,-0.00000202,0.
 00000278,0.,-0.00000109,0.00000152,-0.00000081,-0.00000193,0.00000196,
 -0.00000126,-0.00000185,0.00000294,-0.00000050,-0.00000226,-0.00000342
 ,-0.00000151,0.00000229,-0.00000425,-0.00000230,0.00000273,-0.00000388
 ,-0.00000105,0.00000243,-0.00000383,-0.00000129,0.00000249,-0.00000246
 ,0.00000064,0.00000166,-0.00000241,0.00000245,0.00000242,-0.00000316,0
 .00000192,0.00000290,-0.00000289,0.00000307,0.00000281,-0.00000300,0.0
 0000246,0.00000281,-0.00000376,0.00000290,0.00000350,-0.00000259,0.000
 00231,0.00000189,-0.00000323,0.00000245,0.00000305,-0.00000198,0.00000
 222,0.00000162,-0.00000248,0.00000328,0.00000270,0.00000123,-0.0000026
 2,-0.00000198,0.00000039,-0.00000339,-0.00000094,0.00000164,-0.0000030
 4,-0.00000179,0.00000081,-0.00000207,-0.00000066,0.00000169,-0.0000026
 5,-0.00000240,0.00000172,-0.00000204,-0.00000140,0.00000278,-0.0000017
 0,-0.00000228,0.00000195,-0.00000348,-0.00000213\\\@


 DO NOT LET SELFISH MEN OR GREEDY INTERESTS SKIN YOUR COUNTRY OF ITS
 BEAUTY, ITS RICHES, OR ITS ROMANCE. -- THEODORE ROOSEVELT
 Job cpu time:       5 days 11 hours 27 minutes 53.0 seconds.
 Elapsed time:       0 days  4 hours 16 minutes  6.8 seconds.
 File lengths (MBytes):  RWF=   9958 Int=      0 D2E=      0 Chk=     87 Scr=      1
 Normal termination of Gaussian 16 at Mon Jun 17 02:23:48 2019.
