 Entering Gaussian System, Link 0=g16
 Input=clay_new-glu_gluC6-bisCF3-sm-b3p86-custom-pcm_thf.gjf
 Output=clay_new-glu_gluC6-bisCF3-sm-b3p86-custom-pcm_thf.out
 Initial command:
 /home/ekwan/sw/g16/l1.exe "/scratch/users/ekwan/clay_new-glu_gluC6-bisCF3-sm-b3p86-custom-pcm_thf/Gau-56793.inp" -scrdir="/scratch/users/ekwan/clay_new-glu_gluC6-bisCF3-sm-b3p86-custom-pcm_thf/"
 Entering Link 1 = /home/ekwan/sw/g16/l1.exe PID=     56794.
  
 Copyright (c) 1988,1990,1992,1993,1995,1998,2003,2009,2016,
            Gaussian, Inc.  All Rights Reserved.
  
 This is part of the Gaussian(R) 16 program.  It is based on
 the Gaussian(R) 09 system (copyright 2009, Gaussian, Inc.),
 the Gaussian(R) 03 system (copyright 2003, Gaussian, Inc.),
 the Gaussian(R) 98 system (copyright 1998, Gaussian, Inc.),
 the Gaussian(R) 94 system (copyright 1995, Gaussian, Inc.),
 the Gaussian 92(TM) system (copyright 1992, Gaussian, Inc.),
 the Gaussian 90(TM) system (copyright 1990, Gaussian, Inc.),
 the Gaussian 88(TM) system (copyright 1988, Gaussian, Inc.),
 the Gaussian 86(TM) system (copyright 1986, Carnegie Mellon
 University), and the Gaussian 82(TM) system (copyright 1983,
 Carnegie Mellon University). Gaussian is a federally registered
 trademark of Gaussian, Inc.
  
 This software contains proprietary and confidential information,
 including trade secrets, belonging to Gaussian, Inc.
  
 This software is provided under written license and may be
 used, copied, transmitted, or stored only in accord with that
 written license.
  
 The following legend is applicable only to US Government
 contracts under FAR:
  
                    RESTRICTED RIGHTS LEGEND
  
 Use, reproduction and disclosure by the US Government is
 subject to restrictions as set forth in subparagraphs (a)
 and (c) of the Commercial Computer Software - Restricted
 Rights clause in FAR 52.227-19.
  
 Gaussian, Inc.
 340 Quinnipiac St., Bldg. 40, Wallingford CT 06492
  
  
 ---------------------------------------------------------------
 Warning -- This program may not be used in any manner that
 competes with the business of Gaussian, Inc. or will provide
 assistance to any competitor of Gaussian, Inc.  The licensee
 of this program is prohibited from giving any competitor of
 Gaussian, Inc. access to this program.  By using this program,
 the user acknowledges that Gaussian, Inc. is engaged in the
 business of creating and licensing software in the field of
 computational chemistry and represents and warrants to the
 licensee that it is not a competitor of Gaussian, Inc. and that
 it will not use this program in any manner prohibited above.
 ---------------------------------------------------------------
  

 Cite this work as:
 Gaussian 16, Revision A.03,
 M. J. Frisch, G. W. Trucks, H. B. Schlegel, G. E. Scuseria, 
 M. A. Robb, J. R. Cheeseman, G. Scalmani, V. Barone, 
 G. A. Petersson, H. Nakatsuji, X. Li, M. Caricato, A. V. Marenich, 
 J. Bloino, B. G. Janesko, R. Gomperts, B. Mennucci, H. P. Hratchian, 
 J. V. Ortiz, A. F. Izmaylov, J. L. Sonnenberg, D. Williams-Young, 
 F. Ding, F. Lipparini, F. Egidi, J. Goings, B. Peng, A. Petrone, 
 T. Henderson, D. Ranasinghe, V. G. Zakrzewski, J. Gao, N. Rega, 
 G. Zheng, W. Liang, M. Hada, M. Ehara, K. Toyota, R. Fukuda, 
 J. Hasegawa, M. Ishida, T. Nakajima, Y. Honda, O. Kitao, H. Nakai, 
 T. Vreven, K. Throssell, J. A. Montgomery, Jr., J. E. Peralta, 
 F. Ogliaro, M. J. Bearpark, J. J. Heyd, E. N. Brothers, K. N. Kudin, 
 V. N. Staroverov, T. A. Keith, R. Kobayashi, J. Normand, 
 K. Raghavachari, A. P. Rendell, J. C. Burant, S. S. Iyengar, 
 J. Tomasi, M. Cossi, J. M. Millam, M. Klene, C. Adamo, R. Cammi, 
 J. W. Ochterski, R. L. Martin, K. Morokuma, O. Farkas, 
 J. B. Foresman, and D. J. Fox, Gaussian, Inc., Wallingford CT, 2016.
 
 ******************************************
 Gaussian 16:  AS64L-G16RevA.03 25-Dec-2016
                15-Jun-2019 
 ******************************************
 %nprocshared=32
 Will use up to   32 processors via shared memory.
 %mem=48GB
 ----------------------------------------------------------------------
 #p opt freq=noraman pop=none 6-31g* scrf=(pcm,solvent=tetrahydrofuran)
  b3p86 extrabasis
 ----------------------------------------------------------------------
 1/18=20,19=15,26=3,38=1/1,3;
 2/9=110,12=2,17=6,18=5,40=1/2;
 3/5=1,6=6,7=1,10=1,11=2,25=1,30=1,70=2201,71=1,72=20,74=-4/1,2,3;
 4//1;
 5/5=2,38=5,53=20/2;
 7//1,2,3,16;
 1/18=20,19=15,26=3/3(2);
 2/9=110/2;
 99//99;
 2/9=110/2;
 3/5=7,6=1,7=1,11=2,25=1,30=1,70=2205,71=1,72=20,74=-4,82=7/1,2,3;
 4/5=5,16=3,69=1/1;
 5/5=2,38=5,53=20/2;
 7//1,2,3,16;
 1/18=20,19=15,26=3/3(-5);
 2/9=110/2;
 99/9=1/99;
 Leave Link    1 at Sat Jun 15 06:58:55 2019, MaxMem=  6442450944 cpu:               7.2 elap:               0.3
 (Enter /home/ekwan/sw/g16/l101.exe)
 -----
 title
 -----
 Symbolic Z-matrix:
 Charge =  0 Multiplicity = 1
 6                     3.48273  -0.22656   0.7448 
 6                     3.3582   -0.46559  -0.75826 
 6                     1.89705  -0.35647  -1.21554 
 6                     1.32709   1.08158   0.59953 
 6                     2.76054   1.06164   1.12955 
 1                     1.80415  -0.40155  -2.30148 
 1                     3.89479   0.34828  -1.27291 
 1                     3.02018  -1.06243   1.28943 
 1                     0.74901   0.30191   1.11559 
 1                     3.3009    1.91445   0.6974 
 8                     1.29674   0.82231  -0.81597 
 8                     1.2106   -1.51345  -0.65871 
 8                     3.93176  -1.70469  -1.07916 
 8                     4.83775  -0.09015   1.11752 
 8                     2.68638   1.18052   2.53517 
 6                     0.63401   2.41156   0.85416 
 1                     0.49333   2.49646   1.93533 
 1                    -0.35524   2.40114   0.37491 
 8                     1.36869   3.54675   0.45818 
 16                   -0.09047  -2.11045  -1.42248 
 8                    -0.18579  -3.48536  -0.95934 
 8                     0.01484  -1.79659  -2.84366 
 6                    -1.45348  -1.1921   -0.73941 
 6                    -2.09984  -1.69009   0.38617 
 6                    -1.83993  -0.00361  -1.34842 
 6                    -3.16676  -0.96771   0.91229 
 1                    -1.78081  -2.62418   0.83472 
 6                    -2.90351   0.70586  -0.79988 
 1                    -1.32865   0.35547  -2.23389 
 6                    -3.56901   0.22915   0.32644 
 1                    -4.40017   0.78649   0.74327 
 6                     4.32882  -1.83353  -2.43315 
 1                     3.47095  -1.85335  -3.11746 
 1                     5.00207  -1.01665  -2.72654 
 1                     4.86     -2.78343  -2.51351 
 6                     5.42973  -1.27238   1.62538 
 1                     6.45719  -1.01568   1.8941 
 1                     4.90456  -1.62356   2.52467 
 1                     5.43714  -2.07292   0.87871 
 6                     3.58825   2.1252    3.08393 
 1                     3.42627   2.12161   4.16451 
 1                     4.62758   1.85283   2.87074 
 1                     3.38974   3.13321   2.69542 
 6                     1.23003   3.89149  -0.90776 
 1                     1.68396   4.8778   -1.03109 
 1                     0.16991   3.94787  -1.19315 
 1                     1.73234   3.17668  -1.56883 
 6                    -3.92755  -1.51621   2.08873 
 9                    -3.14122  -2.26511   2.8778 
 9                    -4.94889  -2.29456   1.68887 
 9                    -4.44816  -0.5324    2.83992 
 6                    -3.29585   2.02802  -1.39886 
 9                    -2.58882   3.03878  -0.84977 
 9                    -4.59304   2.30089  -1.1957 
 9                    -3.06683   2.06023  -2.72008 
 
 ITRead=  0  0  0  0  0  0  0  0  0  0  0  0  0  0  0  0  0  0  0  0
 ITRead=  0  0  0  0  0  0  0  0  0  0  0  0  0  0  0  0  0  0  0  0
 ITRead=  0  0  0  0  0  0  0  0  0  0  0  0  0  0  0
 MicOpt= -1 -1 -1 -1 -1 -1 -1 -1 -1 -1 -1 -1 -1 -1 -1 -1 -1 -1 -1 -1
 MicOpt= -1 -1 -1 -1 -1 -1 -1 -1 -1 -1 -1 -1 -1 -1 -1 -1 -1 -1 -1 -1
 MicOpt= -1 -1 -1 -1 -1 -1 -1 -1 -1 -1 -1 -1 -1 -1 -1
 NAtoms=     55 NQM=       55 NQMF=       0 NMMI=      0 NMMIF=      0
                NMic=       0 NMicF=      0.
                    Isotopes and Nuclear Properties:
 (Nuclear quadrupole moments (NQMom) in fm**2, nuclear magnetic moments (NMagM)
  in nuclear magnetons)

  Atom         1           2           3           4           5           6           7           8           9          10
 IAtWgt=          12          12          12          12          12           1           1           1           1           1
 AtmWgt=  12.0000000  12.0000000  12.0000000  12.0000000  12.0000000   1.0078250   1.0078250   1.0078250   1.0078250   1.0078250
 NucSpn=           0           0           0           0           0           1           1           1           1           1
 AtZEff=   0.0000000   0.0000000   0.0000000   0.0000000   0.0000000   0.0000000   0.0000000   0.0000000   0.0000000   0.0000000
 NQMom=    0.0000000   0.0000000   0.0000000   0.0000000   0.0000000   0.0000000   0.0000000   0.0000000   0.0000000   0.0000000
 NMagM=    0.0000000   0.0000000   0.0000000   0.0000000   0.0000000   2.7928460   2.7928460   2.7928460   2.7928460   2.7928460
 AtZNuc=   6.0000000   6.0000000   6.0000000   6.0000000   6.0000000   1.0000000   1.0000000   1.0000000   1.0000000   1.0000000

  Atom        11          12          13          14          15          16          17          18          19          20
 IAtWgt=          16          16          16          16          16          12           1           1          16          32
 AtmWgt=  15.9949146  15.9949146  15.9949146  15.9949146  15.9949146  12.0000000   1.0078250   1.0078250  15.9949146  31.9720718
 NucSpn=           0           0           0           0           0           0           1           1           0           0
 AtZEff=   0.0000000   0.0000000   0.0000000   0.0000000   0.0000000   0.0000000   0.0000000   0.0000000   0.0000000   0.0000000
 NQMom=    0.0000000   0.0000000   0.0000000   0.0000000   0.0000000   0.0000000   0.0000000   0.0000000   0.0000000   0.0000000
 NMagM=    0.0000000   0.0000000   0.0000000   0.0000000   0.0000000   0.0000000   2.7928460   2.7928460   0.0000000   0.0000000
 AtZNuc=   8.0000000   8.0000000   8.0000000   8.0000000   8.0000000   6.0000000   1.0000000   1.0000000   8.0000000  16.0000000

  Atom        21          22          23          24          25          26          27          28          29          30
 IAtWgt=          16          16          12          12          12          12           1          12           1          12
 AtmWgt=  15.9949146  15.9949146  12.0000000  12.0000000  12.0000000  12.0000000   1.0078250  12.0000000   1.0078250  12.0000000
 NucSpn=           0           0           0           0           0           0           1           0           1           0
 AtZEff=   0.0000000   0.0000000   0.0000000   0.0000000   0.0000000   0.0000000   0.0000000   0.0000000   0.0000000   0.0000000
 NQMom=    0.0000000   0.0000000   0.0000000   0.0000000   0.0000000   0.0000000   0.0000000   0.0000000   0.0000000   0.0000000
 NMagM=    0.0000000   0.0000000   0.0000000   0.0000000   0.0000000   0.0000000   2.7928460   0.0000000   2.7928460   0.0000000
 AtZNuc=   8.0000000   8.0000000   6.0000000   6.0000000   6.0000000   6.0000000   1.0000000   6.0000000   1.0000000   6.0000000

  Atom        31          32          33          34          35          36          37          38          39          40
 IAtWgt=           1          12           1           1           1          12           1           1           1          12
 AtmWgt=   1.0078250  12.0000000   1.0078250   1.0078250   1.0078250  12.0000000   1.0078250   1.0078250   1.0078250  12.0000000
 NucSpn=           1           0           1           1           1           0           1           1           1           0
 AtZEff=   0.0000000   0.0000000   0.0000000   0.0000000   0.0000000   0.0000000   0.0000000   0.0000000   0.0000000   0.0000000
 NQMom=    0.0000000   0.0000000   0.0000000   0.0000000   0.0000000   0.0000000   0.0000000   0.0000000   0.0000000   0.0000000
 NMagM=    2.7928460   0.0000000   2.7928460   2.7928460   2.7928460   0.0000000   2.7928460   2.7928460   2.7928460   0.0000000
 AtZNuc=   1.0000000   6.0000000   1.0000000   1.0000000   1.0000000   6.0000000   1.0000000   1.0000000   1.0000000   6.0000000

  Atom        41          42          43          44          45          46          47          48          49          50
 IAtWgt=           1           1           1          12           1           1           1          12          19          19
 AtmWgt=   1.0078250   1.0078250   1.0078250  12.0000000   1.0078250   1.0078250   1.0078250  12.0000000  18.9984033  18.9984033
 NucSpn=           1           1           1           0           1           1           1           0           1           1
 AtZEff=   0.0000000   0.0000000   0.0000000   0.0000000   0.0000000   0.0000000   0.0000000   0.0000000   0.0000000   0.0000000
 NQMom=    0.0000000   0.0000000   0.0000000   0.0000000   0.0000000   0.0000000   0.0000000   0.0000000   0.0000000   0.0000000
 NMagM=    2.7928460   2.7928460   2.7928460   0.0000000   2.7928460   2.7928460   2.7928460   0.0000000   2.6288670   2.6288670
 AtZNuc=   1.0000000   1.0000000   1.0000000   6.0000000   1.0000000   1.0000000   1.0000000   6.0000000   9.0000000   9.0000000

  Atom        51          52          53          54          55
 IAtWgt=          19          12          19          19          19
 AtmWgt=  18.9984033  12.0000000  18.9984033  18.9984033  18.9984033
 NucSpn=           1           0           1           1           1
 AtZEff=   0.0000000   0.0000000   0.0000000   0.0000000   0.0000000
 NQMom=    0.0000000   0.0000000   0.0000000   0.0000000   0.0000000
 NMagM=    2.6288670   0.0000000   2.6288670   2.6288670   2.6288670
 AtZNuc=   9.0000000   6.0000000   9.0000000   9.0000000   9.0000000
 Leave Link  101 at Sat Jun 15 06:58:55 2019, MaxMem=  6442450944 cpu:              17.4 elap:               0.7
 (Enter /home/ekwan/sw/g16/l103.exe)

 GradGradGradGradGradGradGradGradGradGradGradGradGradGradGradGradGradGrad
 Berny optimization.
 Initialization pass.
                           ----------------------------
                           !    Initial Parameters    !
                           ! (Angstroms and Degrees)  !
 --------------------------                            --------------------------
 ! Name  Definition              Value          Derivative Info.                !
 --------------------------------------------------------------------------------
 ! R1    R(1,2)                  1.527          estimate D2E/DX2                !
 ! R2    R(1,5)                  1.5261         estimate D2E/DX2                !
 ! R3    R(1,8)                  1.0997         estimate D2E/DX2                !
 ! R4    R(1,14)                 1.412          estimate D2E/DX2                !
 ! R5    R(2,3)                  1.5349         estimate D2E/DX2                !
 ! R6    R(2,7)                  1.1023         estimate D2E/DX2                !
 ! R7    R(2,13)                 1.4026         estimate D2E/DX2                !
 ! R8    R(3,6)                  1.0908         estimate D2E/DX2                !
 ! R9    R(3,11)                 1.3819         estimate D2E/DX2                !
 ! R10   R(3,12)                 1.456          estimate D2E/DX2                !
 ! R11   R(4,5)                  1.5284         estimate D2E/DX2                !
 ! R12   R(4,9)                  1.0993         estimate D2E/DX2                !
 ! R13   R(4,11)                 1.4394         estimate D2E/DX2                !
 ! R14   R(4,16)                 1.5212         estimate D2E/DX2                !
 ! R15   R(5,10)                 1.0982         estimate D2E/DX2                !
 ! R16   R(5,15)                 1.4126         estimate D2E/DX2                !
 ! R17   R(12,20)                1.6225         estimate D2E/DX2                !
 ! R18   R(13,32)                1.4169         estimate D2E/DX2                !
 ! R19   R(14,36)                1.4163         estimate D2E/DX2                !
 ! R20   R(15,40)                1.4167         estimate D2E/DX2                !
 ! R21   R(16,17)                1.0936         estimate D2E/DX2                !
 ! R22   R(16,18)                1.0993         estimate D2E/DX2                !
 ! R23   R(16,19)                1.409          estimate D2E/DX2                !
 ! R24   R(19,44)                1.4156         estimate D2E/DX2                !
 ! R25   R(20,21)                1.4539         estimate D2E/DX2                !
 ! R26   R(20,22)                1.4592         estimate D2E/DX2                !
 ! R27   R(20,23)                1.7798         estimate D2E/DX2                !
 ! R28   R(23,24)                1.3902         estimate D2E/DX2                !
 ! R29   R(23,25)                1.3902         estimate D2E/DX2                !
 ! R30   R(24,26)                1.3918         estimate D2E/DX2                !
 ! R31   R(24,27)                1.0842         estimate D2E/DX2                !
 ! R32   R(25,28)                1.3912         estimate D2E/DX2                !
 ! R33   R(25,29)                1.0837         estimate D2E/DX2                !
 ! R34   R(26,30)                1.3919         estimate D2E/DX2                !
 ! R35   R(26,48)                1.5045         estimate D2E/DX2                !
 ! R36   R(28,30)                1.3924         estimate D2E/DX2                !
 ! R37   R(28,52)                1.5036         estimate D2E/DX2                !
 ! R38   R(30,31)                1.0841         estimate D2E/DX2                !
 ! R39   R(32,33)                1.0976         estimate D2E/DX2                !
 ! R40   R(32,34)                1.0985         estimate D2E/DX2                !
 ! R41   R(32,35)                1.0913         estimate D2E/DX2                !
 ! R42   R(36,37)                1.0926         estimate D2E/DX2                !
 ! R43   R(36,38)                1.099          estimate D2E/DX2                !
 ! R44   R(36,39)                1.0947         estimate D2E/DX2                !
 ! R45   R(40,41)                1.0927         estimate D2E/DX2                !
 ! R46   R(40,42)                1.0954         estimate D2E/DX2                !
 ! R47   R(40,43)                1.0984         estimate D2E/DX2                !
 ! R48   R(44,45)                1.0927         estimate D2E/DX2                !
 ! R49   R(44,46)                1.0993         estimate D2E/DX2                !
 ! R50   R(44,47)                1.0956         estimate D2E/DX2                !
 ! R51   R(48,49)                1.3423         estimate D2E/DX2                !
 ! R52   R(48,50)                1.3449         estimate D2E/DX2                !
 ! R53   R(48,51)                1.3428         estimate D2E/DX2                !
 ! R54   R(52,53)                1.3502         estimate D2E/DX2                !
 ! R55   R(52,54)                1.3411         estimate D2E/DX2                !
 ! R56   R(52,55)                1.3413         estimate D2E/DX2                !
 ! A1    A(2,1,5)              109.9798         estimate D2E/DX2                !
 ! A2    A(2,1,8)              109.5248         estimate D2E/DX2                !
 ! A3    A(2,1,14)             110.6842         estimate D2E/DX2                !
 ! A4    A(5,1,8)              108.524          estimate D2E/DX2                !
 ! A5    A(5,1,14)             107.8206         estimate D2E/DX2                !
 ! A6    A(8,1,14)             110.2649         estimate D2E/DX2                !
 ! A7    A(1,2,3)              111.0848         estimate D2E/DX2                !
 ! A8    A(1,2,7)              107.7145         estimate D2E/DX2                !
 ! A9    A(1,2,13)             109.2767         estimate D2E/DX2                !
 ! A10   A(3,2,7)              105.7718         estimate D2E/DX2                !
 ! A11   A(3,2,13)             112.5761         estimate D2E/DX2                !
 ! A12   A(7,2,13)             110.265          estimate D2E/DX2                !
 ! A13   A(2,3,6)              112.007          estimate D2E/DX2                !
 ! A14   A(2,3,11)             112.8325         estimate D2E/DX2                !
 ! A15   A(2,3,12)             106.1639         estimate D2E/DX2                !
 ! A16   A(6,3,11)             106.6253         estimate D2E/DX2                !
 ! A17   A(6,3,12)             107.923          estimate D2E/DX2                !
 ! A18   A(11,3,12)            111.2504         estimate D2E/DX2                !
 ! A19   A(5,4,9)              108.7322         estimate D2E/DX2                !
 ! A20   A(5,4,11)             111.0057         estimate D2E/DX2                !
 ! A21   A(5,4,16)             112.3744         estimate D2E/DX2                !
 ! A22   A(9,4,11)             108.8338         estimate D2E/DX2                !
 ! A23   A(9,4,16)             107.5735         estimate D2E/DX2                !
 ! A24   A(11,4,16)            108.2095         estimate D2E/DX2                !
 ! A25   A(1,5,4)              111.555          estimate D2E/DX2                !
 ! A26   A(1,5,10)             108.8706         estimate D2E/DX2                !
 ! A27   A(1,5,15)             110.2885         estimate D2E/DX2                !
 ! A28   A(4,5,10)             108.3535         estimate D2E/DX2                !
 ! A29   A(4,5,15)             107.142          estimate D2E/DX2                !
 ! A30   A(10,5,15)            110.6127         estimate D2E/DX2                !
 ! A31   A(3,11,4)             115.395          estimate D2E/DX2                !
 ! A32   A(3,12,20)            119.3682         estimate D2E/DX2                !
 ! A33   A(2,13,32)            114.4289         estimate D2E/DX2                !
 ! A34   A(1,14,36)            114.5271         estimate D2E/DX2                !
 ! A35   A(5,15,40)            114.0887         estimate D2E/DX2                !
 ! A36   A(4,16,17)            106.9764         estimate D2E/DX2                !
 ! A37   A(4,16,18)            109.1928         estimate D2E/DX2                !
 ! A38   A(4,16,19)            114.8215         estimate D2E/DX2                !
 ! A39   A(17,16,18)           108.42           estimate D2E/DX2                !
 ! A40   A(17,16,19)           106.4026         estimate D2E/DX2                !
 ! A41   A(18,16,19)           110.754          estimate D2E/DX2                !
 ! A42   A(16,19,44)           114.6028         estimate D2E/DX2                !
 ! A43   A(12,20,21)           104.5112         estimate D2E/DX2                !
 ! A44   A(12,20,22)           108.7511         estimate D2E/DX2                !
 ! A45   A(12,20,23)           104.0978         estimate D2E/DX2                !
 ! A46   A(21,20,22)           121.2223         estimate D2E/DX2                !
 ! A47   A(21,20,23)           108.389          estimate D2E/DX2                !
 ! A48   A(22,20,23)           108.546          estimate D2E/DX2                !
 ! A49   A(20,23,24)           118.8134         estimate D2E/DX2                !
 ! A50   A(20,23,25)           119.0683         estimate D2E/DX2                !
 ! A51   A(24,23,25)           122.1181         estimate D2E/DX2                !
 ! A52   A(23,24,26)           118.4614         estimate D2E/DX2                !
 ! A53   A(23,24,27)           120.4487         estimate D2E/DX2                !
 ! A54   A(26,24,27)           121.0882         estimate D2E/DX2                !
 ! A55   A(23,25,28)           118.4079         estimate D2E/DX2                !
 ! A56   A(23,25,29)           120.6671         estimate D2E/DX2                !
 ! A57   A(28,25,29)           120.9231         estimate D2E/DX2                !
 ! A58   A(24,26,30)           120.5788         estimate D2E/DX2                !
 ! A59   A(24,26,48)           119.6046         estimate D2E/DX2                !
 ! A60   A(30,26,48)           119.7651         estimate D2E/DX2                !
 ! A61   A(25,28,30)           120.6476         estimate D2E/DX2                !
 ! A62   A(25,28,52)           119.3957         estimate D2E/DX2                !
 ! A63   A(30,28,52)           119.9062         estimate D2E/DX2                !
 ! A64   A(26,30,28)           119.7838         estimate D2E/DX2                !
 ! A65   A(26,30,31)           120.1184         estimate D2E/DX2                !
 ! A66   A(28,30,31)           120.0973         estimate D2E/DX2                !
 ! A67   A(13,32,33)           112.2357         estimate D2E/DX2                !
 ! A68   A(13,32,34)           111.0614         estimate D2E/DX2                !
 ! A69   A(13,32,35)           106.6142         estimate D2E/DX2                !
 ! A70   A(33,32,34)           109.0234         estimate D2E/DX2                !
 ! A71   A(33,32,35)           108.5915         estimate D2E/DX2                !
 ! A72   A(34,32,35)           109.2271         estimate D2E/DX2                !
 ! A73   A(14,36,37)           106.5663         estimate D2E/DX2                !
 ! A74   A(14,36,38)           111.1251         estimate D2E/DX2                !
 ! A75   A(14,36,39)           111.6331         estimate D2E/DX2                !
 ! A76   A(37,36,38)           108.8549         estimate D2E/DX2                !
 ! A77   A(37,36,39)           109.4628         estimate D2E/DX2                !
 ! A78   A(38,36,39)           109.1272         estimate D2E/DX2                !
 ! A79   A(15,40,41)           106.6495         estimate D2E/DX2                !
 ! A80   A(15,40,42)           111.2749         estimate D2E/DX2                !
 ! A81   A(15,40,43)           111.0944         estimate D2E/DX2                !
 ! A82   A(41,40,42)           109.4093         estimate D2E/DX2                !
 ! A83   A(41,40,43)           109.0278         estimate D2E/DX2                !
 ! A84   A(42,40,43)           109.3195         estimate D2E/DX2                !
 ! A85   A(19,44,45)           106.7399         estimate D2E/DX2                !
 ! A86   A(19,44,46)           110.9441         estimate D2E/DX2                !
 ! A87   A(19,44,47)           112.2363         estimate D2E/DX2                !
 ! A88   A(45,44,46)           108.9663         estimate D2E/DX2                !
 ! A89   A(45,44,47)           109.29           estimate D2E/DX2                !
 ! A90   A(46,44,47)           108.6002         estimate D2E/DX2                !
 ! A91   A(26,48,49)           111.5199         estimate D2E/DX2                !
 ! A92   A(26,48,50)           111.254          estimate D2E/DX2                !
 ! A93   A(26,48,51)           111.4914         estimate D2E/DX2                !
 ! A94   A(49,48,50)           107.2623         estimate D2E/DX2                !
 ! A95   A(49,48,51)           107.8798         estimate D2E/DX2                !
 ! A96   A(50,48,51)           107.2118         estimate D2E/DX2                !
 ! A97   A(28,52,53)           111.0769         estimate D2E/DX2                !
 ! A98   A(28,52,54)           111.7752         estimate D2E/DX2                !
 ! A99   A(28,52,55)           111.6517         estimate D2E/DX2                !
 ! A100  A(53,52,54)           107.0134         estimate D2E/DX2                !
 ! A101  A(53,52,55)           107.0496         estimate D2E/DX2                !
 ! A102  A(54,52,55)           108.0288         estimate D2E/DX2                !
 ! D1    D(5,1,2,3)            -50.4559         estimate D2E/DX2                !
 ! D2    D(5,1,2,7)             64.9461         estimate D2E/DX2                !
 ! D3    D(5,1,2,13)          -175.2579         estimate D2E/DX2                !
 ! D4    D(8,1,2,3)             68.7268         estimate D2E/DX2                !
 ! D5    D(8,1,2,7)           -175.8712         estimate D2E/DX2                !
 ! D6    D(8,1,2,13)           -56.0752         estimate D2E/DX2                !
 ! D7    D(14,1,2,3)          -169.4907         estimate D2E/DX2                !
 ! D8    D(14,1,2,7)           -54.0887         estimate D2E/DX2                !
 ! D9    D(14,1,2,13)           65.7072         estimate D2E/DX2                !
 ! D10   D(2,1,5,4)             51.7358         estimate D2E/DX2                !
 ! D11   D(2,1,5,10)           -67.7894         estimate D2E/DX2                !
 ! D12   D(2,1,5,15)           170.676          estimate D2E/DX2                !
 ! D13   D(8,1,5,4)            -68.0572         estimate D2E/DX2                !
 ! D14   D(8,1,5,10)           172.4177         estimate D2E/DX2                !
 ! D15   D(8,1,5,15)            50.883          estimate D2E/DX2                !
 ! D16   D(14,1,5,4)           172.5099         estimate D2E/DX2                !
 ! D17   D(14,1,5,10)           52.9847         estimate D2E/DX2                !
 ! D18   D(14,1,5,15)          -68.55           estimate D2E/DX2                !
 ! D19   D(2,1,14,36)          -97.4081         estimate D2E/DX2                !
 ! D20   D(5,1,14,36)          142.26           estimate D2E/DX2                !
 ! D21   D(8,1,14,36)           23.9384         estimate D2E/DX2                !
 ! D22   D(1,2,3,6)            172.931          estimate D2E/DX2                !
 ! D23   D(1,2,3,11)            52.5996         estimate D2E/DX2                !
 ! D24   D(1,2,3,12)           -69.5056         estimate D2E/DX2                !
 ! D25   D(7,2,3,6)             56.3307         estimate D2E/DX2                !
 ! D26   D(7,2,3,11)           -64.0007         estimate D2E/DX2                !
 ! D27   D(7,2,3,12)           173.8941         estimate D2E/DX2                !
 ! D28   D(13,2,3,6)           -64.1476         estimate D2E/DX2                !
 ! D29   D(13,2,3,11)          175.5211         estimate D2E/DX2                !
 ! D30   D(13,2,3,12)           53.4159         estimate D2E/DX2                !
 ! D31   D(1,2,13,32)         -157.7543         estimate D2E/DX2                !
 ! D32   D(3,2,13,32)           78.3173         estimate D2E/DX2                !
 ! D33   D(7,2,13,32)          -39.5416         estimate D2E/DX2                !
 ! D34   D(2,3,11,4)           -55.9095         estimate D2E/DX2                !
 ! D35   D(6,3,11,4)          -179.2788         estimate D2E/DX2                !
 ! D36   D(12,3,11,4)           63.288          estimate D2E/DX2                !
 ! D37   D(2,3,12,20)         -152.2705         estimate D2E/DX2                !
 ! D38   D(6,3,12,20)          -32.0196         estimate D2E/DX2                !
 ! D39   D(11,3,12,20)          84.6229         estimate D2E/DX2                !
 ! D40   D(9,4,5,1)             66.6243         estimate D2E/DX2                !
 ! D41   D(9,4,5,10)          -173.545          estimate D2E/DX2                !
 ! D42   D(9,4,5,15)           -54.1723         estimate D2E/DX2                !
 ! D43   D(11,4,5,1)           -53.069          estimate D2E/DX2                !
 ! D44   D(11,4,5,10)           66.7617         estimate D2E/DX2                !
 ! D45   D(11,4,5,15)         -173.8656         estimate D2E/DX2                !
 ! D46   D(16,4,5,1)          -174.4048         estimate D2E/DX2                !
 ! D47   D(16,4,5,10)          -54.5741         estimate D2E/DX2                !
 ! D48   D(16,4,5,15)           64.7986         estimate D2E/DX2                !
 ! D49   D(5,4,11,3)            55.9657         estimate D2E/DX2                !
 ! D50   D(9,4,11,3)           -63.667          estimate D2E/DX2                !
 ! D51   D(16,4,11,3)          179.7155         estimate D2E/DX2                !
 ! D52   D(5,4,16,17)          -67.9292         estimate D2E/DX2                !
 ! D53   D(5,4,16,18)          174.936          estimate D2E/DX2                !
 ! D54   D(5,4,16,19)           49.8782         estimate D2E/DX2                !
 ! D55   D(9,4,16,17)           51.7185         estimate D2E/DX2                !
 ! D56   D(9,4,16,18)          -65.4164         estimate D2E/DX2                !
 ! D57   D(9,4,16,19)          169.5258         estimate D2E/DX2                !
 ! D58   D(11,4,16,17)         169.1486         estimate D2E/DX2                !
 ! D59   D(11,4,16,18)          52.0138         estimate D2E/DX2                !
 ! D60   D(11,4,16,19)         -73.044          estimate D2E/DX2                !
 ! D61   D(1,5,15,40)          104.7323         estimate D2E/DX2                !
 ! D62   D(4,5,15,40)         -133.6715         estimate D2E/DX2                !
 ! D63   D(10,5,15,40)         -15.7624         estimate D2E/DX2                !
 ! D64   D(3,12,20,21)         157.8264         estimate D2E/DX2                !
 ! D65   D(3,12,20,22)          27.0341         estimate D2E/DX2                !
 ! D66   D(3,12,20,23)         -88.5338         estimate D2E/DX2                !
 ! D67   D(2,13,32,33)         -67.8666         estimate D2E/DX2                !
 ! D68   D(2,13,32,34)          54.4626         estimate D2E/DX2                !
 ! D69   D(2,13,32,35)         173.355          estimate D2E/DX2                !
 ! D70   D(1,14,36,37)        -178.5481         estimate D2E/DX2                !
 ! D71   D(1,14,36,38)         -60.0978         estimate D2E/DX2                !
 ! D72   D(1,14,36,39)          61.9836         estimate D2E/DX2                !
 ! D73   D(5,15,40,41)         179.7522         estimate D2E/DX2                !
 ! D74   D(5,15,40,42)         -60.9947         estimate D2E/DX2                !
 ! D75   D(5,15,40,43)          61.0605         estimate D2E/DX2                !
 ! D76   D(4,16,19,44)          84.525          estimate D2E/DX2                !
 ! D77   D(17,16,19,44)       -157.3437         estimate D2E/DX2                !
 ! D78   D(18,16,19,44)        -39.7117         estimate D2E/DX2                !
 ! D79   D(16,19,44,45)        169.3285         estimate D2E/DX2                !
 ! D80   D(16,19,44,46)         50.7394         estimate D2E/DX2                !
 ! D81   D(16,19,44,47)        -70.9589         estimate D2E/DX2                !
 ! D82   D(12,20,23,24)        -90.4112         estimate D2E/DX2                !
 ! D83   D(12,20,23,25)         89.744          estimate D2E/DX2                !
 ! D84   D(21,20,23,24)         20.4278         estimate D2E/DX2                !
 ! D85   D(21,20,23,25)       -159.4169         estimate D2E/DX2                !
 ! D86   D(22,20,23,24)        153.8766         estimate D2E/DX2                !
 ! D87   D(22,20,23,25)        -25.9682         estimate D2E/DX2                !
 ! D88   D(20,23,24,26)       -179.8479         estimate D2E/DX2                !
 ! D89   D(20,23,24,27)         -0.3295         estimate D2E/DX2                !
 ! D90   D(25,23,24,26)         -0.0081         estimate D2E/DX2                !
 ! D91   D(25,23,24,27)        179.5103         estimate D2E/DX2                !
 ! D92   D(20,23,25,28)       -179.7435         estimate D2E/DX2                !
 ! D93   D(20,23,25,29)          0.747          estimate D2E/DX2                !
 ! D94   D(24,23,25,28)          0.4171         estimate D2E/DX2                !
 ! D95   D(24,23,25,29)       -179.0924         estimate D2E/DX2                !
 ! D96   D(23,24,26,30)         -0.3669         estimate D2E/DX2                !
 ! D97   D(23,24,26,48)        177.0184         estimate D2E/DX2                !
 ! D98   D(27,24,26,30)       -179.8821         estimate D2E/DX2                !
 ! D99   D(27,24,26,48)         -2.4968         estimate D2E/DX2                !
 ! D100  D(23,25,28,30)         -0.4586         estimate D2E/DX2                !
 ! D101  D(23,25,28,52)        176.9534         estimate D2E/DX2                !
 ! D102  D(29,25,28,30)        179.0496         estimate D2E/DX2                !
 ! D103  D(29,25,28,52)         -3.5384         estimate D2E/DX2                !
 ! D104  D(24,26,30,28)          0.325          estimate D2E/DX2                !
 ! D105  D(24,26,30,31)       -179.9143         estimate D2E/DX2                !
 ! D106  D(48,26,30,28)       -177.0561         estimate D2E/DX2                !
 ! D107  D(48,26,30,31)          2.7046         estimate D2E/DX2                !
 ! D108  D(24,26,48,49)         30.3974         estimate D2E/DX2                !
 ! D109  D(24,26,48,50)        -89.3142         estimate D2E/DX2                !
 ! D110  D(24,26,48,51)        151.0574         estimate D2E/DX2                !
 ! D111  D(30,26,48,49)       -152.1958         estimate D2E/DX2                !
 ! D112  D(30,26,48,50)         88.0926         estimate D2E/DX2                !
 ! D113  D(30,26,48,51)        -31.5358         estimate D2E/DX2                !
 ! D114  D(25,28,30,26)          0.0973         estimate D2E/DX2                !
 ! D115  D(25,28,30,31)       -179.6635         estimate D2E/DX2                !
 ! D116  D(52,28,30,26)       -177.3015         estimate D2E/DX2                !
 ! D117  D(52,28,30,31)          2.9377         estimate D2E/DX2                !
 ! D118  D(25,28,52,53)        -87.5509         estimate D2E/DX2                !
 ! D119  D(25,28,52,54)        153.0016         estimate D2E/DX2                !
 ! D120  D(25,28,52,55)         31.86           estimate D2E/DX2                !
 ! D121  D(30,28,52,53)         89.8805         estimate D2E/DX2                !
 ! D122  D(30,28,52,54)        -29.567          estimate D2E/DX2                !
 ! D123  D(30,28,52,55)       -150.7086         estimate D2E/DX2                !
 --------------------------------------------------------------------------------
 Trust Radius=3.00D-01 FncErr=1.00D-07 GrdErr=1.00D-06 EigMax=2.50D+02 EigMin=1.00D-04
 Number of steps in this run=    291 maximum allowed number of steps=    330.
 GradGradGradGradGradGradGradGradGradGradGradGradGradGradGradGradGradGrad

 Leave Link  103 at Sat Jun 15 06:58:56 2019, MaxMem=  6442450944 cpu:               2.5 elap:               0.1
 (Enter /home/ekwan/sw/g16/l202.exe)
 Stoichiometry    C18H22F6O8S
 Framework group  C1[X(C18H22F6O8S)]
 Deg. of freedom   159
 Full point group                 C1      NOp   1
 Largest Abelian subgroup         C1      NOp   1
 Largest concise Abelian subgroup C1      NOp   1
                         Standard orientation:                         
 ---------------------------------------------------------------------
 Center     Atomic      Atomic             Coordinates (Angstroms)
 Number     Number       Type             X           Y           Z
 ---------------------------------------------------------------------
      1          6           0        3.482728   -0.226561    0.744799
      2          6           0        3.358197   -0.465586   -0.758258
      3          6           0        1.897052   -0.356474   -1.215543
      4          6           0        1.327094    1.081580    0.599525
      5          6           0        2.760536    1.061642    1.129554
      6          1           0        1.804149   -0.401554   -2.301480
      7          1           0        3.894790    0.348275   -1.272906
      8          1           0        3.020180   -1.062434    1.289433
      9          1           0        0.749013    0.301909    1.115588
     10          1           0        3.300903    1.914449    0.697401
     11          8           0        1.296736    0.822306   -0.815967
     12          8           0        1.210598   -1.513446   -0.658705
     13          8           0        3.931763   -1.704691   -1.079163
     14          8           0        4.837751   -0.090153    1.117522
     15          8           0        2.686382    1.180520    2.535170
     16          6           0        0.634013    2.411564    0.854158
     17          1           0        0.493327    2.496464    1.935327
     18          1           0       -0.355240    2.401140    0.374914
     19          8           0        1.368691    3.546747    0.458175
     20         16           0       -0.090465   -2.110450   -1.422483
     21          8           0       -0.185785   -3.485360   -0.959339
     22          8           0        0.014836   -1.796593   -2.843660
     23          6           0       -1.453484   -1.192104   -0.739408
     24          6           0       -2.099837   -1.690089    0.386168
     25          6           0       -1.839929   -0.003605   -1.348421
     26          6           0       -3.166764   -0.967711    0.912293
     27          1           0       -1.780807   -2.624179    0.834720
     28          6           0       -2.903507    0.705859   -0.799877
     29          1           0       -1.328647    0.355470   -2.233886
     30          6           0       -3.569005    0.229154    0.326439
     31          1           0       -4.400166    0.786487    0.743269
     32          6           0        4.328824   -1.833532   -2.433145
     33          1           0        3.470946   -1.853351   -3.117463
     34          1           0        5.002073   -1.016648   -2.726535
     35          1           0        4.860001   -2.783430   -2.513506
     36          6           0        5.429727   -1.272377    1.625376
     37          1           0        6.457187   -1.015677    1.894104
     38          1           0        4.904563   -1.623560    2.524674
     39          1           0        5.437136   -2.072919    0.878712
     40          6           0        3.588247    2.125202    3.083929
     41          1           0        3.426271    2.121613    4.164505
     42          1           0        4.627583    1.852834    2.870740
     43          1           0        3.389738    3.133211    2.695419
     44          6           0        1.230026    3.891493   -0.907764
     45          1           0        1.683959    4.877803   -1.031089
     46          1           0        0.169909    3.947870   -1.193151
     47          1           0        1.732339    3.176678   -1.568830
     48          6           0       -3.927554   -1.516209    2.088732
     49          9           0       -3.141222   -2.265110    2.877800
     50          9           0       -4.948890   -2.294557    1.688868
     51          9           0       -4.448158   -0.532397    2.839921
     52          6           0       -3.295849    2.028023   -1.398863
     53          9           0       -2.588820    3.038775   -0.849774
     54          9           0       -4.593038    2.300889   -1.195700
     55          9           0       -3.066834    2.060233   -2.720075
 ---------------------------------------------------------------------
 Rotational constants (GHZ):           0.1511460           0.0810519           0.0749470
 Leave Link  202 at Sat Jun 15 06:58:56 2019, MaxMem=  6442450944 cpu:               4.8 elap:               0.2
 (Enter /home/ekwan/sw/g16/l301.exe)
 Standard basis: 6-31G(d) (6D, 7F)
 Centers:      12     22     21
 SP 1 1.00
     Exponent=  8.4500000000D-02 Coefficients=  1.0000000000D+00  1.0000000000D+00
 ****
 Ernie: Thresh=  0.10000D-02 Tol=  0.10000D-05 Strict=F.
 There are   555 symmetry adapted cartesian basis functions of A   symmetry.
 There are   555 symmetry adapted basis functions of A   symmetry.
   555 basis functions,  1048 primitive gaussians,   555 cartesian basis functions
   132 alpha electrons      132 beta electrons
       nuclear repulsion energy      4286.2510418416 Hartrees.
 IExCor=  406 DFT=T Ex+Corr=B3P86 ExCW=0 ScaHFX=  0.200000
 ScaDFX=  0.800000  0.720000  1.000000  0.810000 ScalE2=  1.000000  1.000000
 IRadAn=      5 IRanWt=     -1 IRanGd=            0 ICorTp=0 IEmpDi=  4
 NAtoms=   55 NActive=   55 NUniq=   55 SFac= 1.00D+00 NAtFMM=   60 NAOKFM=F Big=F
 Integral buffers will be    131072 words long.
 Raffenetti 2 integral format.
 Two-electron integral symmetry is turned on.
 ------------------------------------------------------------------------------
 Polarizable Continuum Model (PCM)
 =================================
 Model                : PCM.
 Atomic radii         : UFF (Universal Force Field).
 Polarization charges : Total charges.
 Charge compensation  : None.
 Solution method      : On-the-fly selection.
 Cavity type          : Scaled VdW (van der Waals Surface) (Alpha=1.100).
 Cavity algorithm     : GePol (No added spheres)
                        Default sphere list used, NSphG=   55.
                        Lebedev-Laikov grids with approx.  5.0 points / Ang**2.
                        Smoothing algorithm: York/Karplus (Gamma=1.0000).
                        Polarization charges: spherical gaussians, with
                                              point-specific exponents (IZeta= 3).
                        Self-potential: point-specific (ISelfS= 7).
                        Self-field    : sphere-specific E.n sum rule (ISelfD= 2).
 1st derivatives      : Analytical E(r).r(x)/FMM algorithm (CHGder, D1EAlg=3).
                        Cavity 1st derivative terms included.
 Solvent              : TetraHydroFuran, Eps=   7.425700 Eps(inf)=   1.974025
 ------------------------------------------------------------------------------
 GePol: Number of generator spheres                  =      55
 GePol: Total number of spheres                      =      55
 GePol: Number of exposed spheres                    =      55 (100.00%)
 GePol: Number of points                             =    3982
 GePol: Average weight of points                     =       0.13
 GePol: Minimum weight of points                     =   0.22D-11
 GePol: Maximum weight of points                     =    0.20577
 GePol: Number of points with low weight             =     248
 GePol: Fraction of low-weight points (<1% of avg)   =       6.23%
 GePol: Cavity surface area                          =    505.358 Ang**2
 GePol: Cavity volume                                =    579.031 Ang**3
 Leave Link  301 at Sat Jun 15 06:58:56 2019, MaxMem=  6442450944 cpu:               8.2 elap:               0.3
 (Enter /home/ekwan/sw/g16/l302.exe)
 NPDir=0 NMtPBC=     1 NCelOv=     1 NCel=       1 NClECP=     1 NCelD=      1
         NCelK=      1 NCelE2=     1 NClLst=     1 CellRange=     0.0.
 One-electron integrals computed using PRISM.
 One-electron integral symmetry used in STVInt
 NBasis=   555 RedAO= T EigKep=  3.99D-04  NBF=   555
 NBsUse=   555 1.00D-06 EigRej= -1.00D+00 NBFU=   555
 Precomputing XC quadrature grid using
 IXCGrd= 4 IRadAn=           5 IRanWt=          -1 IRanGd=           0 AccXCQ= 0.00D+00.
 Generated NRdTot=       0 NPtTot=           0 NUsed=           0 NTot=          32
 NSgBfM=   543   542   542   543   543 MxSgAt=    55 MxSgA2=    55.
 Leave Link  302 at Sat Jun 15 06:59:02 2019, MaxMem=  6442450944 cpu:             181.7 elap:               5.9
 (Enter /home/ekwan/sw/g16/l303.exe)
 DipDrv:  MaxL=1.
 Leave Link  303 at Sat Jun 15 06:59:03 2019, MaxMem=  6442450944 cpu:              10.3 elap:               0.5
 (Enter /home/ekwan/sw/g16/l401.exe)
 ExpMin= 8.45D-02 ExpMax= 2.19D+04 ExpMxC= 3.30D+03 IAcc=3 IRadAn=         5 AccDes= 0.00D+00
 Harris functional with IExCor=  406 and IRadAn=       5 diagonalized for initial guess.
 HarFok:  IExCor=  406 AccDes= 0.00D+00 IRadAn=         5 IDoV= 1 UseB2=F ITyADJ=14
 ICtDFT=  3500011 ScaDFX=  1.000000  1.000000  1.000000  1.000000
 FoFCou: FMM=F IPFlag=           0 FMFlag=      100000 FMFlg1=           0
         NFxFlg=           0 DoJE=T BraDBF=F KetDBF=T FulRan=T
         wScrn=  0.000000 ICntrl=       500 IOpCl=  0 I1Cent=   200000004 NGrid=           0
         NMat0=    1 NMatS0=      1 NMatT0=    0 NMatD0=    1 NMtDS0=    0 NMtDT0=    0
 Petite list used in FoFCou.
 Harris En= -2303.72858170995    
 JPrj=0 DoOrth=F DoCkMO=F.
 Leave Link  401 at Sat Jun 15 06:59:14 2019, MaxMem=  6442450944 cpu:             339.0 elap:              11.1
 (Enter /home/ekwan/sw/g16/l502.exe)
 Integral symmetry usage will be decided dynamically.
 Closed shell SCF:
 Using DIIS extrapolation, IDIIS=  1040.
 NGot=  6442450944 LenX=  6441811192 LenY=  6441502612
 Requested convergence on RMS density matrix=1.00D-08 within 128 cycles.
 Requested convergence on MAX density matrix=1.00D-06.
 Requested convergence on             energy=1.00D-06.
 No special actions if energy rises.
 Fock matrices will be formed incrementally for  20 cycles.

 Cycle   1  Pass 1  IDiag  1:
 FoFJK:  IHMeth= 1 ICntrl=       0 DoSepK=F KAlg= 0 I1Cent=           0 FoldK=F
 IRaf= 690000000 NMat=       1 IRICut=       1 DoRegI=T DoRafI=F ISym2E= 0 IDoP0=0 IntGTp=1.
 FoFCou: FMM=F IPFlag=           0 FMFlag=      100000 FMFlg1=           0
         NFxFlg=           0 DoJE=F BraDBF=F KetDBF=F FulRan=T
         wScrn=  0.000000 ICntrl=         0 IOpCl=  0 I1Cent=           0 NGrid=           0
         NMat0=    1 NMatS0=      1 NMatT0=    0 NMatD0=    1 NMtDS0=    0 NMtDT0=    0
 Symmetry not used in FoFCou.
 Inv3:  Mode=1 IEnd=    47568972.
 Iteration    1 A*A^-1 deviation from unit magnitude is 5.66D-15 for   3965.
 Iteration    1 A*A^-1 deviation from orthogonality  is 3.25D-15 for   3978   2782.
 Iteration    1 A^-1*A deviation from unit magnitude is 5.66D-15 for   3965.
 Iteration    1 A^-1*A deviation from orthogonality  is 1.99D-15 for   3171   3054.
 E= -2302.17552618887    
 DIIS: error= 2.11D-02 at cycle   1 NSaved=   1.
 NSaved= 1 IEnMin= 1 EnMin= -2302.17552618887     IErMin= 1 ErrMin= 2.11D-02
 ErrMax= 2.11D-02  0.00D+00 EMaxC= 1.00D-01 BMatC= 8.07D-01 BMatP= 8.07D-01
 IDIUse=3 WtCom= 7.89D-01 WtEn= 2.11D-01
 Coeff-Com:  0.100D+01
 Coeff-En:   0.100D+01
 Coeff:      0.100D+01
 Gap=     0.150 Goal=   None    Shift=    0.000
 GapD=    0.150 DampG=1.000 DampE=0.500 DampFc=0.5000 IDamp=-1.
 Damping current iteration by 5.00D-01
 RMSDP=4.01D-03 MaxDP=5.41D-01              OVMax= 1.92D-01

 Cycle   2  Pass 1  IDiag  1:
 RMSU=  2.01D-03    CP:  9.98D-01
 E= -2302.36716428751     Delta-E=       -0.191638098642 Rises=F Damp=T
 DIIS: error= 9.14D-03 at cycle   2 NSaved=   2.
 NSaved= 2 IEnMin= 2 EnMin= -2302.36716428751     IErMin= 2 ErrMin= 9.14D-03
 ErrMax= 9.14D-03  0.00D+00 EMaxC= 1.00D-01 BMatC= 1.01D-01 BMatP= 8.07D-01
 IDIUse=3 WtCom= 9.09D-01 WtEn= 9.14D-02
 Coeff-Com:  0.196D+00 0.804D+00
 Coeff-En:   0.326D+00 0.674D+00
 Coeff:      0.208D+00 0.792D+00
 Gap=     0.201 Goal=   None    Shift=    0.000
 RMSDP=1.24D-03 MaxDP=1.25D-01 DE=-1.92D-01 OVMax= 1.56D-01

 Cycle   3  Pass 1  IDiag  1:
 RMSU=  9.84D-04    CP:  9.91D-01  6.24D-01
 E= -2302.77234687993     Delta-E=       -0.405182592426 Rises=F Damp=F
 DIIS: error= 7.30D-03 at cycle   3 NSaved=   3.
 NSaved= 3 IEnMin= 3 EnMin= -2302.77234687993     IErMin= 3 ErrMin= 7.30D-03
 ErrMax= 7.30D-03  0.00D+00 EMaxC= 1.00D-01 BMatC= 6.63D-02 BMatP= 1.01D-01
 IDIUse=3 WtCom= 9.27D-01 WtEn= 7.30D-02
 Coeff-Com:  0.532D-01 0.447D+00 0.500D+00
 Coeff-En:   0.000D+00 0.000D+00 0.100D+01
 Coeff:      0.493D-01 0.414D+00 0.537D+00
 Gap=     0.170 Goal=   None    Shift=    0.000
 RMSDP=7.00D-04 MaxDP=4.07D-02 DE=-4.05D-01 OVMax= 5.65D-02

 Cycle   4  Pass 1  IDiag  1:
 RMSU=  4.13D-04    CP:  9.94D-01  7.58D-01  4.98D-01
 E= -2302.81752628630     Delta-E=       -0.045179406366 Rises=F Damp=F
 DIIS: error= 2.96D-03 at cycle   4 NSaved=   4.
 NSaved= 4 IEnMin= 4 EnMin= -2302.81752628630     IErMin= 4 ErrMin= 2.96D-03
 ErrMax= 2.96D-03  0.00D+00 EMaxC= 1.00D-01 BMatC= 1.33D-02 BMatP= 6.63D-02
 IDIUse=3 WtCom= 9.70D-01 WtEn= 2.96D-02
 Coeff-Com: -0.216D-02 0.113D+00 0.324D+00 0.565D+00
 Coeff-En:   0.000D+00 0.000D+00 0.177D+00 0.823D+00
 Coeff:     -0.210D-02 0.109D+00 0.320D+00 0.573D+00
 Gap=     0.171 Goal=   None    Shift=    0.000
 RMSDP=2.42D-04 MaxDP=1.72D-02 DE=-4.52D-02 OVMax= 2.23D-02

 Cycle   5  Pass 1  IDiag  1:
 RMSU=  1.06D-04    CP:  9.94D-01  7.30D-01  6.31D-01  6.01D-01
 E= -2302.82746357568     Delta-E=       -0.009937289383 Rises=F Damp=F
 DIIS: error= 9.84D-04 at cycle   5 NSaved=   5.
 NSaved= 5 IEnMin= 5 EnMin= -2302.82746357568     IErMin= 5 ErrMin= 9.84D-04
 ErrMax= 9.84D-04  0.00D+00 EMaxC= 1.00D-01 BMatC= 1.01D-03 BMatP= 1.33D-02
 IDIUse=3 WtCom= 9.90D-01 WtEn= 9.84D-03
 Coeff-Com: -0.447D-02 0.270D-01 0.128D+00 0.313D+00 0.536D+00
 Coeff-En:   0.000D+00 0.000D+00 0.000D+00 0.593D-03 0.999D+00
 Coeff:     -0.443D-02 0.267D-01 0.127D+00 0.310D+00 0.541D+00
 Gap=     0.171 Goal=   None    Shift=    0.000
 RMSDP=6.23D-05 MaxDP=4.95D-03 DE=-9.94D-03 OVMax= 7.17D-03

 Cycle   6  Pass 1  IDiag  1:
 RMSU=  3.53D-05    CP:  9.94D-01  7.35D-01  6.32D-01  6.53D-01  5.77D-01
 E= -2302.82826747274     Delta-E=       -0.000803897054 Rises=F Damp=F
 DIIS: error= 1.70D-04 at cycle   6 NSaved=   6.
 NSaved= 6 IEnMin= 6 EnMin= -2302.82826747274     IErMin= 6 ErrMin= 1.70D-04
 ErrMax= 1.70D-04  0.00D+00 EMaxC= 1.00D-01 BMatC= 6.46D-05 BMatP= 1.01D-03
 IDIUse=3 WtCom= 9.98D-01 WtEn= 1.70D-03
 Coeff-Com: -0.206D-02 0.432D-02 0.352D-01 0.103D+00 0.272D+00 0.588D+00
 Coeff-En:   0.000D+00 0.000D+00 0.000D+00 0.000D+00 0.000D+00 0.100D+01
 Coeff:     -0.205D-02 0.431D-02 0.351D-01 0.103D+00 0.271D+00 0.588D+00
 Gap=     0.171 Goal=   None    Shift=    0.000
 RMSDP=1.71D-05 MaxDP=1.11D-03 DE=-8.04D-04 OVMax= 1.61D-03

 Cycle   7  Pass 1  IDiag  1:
 RMSU=  8.83D-06    CP:  9.94D-01  7.34D-01  6.32D-01  6.58D-01  6.28D-01
                    CP:  6.30D-01
 E= -2302.82831884993     Delta-E=       -0.000051377190 Rises=F Damp=F
 DIIS: error= 4.03D-05 at cycle   7 NSaved=   7.
 NSaved= 7 IEnMin= 7 EnMin= -2302.82831884993     IErMin= 7 ErrMin= 4.03D-05
 ErrMax= 4.03D-05  0.00D+00 EMaxC= 1.00D-01 BMatC= 4.18D-06 BMatP= 6.46D-05
 IDIUse=1 WtCom= 1.00D+00 WtEn= 0.00D+00
 Coeff-Com: -0.856D-03 0.498D-03 0.105D-01 0.351D-01 0.111D+00 0.304D+00
 Coeff-Com:  0.541D+00
 Coeff:     -0.856D-03 0.498D-03 0.105D-01 0.351D-01 0.111D+00 0.304D+00
 Coeff:      0.541D+00
 Gap=     0.171 Goal=   None    Shift=    0.000
 RMSDP=4.42D-06 MaxDP=2.48D-04 DE=-5.14D-05 OVMax= 3.64D-04

 Cycle   8  Pass 1  IDiag  1:
 RMSU=  2.79D-06    CP:  9.94D-01  7.34D-01  6.32D-01  6.58D-01  6.30D-01
                    CP:  6.74D-01  6.57D-01
 E= -2302.82832198990     Delta-E=       -0.000003139975 Rises=F Damp=F
 DIIS: error= 1.37D-05 at cycle   8 NSaved=   8.
 NSaved= 8 IEnMin= 8 EnMin= -2302.82832198990     IErMin= 8 ErrMin= 1.37D-05
 ErrMax= 1.37D-05  0.00D+00 EMaxC= 1.00D-01 BMatC= 4.26D-07 BMatP= 4.18D-06
 IDIUse=1 WtCom= 1.00D+00 WtEn= 0.00D+00
 Coeff-Com: -0.221D-03-0.183D-03 0.154D-02 0.659D-02 0.286D-01 0.955D-01
 Coeff-Com:  0.284D+00 0.585D+00
 Coeff:     -0.221D-03-0.183D-03 0.154D-02 0.659D-02 0.286D-01 0.955D-01
 Coeff:      0.284D+00 0.585D+00
 Gap=     0.171 Goal=   None    Shift=    0.000
 RMSDP=1.52D-06 MaxDP=9.67D-05 DE=-3.14D-06 OVMax= 1.27D-04

 Cycle   9  Pass 1  IDiag  1:
 RMSU=  1.08D-06    CP:  9.94D-01  7.34D-01  6.32D-01  6.58D-01  6.32D-01
                    CP:  6.79D-01  6.93D-01  6.59D-01
 E= -2302.82832224744     Delta-E=       -0.000000257539 Rises=F Damp=F
 DIIS: error= 8.33D-06 at cycle   9 NSaved=   9.
 NSaved= 9 IEnMin= 9 EnMin= -2302.82832224744     IErMin= 9 ErrMin= 8.33D-06
 ErrMax= 8.33D-06  0.00D+00 EMaxC= 1.00D-01 BMatC= 8.12D-08 BMatP= 4.26D-07
 IDIUse=1 WtCom= 1.00D+00 WtEn= 0.00D+00
 Coeff-Com: -0.278D-04-0.119D-03-0.295D-03-0.408D-03 0.332D-02 0.189D-01
 Coeff-Com:  0.998D-01 0.352D+00 0.526D+00
 Coeff:     -0.278D-04-0.119D-03-0.295D-03-0.408D-03 0.332D-02 0.189D-01
 Coeff:      0.998D-01 0.352D+00 0.526D+00
 Gap=     0.171 Goal=   None    Shift=    0.000
 RMSDP=6.39D-07 MaxDP=5.05D-05 DE=-2.58D-07 OVMax= 6.35D-05

 Cycle  10  Pass 1  IDiag  1:
 RMSU=  3.24D-07    CP:  9.94D-01  7.34D-01  6.32D-01  6.58D-01  6.33D-01
                    CP:  6.78D-01  7.03D-01  7.44D-01  5.64D-01
 E= -2302.82832231137     Delta-E=       -0.000000063934 Rises=F Damp=F
 DIIS: error= 2.52D-06 at cycle  10 NSaved=  10.
 NSaved=10 IEnMin=10 EnMin= -2302.82832231137     IErMin=10 ErrMin= 2.52D-06
 ErrMax= 2.52D-06  0.00D+00 EMaxC= 1.00D-01 BMatC= 7.48D-09 BMatP= 8.12D-08
 IDIUse=1 WtCom= 1.00D+00 WtEn= 0.00D+00
 Coeff-Com:  0.809D-06-0.434D-04-0.288D-03-0.791D-03-0.644D-03 0.236D-02
 Coeff-Com:  0.310D-01 0.146D+00 0.304D+00 0.518D+00
 Coeff:      0.809D-06-0.434D-04-0.288D-03-0.791D-03-0.644D-03 0.236D-02
 Coeff:      0.310D-01 0.146D+00 0.304D+00 0.518D+00
 Gap=     0.171 Goal=   None    Shift=    0.000
 RMSDP=1.85D-07 MaxDP=1.33D-05 DE=-6.39D-08 OVMax= 1.96D-05

 Cycle  11  Pass 1  IDiag  1:
 RMSU=  1.19D-07    CP:  9.94D-01  7.34D-01  6.32D-01  6.58D-01  6.33D-01
                    CP:  6.79D-01  7.07D-01  7.44D-01  6.31D-01  6.55D-01
 E= -2302.82832231702     Delta-E=       -0.000000005642 Rises=F Damp=F
 DIIS: error= 5.23D-07 at cycle  11 NSaved=  11.
 NSaved=11 IEnMin=11 EnMin= -2302.82832231702     IErMin=11 ErrMin= 5.23D-07
 ErrMax= 5.23D-07  0.00D+00 EMaxC= 1.00D-01 BMatC= 6.67D-10 BMatP= 7.48D-09
 IDIUse=1 WtCom= 1.00D+00 WtEn= 0.00D+00
 Coeff-Com:  0.361D-05-0.108D-04-0.139D-03-0.421D-03-0.881D-03-0.122D-02
 Coeff-Com:  0.408D-02 0.351D-01 0.102D+00 0.284D+00 0.577D+00
 Coeff:      0.361D-05-0.108D-04-0.139D-03-0.421D-03-0.881D-03-0.122D-02
 Coeff:      0.408D-02 0.351D-01 0.102D+00 0.284D+00 0.577D+00
 Gap=     0.171 Goal=   None    Shift=    0.000
 RMSDP=5.75D-08 MaxDP=4.65D-06 DE=-5.64D-09 OVMax= 5.56D-06

 Cycle  12  Pass 1  IDiag  1:
 RMSU=  3.37D-08    CP:  9.94D-01  7.34D-01  6.32D-01  6.58D-01  6.33D-01
                    CP:  6.79D-01  7.07D-01  7.48D-01  6.41D-01  7.20D-01
                    CP:  7.03D-01
 E= -2302.82832231752     Delta-E=       -0.000000000506 Rises=F Damp=F
 DIIS: error= 1.71D-07 at cycle  12 NSaved=  12.
 NSaved=12 IEnMin=12 EnMin= -2302.82832231752     IErMin=12 ErrMin= 1.71D-07
 ErrMax= 1.71D-07  0.00D+00 EMaxC= 1.00D-01 BMatC= 5.02D-11 BMatP= 6.67D-10
 IDIUse=1 WtCom= 1.00D+00 WtEn= 0.00D+00
 Coeff-Com:  0.149D-05-0.138D-05-0.453D-04-0.139D-03-0.395D-03-0.840D-03
 Coeff-Com: -0.817D-03 0.388D-02 0.232D-01 0.946D-01 0.283D+00 0.598D+00
 Coeff:      0.149D-05-0.138D-05-0.453D-04-0.139D-03-0.395D-03-0.840D-03
 Coeff:     -0.817D-03 0.388D-02 0.232D-01 0.946D-01 0.283D+00 0.598D+00
 Gap=     0.171 Goal=   None    Shift=    0.000
 RMSDP=1.82D-08 MaxDP=1.00D-06 DE=-5.06D-10 OVMax= 2.69D-06

 Cycle  13  Pass 1  IDiag  1:
 RMSU=  1.28D-08    CP:  9.94D-01  7.34D-01  6.32D-01  6.58D-01  6.33D-01
                    CP:  6.79D-01  7.07D-01  7.49D-01  6.43D-01  7.24D-01
                    CP:  7.35D-01  6.71D-01
 E= -2302.82832231757     Delta-E=       -0.000000000048 Rises=F Damp=F
 DIIS: error= 1.03D-07 at cycle  13 NSaved=  13.
 NSaved=13 IEnMin=13 EnMin= -2302.82832231757     IErMin=13 ErrMin= 1.03D-07
 ErrMax= 1.03D-07  0.00D+00 EMaxC= 1.00D-01 BMatC= 9.71D-12 BMatP= 5.02D-11
 IDIUse=1 WtCom= 1.00D+00 WtEn= 0.00D+00
 Coeff-Com:  0.418D-06 0.652D-06-0.923D-05-0.281D-04-0.122D-03-0.328D-03
 Coeff-Com: -0.865D-03-0.197D-02 0.863D-03 0.184D-01 0.828D-01 0.342D+00
 Coeff-Com:  0.559D+00
 Coeff:      0.418D-06 0.652D-06-0.923D-05-0.281D-04-0.122D-03-0.328D-03
 Coeff:     -0.865D-03-0.197D-02 0.863D-03 0.184D-01 0.828D-01 0.342D+00
 Coeff:      0.559D+00
 Gap=     0.171 Goal=   None    Shift=    0.000
 RMSDP=7.45D-09 MaxDP=5.16D-07 DE=-4.82D-11 OVMax= 1.61D-06

 Error on total polarization charges =  0.00980
 SCF Done:  E(RB3P86) =  -2302.82832232     A.U. after   13 cycles
            NFock= 13  Conv=0.75D-08     -V/T= 2.0097
 KE= 2.280780186067D+03 PE=-1.397877188794D+04 EE= 5.108912337717D+03
 Leave Link  502 at Sat Jun 15 07:03:36 2019, MaxMem=  6442450944 cpu:            7898.1 elap:             262.6
 (Enter /home/ekwan/sw/g16/l701.exe)
 ... and contract with generalized density number  0.
 Compute integral first derivatives.
 D1PCM: PCM CHGder 1st derivatives, ID1Alg=3 FixD1E=F DoIter=F DoCFld=F I1PDM=0.
 GePol: Maximum number of non-zero 1st derivatives   =     222
 Leave Link  701 at Sat Jun 15 07:03:47 2019, MaxMem=  6442450944 cpu:             310.3 elap:              10.3
 (Enter /home/ekwan/sw/g16/l702.exe)
 L702 exits ... SP integral derivatives will be done elsewhere.
 Leave Link  702 at Sat Jun 15 07:03:47 2019, MaxMem=  6442450944 cpu:               3.0 elap:               0.1
 (Enter /home/ekwan/sw/g16/l703.exe)
 Integral derivatives from FoFJK, PRISM(SPDF).
 Compute integral first derivatives, UseDBF=F ICtDFT=           0.
 Calling FoFJK, ICntrl=      2127 FMM=F ISym2X=0 I1Cent= 0 IOpClX= 0 NMat=1 NMatS=1 NMatT=0.
 FoFJK:  IHMeth= 1 ICntrl=    2127 DoSepK=F KAlg= 0 I1Cent=           0 FoldK=F
 IRaf=         0 NMat=       1 IRICut=       1 DoRegI=T DoRafI=F ISym2E= 0 IDoP0=0 IntGTp=1.
 FoFCou: FMM=F IPFlag=           0 FMFlag=      100000 FMFlg1=         800
         NFxFlg=           0 DoJE=F BraDBF=F KetDBF=F FulRan=T
         wScrn=  0.000000 ICntrl=      2127 IOpCl=  0 I1Cent=           0 NGrid=           0
         NMat0=    1 NMatS0=      1 NMatT0=    0 NMatD0=    1 NMtDS0=    0 NMtDT0=    0
 Symmetry not used in FoFCou.
 Leave Link  703 at Sat Jun 15 07:04:24 2019, MaxMem=  6442450944 cpu:            1159.6 elap:              37.4
 (Enter /home/ekwan/sw/g16/l716.exe)
 Dipole        = 4.53363187D-01 1.37301315D+00 1.06316450D-02
 ***** Axes restored to original set *****
 -------------------------------------------------------------------
 Center     Atomic                   Forces (Hartrees/Bohr)
 Number     Number              X              Y              Z
 -------------------------------------------------------------------
      1        6           0.000001063   -0.000002594    0.000000788
      2        6          -0.000001879   -0.000001551   -0.000004578
      3        6           0.000000346   -0.000001489    0.000003244
      4        6          -0.000001724    0.000000849    0.000006095
      5        6           0.000001239    0.000000951   -0.000000792
      6        1          -0.000001865   -0.000001428   -0.000000222
      7        1          -0.000000002   -0.000000618   -0.000000247
      8        1           0.000000195    0.000001457    0.000000512
      9        1          -0.000000021    0.000000205   -0.000000875
     10        1          -0.000000854    0.000000492   -0.000001315
     11        8           0.000002934    0.000000894   -0.000003628
     12        8           0.000002496    0.000001867   -0.000005402
     13        8           0.000003244    0.000001271    0.000001785
     14        8          -0.000000551    0.000000386   -0.000000908
     15        8          -0.000003003    0.000003658   -0.000001326
     16        6          -0.000000789   -0.000000921   -0.000001892
     17        1           0.000000914    0.000001219   -0.000000638
     18        1           0.000000102    0.000000242    0.000000017
     19        8           0.000001127   -0.000000804   -0.000002062
     20       16          -0.000001119   -0.000001099    0.000009436
     21        8          -0.000000121   -0.000003871    0.000004664
     22        8          -0.000000366   -0.000000046   -0.000005977
     23        6          -0.000001010   -0.000000412    0.000003007
     24        6          -0.000000568   -0.000003360   -0.000000987
     25        6           0.000001259   -0.000000307   -0.000000014
     26        6          -0.000001482    0.000003005   -0.000000540
     27        1           0.000000953    0.000001406    0.000002333
     28        6           0.000002423    0.000000815   -0.000000666
     29        1          -0.000001853    0.000001293    0.000001181
     30        6          -0.000001671   -0.000002663    0.000003275
     31        1           0.000000198    0.000000581   -0.000000088
     32        6          -0.000002856   -0.000001049   -0.000000132
     33        1          -0.000000033   -0.000001134    0.000000898
     34        1          -0.000000045   -0.000001284    0.000000262
     35        1          -0.000000641   -0.000001337    0.000000660
     36        6           0.000000251    0.000000959    0.000000042
     37        1           0.000000619    0.000000770   -0.000000232
     38        1           0.000000290    0.000001139    0.000000318
     39        1           0.000000293    0.000000495    0.000000021
     40        6           0.000003023   -0.000000182   -0.000001293
     41        1           0.000000829    0.000001808   -0.000001035
     42        1          -0.000000375    0.000001757   -0.000001540
     43        1           0.000000057    0.000001378   -0.000001436
     44        6          -0.000001606    0.000000592   -0.000001830
     45        1          -0.000000857    0.000000100   -0.000002073
     46        1           0.000000559   -0.000001519   -0.000001350
     47        1           0.000000570   -0.000000495   -0.000001704
     48        6           0.000001332   -0.000001134    0.000004209
     49        9          -0.000000084    0.000001734    0.000000390
     50        9           0.000000338    0.000000517    0.000001993
     51        9           0.000001055    0.000001879    0.000001409
     52        6          -0.000009087   -0.000006490   -0.000006873
     53        9           0.000003987    0.000004999    0.000002499
     54        9           0.000003200   -0.000001701   -0.000000227
     55        9          -0.000000433   -0.000001226    0.000002841
 -------------------------------------------------------------------
 Cartesian Forces:  Max     0.000009436 RMS     0.000002208
 Leave Link  716 at Sat Jun 15 07:04:24 2019, MaxMem=  6442450944 cpu:               2.8 elap:               0.1
 (Enter /home/ekwan/sw/g16/l103.exe)

 GradGradGradGradGradGradGradGradGradGradGradGradGradGradGradGradGradGrad
 Berny optimization.
 FormGI is forming the generalized inverse of G from B-inverse, IUseBI=4.
 Internal  Forces:  Max     0.000012611 RMS     0.000001435
 Search for a local minimum.
 Step number   1 out of a maximum of  291
 All quantities printed in internal units (Hartrees-Bohrs-Radians)
 RMS Force = .14352D-05 SwitMx=.10000D-02 MixMth= 2
 Mixed Optimization -- En-DIIS/RFO-DIIS
 Second derivative matrix not updated -- first step.
 ITU=  0
     Eigenvalues ---    0.00485   0.00608   0.00637   0.00666   0.00706
     Eigenvalues ---    0.00718   0.00951   0.01403   0.01469   0.01471
     Eigenvalues ---    0.01476   0.01486   0.01525   0.01534   0.01570
     Eigenvalues ---    0.01573   0.01631   0.01636   0.01657   0.02192
     Eigenvalues ---    0.02195   0.02201   0.02208   0.02212   0.02216
     Eigenvalues ---    0.02321   0.02914   0.03331   0.04419   0.04590
     Eigenvalues ---    0.04697   0.04853   0.04926   0.05248   0.05284
     Eigenvalues ---    0.05802   0.06081   0.06567   0.07004   0.07059
     Eigenvalues ---    0.07194   0.07801   0.09308   0.10015   0.10046
     Eigenvalues ---    0.10075   0.10108   0.10573   0.10586   0.10607
     Eigenvalues ---    0.10610   0.10715   0.10764   0.10838   0.10917
     Eigenvalues ---    0.10946   0.10982   0.11501   0.11808   0.11847
     Eigenvalues ---    0.14140   0.14973   0.15999   0.15999   0.16000
     Eigenvalues ---    0.16000   0.16000   0.16000   0.16000   0.16000
     Eigenvalues ---    0.16000   0.16000   0.16000   0.16000   0.16000
     Eigenvalues ---    0.16000   0.16000   0.16435   0.16913   0.17503
     Eigenvalues ---    0.18696   0.19695   0.19792   0.20860   0.22141
     Eigenvalues ---    0.23482   0.23485   0.23503   0.24972   0.24976
     Eigenvalues ---    0.25000   0.25000   0.25000   0.25000   0.25000
     Eigenvalues ---    0.25000   0.25000   0.25000   0.25000   0.25000
     Eigenvalues ---    0.25000   0.25000   0.25000   0.27319   0.27773
     Eigenvalues ---    0.28853   0.29025   0.29320   0.30251   0.31905
     Eigenvalues ---    0.32002   0.33424   0.33719   0.33759   0.33762
     Eigenvalues ---    0.33763   0.33790   0.33852   0.33862   0.33883
     Eigenvalues ---    0.33953   0.34176   0.34198   0.34272   0.34402
     Eigenvalues ---    0.34498   0.34508   0.34513   0.34664   0.34716
     Eigenvalues ---    0.35491   0.35508   0.35552   0.37472   0.38306
     Eigenvalues ---    0.42846   0.42935   0.42950   0.42968   0.43017
     Eigenvalues ---    0.43133   0.43597   0.43695   0.44166   0.45189
     Eigenvalues ---    0.46789   0.46960   0.47065   0.47100   0.47119
     Eigenvalues ---    0.47246   0.54981   0.56114   0.56575   0.56690
     Eigenvalues ---    0.56915   0.56969   0.91935   0.94198
 RFO step:  Lambda= 0.00000000D+00 EMin= 4.85480701D-03
 Linear search not attempted -- first point.
 Iteration  1 RMS(Cart)=  0.00029516 RMS(Int)=  0.00000001
 Iteration  2 RMS(Cart)=  0.00000003 RMS(Int)=  0.00000000
 ITry= 1 IFail=0 DXMaxC= 1.23D-03 DCOld= 1.00D+10 DXMaxT= 3.00D-01 DXLimC= 3.00D+00 Rises=F
 Variable       Old X    -DE/DX   Delta X   Delta X   Delta X     New X
                                 (Linear)    (Quad)   (Total)
    R1        2.88567   0.00000   0.00000   0.00001   0.00001   2.88567
    R2        2.88396   0.00000   0.00000   0.00001   0.00001   2.88397
    R3        2.07806   0.00000   0.00000   0.00000   0.00000   2.07806
    R4        2.66821   0.00000   0.00000   0.00000   0.00000   2.66821
    R5        2.90057   0.00000   0.00000   0.00000   0.00000   2.90056
    R6        2.08313   0.00000   0.00000   0.00000   0.00000   2.08313
    R7        2.65057   0.00000   0.00000   0.00000   0.00000   2.65056
    R8        2.06138   0.00000   0.00000   0.00000   0.00000   2.06138
    R9        2.61135   0.00000   0.00000   0.00000   0.00000   2.61136
   R10        2.75140   0.00000   0.00000   0.00000   0.00000   2.75139
   R11        2.88831   0.00000   0.00000   0.00000   0.00000   2.88830
   R12        2.07731   0.00000   0.00000   0.00000   0.00000   2.07731
   R13        2.72000   0.00000   0.00000   0.00001   0.00001   2.72001
   R14        2.87466   0.00000   0.00000   0.00000   0.00000   2.87465
   R15        2.07529   0.00000   0.00000   0.00000   0.00000   2.07529
   R16        2.66939   0.00000   0.00000   0.00000   0.00000   2.66939
   R17        3.06610   0.00000   0.00000   0.00000   0.00000   3.06610
   R18        2.67750   0.00000   0.00000   0.00000   0.00000   2.67750
   R19        2.67649   0.00000   0.00000   0.00000   0.00000   2.67649
   R20        2.67710   0.00000   0.00000   0.00000   0.00000   2.67710
   R21        2.06658   0.00000   0.00000   0.00000   0.00000   2.06658
   R22        2.07733   0.00000   0.00000   0.00000   0.00000   2.07733
   R23        2.66257   0.00000   0.00000   0.00000   0.00000   2.66257
   R24        2.67506   0.00000   0.00000   0.00000   0.00000   2.67506
   R25        2.74756   0.00000   0.00000   0.00000   0.00000   2.74757
   R26        2.75754   0.00001   0.00000   0.00001   0.00001   2.75754
   R27        3.36338   0.00000   0.00000   0.00001   0.00001   3.36338
   R28        2.62712   0.00000   0.00000   0.00000   0.00000   2.62711
   R29        2.62717   0.00000   0.00000   0.00001   0.00001   2.62718
   R30        2.63003   0.00000   0.00000   0.00000   0.00000   2.63003
   R31        2.04885   0.00000   0.00000   0.00000   0.00000   2.04885
   R32        2.62899   0.00000   0.00000   0.00000   0.00000   2.62899
   R33        2.04788   0.00000   0.00000   0.00000   0.00000   2.04788
   R34        2.63039   0.00000   0.00000   0.00000   0.00000   2.63039
   R35        2.84318   0.00000   0.00000   0.00000   0.00000   2.84318
   R36        2.63122   0.00000   0.00000   0.00000   0.00000   2.63122
   R37        2.84141   0.00000   0.00000   0.00000   0.00000   2.84140
   R38        2.04859   0.00000   0.00000   0.00000   0.00000   2.04858
   R39        2.07409   0.00000   0.00000   0.00000   0.00000   2.07409
   R40        2.07581   0.00000   0.00000   0.00000   0.00000   2.07581
   R41        2.06224   0.00000   0.00000   0.00000   0.00000   2.06224
   R42        2.06472   0.00000   0.00000   0.00000   0.00000   2.06472
   R43        2.07686   0.00000   0.00000   0.00000   0.00000   2.07686
   R44        2.06874   0.00000   0.00000   0.00000   0.00000   2.06874
   R45        2.06482   0.00000   0.00000   0.00000   0.00000   2.06482
   R46        2.06996   0.00000   0.00000   0.00000   0.00000   2.06996
   R47        2.07563   0.00000   0.00000   0.00000   0.00000   2.07563
   R48        2.06497   0.00000   0.00000   0.00000   0.00000   2.06497
   R49        2.07739   0.00000   0.00000   0.00000   0.00000   2.07738
   R50        2.07034   0.00000   0.00000   0.00000   0.00000   2.07034
   R51        2.53660   0.00000   0.00000   0.00000   0.00000   2.53660
   R52        2.54155   0.00000   0.00000   0.00000   0.00000   2.54155
   R53        2.53759   0.00000   0.00000   0.00000   0.00000   2.53759
   R54        2.55149   0.00001   0.00000   0.00001   0.00001   2.55150
   R55        2.53423   0.00000   0.00000  -0.00001  -0.00001   2.53422
   R56        2.53469   0.00000   0.00000  -0.00001  -0.00001   2.53469
    A1        1.91951   0.00000   0.00000   0.00000   0.00000   1.91951
    A2        1.91157   0.00000   0.00000   0.00000   0.00000   1.91157
    A3        1.93180   0.00000   0.00000   0.00000   0.00000   1.93181
    A4        1.89410   0.00000   0.00000  -0.00001  -0.00001   1.89410
    A5        1.88183   0.00000   0.00000   0.00000   0.00000   1.88183
    A6        1.92448   0.00000   0.00000   0.00000   0.00000   1.92448
    A7        1.93880   0.00000   0.00000  -0.00001  -0.00001   1.93878
    A8        1.87997   0.00000   0.00000   0.00001   0.00001   1.87998
    A9        1.90724   0.00000   0.00000  -0.00001  -0.00001   1.90723
   A10        1.84607   0.00000   0.00000   0.00001   0.00001   1.84607
   A11        1.96482   0.00000   0.00000   0.00001   0.00001   1.96483
   A12        1.92449   0.00000   0.00000   0.00000   0.00000   1.92449
   A13        1.95489   0.00000   0.00000   0.00001   0.00001   1.95490
   A14        1.96930   0.00000   0.00000  -0.00001  -0.00001   1.96929
   A15        1.85291   0.00000   0.00000  -0.00002  -0.00002   1.85289
   A16        1.86096   0.00000   0.00000   0.00001   0.00001   1.86097
   A17        1.88361   0.00000   0.00000   0.00000   0.00000   1.88362
   A18        1.94169   0.00000   0.00000   0.00001   0.00001   1.94169
   A19        1.89774   0.00000   0.00000   0.00000   0.00000   1.89774
   A20        1.93742   0.00000   0.00000   0.00000   0.00000   1.93741
   A21        1.96130   0.00000   0.00000   0.00000   0.00000   1.96130
   A22        1.89951   0.00000   0.00000  -0.00001  -0.00001   1.89950
   A23        1.87751   0.00000   0.00000   0.00000   0.00000   1.87751
   A24        1.88861   0.00000   0.00000   0.00000   0.00000   1.88862
   A25        1.94700   0.00000   0.00000   0.00000   0.00000   1.94700
   A26        1.90015   0.00000   0.00000   0.00000   0.00000   1.90015
   A27        1.92490   0.00000   0.00000   0.00000   0.00000   1.92490
   A28        1.89113   0.00000   0.00000   0.00000   0.00000   1.89113
   A29        1.86998   0.00000   0.00000  -0.00001  -0.00001   1.86997
   A30        1.93056   0.00000   0.00000   0.00000   0.00000   1.93056
   A31        2.01402   0.00000   0.00000  -0.00001  -0.00001   2.01402
   A32        2.08337   0.00001   0.00000   0.00005   0.00005   2.08342
   A33        1.99716   0.00000   0.00000   0.00000   0.00000   1.99716
   A34        1.99888   0.00000   0.00000   0.00000   0.00000   1.99887
   A35        1.99122   0.00000   0.00000   0.00000   0.00000   1.99122
   A36        1.86709   0.00000   0.00000   0.00000   0.00000   1.86709
   A37        1.90577   0.00000   0.00000   0.00000   0.00000   1.90578
   A38        2.00401   0.00000   0.00000   0.00001   0.00001   2.00402
   A39        1.89229   0.00000   0.00000   0.00000   0.00000   1.89228
   A40        1.85708   0.00000   0.00000  -0.00001  -0.00001   1.85707
   A41        1.93302   0.00000   0.00000   0.00000   0.00000   1.93302
   A42        2.00020   0.00000   0.00000   0.00001   0.00001   2.00020
   A43        1.82406   0.00000   0.00000  -0.00001  -0.00001   1.82405
   A44        1.89807   0.00000   0.00000   0.00000   0.00000   1.89806
   A45        1.81685   0.00001   0.00000   0.00004   0.00004   1.81689
   A46        2.11573   0.00000   0.00000   0.00000   0.00000   2.11573
   A47        1.89175   0.00000   0.00000  -0.00001  -0.00001   1.89174
   A48        1.89448   0.00000   0.00000  -0.00001  -0.00001   1.89448
   A49        2.07368   0.00000   0.00000  -0.00001  -0.00001   2.07368
   A50        2.07813   0.00000   0.00000   0.00001   0.00001   2.07814
   A51        2.13136   0.00000   0.00000   0.00000   0.00000   2.13136
   A52        2.06754   0.00000   0.00000   0.00000   0.00000   2.06754
   A53        2.10223   0.00000   0.00000   0.00000   0.00000   2.10223
   A54        2.11339   0.00000   0.00000   0.00000   0.00000   2.11339
   A55        2.06661   0.00000   0.00000   0.00000   0.00000   2.06661
   A56        2.10604   0.00000   0.00000   0.00002   0.00002   2.10606
   A57        2.11051   0.00000   0.00000  -0.00002  -0.00002   2.11049
   A58        2.10450   0.00000   0.00000   0.00000   0.00000   2.10450
   A59        2.08749   0.00000   0.00000  -0.00001  -0.00001   2.08749
   A60        2.09030   0.00000   0.00000   0.00000   0.00000   2.09030
   A61        2.10570   0.00000   0.00000   0.00000   0.00000   2.10570
   A62        2.08385   0.00000   0.00000   0.00000   0.00000   2.08385
   A63        2.09276   0.00000   0.00000   0.00000   0.00000   2.09276
   A64        2.09062   0.00000   0.00000   0.00000   0.00000   2.09062
   A65        2.09646   0.00000   0.00000   0.00001   0.00001   2.09647
   A66        2.09609   0.00000   0.00000   0.00000   0.00000   2.09609
   A67        1.95888   0.00000   0.00000   0.00000   0.00000   1.95888
   A68        1.93839   0.00000   0.00000   0.00000   0.00000   1.93838
   A69        1.86077   0.00000   0.00000   0.00000   0.00000   1.86077
   A70        1.90282   0.00000   0.00000   0.00000   0.00000   1.90282
   A71        1.89528   0.00000   0.00000   0.00000   0.00000   1.89528
   A72        1.90637   0.00000   0.00000   0.00000   0.00000   1.90637
   A73        1.85993   0.00000   0.00000   0.00000   0.00000   1.85994
   A74        1.93950   0.00000   0.00000   0.00000   0.00000   1.93950
   A75        1.94836   0.00000   0.00000   0.00000   0.00000   1.94836
   A76        1.89988   0.00000   0.00000   0.00000   0.00000   1.89988
   A77        1.91049   0.00000   0.00000   0.00000   0.00000   1.91049
   A78        1.90463   0.00000   0.00000   0.00000   0.00000   1.90463
   A79        1.86139   0.00000   0.00000   0.00000   0.00000   1.86139
   A80        1.94211   0.00000   0.00000   0.00000   0.00000   1.94211
   A81        1.93896   0.00000   0.00000   0.00000   0.00000   1.93896
   A82        1.90955   0.00000   0.00000   0.00000   0.00000   1.90955
   A83        1.90289   0.00000   0.00000   0.00000   0.00000   1.90289
   A84        1.90799   0.00000   0.00000   0.00000   0.00000   1.90799
   A85        1.86296   0.00000   0.00000   0.00000   0.00000   1.86296
   A86        1.93634   0.00000   0.00000   0.00000   0.00000   1.93634
   A87        1.95889   0.00000   0.00000   0.00000   0.00000   1.95889
   A88        1.90182   0.00000   0.00000   0.00000   0.00000   1.90182
   A89        1.90747   0.00000   0.00000   0.00000   0.00000   1.90747
   A90        1.89543   0.00000   0.00000   0.00000   0.00000   1.89543
   A91        1.94639   0.00000   0.00000   0.00000   0.00000   1.94639
   A92        1.94175   0.00000   0.00000   0.00000   0.00000   1.94175
   A93        1.94589   0.00000   0.00000   0.00000   0.00000   1.94589
   A94        1.87208   0.00000   0.00000   0.00000   0.00000   1.87208
   A95        1.88286   0.00000   0.00000   0.00000   0.00000   1.88286
   A96        1.87120   0.00000   0.00000   0.00000   0.00000   1.87120
   A97        1.93866   0.00000   0.00000   0.00000   0.00000   1.93866
   A98        1.95085   0.00000   0.00000   0.00000   0.00000   1.95084
[...]
 .00001389,0.00001507,0.00004666,0.00000493,0.00000148,-0.00000979,0.00
 001174,-0.00000087,-0.00065321,0.00006306,0.00026265,0.00012652,0.0000
 6565,-0.00003685,-0.00040607,-0.00028768,0.00033439,0.00022358,-0.0000
 6835,-0.00005531,0.00090949,0.00222275,-0.00145739,-0.00009914,-0.0004
 7818,0.00045845,-0.00064304,-0.00066560,0.00021301,-0.00033342,-0.0003
 1630,0.00055031,-0.01232813,-0.03636025,0.54751594,0.00002381,-0.00014
 486,-0.00006335,0.00004799,0.00000176,-0.00006588,-0.00000753,-0.00064
 740,-0.00001048,-0.00026847,-0.00047983,-0.00047398,0.00008311,0.00020
 091,0.00020786,-0.00001477,0.00003757,0.00000776,0.00002103,0.00000519
 ,0.00000476,-0.00000663,0.00001384,-0.00000721,0.00000147,0.00002526,-
 0.00000864,0.00003572,-0.00002163,-0.00000239,-0.00014724,0.00044375,0
 .00025268,0.00049243,0.00039337,0.00002749,-0.00006482,0.00009191,0.00
 006128,-0.00014610,0.00012145,-0.00003554,-0.00013179,0.00002256,-0.00
 008122,0.00178870,0.00061192,0.00053653,-0.00021267,0.00004247,-0.0001
 4361,-0.00105960,0.00008901,-0.00047784,-0.00105892,-0.00037256,-0.000
 25686,-0.00083854,-0.00000481,0.00022194,0.00019741,-0.00017006,-0.000
 03572,0.00018950,0.00000428,-0.00010284,0.00079923,-0.00095699,0.00048
 542,0.00044061,-0.00007813,-0.00052968,-0.00100831,-0.00090042,0.00075
 984,-0.00026218,0.00033787,-0.00007848,-0.00001042,-0.00003075,-0.0000
 3038,0.00772804,-0.00579953,-0.00373730,-0.00019988,-0.00020180,-0.000
 26251,0.00025218,0.00044364,0.00074359,-0.00006501,0.00020729,-0.00041
 831,0.00000937,-0.00000215,-0.00004636,0.00000191,-0.00000675,0.000008
 78,0.00000269,-0.00000181,0.00000620,-0.00000692,0.00000664,0.00000632
 ,0.00001830,-0.00007507,0.00004288,-0.00001267,0.00000956,-0.00000725,
 0.00000360,0.00000901,-0.00000859,-0.00000380,0.00001657,0.00000038,0.
 00008962,0.00005545,0.00007067,-0.00000436,-0.00000568,-0.00002131,-0.
 00002614,-0.00000472,-0.00000280,0.00000961,0.00000722,0.00000843,0.00
 103281,-0.00031787,0.00036156,-0.00020973,-0.00005074,-0.00001302,-0.0
 0052662,0.00041942,-0.00008933,-0.00015162,0.00002250,0.00003787,-0.00
 002162,0.00006155,-0.00035823,0.00005644,-0.00006179,0.00012938,-0.000
 04149,-0.00004517,0.00006597,-0.00001549,0.00000617,0.00010788,-0.1103
 9020,-0.06881465,-0.02897810,0.16305735,-0.00006532,-0.00012274,-0.000
 12527,-0.00012375,0.00012824,-0.00007154,-0.00041059,-0.00108682,0.000
 27979,-0.00028210,-0.00050068,-0.00051325,0.00001869,0.00009448,0.0000
 5291,-0.00002685,0.00005032,-0.00000953,0.00008738,0.00000584,0.000016
 09,-0.00000548,0.00002541,-0.00001655,-0.00003184,0.00004875,-0.000056
 08,0.00005910,-0.00000880,0.00000704,0.00022248,0.00067198,0.00034754,
 0.00166556,0.00063025,-0.00005633,0.00009233,0.00001960,-0.00002123,0.
 00003359,0.00007970,0.00004622,-0.00001834,0.00011084,0.00007777,0.000
 98711,0.00019107,0.00053226,-0.00006463,0.00004814,-0.00005789,0.00072
 926,-0.00097289,0.00026436,-0.00050076,0.00023888,-0.00037039,-0.00358
 780,0.00158414,0.00153899,0.00083303,-0.00112519,-0.00022668,0.0008810
 5,-0.00031215,-0.00088230,0.00157039,-0.00027899,0.00159662,0.00015328
 ,-0.00116136,0.00029107,-0.00259766,-0.00034420,0.00222446,0.00165709,
 -0.00008256,0.00200231,-0.00019055,-0.00002977,-0.00017280,-0.02209386
 ,-0.04349381,-0.01325144,-0.00077682,-0.00051965,-0.00081525,0.0026807
 4,-0.00158671,-0.00266163,-0.00093625,-0.00047790,-0.00067032,-0.00005
 991,-0.00000120,0.00005419,-0.00000168,-0.00000029,0.00001238,0.000016
 48,0.00001638,-0.00000673,0.00000226,-0.00000390,-0.00000186,-0.000016
 58,-0.00000887,0.00000995,0.00000635,0.00000370,0.00000122,0.00000113,
 -0.00000418,-0.00000504,-0.00000875,0.00000567,0.00000245,0.00000115,-
 0.00005924,0.00001435,0.00000452,0.00000108,-0.00000090,-0.00000744,0.
 00000579,-0.00000186,0.00001426,0.00002694,-0.00000154,0.00111420,-0.0
 0029001,0.00063901,-0.00018484,-0.00001729,-0.00003347,0.00013676,0.00
 039507,-0.00039805,-0.00023419,0.00001629,0.00001627,0.00183097,0.0007
 9193,-0.00233017,-0.00011610,-0.00062597,0.00100180,-0.00075753,-0.000
 51772,0.00035643,-0.00049035,0.00016274,0.00079170,-0.07158493,-0.2015
 7336,-0.05097023,0.12314718,0.24339332,0.00001700,-0.00008805,-0.00004
 783,0.00003759,-0.00001691,-0.00003895,0.00003777,-0.00022971,-0.00006
 869,-0.00015817,-0.00030840,-0.00036229,0.00005689,0.00013285,0.000127
 14,-0.00001929,0.00002992,0.00001054,-0.00000257,0.00000097,0.00000149
 ,-0.00000289,0.00000369,-0.00000024,0.00000875,-0.00000424,0.00001281,
 0.00001122,-0.00001603,-0.00000248,-0.00010491,0.00020588,0.00021857,0
 .00004426,0.00012807,0.00009718,-0.00004782,0.00005302,0.00006333,-0.0
 0009702,0.00007307,-0.00001339,-0.00008746,0.00001142,-0.00002856,0.00
 103525,0.00051189,0.00042593,-0.00008957,0.00001239,-0.00005579,-0.000
 50820,-0.00006004,-0.00037476,-0.00059776,-0.00029898,0.00012249,-0.00
 005911,-0.00013851,-0.00044524,0.00001233,0.00005251,0.00007588,0.0000
 2914,-0.00001756,0.00016600,-0.00030666,0.00033256,-0.00051692,-0.0005
 2333,0.00025100,0.00035285,0.00107689,0.00051708,-0.00017950,-0.000058
 40,-0.00083807,0.00056503,-0.00000224,-0.00001991,0.00002218,-0.001155
 27,0.00284824,0.01072710,-0.00023724,0.00029079,-0.00002616,0.00034451
 ,-0.00089475,-0.00044248,-0.00005572,-0.00004549,-0.00006885,0.0000105
 3,-0.00000022,-0.00005384,0.00000592,-0.00000185,0.00000829,-0.0000030
 3,-0.00000350,0.00000455,-0.00000373,0.00000312,0.00000602,0.00001296,
 -0.00004396,0.00002066,-0.00000867,0.00000565,-0.00000521,0.00000098,0
 .00000464,-0.00000254,-0.00000245,0.00001146,0.00000006,0.00005871,0.0
 0003728,0.00004155,-0.00000026,-0.00000473,-0.00000863,-0.00001880,-0.
 00000140,-0.00000140,0.00000678,0.00000264,0.00000151,0.00039489,-0.00
 001511,-0.00002333,-0.00007197,-0.00003236,0.00002132,0.00027744,0.000
 09881,-0.00028008,-0.00010067,0.00002015,0.00003434,0.00007917,-0.0001
 7557,-0.00010316,0.00001746,-0.00003975,0.00010221,0.00001665,0.000042
 01,0.00002259,-0.00000869,0.00007130,0.00004886,-0.02931557,-0.0492553
 7,-0.09138482,0.06718883,0.09802739,0.12735743,0.00009214,-0.00006014,
 0.00005337,0.00016425,-0.00012930,-0.00000896,0.00030629,0.00010951,-0
 .00023003,-0.00000121,-0.00006226,0.00006014,0.00009234,0.00009418,0.0
 0017763,0.00001467,-0.00000904,0.00001347,-0.00004571,0.00000433,-0.00
 001155,-0.00000457,-0.00000130,0.00000148,0.00002666,-0.00000389,0.000
 02524,0.00000368,-0.00001418,-0.00001081,-0.00034545,-0.00001016,-0.00
 007201,-0.00079857,-0.00007681,0.00004199,-0.00015641,0.00010863,0.000
 07991,-0.00019678,0.00008031,-0.00009266,-0.00013056,-0.00005302,-0.00
 017202,0.00077701,0.00027929,0.00028258,-0.00009124,0.00000294,-0.0000
 7844,0.00004706,-0.00013697,0.00009633,-0.00045457,-0.00018426,-0.0001
 3998,0.00196191,-0.00108321,-0.00102165,-0.00056364,0.00111181,0.00009
 414,-0.00047752,0.00028638,0.00059273,-0.00087305,0.00067204,0.0013415
 8,0.00001465,0.00021081,-0.00044116,0.00020482,0.00427046,-0.00464401,
 0.00045956,0.00101869,-0.00051231,0.00007481,-0.00009267,-0.00011363,-
 0.03034772,0.01281146,0.00519892,0.00039978,-0.00068538,-0.00020256,-0
 .00138315,-0.00114113,0.00383218,0.00047950,0.00022291,-0.00218279,0.0
 0006085,-0.00000638,-0.00009082,0.00000129,-0.00001127,-0.00000176,-0.
 00000625,-0.00001407,0.00001392,-0.00001263,0.00001369,0.00000769,0.00
 004005,-0.00009129,0.00004780,-0.00001967,0.00000789,-0.00000935,0.000
 00421,0.00001536,-0.00000925,0.00000300,0.00001486,-0.00000011,0.00009
 656,0.00009400,0.00006821,-0.00000711,-0.00000804,-0.00002447,-0.00002
 383,-0.00000849,0.00000008,-0.00000110,-0.00000792,0.00000881,0.000503
 69,-0.00008273,0.00019738,-0.00011707,-0.00005008,-0.00001491,0.000007
 65,0.00020828,-0.00011958,-0.00004280,0.00001195,0.00000281,-0.0013041
 3,-0.00030019,0.00114334,0.00014910,0.00024581,-0.00041493,0.00057227,
 0.00033045,-0.00017160,0.00037780,-0.00014897,-0.00042561,-0.26030393,
 0.06476525,0.01532422,-0.06921655,-0.02576676,-0.01258831,0.38963979,-
 0.00006272,-0.00002705,-0.00007047,-0.00011766,0.00010417,-0.00002901,
 -0.00029413,-0.00052930,0.00022310,-0.00012319,-0.00018268,-0.00022800
 ,-0.00002983,0.00000446,-0.00004594,-0.00001502,0.00002177,-0.00001162
 ,0.00005619,0.00000220,0.00001175,-0.00000048,0.00001132,-0.00000865,-
 0.00002448,0.00002376,-0.00003689,0.00002246,0.00000269,0.00000732,0.0
 0021115,0.00028838,0.00016151,0.00101968,0.00030035,-0.00004686,0.0001
 0050,-0.00003270,-0.00004490,0.00008915,0.00000260,0.00005268,0.000042
 37,0.00006538,0.00009504,0.00015072,-0.00005464,0.00008312,-0.00000421
 ,0.00001949,0.00000102,0.00004920,-0.00017864,0.00004110,-0.00006373,0
 .00012917,-0.00008334,-0.00257814,0.00085313,0.00107535,0.00074533,-0.
 00103691,-0.00010804,0.00059018,-0.00018176,-0.00068461,0.00057045,-0.
 00195437,-0.00114837,0.00068645,-0.00059858,-0.00002882,-0.00003556,-0
 .00291257,0.00506976,0.00005431,-0.00006542,-0.00037052,0.00001064,0.0
 0004767,0.00001277,0.03944114,-0.00686690,-0.00319726,0.00009529,0.000
 52717,0.00018729,0.00107213,-0.00088429,-0.00007874,0.00075475,-0.0011
 7056,0.00072852,-0.00004866,0.00000174,0.00006320,-0.00000228,0.000003
 59,0.00000502,0.00001033,0.00001274,-0.00000814,0.00000544,-0.00000656
 ,-0.00000423,-0.00002213,0.00003053,-0.00001314,0.00001017,-0.00000145
 ,0.00000424,-0.00000088,-0.00000746,0.00000102,-0.00000477,-0.00000355
 ,0.00000114,-0.00003651,-0.00005938,-0.00001987,0.00000430,0.00000355,
 0.00000842,0.00000635,0.00000520,-0.00000076,0.00000581,0.00001389,-0.
 00000367,0.00018546,-0.00006284,0.00011272,-0.00001522,0.00001265,-0.0
 0000508,0.00001851,0.00004857,-0.00005528,-0.00005329,-0.00000219,0.00
 000733,0.00104566,0.00060931,-0.00143566,-0.00005976,-0.00031154,0.000
 50104,-0.00048826,-0.00033003,0.00022920,-0.00032654,0.00008100,0.0004
 9640,0.05847333,-0.09602361,-0.00039355,-0.04122619,0.00835547,-0.0030
 5216,-0.06330948,0.08998559,0.00001608,-0.00000496,0.00000096,0.000025
 88,-0.00003054,0.00000136,0.00006826,0.00013109,-0.00008823,0.00001878
 ,-0.00000665,-0.00003634,0.00001327,0.00001126,0.00001499,-0.00000578,
 0.00000469,0.00000590,-0.00001721,-0.00000133,-0.00000263,0.00000013,-
 0.00000335,0.00000352,0.00000712,-0.00001239,0.00001553,-0.00000516,-0
 .00000401,-0.00000157,-0.00004617,-0.00004055,0.00003570,-0.00029958,-
 0.00007263,0.00006535,-0.00002774,0.00001287,0.00003197,-0.00002936,0.
 00000836,-0.00000449,-0.00002173,-0.00000747,-0.00000526,0.00010601,0.
 00007518,0.00000890,0.00000419,-0.00000349,0.00000766,0.00002306,-0.00
 002437,0.00002566,-0.00006335,-0.00005863,0.00007236,0.00062365,-0.000
 23948,-0.00055045,-0.00016698,0.00027534,0.00008410,-0.00013448,0.0000
 1294,0.00028332,-0.00082916,0.00045129,0.00045968,-0.00014865,0.000261
 81,-0.00002378,0.00021286,0.00165536,-0.00144895,-0.00060472,-0.000286
 32,0.00061925,-0.00005651,0.00003281,0.00006128,-0.00857266,0.00462976
 ,0.01053795,-0.00031632,0.00032665,0.00006424,-0.00027009,0.00066058,-
 0.00194200,-0.00141461,0.00075415,0.00065150,0.00001082,-0.00000039,-0
 .00003357,0.00000430,0.00000021,0.00000260,-0.00000434,-0.00000361,0.0
 0000250,-0.00000123,0.00000110,0.00000270,0.00000660,-0.00000964,0.000
 00114,-0.00000307,0.00000074,-0.00000176,-0.00000055,0.00000117,0.0000
 0109,0.00000030,0.00000288,-0.00000007,0.00001494,0.00001313,0.0000068
 7,0.00000091,-0.00000159,0.00000028,-0.00000507,0.00000010,0.00000008,
 0.00000129,-0.00000178,-0.00000094,0.00004135,-0.00000317,-0.00004665,
 -0.00000725,-0.00000498,0.00000508,0.00004496,0.00003012,-0.00003526,-
 0.00002495,0.00000883,0.00000591,-0.00017985,-0.00045094,0.00035231,-0
 .00002179,0.00013074,-0.00014148,0.00014827,0.00014202,-0.00004228,0.0
 0004852,0.00008292,-0.00010377,0.02045441,-0.00243577,-0.07670841,-0.0
 1833823,-0.00258854,0.01105403,-0.04838714,0.00901664,0.08547036,0.000
 02171,-0.00001400,0.00001961,0.00003766,-0.00002580,-0.00000706,0.0000
 6686,-0.00006276,-0.00001706,-0.00000341,-0.00000325,0.00006841,0.0000
 2310,0.00001620,0.00003954,0.00001251,-0.00000512,-0.00000049,-0.00000
 325,0.00000282,-0.00000203,-0.00000160,0.00000168,-0.00000222,0.000003
 05,0.00000637,-0.00000464,0.00000475,-0.00000178,-0.00000227,-0.000082
 37,0.00002969,-0.00005244,-0.00008109,0.00004511,-0.00002365,-0.000036
 26,0.00003083,0.00000918,-0.00004605,0.00002118,-0.00002739,-0.0000302
 6,-0.00001122,-0.00004995,0.00012539,0.00001178,0.00006235,-0.00002076
 ,0.00000136,-0.00002332,0.00001635,-0.00002272,0.00002819,-0.00008242,
 -0.00000043,-0.00009901,0.00020916,-0.00041028,0.00007758,-0.00001269,
 0.00014821,-0.00003814,-0.00007578,0.00011694,0.00000125,0.00046614,-0
 .00050416,-0.00044638,0.00005943,0.00014648,-0.00011380,-0.00180318,0.
 00072901,-0.00035454,0.00030818,0.00001092,-0.00072879,0.00007471,0.00
 002872,-0.00004861,0.01050320,0.00168269,-0.00310567,0.00072828,0.0002
 9683,-0.00107048,-0.00066778,0.00132999,0.00001655,0.00019799,0.000339
 08,-0.00034407,0.00001314,-0.00000254,-0.00001132,-0.00000168,-0.00000
 449,-0.00000173,0.00000107,-0.00000227,0.00000337,-0.00000391,0.000004
 21,0.00000075,0.00001006,-0.00002472,0.00001425,-0.00000449,0.00000201
 ,-0.00000204,0.00000152,0.00000414,-0.00000360,0.00000077,0.00000329,0
 .00000037,0.00002163,0.00002049,0.00001627,-0.00000207,-0.00000190,-0.
 00000711,-0.00000507,-0.00000233,0.00000029,-0.00000080,-0.00000093,0.
 00000269,0.00013049,-0.00002774,0.00009410,-0.00003336,-0.00001564,-0.
 00001295,-0.00004670,0.00005926,0.00001995,0.00001819,-0.00000103,-0.0
 0000275,-0.00031648,-0.00000814,0.00017121,0.00003457,0.00007002,-0.00
 012188,0.00011950,0.00006712,-0.00002638,0.00007709,-0.00004153,-0.000
 06653,-0.07717621,-0.00043725,0.02738802,0.00974717,-0.00700467,-0.024
 54610,-0.02965019,0.00341564,0.05810776,0.08715422,-0.00004505,-0.0000
 3090,-0.00005132,-0.00008472,0.00007189,-0.00001995,-0.00024330,-0.000
 45356,0.00016792,-0.00010701,-0.00016551,-0.00017056,-0.00001839,0.000
 01342,-0.00001604,-0.00001096,0.00001385,-0.00000792,0.00004443,0.0000
 0300,0.00000782,-0.00000115,0.00001092,-0.00000841,-0.00002045,0.00002
 506,-0.00003159,0.00002226,0.00000167,0.00000492,0.00016067,0.00026235
 ,0.00011577,0.00081208,0.00021645,-0.00003512,0.00007041,-0.00001425,-
 0.00003520,0.00005679,0.00001262,0.00003181,0.00002556,0.00005266,0.00
 005741,0.00018681,-0.00004517,0.00011913,-0.00001652,0.00001717,-0.000
 01272,0.00007995,-0.00016884,0.00000269,-0.00009619,0.00011671,-0.0001
 2231,-0.00184739,0.00105439,0.00064747,0.00041708,-0.00056993,-0.00007
 467,0.00047783,-0.00020422,-0.00047977,-0.00061018,0.00015850,-0.00004
 626,-0.00024815,-0.00044013,0.00087392,0.00070650,-0.00105847,0.000905
 60,-0.00117074,-0.00171668,0.00082831,-0.00001669,0.00004267,0.0000430
 5,-0.00443194,0.00066178,0.03575756,0.00013057,-0.00104030,0.00120420,
 0.00424385,-0.00284825,0.00018120,0.00014926,0.00037476,0.00018663,-0.
 00003684,0.,0.00004890,-0.00000302,0.00000107,0.00000368,0.00000948,0.
 00001007,-0.00000559,0.00000311,-0.00000381,-0.00000321,-0.00001522,0.
 00001475,-0.00000391,0.00000692,-0.00000024,0.00000279,0.00000010,-0.0
 0000436,-0.00000122,-0.00000379,-0.00000168,0.00000106,-0.00002277,-0.
 00004336,-0.00000948,0.00000235,0.00000232,0.00000336,0.00000374,0.000
 00333,-0.00000059,0.00000439,0.00001195,-0.00000167,0.00020893,-0.0000
 6062,0.00012928,-0.00002465,0.00000556,-0.00000799,-0.00001971,0.00004
 523,-0.00002731,-0.00004146,-0.00000339,0.00000471,0.00122699,0.000180
 30,-0.00159648,-0.00002090,-0.00035949,0.00063964,-0.00062929,-0.00035
 004,0.00025496,-0.00030802,0.00009605,0.00045515,0.00092565,-0.0811259
 0,0.02635513,-0.00643395,-0.00189574,-0.04817718,0.00655808,0.01191742
 ,-0.01243815,-0.00000536,0.07720689,0.00006120,-0.00003911,-0.00000492
 ,0.00010423,-0.00008566,-0.00001021,0.00026208,0.00026809,-0.00029588,
 0.00003820,-0.00006986,-0.00016294,0.00006452,0.00006521,0.00009428,-0
 .00002032,0.00001954,0.00002106,-0.00005178,-0.00000403,-0.00000643,-0
 .00000071,-0.00000968,0.00001120,0.00003264,-0.00004226,0.00005668,-0.
 00001568,-0.00001619,-0.00000701,-0.00026238,-0.00006793,0.00014606,-0
 .00083911,-0.00010684,0.00020833,-0.00011068,0.00006045,0.00011585,-0.
 00012573,0.00004514,-0.00002375,-0.00009731,-0.00003016,-0.00004717,0.
 00063590,0.00034814,0.00016036,-0.00002858,-0.00000950,-0.00000269,0.0
 0011412,-0.00012033,-0.00003833,-0.00035761,-0.00027047,0.00024108,0.0
 0196965,-0.00101152,-0.00158001,-0.00050143,0.00067888,0.00024015,-0.0
 0043961,0.00009987,0.00091198,-0.00008488,0.00128608,0.00054395,-0.000
 33652,0.00032195,-0.00018504,0.00330971,-0.00165834,-0.00103157,0.0017
 7269,0.00069428,-0.00122329,-0.00012821,-0.00008342,0.00004494,0.00757
 372,0.00718801,-0.03825413,-0.00198887,0.00071018,0.00002628,-0.004980
 17,0.00532680,-0.00029497,-0.00031601,-0.00069003,0.00042979,0.0000391
 1,-0.00000089,-0.00012111,0.00001428,-0.00000067,0.00000983,-0.0000145
 8,-0.00001286,0.00000954,-0.00000523,0.00000466,0.00001035,0.00002521,
 -0.00004441,0.00001176,-0.00001285,0.00000410,-0.00000703,-0.00000092,
 0.00000599,0.00000229,0.00000069,0.00001221,-0.00000072,0.00006739,0.0
 0006142,0.00003784,0.00000045,-0.00000616,-0.00000496,-0.00002088,-0.0
 0000197,-0.00000074,0.00000410,-0.00000714,-0.00000035,0.00020103,0.00
 000188,-0.00018236,-0.00004334,-0.00002704,0.00001898,0.00011632,0.000
 07308,-0.00011165,-0.00009589,0.00003290,0.00002291,-0.00151213,-0.000
 52269,0.00162491,0.00000052,0.00054785,-0.00085420,0.00075101,0.000483
 65,-0.00020061,0.00030074,0.00003483,-0.00046400,0.02288160,0.03308422
 ,-0.27419774,-0.01665884,-0.03388770,-0.05717682,0.04348647,-0.0069831
 2,-0.02873822,-0.05477732,-0.00564946,0.40022844\\-0.00000102,0.000002
 64,-0.00000078,0.00000189,0.00000156,0.00000460,-0.00000047,0.00000150
 ,-0.00000319,0.00000174,-0.00000086,-0.00000621,-0.00000119,-0.0000010
 0,0.00000083,0.00000188,0.00000143,0.00000020,0.,0.00000062,0.00000024
 ,-0.00000021,-0.00000147,-0.00000051,0.,-0.00000023,0.00000091,0.00000
 084,-0.00000049,0.00000131,-0.00000292,-0.00000085,0.00000359,-0.00000
 255,-0.00000192,0.00000547,-0.00000324,-0.00000128,-0.00000180,0.00000
 051,-0.00000040,0.00000090,0.00000303,-0.00000363,0.00000134,0.0000007
 9,0.00000099,0.00000190,-0.00000092,-0.00000123,0.00000065,-0.00000011
 ,-0.00000026,-0.00000002,-0.00000113,0.00000080,0.00000203,0.00000155,
 0.00000122,-0.00000963,0.00000004,0.00000370,-0.00000453,0.00000029,0.
 00000005,0.00000589,0.00000125,0.00000022,-0.00000310,0.00000043,0.000
 00311,0.00000134,-0.00000126,0.00000065,-0.00000028,0.00000126,-0.0000
 0276,0.00000055,-0.00000091,-0.00000143,-0.00000236,-0.00000266,-0.000
 00076,0.00000089,0.00000188,-0.00000133,-0.00000119,0.00000166,0.00000
 265,-0.00000325,-0.00000011,-0.00000064,0.00000004,0.00000286,0.000001
 03,0.00000012,0.00000003,0.00000114,-0.00000089,0.00000004,0.00000129,
 -0.00000026,0.00000064,0.00000135,-0.00000066,-0.00000025,-0.00000093,
 -0.00000005,-0.00000063,-0.00000077,0.00000023,-0.00000029,-0.00000114
 ,-0.00000032,-0.00000029,-0.00000050,-0.00000002,-0.00000303,0.0000001
 6,0.00000130,-0.00000083,-0.00000181,0.00000103,0.00000037,-0.00000175
 ,0.00000154,-0.00000006,-0.00000137,0.00000143,0.00000162,-0.00000060,
 0.00000186,0.00000085,-0.00000011,0.00000207,-0.00000056,0.00000152,0.
 00000135,-0.00000057,0.00000050,0.00000171,-0.00000142,0.00000119,-0.0
 0000418,0.00000013,-0.00000178,-0.00000036,-0.00000032,-0.00000052,-0.
 00000200,-0.00000101,-0.00000192,-0.00000146,0.00000900,0.00000658,0.0
 0000692,-0.00000397,-0.00000502,-0.00000250,-0.00000314,0.00000166,0.0
 0000022,0.00000046,0.00000122,-0.00000292\\\@


 ... IT CAN BE VERY DIFFICULT, IN THESE COMPLEX TIMES,
 TO UNDERSTAND JUST HOW SCIENTISTS DO WHAT THEY DO.

                     DON MOSER IN THE FEBRUARY 1979 SMITHSONIAN
 Job cpu time:       0 days 21 hours 28 minutes  5.8 seconds.
 Elapsed time:       0 days  0 hours 43 minutes 24.5 seconds.
 File lengths (MBytes):  RWF=   2325 Int=      0 D2E=      0 Chk=     41 Scr=      1
 Normal termination of Gaussian 16 at Sat Jun 15 07:48:09 2019.
