 Entering Gaussian System, Link 0=g16
 Input=clay_new-glu_gluC6-BCDR-Na2_1Me2O-bisCF3-ts-cam_b3lyp_d3bj-custom-pcm_thf.gjf
 Output=clay_new-glu_gluC6-BCDR-Na2_1Me2O-bisCF3-ts-cam_b3lyp_d3bj-custom-pcm_thf.out
 Initial command:
 /home/ekwan/sw/g16/l1.exe "/scratch/users/ekwan/clay_new-glu_gluC6-BCDR-Na2_1Me2O-bisCF3-ts-cam_b3lyp_d3bj-custom-pcm_thf/Gau-58047.inp" -scrdir="/scratch/users/ekwan/clay_new-glu_gluC6-BCDR-Na2_1Me2O-bisCF3-ts-cam_b3lyp_d3bj-custom-pcm_thf/"
 Entering Link 1 = /home/ekwan/sw/g16/l1.exe PID=     58048.
  
 Copyright (c) 1988,1990,1992,1993,1995,1998,2003,2009,2016,
            Gaussian, Inc.  All Rights Reserved.
  
 This is part of the Gaussian(R) 16 program.  It is based on
 the Gaussian(R) 09 system (copyright 2009, Gaussian, Inc.),
 the Gaussian(R) 03 system (copyright 2003, Gaussian, Inc.),
 the Gaussian(R) 98 system (copyright 1998, Gaussian, Inc.),
 the Gaussian(R) 94 system (copyright 1995, Gaussian, Inc.),
 the Gaussian 92(TM) system (copyright 1992, Gaussian, Inc.),
 the Gaussian 90(TM) system (copyright 1990, Gaussian, Inc.),
 the Gaussian 88(TM) system (copyright 1988, Gaussian, Inc.),
 the Gaussian 86(TM) system (copyright 1986, Carnegie Mellon
 University), and the Gaussian 82(TM) system (copyright 1983,
 Carnegie Mellon University). Gaussian is a federally registered
 trademark of Gaussian, Inc.
  
 This software contains proprietary and confidential information,
 including trade secrets, belonging to Gaussian, Inc.
  
 This software is provided under written license and may be
 used, copied, transmitted, or stored only in accord with that
 written license.
  
 The following legend is applicable only to US Government
 contracts under FAR:
  
                    RESTRICTED RIGHTS LEGEND
  
 Use, reproduction and disclosure by the US Government is
 subject to restrictions as set forth in subparagraphs (a)
 and (c) of the Commercial Computer Software - Restricted
 Rights clause in FAR 52.227-19.
  
 Gaussian, Inc.
 340 Quinnipiac St., Bldg. 40, Wallingford CT 06492
  
  
 ---------------------------------------------------------------
 Warning -- This program may not be used in any manner that
 competes with the business of Gaussian, Inc. or will provide
 assistance to any competitor of Gaussian, Inc.  The licensee
 of this program is prohibited from giving any competitor of
 Gaussian, Inc. access to this program.  By using this program,
 the user acknowledges that Gaussian, Inc. is engaged in the
 business of creating and licensing software in the field of
 computational chemistry and represents and warrants to the
 licensee that it is not a competitor of Gaussian, Inc. and that
 it will not use this program in any manner prohibited above.
 ---------------------------------------------------------------
  

 Cite this work as:
 Gaussian 16, Revision A.03,
 M. J. Frisch, G. W. Trucks, H. B. Schlegel, G. E. Scuseria, 
 M. A. Robb, J. R. Cheeseman, G. Scalmani, V. Barone, 
 G. A. Petersson, H. Nakatsuji, X. Li, M. Caricato, A. V. Marenich, 
 J. Bloino, B. G. Janesko, R. Gomperts, B. Mennucci, H. P. Hratchian, 
 J. V. Ortiz, A. F. Izmaylov, J. L. Sonnenberg, D. Williams-Young, 
 F. Ding, F. Lipparini, F. Egidi, J. Goings, B. Peng, A. Petrone, 
 T. Henderson, D. Ranasinghe, V. G. Zakrzewski, J. Gao, N. Rega, 
 G. Zheng, W. Liang, M. Hada, M. Ehara, K. Toyota, R. Fukuda, 
 J. Hasegawa, M. Ishida, T. Nakajima, Y. Honda, O. Kitao, H. Nakai, 
 T. Vreven, K. Throssell, J. A. Montgomery, Jr., J. E. Peralta, 
 F. Ogliaro, M. J. Bearpark, J. J. Heyd, E. N. Brothers, K. N. Kudin, 
 V. N. Staroverov, T. A. Keith, R. Kobayashi, J. Normand, 
 K. Raghavachari, A. P. Rendell, J. C. Burant, S. S. Iyengar, 
 J. Tomasi, M. Cossi, J. M. Millam, M. Klene, C. Adamo, R. Cammi, 
 J. W. Ochterski, R. L. Martin, K. Morokuma, O. Farkas, 
 J. B. Foresman, and D. J. Fox, Gaussian, Inc., Wallingford CT, 2016.
 
 ******************************************
 Gaussian 16:  AS64L-G16RevA.03 25-Dec-2016
                16-Jun-2019 
 ******************************************
 %mem=48GB
 %nprocshared=32
 Will use up to   32 processors via shared memory.
 ----------------------------------------------------------------------
 #p opt=(ts,calcfc,noeigentest,maxstep=5) freq=noraman pop=none extraba
 sis 6-31g* scrf=(pcm,solvent=tetrahydrofuran) cam-b3lyp empiricaldispe
 rsion=gd3bj
 ----------------------------------------------------------------------
 1/5=1,8=5,10=4,11=1,18=20,26=3,38=1/1,3;
 2/9=110,12=2,17=6,18=5,40=1/2;
 3/5=1,6=6,7=1,10=1,11=2,25=1,30=1,70=2201,71=2,72=20,74=-40,124=41,140=1/1,2,3;
 4//1;
 5/5=2,38=5,53=20/2;
 8/6=4,10=90,11=11/1;
 11/6=1,8=1,9=11,15=111,16=1/1,2,10;
 10/6=1,13=1/2;
 7/10=1,18=20,25=1/1,2,3,16;
 1/5=1,8=5,10=4,11=1,18=20,26=3/3(2);
 2/9=110/2;
 99//99;
 2/9=110/2;
 3/5=7,6=1,7=1,11=2,25=1,30=1,70=2205,71=1,72=20,74=-40,82=7,124=41/1,2,3;
 4/5=5,16=3,69=1/1;
 5/5=2,38=5,53=20/2;
 7//1,2,3,16;
 1/5=1,8=5,11=1,18=20,26=3/3(-5);
 2/9=110/2;
 99/9=1/99;
 Leave Link    1 at Sun Jun 16 15:14:20 2019, MaxMem=  6442450944 cpu:               4.9 elap:               0.2
 (Enter /home/ekwan/sw/g16/l101.exe)
 -----
 title
 -----
 Symbolic Z-matrix:
 Charge =  0 Multiplicity = 1
 6                    -1.85297   1.4134    2.23611 
 6                    -2.16863   2.23689   0.99325 
 6                    -1.32467   3.50697   0.96564 
 6                     0.42973   2.4949    2.25135 
 6                    -0.351     1.18594   2.35895 
 1                    -1.44276   4.02402   0.00458 
 1                    -1.8921    1.65719   0.10452 
 1                    -2.20866   1.96466   3.11529 
 1                     0.16713   3.12149   3.11246 
 1                    -0.05133   0.5166    1.54631 
 8                     0.0494    3.18164   1.04281 
 8                    -1.72263   4.33149   2.01339 
 8                    -3.52996   2.60503   0.94474 
 8                    -2.53634   0.17515   2.13241 
 8                    -0.07245   0.57984   3.61015 
 6                     1.94759   2.31492   2.20394 
 1                     2.22115   1.81216   3.15098 
 1                     2.37006   3.33979   2.27966 
 8                     2.40167   1.65573   1.08337 
 6                    -4.32256   1.77856   0.11624 
 1                    -3.98823   1.82292  -0.92877 
 1                    -4.30077   0.73832   0.45137 
 1                    -5.34515   2.15759   0.17145 
 6                    -3.08859  -0.28921   3.34876 
 1                    -2.31454  -0.44491   4.10587 
 1                    -3.83209   0.4188    3.73858 
 1                    -3.58044  -1.23715   3.12971 
 6                     0.68446  -0.61238   3.51824 
 1                     0.12887  -1.3874    2.97834 
 1                     1.64285  -0.45124   3.01492 
 1                     0.86831  -0.95063   4.54056 
 6                     3.87188  -1.41211  -1.33922 
 6                     3.21253  -0.12666  -0.85084 
 6                     1.87631  -0.39461  -0.24058 
 6                     2.32438  -2.71324   0.16464 
 6                     3.77434  -2.4414   -0.21404 
 1                     1.16411   0.39754  -0.11776 
 1                     3.78663   0.26672   0.00351 
 1                     3.35548  -1.77632  -2.2349 
 1                     1.80646  -3.18341  -0.67514 
 1                     4.30455  -2.04879   0.6596 
 8                     1.59789  -1.46349   0.4001 
 8                    -0.50968   0.18568  -3.8882 
 8                     3.05507   0.8959   -1.80011 
 8                     5.22853  -1.14567  -1.61125 
 8                     4.32753  -3.6715   -0.62059 
 6                     2.13886  -3.54747   1.406 
 1                     2.50878  -4.56049   1.19621 
 1                     1.06613  -3.6161    1.637 
 8                     2.84716  -2.94866   2.45991 
 16                   -0.28066   0.02167  -2.44652 
 8                    -0.1836    1.29999  -1.69064 
 8                     0.86242  -0.89127  -2.1147 
 6                    -1.71741  -0.81109  -1.78027 
 6                    -2.96291  -0.61438  -2.35852 
 6                    -1.56766  -1.61372  -0.65977 
 6                    -4.0707   -1.2333   -1.79261 
 1                    -3.06352   0.00631  -3.24108 
 6                    -2.68233  -2.23459  -0.11634 
 1                    -0.59282  -1.75637  -0.21277 
 6                    -3.93855  -2.04885  -0.67516 
 1                    -4.80738  -2.53225  -0.24551 
 6                     4.24689   1.61378  -2.11357 
 1                     4.81742   1.83065  -1.20469 
 1                     4.87379   1.05261  -2.80815 
 1                     3.92664   2.55064  -2.56984 
 6                     5.72951  -1.79606  -2.76802 
 1                     5.62207  -2.88161  -2.69099 
 1                     5.21352  -1.44462  -3.67064 
 1                     6.78717  -1.53731  -2.83814 
 6                     5.44274  -4.08555   0.15428 
 1                     6.27166  -3.37615   0.05686 
 1                     5.17299  -4.18221   1.21248 
 1                     5.74951  -5.05826  -0.23233 
 6                     2.69123  -3.64325   3.67996 
 1                     3.26927  -3.105     4.43186 
 1                     1.63734  -3.67329   3.98636 
 1                     3.06595  -4.67247   3.6015 
 6                    -1.11225   5.60919   1.98864 
 1                    -1.57314   6.19656   2.78352 
 1                    -0.0334    5.54201   2.16385 
 1                    -1.28613   6.10469   1.02428 
 11                    1.46039   2.63938  -0.7488 
 8                     2.7649    4.45392  -1.09557 
 6                     2.71517   5.54172  -1.99631 
 1                     3.64853   5.61668  -2.56877 
 1                     1.88459   5.3619   -2.68054 
 1                     2.54887   6.48525  -1.46145 
 6                     3.81095   4.56702  -0.14483 
 1                     3.68217   5.4687    0.46683 
 1                     3.75904   3.67671   0.48471 
 1                     4.78567   4.61242  -0.64762 
 6                    -5.43529  -0.95855  -2.35054 
 9                    -5.99193   0.12389  -1.76962 
 9                    -6.27485  -1.98465  -2.14533 
 9                    -5.39614  -0.71647  -3.66867 
 6                    -2.50234  -3.16925   1.04136 
 9                    -1.49009  -2.78776   1.84313 
 9                    -2.21497  -4.41613   0.62853 
 9                    -3.60975  -3.25253   1.79752 
 
 Add virtual bond connecting atoms H37        and H10        Dist= 3.90D+00.
 Add virtual bond connecting atoms H37        and O19        Dist= 4.03D+00.
 Add virtual bond connecting atoms O52        and H37        Dist= 4.27D+00.
 Add virtual bond connecting atoms O52        and Na83       Dist= 4.38D+00.
 Add virtual bond connecting atoms O53        and C34        Dist= 4.13D+00.
 Add virtual bond connecting atoms H60        and O42        Dist= 4.33D+00.
 ITRead=  0  0  0  0  0  0  0  0  0  0  0  0  0  0  0  0  0  0  0  0
 ITRead=  0  0  0  0  0  0  0  0  0  0  0  0  0  0  0  0  0  0  0  0
 ITRead=  0  0  0  0  0  0  0  0  0  0  0  0  0  0  0  0  0  0  0  0
 ITRead=  0  0  0  0  0  0  0  0  0  0  0  0  0  0  0  0  0  0  0  0
 ITRead=  0  0  0  0  0  0  0  0  0  0  0  0  0  0  0  0  0  0  0  0
 MicOpt= -1 -1 -1 -1 -1 -1 -1 -1 -1 -1 -1 -1 -1 -1 -1 -1 -1 -1 -1 -1
 MicOpt= -1 -1 -1 -1 -1 -1 -1 -1 -1 -1 -1 -1 -1 -1 -1 -1 -1 -1 -1 -1
 MicOpt= -1 -1 -1 -1 -1 -1 -1 -1 -1 -1 -1 -1 -1 -1 -1 -1 -1 -1 -1 -1
 MicOpt= -1 -1 -1 -1 -1 -1 -1 -1 -1 -1 -1 -1 -1 -1 -1 -1 -1 -1 -1 -1
 MicOpt= -1 -1 -1 -1 -1 -1 -1 -1 -1 -1 -1 -1 -1 -1 -1 -1 -1 -1 -1 -1
 NAtoms=    100 NQM=      100 NQMF=       0 NMMI=      0 NMMIF=      0
                NMic=       0 NMicF=      0.
                    Isotopes and Nuclear Properties:
 (Nuclear quadrupole moments (NQMom) in fm**2, nuclear magnetic moments (NMagM)
  in nuclear magnetons)

  Atom         1           2           3           4           5           6           7           8           9          10
 IAtWgt=          12          12          12          12          12           1           1           1           1           1
 AtmWgt=  12.0000000  12.0000000  12.0000000  12.0000000  12.0000000   1.0078250   1.0078250   1.0078250   1.0078250   1.0078250
 NucSpn=           0           0           0           0           0           1           1           1           1           1
 AtZEff=   0.0000000   0.0000000   0.0000000   0.0000000   0.0000000   0.0000000   0.0000000   0.0000000   0.0000000   0.0000000
 NQMom=    0.0000000   0.0000000   0.0000000   0.0000000   0.0000000   0.0000000   0.0000000   0.0000000   0.0000000   0.0000000
 NMagM=    0.0000000   0.0000000   0.0000000   0.0000000   0.0000000   2.7928460   2.7928460   2.7928460   2.7928460   2.7928460
 AtZNuc=   6.0000000   6.0000000   6.0000000   6.0000000   6.0000000   1.0000000   1.0000000   1.0000000   1.0000000   1.0000000

  Atom        11          12          13          14          15          16          17          18          19          20
 IAtWgt=          16          16          16          16          16          12           1           1          16          12
 AtmWgt=  15.9949146  15.9949146  15.9949146  15.9949146  15.9949146  12.0000000   1.0078250   1.0078250  15.9949146  12.0000000
 NucSpn=           0           0           0           0           0           0           1           1           0           0
 AtZEff=   0.0000000   0.0000000   0.0000000   0.0000000   0.0000000   0.0000000   0.0000000   0.0000000   0.0000000   0.0000000
 NQMom=    0.0000000   0.0000000   0.0000000   0.0000000   0.0000000   0.0000000   0.0000000   0.0000000   0.0000000   0.0000000
 NMagM=    0.0000000   0.0000000   0.0000000   0.0000000   0.0000000   0.0000000   2.7928460   2.7928460   0.0000000   0.0000000
 AtZNuc=   8.0000000   8.0000000   8.0000000   8.0000000   8.0000000   6.0000000   1.0000000   1.0000000   8.0000000   6.0000000

  Atom        21          22          23          24          25          26          27          28          29          30
 IAtWgt=           1           1           1          12           1           1           1          12           1           1
 AtmWgt=   1.0078250   1.0078250   1.0078250  12.0000000   1.0078250   1.0078250   1.0078250  12.0000000   1.0078250   1.0078250
 NucSpn=           1           1           1           0           1           1           1           0           1           1
 AtZEff=   0.0000000   0.0000000   0.0000000   0.0000000   0.0000000   0.0000000   0.0000000   0.0000000   0.0000000   0.0000000
 NQMom=    0.0000000   0.0000000   0.0000000   0.0000000   0.0000000   0.0000000   0.0000000   0.0000000   0.0000000   0.0000000
 NMagM=    2.7928460   2.7928460   2.7928460   0.0000000   2.7928460   2.7928460   2.7928460   0.0000000   2.7928460   2.7928460
 AtZNuc=   1.0000000   1.0000000   1.0000000   6.0000000   1.0000000   1.0000000   1.0000000   6.0000000   1.0000000   1.0000000

  Atom        31          32          33          34          35          36          37          38          39          40
 IAtWgt=           1          12          12          12          12          12           1           1           1           1
 AtmWgt=   1.0078250  12.0000000  12.0000000  12.0000000  12.0000000  12.0000000   1.0078250   1.0078250   1.0078250   1.0078250
 NucSpn=           1           0           0           0           0           0           1           1           1           1
 AtZEff=   0.0000000   0.0000000   0.0000000   0.0000000   0.0000000   0.0000000   0.0000000   0.0000000   0.0000000   0.0000000
 NQMom=    0.0000000   0.0000000   0.0000000   0.0000000   0.0000000   0.0000000   0.0000000   0.0000000   0.0000000   0.0000000
 NMagM=    2.7928460   0.0000000   0.0000000   0.0000000   0.0000000   0.0000000   2.7928460   2.7928460   2.7928460   2.7928460
 AtZNuc=   1.0000000   6.0000000   6.0000000   6.0000000   6.0000000   6.0000000   1.0000000   1.0000000   1.0000000   1.0000000

  Atom        41          42          43          44          45          46          47          48          49          50
 IAtWgt=           1          16          16          16          16          16          12           1           1          16
 AtmWgt=   1.0078250  15.9949146  15.9949146  15.9949146  15.9949146  15.9949146  12.0000000   1.0078250   1.0078250  15.9949146
 NucSpn=           1           0           0           0           0           0           0           1           1           0
 AtZEff=   0.0000000   0.0000000   0.0000000   0.0000000   0.0000000   0.0000000   0.0000000   0.0000000   0.0000000   0.0000000
 NQMom=    0.0000000   0.0000000   0.0000000   0.0000000   0.0000000   0.0000000   0.0000000   0.0000000   0.0000000   0.0000000
 NMagM=    2.7928460   0.0000000   0.0000000   0.0000000   0.0000000   0.0000000   0.0000000   2.7928460   2.7928460   0.0000000
 AtZNuc=   1.0000000   8.0000000   8.0000000   8.0000000   8.0000000   8.0000000   6.0000000   1.0000000   1.0000000   8.0000000

  Atom        51          52          53          54          55          56          57          58          59          60
 IAtWgt=          32          16          16          12          12          12          12           1          12           1
 AtmWgt=  31.9720718  15.9949146  15.9949146  12.0000000  12.0000000  12.0000000  12.0000000   1.0078250  12.0000000   1.0078250
 NucSpn=           0           0           0           0           0           0           0           1           0           1
 AtZEff=   0.0000000   0.0000000   0.0000000   0.0000000   0.0000000   0.0000000   0.0000000   0.0000000   0.0000000   0.0000000
 NQMom=    0.0000000   0.0000000   0.0000000   0.0000000   0.0000000   0.0000000   0.0000000   0.0000000   0.0000000   0.0000000
 NMagM=    0.0000000   0.0000000   0.0000000   0.0000000   0.0000000   0.0000000   0.0000000   2.7928460   0.0000000   2.7928460
 AtZNuc=  16.0000000   8.0000000   8.0000000   6.0000000   6.0000000   6.0000000   6.0000000   1.0000000   6.0000000   1.0000000

  Atom        61          62          63          64          65          66          67          68          69          70
 IAtWgt=          12           1          12           1           1           1          12           1           1           1
 AtmWgt=  12.0000000   1.0078250  12.0000000   1.0078250   1.0078250   1.0078250  12.0000000   1.0078250   1.0078250   1.0078250
 NucSpn=           0           1           0           1           1           1           0           1           1           1
 AtZEff=   0.0000000   0.0000000   0.0000000   0.0000000   0.0000000   0.0000000   0.0000000   0.0000000   0.0000000   0.0000000
 NQMom=    0.0000000   0.0000000   0.0000000   0.0000000   0.0000000   0.0000000   0.0000000   0.0000000   0.0000000   0.0000000
 NMagM=    0.0000000   2.7928460   0.0000000   2.7928460   2.7928460   2.7928460   0.0000000   2.7928460   2.7928460   2.7928460
 AtZNuc=   6.0000000   1.0000000   6.0000000   1.0000000   1.0000000   1.0000000   6.0000000   1.0000000   1.0000000   1.0000000

  Atom        71          72          73          74          75          76          77          78          79          80
 IAtWgt=          12           1           1           1          12           1           1           1          12           1
 AtmWgt=  12.0000000   1.0078250   1.0078250   1.0078250  12.0000000   1.0078250   1.0078250   1.0078250  12.0000000   1.0078250
 NucSpn=           0           1           1           1           0           1           1           1           0           1
 AtZEff=   0.0000000   0.0000000   0.0000000   0.0000000   0.0000000   0.0000000   0.0000000   0.0000000   0.0000000   0.0000000
 NQMom=    0.0000000   0.0000000   0.0000000   0.0000000   0.0000000   0.0000000   0.0000000   0.0000000   0.0000000   0.0000000
 NMagM=    0.0000000   2.7928460   2.7928460   2.7928460   0.0000000   2.7928460   2.7928460   2.7928460   0.0000000   2.7928460
 AtZNuc=   6.0000000   1.0000000   1.0000000   1.0000000   6.0000000   1.0000000   1.0000000   1.0000000   6.0000000   1.0000000

  Atom        81          82          83          84          85          86          87          88          89          90
 IAtWgt=           1           1          23          16          12           1           1           1          12           1
 AtmWgt=   1.0078250   1.0078250  22.9897697  15.9949146  12.0000000   1.0078250   1.0078250   1.0078250  12.0000000   1.0078250
 NucSpn=           1           1           3           0           0           1           1           1           0           1
 AtZEff=   0.0000000   0.0000000   0.0000000   0.0000000   0.0000000   0.0000000   0.0000000   0.0000000   0.0000000   0.0000000
 NQMom=    0.0000000   0.0000000  10.4000000   0.0000000   0.0000000   0.0000000   0.0000000   0.0000000   0.0000000   0.0000000
 NMagM=    2.7928460   2.7928460   2.2175200   0.0000000   0.0000000   2.7928460   2.7928460   2.7928460   0.0000000   2.7928460
 AtZNuc=   1.0000000   1.0000000  11.0000000   8.0000000   6.0000000   1.0000000   1.0000000   1.0000000   6.0000000   1.0000000

  Atom        91          92          93          94          95          96          97          98          99         100
 IAtWgt=           1           1          12          19          19          19          12          19          19          19
 AtmWgt=   1.0078250   1.0078250  12.0000000  18.9984033  18.9984033  18.9984033  12.0000000  18.9984033  18.9984033  18.9984033
 NucSpn=           1           1           0           1           1           1           0           1           1           1
 AtZEff=   0.0000000   0.0000000   0.0000000   0.0000000   0.0000000   0.0000000   0.0000000   0.0000000   0.0000000   0.0000000
 NQMom=    0.0000000   0.0000000   0.0000000   0.0000000   0.0000000   0.0000000   0.0000000   0.0000000   0.0000000   0.0000000
 NMagM=    2.7928460   2.7928460   0.0000000   2.6288670   2.6288670   2.6288670   0.0000000   2.6288670   2.6288670   2.6288670
 AtZNuc=   1.0000000   1.0000000   6.0000000   9.0000000   9.0000000   9.0000000   6.0000000   9.0000000   9.0000000   9.0000000
 Leave Link  101 at Sun Jun 16 15:14:21 2019, MaxMem=  6442450944 cpu:              17.8 elap:               0.7
 (Enter /home/ekwan/sw/g16/l103.exe)

 GradGradGradGradGradGradGradGradGradGradGradGradGradGradGradGradGradGrad
 Berny optimization.
 Initialization pass.
                           ----------------------------
                           !    Initial Parameters    !
                           ! (Angstroms and Degrees)  !
 --------------------------                            --------------------------
 ! Name  Definition              Value          Derivative Info.                !
 --------------------------------------------------------------------------------
 ! R1    R(1,2)                  1.524          calculate D2E/DX2 analytically  !
 ! R2    R(1,5)                  1.5241         calculate D2E/DX2 analytically  !
 ! R3    R(1,8)                  1.097          calculate D2E/DX2 analytically  !
 ! R4    R(1,14)                 1.4181         calculate D2E/DX2 analytically  !
 ! R5    R(2,3)                  1.5252         calculate D2E/DX2 analytically  !
 ! R6    R(2,7)                  1.0965         calculate D2E/DX2 analytically  !
 ! R7    R(2,13)                 1.4111         calculate D2E/DX2 analytically  !
 ! R8    R(3,6)                  1.0977         calculate D2E/DX2 analytically  !
 ! R9    R(3,11)                 1.4142         calculate D2E/DX2 analytically  !
 ! R10   R(3,12)                 1.3914         calculate D2E/DX2 analytically  !
 ! R11   R(4,5)                  1.5279         calculate D2E/DX2 analytically  !
 ! R12   R(4,9)                  1.0968         calculate D2E/DX2 analytically  !
 ! R13   R(4,11)                 1.4411         calculate D2E/DX2 analytically  !
 ! R14   R(4,16)                 1.5292         calculate D2E/DX2 analytically  !
 ! R15   R(5,10)                 1.0946         calculate D2E/DX2 analytically  !
 ! R16   R(5,15)                 1.4179         calculate D2E/DX2 analytically  !
 ! R17   R(10,37)                2.0641         calculate D2E/DX2 analytically  !
 ! R18   R(12,79)                1.4162         calculate D2E/DX2 analytically  !
 ! R19   R(13,20)                1.4134         calculate D2E/DX2 analytically  !
 ! R20   R(14,24)                1.4143         calculate D2E/DX2 analytically  !
 ! R21   R(15,28)                1.4152         calculate D2E/DX2 analytically  !
 ! R22   R(16,17)                1.1066         calculate D2E/DX2 analytically  !
 ! R23   R(16,18)                1.1111         calculate D2E/DX2 analytically  !
 ! R24   R(16,19)                1.3771         calculate D2E/DX2 analytically  !
 ! R25   R(19,37)                2.1348         calculate D2E/DX2 analytically  !
 ! R26   R(19,83)                2.2826         calculate D2E/DX2 analytically  !
 ! R27   R(20,21)                1.0981         calculate D2E/DX2 analytically  !
 ! R28   R(20,22)                1.0931         calculate D2E/DX2 analytically  !
 ! R29   R(20,23)                1.092          calculate D2E/DX2 analytically  !
 ! R30   R(24,25)                1.0939         calculate D2E/DX2 analytically  !
 ! R31   R(24,26)                1.0982         calculate D2E/DX2 analytically  !
 ! R32   R(24,27)                1.0902         calculate D2E/DX2 analytically  !
 ! R33   R(28,29)                1.0958         calculate D2E/DX2 analytically  !
 ! R34   R(28,30)                1.0944         calculate D2E/DX2 analytically  !
 ! R35   R(28,31)                1.0924         calculate D2E/DX2 analytically  !
 ! R36   R(32,33)                1.525          calculate D2E/DX2 analytically  !
 ! R37   R(32,36)                1.5281         calculate D2E/DX2 analytically  !
 ! R38   R(32,39)                1.0962         calculate D2E/DX2 analytically  !
 ! R39   R(32,45)                1.4091         calculate D2E/DX2 analytically  !
 ! R40   R(33,34)                1.4932         calculate D2E/DX2 analytically  !
 ! R41   R(33,38)                1.1019         calculate D2E/DX2 analytically  !
 ! R42   R(33,44)                1.4041         calculate D2E/DX2 analytically  !
 ! R43   R(34,37)                1.0723         calculate D2E/DX2 analytically  !
 ! R44   R(34,42)                1.2769         calculate D2E/DX2 analytically  !
 ! R45   R(34,53)                2.1879         calculate D2E/DX2 analytically  !
 ! R46   R(35,36)                1.523          calculate D2E/DX2 analytically  !
 ! R47   R(35,40)                1.0929         calculate D2E/DX2 analytically  !
 ! R48   R(35,42)                1.4646         calculate D2E/DX2 analytically  !
 ! R49   R(35,47)                1.5071         calculate D2E/DX2 analytically  !
 ! R50   R(36,41)                1.0948         calculate D2E/DX2 analytically  !
 ! R51   R(36,46)                1.4087         calculate D2E/DX2 analytically  !
 ! R52   R(37,52)                2.2594         calculate D2E/DX2 analytically  !
 ! R53   R(42,60)                2.2936         calculate D2E/DX2 analytically  !
 ! R54   R(43,51)                1.4689         calculate D2E/DX2 analytically  !
 ! R55   R(44,63)                1.4262         calculate D2E/DX2 analytically  !
 ! R56   R(45,67)                1.4185         calculate D2E/DX2 analytically  !
 ! R57   R(46,71)                1.4197         calculate D2E/DX2 analytically  !
 ! R58   R(47,48)                1.0987         calculate D2E/DX2 analytically  !
 ! R59   R(47,49)                1.0995         calculate D2E/DX2 analytically  !
 ! R60   R(47,50)                1.4039         calculate D2E/DX2 analytically  !
 ! R61   R(50,75)                1.4126         calculate D2E/DX2 analytically  !
 ! R62   R(51,52)                1.4882         calculate D2E/DX2 analytically  !
 ! R63   R(51,53)                1.5001         calculate D2E/DX2 analytically  !
 ! R64   R(51,54)                1.7893         calculate D2E/DX2 analytically  !
 ! R65   R(52,83)                2.3203         calculate D2E/DX2 analytically  !
 ! R66   R(54,55)                1.3872         calculate D2E/DX2 analytically  !
 ! R67   R(54,56)                1.3864         calculate D2E/DX2 analytically  !
 ! R68   R(55,57)                1.3894         calculate D2E/DX2 analytically  !
 ! R69   R(55,58)                1.0836         calculate D2E/DX2 analytically  !
 ! R70   R(56,59)                1.3868         calculate D2E/DX2 analytically  !
 ! R71   R(56,60)                1.0819         calculate D2E/DX2 analytically  !
 ! R72   R(57,61)                1.3897         calculate D2E/DX2 analytically  !
 ! R73   R(57,93)                1.4996         calculate D2E/DX2 analytically  !
 ! R74   R(59,61)                1.3874         calculate D2E/DX2 analytically  !
 ! R75   R(59,97)                1.4988         calculate D2E/DX2 analytically  !
 ! R76   R(61,62)                1.0831         calculate D2E/DX2 analytically  !
 ! R77   R(63,64)                1.0948         calculate D2E/DX2 analytically  !
 ! R78   R(63,65)                1.091          calculate D2E/DX2 analytically  !
 ! R79   R(63,66)                1.0902         calculate D2E/DX2 analytically  !
 ! R80   R(67,68)                1.0936         calculate D2E/DX2 analytically  !
 ! R81   R(67,69)                1.0975         calculate D2E/DX2 analytically  !
 ! R82   R(67,70)                1.0911         calculate D2E/DX2 analytically  !
 ! R83   R(71,72)                1.0954         calculate D2E/DX2 analytically  !
 ! R84   R(71,73)                1.0963         calculate D2E/DX2 analytically  !
 ! R85   R(71,74)                1.0908         calculate D2E/DX2 analytically  !
 ! R86   R(75,76)                1.0905         calculate D2E/DX2 analytically  !
 ! R87   R(75,77)                1.0979         calculate D2E/DX2 analytically  !
 ! R88   R(75,78)                1.0981         calculate D2E/DX2 analytically  !
 ! R89   R(79,80)                1.0905         calculate D2E/DX2 analytically  !
 ! R90   R(79,81)                1.095          calculate D2E/DX2 analytically  !
 ! R91   R(79,82)                1.0981         calculate D2E/DX2 analytically  !
 ! R92   R(83,84)                2.2615         calculate D2E/DX2 analytically  !
 ! R93   R(84,85)                1.4132         calculate D2E/DX2 analytically  !
 ! R94   R(84,89)                1.4181         calculate D2E/DX2 analytically  !
 ! R95   R(85,86)                1.0975         calculate D2E/DX2 analytically  !
 ! R96   R(85,87)                1.091          calculate D2E/DX2 analytically  !
 ! R97   R(85,88)                1.0973         calculate D2E/DX2 analytically  !
 ! R98   R(89,90)                1.0972         calculate D2E/DX2 analytically  !
 ! R99   R(89,91)                1.0916         calculate D2E/DX2 analytically  !
 ! R100  R(89,92)                1.0977         calculate D2E/DX2 analytically  !
 ! R101  R(93,94)                1.3487         calculate D2E/DX2 analytically  !
 ! R102  R(93,95)                1.3416         calculate D2E/DX2 analytically  !
 ! R103  R(93,96)                1.3408         calculate D2E/DX2 analytically  !
 ! R104  R(97,98)                1.3465         calculate D2E/DX2 analytically  !
 ! R105  R(97,99)                1.3445         calculate D2E/DX2 analytically  !
 ! R106  R(97,100)               1.3435         calculate D2E/DX2 analytically  !
 ! A1    A(2,1,5)              110.5185         calculate D2E/DX2 analytically  !
 ! A2    A(2,1,8)              108.356          calculate D2E/DX2 analytically  !
 ! A3    A(2,1,14)             108.2029         calculate D2E/DX2 analytically  !
 ! A4    A(5,1,8)              109.2655         calculate D2E/DX2 analytically  !
 ! A5    A(5,1,14)             110.5167         calculate D2E/DX2 analytically  !
 ! A6    A(8,1,14)             109.9466         calculate D2E/DX2 analytically  !
 ! A7    A(1,2,3)              110.4954         calculate D2E/DX2 analytically  !
 ! A8    A(1,2,7)              108.8501         calculate D2E/DX2 analytically  !
 ! A9    A(1,2,13)             111.6444         calculate D2E/DX2 analytically  !
 ! A10   A(3,2,7)              106.6202         calculate D2E/DX2 analytically  !
 ! A11   A(3,2,13)             108.4195         calculate D2E/DX2 analytically  !
 ! A12   A(7,2,13)             110.6926         calculate D2E/DX2 analytically  !
 ! A13   A(2,3,6)              110.4002         calculate D2E/DX2 analytically  !
 ! A14   A(2,3,11)             110.1883         calculate D2E/DX2 analytically  !
 ! A15   A(2,3,12)             108.7581         calculate D2E/DX2 analytically  !
 ! A16   A(6,3,11)             105.1099         calculate D2E/DX2 analytically  !
 ! A17   A(6,3,12)             110.45           calculate D2E/DX2 analytically  !
 ! A18   A(11,3,12)            111.9092         calculate D2E/DX2 analytically  !
 ! A19   A(5,4,9)              108.1665         calculate D2E/DX2 analytically  !
 ! A20   A(5,4,11)             109.4172         calculate D2E/DX2 analytically  !
 ! A21   A(5,4,16)             114.1128         calculate D2E/DX2 analytically  !
 ! A22   A(9,4,11)             108.8423         calculate D2E/DX2 analytically  !
 ! A23   A(9,4,16)             109.221          calculate D2E/DX2 analytically  !
 ! A24   A(11,4,16)            106.9799         calculate D2E/DX2 analytically  !
 ! A25   A(1,5,4)              111.718          calculate D2E/DX2 analytically  !
 ! A26   A(1,5,10)             107.5311         calculate D2E/DX2 analytically  !
 ! A27   A(1,5,15)             109.1793         calculate D2E/DX2 analytically  !
 ! A28   A(4,5,10)             109.3714         calculate D2E/DX2 analytically  !
 ! A29   A(4,5,15)             109.1452         calculate D2E/DX2 analytically  !
 ! A30   A(10,5,15)            109.8736         calculate D2E/DX2 analytically  !
 ! A31   A(5,10,37)            142.6537         calculate D2E/DX2 analytically  !
 ! A32   A(3,11,4)             114.3193         calculate D2E/DX2 analytically  !
 ! A33   A(3,12,79)            113.4653         calculate D2E/DX2 analytically  !
 ! A34   A(2,13,20)            114.1177         calculate D2E/DX2 analytically  !
 ! A35   A(1,14,24)            114.33           calculate D2E/DX2 analytically  !
 ! A36   A(5,15,28)            114.0712         calculate D2E/DX2 analytically  !
 ! A37   A(4,16,17)            105.8021         calculate D2E/DX2 analytically  !
 ! A38   A(4,16,18)            105.4694         calculate D2E/DX2 analytically  !
 ! A39   A(4,16,19)            114.1329         calculate D2E/DX2 analytically  !
 ! A40   A(17,16,18)           105.4708         calculate D2E/DX2 analytically  !
 ! A41   A(17,16,19)           113.4165         calculate D2E/DX2 analytically  !
 ! A42   A(18,16,19)           111.815          calculate D2E/DX2 analytically  !
 ! A43   A(16,19,37)           123.2853         calculate D2E/DX2 analytically  !
 ! A44   A(16,19,83)           108.1127         calculate D2E/DX2 analytically  !
 ! A45   A(37,19,83)            64.1073         calculate D2E/DX2 analytically  !
 ! A46   A(13,20,21)           111.3145         calculate D2E/DX2 analytically  !
 ! A47   A(13,20,22)           111.4426         calculate D2E/DX2 analytically  !
 ! A48   A(13,20,23)           107.0107         calculate D2E/DX2 analytically  !
 ! A49   A(21,20,22)           108.9134         calculate D2E/DX2 analytically  !
 ! A50   A(21,20,23)           108.6153         calculate D2E/DX2 analytically  !
 ! A51   A(22,20,23)           109.4803         calculate D2E/DX2 analytically  !
 ! A52   A(14,24,25)           111.4498         calculate D2E/DX2 analytically  !
 ! A53   A(14,24,26)           110.976          calculate D2E/DX2 analytically  !
 ! A54   A(14,24,27)           106.7906         calculate D2E/DX2 analytically  !
 ! A55   A(25,24,26)           108.9744         calculate D2E/DX2 analytically  !
 ! A56   A(25,24,27)           109.545          calculate D2E/DX2 analytically  !
 ! A57   A(26,24,27)           109.0544         calculate D2E/DX2 analytically  !
 ! A58   A(15,28,29)           110.8945         calculate D2E/DX2 analytically  !
 ! A59   A(15,28,30)           111.9738         calculate D2E/DX2 analytically  !
 ! A60   A(15,28,31)           106.863          calculate D2E/DX2 analytically  !
 ! A61   A(29,28,30)           108.7559         calculate D2E/DX2 analytically  !
 ! A62   A(29,28,31)           109.1126         calculate D2E/DX2 analytically  !
 ! A63   A(30,28,31)           109.183          calculate D2E/DX2 analytically  !
 ! A64   A(33,32,36)           107.7202         calculate D2E/DX2 analytically  !
 ! A65   A(33,32,39)           109.7584         calculate D2E/DX2 analytically  !
 ! A66   A(33,32,45)           108.5852         calculate D2E/DX2 analytically  !
 ! A67   A(36,32,39)           110.3528         calculate D2E/DX2 analytically  !
 ! A68   A(36,32,45)           109.3287         calculate D2E/DX2 analytically  !
 ! A69   A(39,32,45)           111.017          calculate D2E/DX2 analytically  !
 ! A70   A(32,33,34)           111.5016         calculate D2E/DX2 analytically  !
 ! A71   A(32,33,38)           108.9015         calculate D2E/DX2 analytically  !
 ! A72   A(32,33,44)           116.4768         calculate D2E/DX2 analytically  !
 ! A73   A(34,33,38)           102.3227         calculate D2E/DX2 analytically  !
 ! A74   A(34,33,44)           107.8567         calculate D2E/DX2 analytically  !
 ! A75   A(38,33,44)           108.8208         calculate D2E/DX2 analytically  !
 ! A76   A(33,34,37)           120.5709         calculate D2E/DX2 analytically  !
 ! A77   A(33,34,42)           123.3934         calculate D2E/DX2 analytically  !
 ! A78   A(33,34,53)            96.047          calculate D2E/DX2 analytically  !
 ! A79   A(37,34,42)           114.5883         calculate D2E/DX2 analytically  !
 ! A80   A(37,34,53)            87.594          calculate D2E/DX2 analytically  !
 ! A81   A(42,34,53)            97.9736         calculate D2E/DX2 analytically  !
 ! A82   A(36,35,40)           109.6867         calculate D2E/DX2 analytically  !
 ! A83   A(36,35,42)           111.0938         calculate D2E/DX2 analytically  !
 ! A84   A(36,35,47)           114.8842         calculate D2E/DX2 analytically  !
 ! A85   A(40,35,42)           104.8056         calculate D2E/DX2 analytically  !
 ! A86   A(40,35,47)           109.6593         calculate D2E/DX2 analytically  !
 ! A87   A(42,35,47)           106.1916         calculate D2E/DX2 analytically  !
 ! A88   A(32,36,35)           111.3507         calculate D2E/DX2 analytically  !
 ! A89   A(32,36,41)           108.3687         calculate D2E/DX2 analytically  !
 ! A90   A(32,36,46)           110.525          calculate D2E/DX2 analytically  !
 ! A91   A(35,36,41)           109.0665         calculate D2E/DX2 analytically  !
 ! A92   A(35,36,46)           106.8429         calculate D2E/DX2 analytically  !
 ! A93   A(41,36,46)           110.6878         calculate D2E/DX2 analytically  !
 ! A94   A(10,37,19)            81.5909         calculate D2E/DX2 analytically  !
 ! A95   A(10,37,34)           121.7394         calculate D2E/DX2 analytically  !
 ! A96   A(10,37,52)           100.775          calculate D2E/DX2 analytically  !
 ! A97   A(19,37,34)            96.5923         calculate D2E/DX2 analytically  !
 ! A98   A(19,37,52)           120.1374         calculate D2E/DX2 analytically  !
 ! A99   A(34,37,52)           127.6999         calculate D2E/DX2 analytically  !
 ! A100  A(34,42,35)           121.6995         calculate D2E/DX2 analytically  !
 ! A101  A(34,42,60)           100.4329         calculate D2E/DX2 analytically  !
 ! A102  A(35,42,60)           108.7753         calculate D2E/DX2 analytically  !
 ! A103  A(33,44,63)           114.9267         calculate D2E/DX2 analytically  !
 ! A104  A(32,45,67)           114.2536         calculate D2E/DX2 analytically  !
 ! A105  A(36,46,71)           113.9302         calculate D2E/DX2 analytically  !
 ! A106  A(35,47,48)           108.1593         calculate D2E/DX2 analytically  !
 ! A107  A(35,47,49)           109.1304         calculate D2E/DX2 analytically  !
 ! A108  A(35,47,50)           108.6705         calculate D2E/DX2 analytically  !
 ! A109  A(48,47,49)           108.1243         calculate D2E/DX2 analytically  !
 ! A110  A(48,47,50)           111.5148         calculate D2E/DX2 analytically  !
 ! A111  A(49,47,50)           111.1709         calculate D2E/DX2 analytically  !
 ! A112  A(47,50,75)           112.5172         calculate D2E/DX2 analytically  !
 ! A113  A(43,51,52)           114.3771         calculate D2E/DX2 analytically  !
 ! A114  A(43,51,53)           113.8195         calculate D2E/DX2 analytically  !
 ! A115  A(43,51,54)           106.9902         calculate D2E/DX2 analytically  !
 ! A116  A(52,51,53)           111.1438         calculate D2E/DX2 analytically  !
 ! A117  A(52,51,54)           105.2487         calculate D2E/DX2 analytically  !
 ! A118  A(53,51,54)           104.2564         calculate D2E/DX2 analytically  !
 ! A119  A(37,52,51)            92.8312         calculate D2E/DX2 analytically  !
 ! A120  A(37,52,83)            61.6635         calculate D2E/DX2 analytically  !
 ! A121  A(51,52,83)           138.4346         calculate D2E/DX2 analytically  !
 ! A122  A(34,53,51)           113.8565         calculate D2E/DX2 analytically  !
 ! A123  A(51,54,55)           119.9824         calculate D2E/DX2 analytically  !
 ! A124  A(51,54,56)           118.9231         calculate D2E/DX2 analytically  !
 ! A125  A(55,54,56)           121.062          calculate D2E/DX2 analytically  !
 ! A126  A(54,55,57)           118.8752         calculate D2E/DX2 analytically  !
 ! A127  A(54,55,58)           120.2697         calculate D2E/DX2 analytically  !
 ! A128  A(57,55,58)           120.8535         calculate D2E/DX2 analytically  !
 ! A129  A(54,56,59)           119.2786         calculate D2E/DX2 analytically  !
 ! A130  A(54,56,60)           120.503          calculate D2E/DX2 analytically  !
 ! A131  A(59,56,60)           120.2183         calculate D2E/DX2 analytically  !
 ! A132  A(55,57,61)           120.8708         calculate D2E/DX2 analytically  !
 ! A133  A(55,57,93)           119.4956         calculate D2E/DX2 analytically  !
 ! A134  A(61,57,93)           119.5515         calculate D2E/DX2 analytically  !
 ! A135  A(56,59,61)           120.6633         calculate D2E/DX2 analytically  !
 ! A136  A(56,59,97)           119.0355         calculate D2E/DX2 analytically  !
 ! A137  A(61,59,97)           120.2223         calculate D2E/DX2 analytically  !
 ! A138  A(42,60,56)           162.5926         calculate D2E/DX2 analytically  !
 ! A139  A(57,61,59)           119.245          calculate D2E/DX2 analytically  !
 ! A140  A(57,61,62)           120.3048         calculate D2E/DX2 analytically  !
 ! A141  A(59,61,62)           120.4501         calculate D2E/DX2 analytically  !
 ! A142  A(44,63,64)           110.6542         calculate D2E/DX2 analytically  !
 ! A143  A(44,63,65)           111.1727         calculate D2E/DX2 analytically  !
 ! A144  A(44,63,66)           106.2052         calculate D2E/DX2 analytically  !
 ! A145  A(64,63,65)           109.3272         calculate D2E/DX2 analytically  !
 ! A146  A(64,63,66)           109.2878         calculate D2E/DX2 analytically  !
 ! A147  A(65,63,66)           110.1432         calculate D2E/DX2 analytically  !
 ! A148  A(45,67,68)           111.2847         calculate D2E/DX2 analytically  !
 ! A149  A(45,67,69)           110.9665         calculate D2E/DX2 analytically  !
 ! A150  A(45,67,70)           106.6202         calculate D2E/DX2 analytically  !
 ! A151  A(68,67,69)           109.2456         calculate D2E/DX2 analytically  !
 ! A152  A(68,67,70)           109.5827         calculate D2E/DX2 analytically  !
 ! A153  A(69,67,70)           109.0839         calculate D2E/DX2 analytically  !
 ! A154  A(46,71,72)           110.9173         calculate D2E/DX2 analytically  !
 ! A155  A(46,71,73)           111.0547         calculate D2E/DX2 analytically  !
 ! A156  A(46,71,74)           106.7118         calculate D2E/DX2 analytically  !
 ! A157  A(72,71,73)           109.2172         calculate D2E/DX2 analytically  !
 ! A158  A(72,71,74)           109.4619         calculate D2E/DX2 analytically  !
 ! A159  A(73,71,74)           109.4326         calculate D2E/DX2 analytically  !
 ! A160  A(50,75,76)           107.1159         calculate D2E/DX2 analytically  !
 ! A161  A(50,75,77)           111.128          calculate D2E/DX2 analytically  !
 ! A162  A(50,75,78)           111.192          calculate D2E/DX2 analytically  !
 ! A163  A(76,75,77)           109.2621         calculate D2E/DX2 analytically  !
 ! A164  A(76,75,78)           109.3292         calculate D2E/DX2 analytically  !
 ! A165  A(77,75,78)           108.775          calculate D2E/DX2 analytically  !
 ! A166  A(12,79,80)           106.9208         calculate D2E/DX2 analytically  !
 ! A167  A(12,79,81)           111.4983         calculate D2E/DX2 analytically  !
 ! A168  A(12,79,82)           110.7451         calculate D2E/DX2 analytically  !
 ! A169  A(80,79,81)           109.4386         calculate D2E/DX2 analytically  !
 ! A170  A(80,79,82)           109.2788         calculate D2E/DX2 analytically  !
 ! A171  A(81,79,82)           108.9173         calculate D2E/DX2 analytically  !
 ! A172  A(19,83,52)           111.6682         calculate D2E/DX2 analytically  !
 ! A173  A(19,83,84)           103.3539         calculate D2E/DX2 analytically  !
 ! A174  A(52,83,84)           144.0581         calculate D2E/DX2 analytically  !
 ! A175  A(83,84,85)           134.0304         calculate D2E/DX2 analytically  !
 ! A176  A(83,84,89)           112.7488         calculate D2E/DX2 analytically  !
 ! A177  A(85,84,89)           113.0721         calculate D2E/DX2 analytically  !
 ! A178  A(84,85,86)           110.8002         calculate D2E/DX2 analytically  !
 ! A179  A(84,85,87)           107.4361         calculate D2E/DX2 analytically  !
 ! A180  A(84,85,88)           110.8885         calculate D2E/DX2 analytically  !
 ! A181  A(86,85,87)           109.3632         calculate D2E/DX2 analytically  !
 ! A182  A(86,85,88)           108.9308         calculate D2E/DX2 analytically  !
 ! A183  A(87,85,88)           109.3927         calculate D2E/DX2 analytically  !
 ! A184  A(84,89,90)           110.6548         calculate D2E/DX2 analytically  !
 ! A185  A(84,89,91)           106.649          calculate D2E/DX2 analytically  !
 ! A186  A(84,89,92)           110.5619         calculate D2E/DX2 analytically  !
 ! A187  A(90,89,91)           110.0708         calculate D2E/DX2 analytically  !
 ! A188  A(90,89,92)           109.0021         calculate D2E/DX2 analytically  !
 ! A189  A(91,89,92)           109.8837         calculate D2E/DX2 analytically  !
 ! A190  A(57,93,94)           111.2448         calculate D2E/DX2 analytically  !
 ! A191  A(57,93,95)           111.8646         calculate D2E/DX2 analytically  !
 ! A192  A(57,93,96)           111.8566         calculate D2E/DX2 analytically  !
 ! A193  A(94,93,95)           106.8388         calculate D2E/DX2 analytically  !
 ! A194  A(94,93,96)           106.8932         calculate D2E/DX2 analytically  !
 ! A195  A(95,93,96)           107.8634         calculate D2E/DX2 analytically  !
 ! A196  A(59,97,98)           111.9347         calculate D2E/DX2 analytically  !
 ! A197  A(59,97,99)           111.5205         calculate D2E/DX2 analytically  !
 ! A198  A(59,97,100)          111.9882         calculate D2E/DX2 analytically  !
 ! A199  A(98,97,99)           106.5531         calculate D2E/DX2 analytically  !
 ! A200  A(98,97,100)          107.5827         calculate D2E/DX2 analytically  !
 ! A201  A(99,97,100)          106.9473         calculate D2E/DX2 analytically  !
 ! D1    D(5,1,2,3)            -51.8164         calculate D2E/DX2 analytically  !
 ! D2    D(5,1,2,7)             64.9449         calculate D2E/DX2 analytically  !
 ! D3    D(5,1,2,13)          -172.5632         calculate D2E/DX2 analytically  !
 ! D4    D(8,1,2,3)             67.8771         calculate D2E/DX2 analytically  !
 ! D5    D(8,1,2,7)           -175.3616         calculate D2E/DX2 analytically  !
 ! D6    D(8,1,2,13)           -52.8696         calculate D2E/DX2 analytically  !
 ! D7    D(14,1,2,3)          -172.9479         calculate D2E/DX2 analytically  !
 ! D8    D(14,1,2,7)           -56.1866         calculate D2E/DX2 analytically  !
 ! D9    D(14,1,2,13)           66.3053         calculate D2E/DX2 analytically  !
 ! D10   D(2,1,5,4)             51.2823         calculate D2E/DX2 analytically  !
 ! D11   D(2,1,5,10)           -68.7342         calculate D2E/DX2 analytically  !
 ! D12   D(2,1,5,15)           172.1004         calculate D2E/DX2 analytically  !
 ! D13   D(8,1,5,4)            -67.8619         calculate D2E/DX2 analytically  !
 ! D14   D(8,1,5,10)           172.1217         calculate D2E/DX2 analytically  !
 ! D15   D(8,1,5,15)            52.9562         calculate D2E/DX2 analytically  !
 ! D16   D(14,1,5,4)           171.0301         calculate D2E/DX2 analytically  !
 ! D17   D(14,1,5,10)           51.0136         calculate D2E/DX2 analytically  !
 ! D18   D(14,1,5,15)          -68.1518         calculate D2E/DX2 analytically  !
 ! D19   D(2,1,14,24)         -140.6406         calculate D2E/DX2 analytically  !
 ! D20   D(5,1,14,24)           98.2268         calculate D2E/DX2 analytically  !
 ! D21   D(8,1,14,24)          -22.4759         calculate D2E/DX2 analytically  !
 ! D22   D(1,2,3,6)            171.7183         calculate D2E/DX2 analytically  !
 ! D23   D(1,2,3,11)            56.056          calculate D2E/DX2 analytically  !
 ! D24   D(1,2,3,12)           -66.9507         calculate D2E/DX2 analytically  !
 ! D25   D(7,2,3,6)             53.5838         calculate D2E/DX2 analytically  !
 ! D26   D(7,2,3,11)           -62.0785         calculate D2E/DX2 analytically  !
 ! D27   D(7,2,3,12)           174.9149         calculate D2E/DX2 analytically  !
 ! D28   D(13,2,3,6)           -65.6308         calculate D2E/DX2 analytically  !
 ! D29   D(13,2,3,11)          178.7069         calculate D2E/DX2 analytically  !
 ! D30   D(13,2,3,12)           55.7003         calculate D2E/DX2 analytically  !
 ! D31   D(1,2,13,20)          -98.6454         calculate D2E/DX2 analytically  !
 ! D32   D(3,2,13,20)          139.4039         calculate D2E/DX2 analytically  !
 ! D33   D(7,2,13,20)           22.785          calculate D2E/DX2 analytically  !
 ! D34   D(2,3,11,4)           -61.5007         calculate D2E/DX2 analytically  !
 ! D35   D(6,3,11,4)           179.5541         calculate D2E/DX2 analytically  !
 ! D36   D(12,3,11,4)           59.6423         calculate D2E/DX2 analytically  !
 ! D37   D(2,3,12,79)         -172.9727         calculate D2E/DX2 analytically  !
 ! D38   D(6,3,12,79)          -51.6721         calculate D2E/DX2 analytically  !
 ! D39   D(11,3,12,79)          65.0608         calculate D2E/DX2 analytically  !
 ! D40   D(9,4,5,1)             64.9821         calculate D2E/DX2 analytically  !
 ! D41   D(9,4,5,10)          -176.0879         calculate D2E/DX2 analytically  !
 ! D42   D(9,4,5,15)           -55.8558         calculate D2E/DX2 analytically  !
 ! D43   D(11,4,5,1)           -53.447          calculate D2E/DX2 analytically  !
 ! D44   D(11,4,5,10)           65.483          calculate D2E/DX2 analytically  !
 ! D45   D(11,4,5,15)         -174.2849         calculate D2E/DX2 analytically  !
 ! D46   D(16,4,5,1)          -173.2502         calculate D2E/DX2 analytically  !
 ! D47   D(16,4,5,10)          -54.3202         calculate D2E/DX2 analytically  !
 ! D48   D(16,4,5,15)           65.9119         calculate D2E/DX2 analytically  !
 ! D49   D(5,4,11,3)            59.7876         calculate D2E/DX2 analytically  !
 ! D50   D(9,4,11,3)           -58.22           calculate D2E/DX2 analytically  !
 ! D51   D(16,4,11,3)         -176.1187         calculate D2E/DX2 analytically  !
 ! D52   D(5,4,16,17)          -60.3531         calculate D2E/DX2 analytically  !
 ! D53   D(5,4,16,18)         -171.8202         calculate D2E/DX2 analytically  !
 ! D54   D(5,4,16,19)           65.053          calculate D2E/DX2 analytically  !
 ! D55   D(9,4,16,17)           60.8318         calculate D2E/DX2 analytically  !
 ! D56   D(9,4,16,18)          -50.6353         calculate D2E/DX2 analytically  !
 ! D57   D(9,4,16,19)         -173.7621         calculate D2E/DX2 analytically  !
 ! D58   D(11,4,16,17)         178.4824         calculate D2E/DX2 analytically  !
 ! D59   D(11,4,16,18)          67.0152         calculate D2E/DX2 analytically  !
 ! D60   D(11,4,16,19)         -56.1115         calculate D2E/DX2 analytically  !
 ! D61   D(1,5,10,37)          119.4575         calculate D2E/DX2 analytically  !
 ! D62   D(4,5,10,37)           -2.037          calculate D2E/DX2 analytically  !
 ! D63   D(15,5,10,37)        -121.8223         calculate D2E/DX2 analytically  !
 ! D64   D(1,5,15,28)          126.5534         calculate D2E/DX2 analytically  !
 ! D65   D(4,5,15,28)         -111.0703         calculate D2E/DX2 analytically  !
 ! D66   D(10,5,15,28)           8.8527         calculate D2E/DX2 analytically  !
 ! D67   D(5,10,37,19)          33.0281         calculate D2E/DX2 analytically  !
 ! D68   D(5,10,37,34)         125.6082         calculate D2E/DX2 analytically  !
 ! D69   D(5,10,37,52)         -86.2145         calculate D2E/DX2 analytically  !
 ! D70   D(3,12,79,80)         174.1553         calculate D2E/DX2 analytically  !
 ! D71   D(3,12,79,81)         -66.2611         calculate D2E/DX2 analytically  !
 ! D72   D(3,12,79,82)          55.1914         calculate D2E/DX2 analytically  !
 ! D73   D(2,13,20,21)         -62.0137         calculate D2E/DX2 analytically  !
 ! D74   D(2,13,20,22)          59.7929         calculate D2E/DX2 analytically  !
 ! D75   D(2,13,20,23)         179.4514         calculate D2E/DX2 analytically  !
 ! D76   D(1,14,24,25)         -60.4722         calculate D2E/DX2 analytically  !
 ! D77   D(1,14,24,26)          61.1804         calculate D2E/DX2 analytically  !
 ! D78   D(1,14,24,27)         179.9238         calculate D2E/DX2 analytically  !
 ! D79   D(5,15,28,29)         -63.7319         calculate D2E/DX2 analytically  !
 ! D80   D(5,15,28,30)          57.9475         calculate D2E/DX2 analytically  !
 ! D81   D(5,15,28,31)         177.4561         calculate D2E/DX2 analytically  !
 ! D82   D(4,16,19,37)         -20.8412         calculate D2E/DX2 analytically  !
 ! D83   D(4,16,19,83)          49.5937         calculate D2E/DX2 analytically  !
 ! D84   D(17,16,19,37)        100.4375         calculate D2E/DX2 analytically  !
 ! D85   D(17,16,19,83)        170.8724         calculate D2E/DX2 analytically  !
 ! D86   D(18,16,19,37)       -140.4542         calculate D2E/DX2 analytically  !
 ! D87   D(18,16,19,83)        -70.0194         calculate D2E/DX2 analytically  !
 ! D88   D(16,19,37,10)        -15.3327         calculate D2E/DX2 analytically  !
 ! D89   D(16,19,37,34)       -136.5462         calculate D2E/DX2 analytically  !
 ! D90   D(16,19,37,52)         82.293          calculate D2E/DX2 analytically  !
 ! D91   D(83,19,37,10)       -110.7678         calculate D2E/DX2 analytically  !
 ! D92   D(83,19,37,34)        128.0187         calculate D2E/DX2 analytically  !
 ! D93   D(83,19,37,52)        -13.1421         calculate D2E/DX2 analytically  !
 ! D94   D(16,19,83,52)       -106.9969         calculate D2E/DX2 analytically  !
 ! D95   D(16,19,83,84)         81.2357         calculate D2E/DX2 analytically  !
 ! D96   D(37,19,83,52)         11.8896         calculate D2E/DX2 analytically  !
 ! D97   D(37,19,83,84)       -159.8777         calculate D2E/DX2 analytically  !
 ! D98   D(36,32,33,34)        -48.2203         calculate D2E/DX2 analytically  !
 ! D99   D(36,32,33,38)         63.9489         calculate D2E/DX2 analytically  !
 ! D100  D(36,32,33,44)       -172.5812         calculate D2E/DX2 analytically  !
 ! D101  D(39,32,33,34)         71.9611         calculate D2E/DX2 analytically  !
 ! D102  D(39,32,33,38)       -175.8697         calculate D2E/DX2 analytically  !
 ! D103  D(39,32,33,44)        -52.3999         calculate D2E/DX2 analytically  !
 ! D104  D(45,32,33,34)       -166.5167         calculate D2E/DX2 analytically  !
 ! D105  D(45,32,33,38)        -54.3475         calculate D2E/DX2 analytically  !
 ! D106  D(45,32,33,44)         69.1224         calculate D2E/DX2 analytically  !
 ! D107  D(33,32,36,35)         59.4004         calculate D2E/DX2 analytically  !
 ! D108  D(33,32,36,41)        -60.5576         calculate D2E/DX2 analytically  !
 ! D109  D(33,32,36,46)        177.9902         calculate D2E/DX2 analytically  !
 ! D110  D(39,32,36,35)        -60.405          calculate D2E/DX2 analytically  !
 ! D111  D(39,32,36,41)        179.637          calculate D2E/DX2 analytically  !
 ! D112  D(39,32,36,46)         58.1848         calculate D2E/DX2 analytically  !
 ! D113  D(45,32,36,35)        177.2177         calculate D2E/DX2 analytically  !
 ! D114  D(45,32,36,41)         57.2597         calculate D2E/DX2 analytically  !
 ! D115  D(45,32,36,46)        -64.1926         calculate D2E/DX2 analytically  !
 ! D116  D(33,32,45,67)       -140.7714         calculate D2E/DX2 analytically  !
 ! D117  D(36,32,45,67)        101.9551         calculate D2E/DX2 analytically  !
 ! D118  D(39,32,45,67)        -20.0236         calculate D2E/DX2 analytically  !
 ! D119  D(32,33,34,37)       -161.6001         calculate D2E/DX2 analytically  !
 ! D120  D(32,33,34,42)         32.8803         calculate D2E/DX2 analytically  !
 ! D121  D(32,33,34,53)        -70.8239         calculate D2E/DX2 analytically  !
 ! D122  D(38,33,34,37)         82.1402         calculate D2E/DX2 analytically  !
 ! D123  D(38,33,34,42)        -83.3794         calculate D2E/DX2 analytically  !
 ! D124  D(38,33,34,53)        172.9164         calculate D2E/DX2 analytically  !
 ! D125  D(44,33,34,37)        -32.5244         calculate D2E/DX2 analytically  !
 ! D126  D(44,33,34,42)        161.956          calculate D2E/DX2 analytically  !
 ! D127  D(44,33,34,53)         58.2518         calculate D2E/DX2 analytically  !
 ! D128  D(32,33,44,63)        -76.0776         calculate D2E/DX2 analytically  !
 ! D129  D(34,33,44,63)        157.7187         calculate D2E/DX2 analytically  !
 ! D130  D(38,33,44,63)         47.434          calculate D2E/DX2 analytically  !
 ! D131  D(33,34,37,10)       -142.1901         calculate D2E/DX2 analytically  !
 ! D132  D(33,34,37,19)        -58.0223         calculate D2E/DX2 analytically  !
 ! D133  D(33,34,37,52)         78.7049         calculate D2E/DX2 analytically  !
 ! D134  D(42,34,37,10)         24.5372         calculate D2E/DX2 analytically  !
 ! D135  D(42,34,37,19)        108.705          calculate D2E/DX2 analytically  !
 ! D136  D(42,34,37,52)       -114.5678         calculate D2E/DX2 analytically  !
 ! D137  D(53,34,37,10)        122.2066         calculate D2E/DX2 analytically  !
 ! D138  D(53,34,37,19)       -153.6256         calculate D2E/DX2 analytically  !
 ! D139  D(53,34,37,52)        -16.8983         calculate D2E/DX2 analytically  !
 ! D140  D(33,34,42,35)        -24.642          calculate D2E/DX2 analytically  !
 ! D141  D(33,34,42,60)       -144.5341         calculate D2E/DX2 analytically  !
 ! D142  D(37,34,42,35)        169.0535         calculate D2E/DX2 analytically  !
 ! D143  D(37,34,42,60)         49.1613         calculate D2E/DX2 analytically  !
 ! D144  D(53,34,42,35)         78.052          calculate D2E/DX2 analytically  !
 ! D145  D(53,34,42,60)        -41.8401         calculate D2E/DX2 analytically  !
 ! D146  D(33,34,53,51)       -118.9106         calculate D2E/DX2 analytically  !
 ! D147  D(37,34,53,51)          1.5835         calculate D2E/DX2 analytically  !
 ! D148  D(42,34,53,51)        116.0803         calculate D2E/DX2 analytically  !
 ! D149  D(40,35,36,32)         65.1583         calculate D2E/DX2 analytically  !
 ! D150  D(40,35,36,41)       -175.2973         calculate D2E/DX2 analytically  !
 ! D151  D(40,35,36,46)        -55.6166         calculate D2E/DX2 analytically  !
 ! D152  D(42,35,36,32)        -50.2403         calculate D2E/DX2 analytically  !
 ! D153  D(42,35,36,41)         69.3041         calculate D2E/DX2 analytically  !
 ! D154  D(42,35,36,46)       -171.0151         calculate D2E/DX2 analytically  !
 ! D155  D(47,35,36,32)       -170.7971         calculate D2E/DX2 analytically  !
 ! D156  D(47,35,36,41)        -51.2527         calculate D2E/DX2 analytically  !
 ! D157  D(47,35,36,46)         68.4281         calculate D2E/DX2 analytically  !
 ! D158  D(36,35,42,34)         32.3169         calculate D2E/DX2 analytically  !
 ! D159  D(36,35,42,60)        148.0862         calculate D2E/DX2 analytically  !
 ! D160  D(40,35,42,34)        -86.0704         calculate D2E/DX2 analytically  !
 ! D161  D(40,35,42,60)         29.6989         calculate D2E/DX2 analytically  !
 ! D162  D(47,35,42,34)        157.883          calculate D2E/DX2 analytically  !
 ! D163  D(47,35,42,60)        -86.3477         calculate D2E/DX2 analytically  !
 ! D164  D(36,35,47,48)        -67.1594         calculate D2E/DX2 analytically  !
 ! D165  D(36,35,47,49)        175.4344         calculate D2E/DX2 analytically  !
 ! D166  D(36,35,47,50)         54.0548         calculate D2E/DX2 analytically  !
 ! D167  D(40,35,47,48)         56.8998         calculate D2E/DX2 analytically  !
 ! D168  D(40,35,47,49)        -60.5064         calculate D2E/DX2 analytically  !
 ! D169  D(40,35,47,50)        178.1139         calculate D2E/DX2 analytically  !
 ! D170  D(42,35,47,48)        169.6243         calculate D2E/DX2 analytically  !
 ! D171  D(42,35,47,49)         52.2181         calculate D2E/DX2 analytically  !
 ! D172  D(42,35,47,50)        -69.1615         calculate D2E/DX2 analytically  !
 ! D173  D(32,36,46,71)        118.3118         calculate D2E/DX2 analytically  !
 ! D174  D(35,36,46,71)       -120.3883         calculate D2E/DX2 analytically  !
 ! D175  D(41,36,46,71)         -1.7584         calculate D2E/DX2 analytically  !
 ! D176  D(10,37,52,51)       -114.7884         calculate D2E/DX2 analytically  !
 ! D177  D(10,37,52,83)         99.6812         calculate D2E/DX2 analytically  !
 ! D178  D(19,37,52,51)        158.7461         calculate D2E/DX2 analytically  !
 ! D179  D(19,37,52,83)         13.2157         calculate D2E/DX2 analytically  !
 ! D180  D(34,37,52,51)         30.687          calculate D2E/DX2 analytically  !
 ! D181  D(34,37,52,83)       -114.8435         calculate D2E/DX2 analytically  !
 ! D182  D(34,42,60,56)         -2.2025         calculate D2E/DX2 analytically  !
 ! D183  D(35,42,60,56)       -131.0257         calculate D2E/DX2 analytically  !
 ! D184  D(33,44,63,64)        -42.6533         calculate D2E/DX2 analytically  !
 ! D185  D(33,44,63,65)         79.0355         calculate D2E/DX2 analytically  !
 ! D186  D(33,44,63,66)       -161.1533         calculate D2E/DX2 analytically  !
 ! D187  D(32,45,67,68)        -58.411          calculate D2E/DX2 analytically  !
 ! D188  D(32,45,67,69)         63.4671         calculate D2E/DX2 analytically  !
 ! D189  D(32,45,67,70)       -177.8616         calculate D2E/DX2 analytically  !
 ! D190  D(36,46,71,72)        -63.0091         calculate D2E/DX2 analytically  !
 ! D191  D(36,46,71,73)         58.64           calculate D2E/DX2 analytically  !
 ! D192  D(36,46,71,74)        177.8361         calculate D2E/DX2 analytically  !
 ! D193  D(35,47,50,75)        177.9877         calculate D2E/DX2 analytically  !
 ! D194  D(48,47,50,75)        -62.8806         calculate D2E/DX2 analytically  !
 ! D195  D(49,47,50,75)         57.8667         calculate D2E/DX2 analytically  !
 ! D196  D(47,50,75,76)       -179.7642         calculate D2E/DX2 analytically  !
 ! D197  D(47,50,75,77)        -60.4859         calculate D2E/DX2 analytically  !
 ! D198  D(47,50,75,78)         60.8395         calculate D2E/DX2 analytically  !
 ! D199  D(43,51,52,37)       -151.6272         calculate D2E/DX2 analytically  !
 ! D200  D(43,51,52,83)       -102.9655         calculate D2E/DX2 analytically  !
 ! D201  D(53,51,52,37)        -21.0374         calculate D2E/DX2 analytically  !
 ! D202  D(53,51,52,83)         27.6243         calculate D2E/DX2 analytically  !
 ! D203  D(54,51,52,37)         91.2407         calculate D2E/DX2 analytically  !
 ! D204  D(54,51,52,83)        139.9023         calculate D2E/DX2 analytically  !
 ! D205  D(43,51,53,34)        149.9558         calculate D2E/DX2 analytically  !
 ! D206  D(52,51,53,34)         19.0765         calculate D2E/DX2 analytically  !
 ! D207  D(54,51,53,34)        -93.8296         calculate D2E/DX2 analytically  !
 ! D208  D(43,51,54,55)        -30.879          calculate D2E/DX2 analytically  !
 ! D209  D(43,51,54,56)        151.1748         calculate D2E/DX2 analytically  !
 ! D210  D(52,51,54,55)         91.1682         calculate D2E/DX2 analytically  !
 ! D211  D(52,51,54,56)        -86.7779         calculate D2E/DX2 analytically  !
 ! D212  D(53,51,54,55)       -151.7657         calculate D2E/DX2 analytically  !
 ! D213  D(53,51,54,56)         30.2882         calculate D2E/DX2 analytically  !
 ! D214  D(37,52,83,19)        -11.4766         calculate D2E/DX2 analytically  !
 ! D215  D(37,52,83,84)        154.7926         calculate D2E/DX2 analytically  !
 ! D216  D(51,52,83,19)        -69.906          calculate D2E/DX2 analytically  !
 ! D217  D(51,52,83,84)         96.3632         calculate D2E/DX2 analytically  !
 ! D218  D(51,54,55,57)       -177.6472         calculate D2E/DX2 analytically  !
 ! D219  D(51,54,55,58)          2.8151         calculate D2E/DX2 analytically  !
 ! D220  D(56,54,55,57)          0.2542         calculate D2E/DX2 analytically  !
 ! D221  D(56,54,55,58)       -179.2836         calculate D2E/DX2 analytically  !
 ! D222  D(51,54,56,59)        178.32           calculate D2E/DX2 analytically  !
 ! D223  D(51,54,56,60)         -1.7269         calculate D2E/DX2 analytically  !
 ! D224  D(55,54,56,59)          0.3968         calculate D2E/DX2 analytically  !
 ! D225  D(55,54,56,60)       -179.6501         calculate D2E/DX2 analytically  !
 ! D226  D(54,55,57,61)         -0.71           calculate D2E/DX2 analytically  !
 ! D227  D(54,55,57,93)        175.9798         calculate D2E/DX2 analytically  !
 ! D228  D(58,55,57,61)        178.8249         calculate D2E/DX2 analytically  !
 ! D229  D(58,55,57,93)         -4.4853         calculate D2E/DX2 analytically  !
 ! D230  D(54,56,59,61)         -0.6067         calculate D2E/DX2 analytically  !
 ! D231  D(54,56,59,97)        176.171          calculate D2E/DX2 analytically  !
 ! D232  D(60,56,59,61)        179.4401         calculate D2E/DX2 analytically  !
 ! D233  D(60,56,59,97)         -3.7822         calculate D2E/DX2 analytically  !
 ! D234  D(54,56,60,42)         21.9128         calculate D2E/DX2 analytically  !
 ! D235  D(59,56,60,42)       -158.1346         calculate D2E/DX2 analytically  !
 ! D236  D(55,57,61,59)          0.5063         calculate D2E/DX2 analytically  !
 ! D237  D(55,57,61,62)       -179.5806         calculate D2E/DX2 analytically  !
 ! D238  D(93,57,61,59)       -176.1817         calculate D2E/DX2 analytically  !
 ! D239  D(93,57,61,62)          3.7314         calculate D2E/DX2 analytically  !
 ! D240  D(55,57,93,94)        -87.7806         calculate D2E/DX2 analytically  !
 ! D241  D(55,57,93,95)        152.8196         calculate D2E/DX2 analytically  !
 ! D242  D(55,57,93,96)         31.6828         calculate D2E/DX2 analytically  !
 ! D243  D(61,57,93,94)         88.9533         calculate D2E/DX2 analytically  !
 ! D244  D(61,57,93,95)        -30.4464         calculate D2E/DX2 analytically  !
 ! D245  D(61,57,93,96)       -151.5833         calculate D2E/DX2 analytically  !
 ! D246  D(56,59,61,57)          0.1612         calculate D2E/DX2 analytically  !
 ! D247  D(56,59,61,62)       -179.7518         calculate D2E/DX2 analytically  !
 ! D248  D(97,59,61,57)       -176.5783         calculate D2E/DX2 analytically  !
 ! D249  D(97,59,61,62)          3.5088         calculate D2E/DX2 analytically  !
 ! D250  D(56,59,97,98)         33.1463         calculate D2E/DX2 analytically  !
 ! D251  D(56,59,97,99)        -86.1251         calculate D2E/DX2 analytically  !
 ! D252  D(56,59,97,100)       154.0641         calculate D2E/DX2 analytically  !
 ! D253  D(61,59,97,98)       -150.0615         calculate D2E/DX2 analytically  !
 ! D254  D(61,59,97,99)         90.6671         calculate D2E/DX2 analytically  !
 ! D255  D(61,59,97,100)       -29.1436         calculate D2E/DX2 analytically  !
 ! D256  D(19,83,84,85)       -175.4017         calculate D2E/DX2 analytically  !
 ! D257  D(19,83,84,89)         -0.2636         calculate D2E/DX2 analytically  !
 ! D258  D(52,83,84,85)         17.7022         calculate D2E/DX2 analytically  !
 ! D259  D(52,83,84,89)       -167.1597         calculate D2E/DX2 analytically  !
 ! D260  D(83,84,85,86)       -124.2761         calculate D2E/DX2 analytically  !
 ! D261  D(83,84,85,87)         -4.8659         calculate D2E/DX2 analytically  !
 ! D262  D(83,84,85,88)        114.631          calculate D2E/DX2 analytically  !
 ! D263  D(89,84,85,86)         60.5974         calculate D2E/DX2 analytically  !
 ! D264  D(89,84,85,87)       -179.9924         calculate D2E/DX2 analytically  !
 ! D265  D(89,84,85,88)        -60.4955         calculate D2E/DX2 analytically  !
 ! D266  D(83,84,89,90)       -115.3754         calculate D2E/DX2 analytically  !
 ! D267  D(83,84,89,91)          4.3295         calculate D2E/DX2 analytically  !
 ! D268  D(83,84,89,92)        123.7573         calculate D2E/DX2 analytically  !
 ! D269  D(85,84,89,90)         60.8269         calculate D2E/DX2 analytically  !
 ! D270  D(85,84,89,91)       -179.4682         calculate D2E/DX2 analytically  !
 ! D271  D(85,84,89,92)        -60.0404         calculate D2E/DX2 analytically  !
 --------------------------------------------------------------------------------
 Trust Radius=5.00D-02 FncErr=1.00D-07 GrdErr=1.00D-06 EigMax=2.50D+02 EigMin=1.00D-04
 Number of steps in this run=    588 maximum allowed number of steps=    600.
 Search for a saddle point of order  1.
 GradGradGradGradGradGradGradGradGradGradGradGradGradGradGradGradGradGrad

 Leave Link  103 at Sun Jun 16 15:14:21 2019, MaxMem=  6442450944 cpu:               5.0 elap:               0.2
 (Enter /home/ekwan/sw/g16/l202.exe)
 Stoichiometry    C30H47F6NaO15S
 Framework group  C1[X(C30H47F6NaO15S)]
 Deg. of freedom   294
 Full point group                 C1      NOp   1
 Largest Abelian subgroup         C1      NOp   1
 Largest concise Abelian subgroup C1      NOp   1
                         Standard orientation:                         
 ---------------------------------------------------------------------
 Center     Atomic      Atomic             Coordinates (Angstroms)
 Number     Number       Type             X           Y           Z
 ---------------------------------------------------------------------
      1          6           0       -1.852972    1.413403    2.236105
      2          6           0       -2.168629    2.236888    0.993254
      3          6           0       -1.324671    3.506965    0.965642
      4          6           0        0.429728    2.494903    2.251351
      5          6           0       -0.351001    1.185941    2.358945
      6          1           0       -1.442762    4.024018    0.004584
      7          1           0       -1.892104    1.657191    0.104517
      8          1           0       -2.208660    1.964661    3.115292
      9          1           0        0.167125    3.121488    3.112458
     10          1           0       -0.051332    0.516603    1.546309
     11          8           0        0.049396    3.181639    1.042814
     12          8           0       -1.722632    4.331487    2.013393
     13          8           0       -3.529962    2.605025    0.944739
     14          8           0       -2.536338    0.175154    2.132413
     15          8           0       -0.072453    0.579844    3.610151
     16          6           0        1.947590    2.314920    2.203936
     17          1           0        2.221151    1.812164    3.150981
     18          1           0        2.370061    3.339789    2.279662
     19          8           0        2.401668    1.655731    1.083374
     20          6           0       -4.322557    1.778563    0.116241
     21          1           0       -3.988226    1.822924   -0.928769
     22          1           0       -4.300767    0.738316    0.451370
     23          1           0       -5.345145    2.157587    0.171446
     24          6           0       -3.088594   -0.289212    3.348756
     25          1           0       -2.314541   -0.444913    4.105869
     26          1           0       -3.832086    0.418796    3.738578
     27          1           0       -3.580444   -1.237153    3.129711
     28          6           0        0.684455   -0.612384    3.518238
     29          1           0        0.128866   -1.387397    2.978344
     30          1           0        1.642848   -0.451238    3.014918
     31          1           0        0.868314   -0.950627    4.540563
     32          6           0        3.871884   -1.412111   -1.339218
     33          6           0        3.212525   -0.126655   -0.850838
     34          6           0        1.876312   -0.394605   -0.240581
     35          6           0        2.324382   -2.713239    0.164643
     36          6           0        3.774342   -2.441400   -0.214040
     37          1           0        1.164109    0.397535   -0.117761
     38          1           0        3.786631    0.266722    0.003511
     39          1           0        3.355484   -1.776316   -2.234905
     40          1           0        1.806458   -3.183407   -0.675137
     41          1           0        4.304550   -2.048789    0.659600
     42          8           0        1.597891   -1.463488    0.400099
     43          8           0       -0.509684    0.185677   -3.888200
     44          8           0        3.055074    0.895898   -1.800107
     45          8           0        5.228530   -1.145667   -1.611254
     46          8           0        4.327531   -3.671503   -0.620587
     47          6           0        2.138858   -3.547466    1.405997
     48          1           0        2.508783   -4.560487    1.196213
     49          1           0        1.066129   -3.616096    1.637000
     50          8           0        2.847162   -2.948660    2.459909
     51         16           0       -0.280656    0.021670   -2.446519
     52          8           0       -0.183597    1.299992   -1.690639
     53          8           0        0.862419   -0.891270   -2.114700
     54          6           0       -1.717408   -0.811086   -1.780271
     55          6           0       -2.962911   -0.614380   -2.358524
     56          6           0       -1.567656   -1.613717   -0.659772
     57          6           0       -4.070696   -1.233298   -1.792606
     58          1           0       -3.063516    0.006309   -3.241079
     59          6           0       -2.682328   -2.234589   -0.116339
     60          1           0       -0.592822   -1.756369   -0.212771
     61          6           0       -3.938546   -2.048845   -0.675160
     62          1           0       -4.807382   -2.532247   -0.245509
     63          6           0        4.246888    1.613784   -2.113571
     64          1           0        4.817419    1.830654   -1.204688
     65          1           0        4.873785    1.052606   -2.808146
     66          1           0        3.926641    2.550638   -2.569842
     67          6           0        5.729507   -1.796060   -2.768022
     68          1           0        5.622065   -2.881613   -2.690985
     69          1           0        5.213519   -1.444623   -3.670635
     70          1           0        6.787172   -1.537311   -2.838142
     71          6           0        5.442737   -4.085550    0.154282
     72          1           0        6.271658   -3.376154    0.056856
     73          1           0        5.172989   -4.182208    1.212478
     74          1           0        5.749514   -5.058261   -0.232327
     75          6           0        2.691229   -3.643253    3.679960
     76          1           0        3.269273   -3.104997    4.431856
     77          1           0        1.637341   -3.673288    3.986360
     78          1           0        3.065952   -4.672465    3.601501
     79          6           0       -1.112253    5.609186    1.988643
     80          1           0       -1.573137    6.196565    2.783519
     81          1           0       -0.033402    5.542008    2.163845
     82          1           0       -1.286131    6.104686    1.024283
     83         11           0        1.460391    2.639378   -0.748801
     84          8           0        2.764900    4.453916   -1.095571
     85          6           0        2.715172    5.541720   -1.996308
     86          1           0        3.648525    5.616675   -2.568772
     87          1           0        1.884585    5.361897   -2.680544
     88          1           0        2.548869    6.485253   -1.461450
     89          6           0        3.810954    4.567020   -0.144829
     90          1           0        3.682171    5.468698    0.466833
     91          1           0        3.759035    3.676708    0.484710
     92          1           0        4.785672    4.612416   -0.647624
     93          6           0       -5.435285   -0.958554   -2.350538
     94          9           0       -5.991933    0.123892   -1.769623
     95          9           0       -6.274848   -1.984653   -2.145333
     96          9           0       -5.396141   -0.716465   -3.668673
     97          6           0       -2.502339   -3.169250    1.041359
     98          9           0       -1.490087   -2.787761    1.843130
     99          9           0       -2.214975   -4.416129    0.628531
    100          9           0       -3.609746   -3.252535    1.797519
 ---------------------------------------------------------------------
 Rotational constants (GHZ):           0.0587691           0.0443122           0.0372586
 Leave Link  202 at Sun Jun 16 15:14:21 2019, MaxMem=  6442450944 cpu:               4.1 elap:               0.2
 (Enter /home/ekwan/sw/g16/l301.exe)
 Standard basis: 6-31G(d) (6D, 7F)
 Centers:      19     53     43     52
 SP 1 1.00
     Exponent=  8.4500000000D-02 Coefficients=  1.0000000000D+00  1.0000000000D+00
 ****
 Ernie: Thresh=  0.10000D-02 Tol=  0.10000D-05 Strict=F.
 There are   913 symmetry adapted cartesian basis functions of A   symmetry.
 There are   913 symmetry adapted basis functions of A   symmetry.
   913 basis functions,  1736 primitive gaussians,   913 cartesian basis functions
   214 alpha electrons      214 beta electrons
       nuclear repulsion energy      9781.0618165977 Hartrees.
 IExCor=20419 DFT=T Ex+Corr=CAM-B3LYP ExCW=0 ScaHFX=  1.000000
 ScaDFX=  1.000000  1.000000  1.000000  0.810000 ScalE2=  1.000000  1.000000
 IRadAn=      5 IRanWt=     -1 IRanGd=            0 ICorTp=0 IEmpDi=141
 HFx  wShort=  0.000000 wLong=  0.330000 cFull=  0.190000 cShort=  0.000000 cLong=  0.460000
 DFx  wShort=  0.000000 wLong=  0.330000 cFull=  0.190000 cShort=  0.000000 cLong=  0.460000
 NAtoms=  100 NActive=  100 NUniq=  100 SFac= 1.00D+00 NAtFMM=   60 NAOKFM=T Big=T
 Integral buffers will be    131072 words long.
 Raffenetti 2 integral format.
 Two-electron integral symmetry is turned on.
 R6Disp:  Grimme-D3(BJ) Dispersion energy=       -0.1264616463 Hartrees.
[...]
 016320,0.00001253,0.00014530,0.00000789,-0.00006380,-0.00014836,0.0000
 4446,-0.00000314,0.00011034,-0.00036641,-0.00007177,-0.00003474,0.0001
 9658,-0.00003424,0.00331501,0.00127874,-0.00150750,-0.00086909,-0.0010
 1239,0.00000993,-0.00151659,0.00019847,0.00004733,-0.00017812,0.000965
 57,0.00176069,0.00048782,-0.00085037,0.00055135,0.00281732,0.00023401,
 0.00069644,0.00001857,0.00057873,0.00259874,0.00007615,-0.00014264,-0.
 00019142,0.01308532,-0.04381196,-0.00357877,0.00022390,-0.00071265,-0.
 00088390,-0.00351503,-0.00198262,0.00048347,0.00026255,-0.00081503,-0.
 00087330,0.00011053,0.00007076,-0.00004593,-0.00001936,-0.00000661,-0.
 00000305,-0.00002434,-0.00000332,0.00001402,-0.00000224,-0.00000831,0.
 00000513,0.00002926,-0.00005312,-0.00006911,-0.00000425,0.00001534,0.0
 0000445,-0.00000040,0.00000094,0.00000621,-0.00000831,0.00000410,0.000
 00964,0.00004268,-0.00002957,0.00003981,-0.00000056,0.00000767,-0.0000
 0732,-0.00000131,-0.00001029,-0.00001015,-0.00002220,0.00001243,0.0000
 0337,0.00004670,-0.00009270,0.00008228,0.00001055,0.00001084,-0.000003
 83,0.00000129,-0.00004294,0.00000221,-0.00004535,0.00003678,-0.0000011
 6,0.00006425,0.00015672,-0.00001258,0.00000007,-0.00002795,-0.00001259
 ,-0.00001941,-0.00001235,0.00000355,-0.00000804,-0.00001927,0.00001560
 ,0.00018047,0.00017553,-0.00001405,-0.00004196,-0.00004940,0.00000497,
 0.00001134,0.00003498,-0.00002682,-0.00001026,-0.00000365,0.00000611,-
 0.00000266,-0.00000101,-0.00000511,0.00000058,-0.00000702,-0.00000059,
 0.00003141,0.00000862,0.00001507,-0.00000105,-0.00000624,-0.00000192,0
 .00002118,0.00000702,-0.00000085,-0.00001080,-0.00000615,0.00000815,-0
 .00278590,0.00020416,-0.00084602,0.00076507,-0.00044128,0.00003266,0.0
 0085997,0.00031374,0.00020627,0.00074129,-0.00023295,0.00088386,0.0433
 9036,-0.26431510,-0.03617902,-0.02330858,-0.03967146,-0.03967645,-0.06
 439799,0.35963764,0.00019940,0.00033884,-0.00002886,-0.00008199,-0.000
 00824,-0.00017053,-0.00001436,0.00000507,0.00000572,-0.00002663,0.0001
 0020,-0.00006995,-0.00001990,0.00010613,-0.00018278,-0.00000480,-0.000
 02907,0.00001040,0.00000322,-0.00002171,0.00000156,-0.00002457,-0.0000
 4901,0.00000056,-0.00000754,-0.00000662,0.00000871,-0.00000385,0.00001
 494,-0.00002230,0.00002776,-0.00005586,0.00009743,0.00000707,-0.000015
 37,0.00002942,0.00013012,0.00006719,0.00017266,-0.00002384,-0.00062474
 ,0.00015256,0.00003135,-0.00039260,0.00009499,0.00005937,-0.00002212,-
 0.00008504,0.00001504,0.00000274,0.00003074,-0.00002194,-0.00000194,0.
 00002183,-0.00004560,0.00004058,0.00014302,-0.00007362,-0.00008433,-0.
 00015702,-0.00000872,-0.00005665,0.00007488,0.00001942,0.00000068,-0.0
 0008764,-0.00000713,0.00002519,0.00001932,0.00023384,0.00050925,-0.000
 00328,-0.00002046,-0.00001890,0.00006061,-0.00002914,-0.00019041,-0.00
 001107,-0.00031401,0.00012149,0.00028746,0.00007270,0.00057923,0.00026
 176,0.00018918,-0.00013784,0.00000249,-0.00008642,-0.00009988,-0.00006
 961,-0.00004353,-0.00005501,-0.00005694,-0.00004044,0.00000255,-0.0000
 2592,0.00000707,0.00000563,0.00000185,-0.00020528,-0.00003516,-0.00037
 803,-0.00006497,0.00001257,-0.00014034,0.00001008,-0.00001066,0.000016
 75,-0.00000416,-0.00001278,-0.00001872,0.00001291,-0.00000320,-0.00001
 432,-0.00000671,0.00000352,0.00001484,-0.00001241,-0.00000181,0.000022
 46,0.00001920,0.00000506,-0.00000162,0.00009154,-0.00008326,0.00018275
 ,0.00027862,0.00020906,-0.00028175,0.00004212,0.00001538,0.00002235,0.
 00001901,0.00000082,0.00002452,0.00002126,-0.00001138,0.00003219,0.000
 25795,0.00004649,-0.00010696,-0.00006579,0.00001273,0.00001948,0.00008
 648,-0.00012747,-0.00004908,-0.00009746,0.00001102,0.00007895,-0.00109
 720,-0.00065704,0.00027262,0.00027005,0.00041568,0.00011120,0.00055840
 ,0.00004502,0.00012609,-0.00017383,-0.00075635,-0.00048945,-0.00020408
 ,0.00043527,-0.00044318,-0.00121733,-0.00000981,0.00023409,0.00049170,
 -0.00053445,-0.00083996,-0.00002359,0.00002345,0.00009479,-0.00474472,
 0.02105183,0.00930637,0.00003040,0.00036083,0.00001902,0.00132941,0.00
 046597,0.00041672,-0.00026764,0.00028699,0.00008805,-0.00002230,-0.000
 02060,0.00000532,0.00000751,0.00000262,0.00000423,0.00000203,0.0000018
 8,-0.00000099,-0.00000089,-0.00000092,-0.00000248,-0.00000564,-0.00000
 354,-0.00001068,-0.00000244,0.00000211,-0.00000297,0.00000069,-0.00000
 448,0.00000486,0.00000409,0.00000175,0.00000070,-0.00001684,0.00000709
 ,-0.00002722,0.00000299,0.00000154,0.00000229,0.00000480,-0.00000384,0
 .00000827,-0.00000189,0.00000116,0.00000150,0.00010568,-0.00000350,-0.
 00003893,-0.00001063,-0.00000430,0.00000393,-0.00002801,-0.00001202,0.
 00003066,-0.00001875,0.00001098,0.00000687,0.00000222,0.00001926,-0.00
 000412,-0.00000054,0.00000095,-0.00000024,0.00000035,0.00000025,-0.000
 00094,0.00000060,-0.00000492,0.00000541,-0.00003651,-0.00005434,-0.000
 06839,0.00001080,0.00000617,0.00001982,-0.00000352,-0.00000196,-0.0000
 0618,-0.00000043,-0.00000091,0.00000018,0.00000362,-0.00000112,0.00000
 209,0.00000005,0.00000195,0.00000219,-0.00001130,-0.00000037,-0.000015
 11,0.00000126,0.00000395,0.00000201,0.00000172,-0.00000194,-0.00000156
 ,0.00000111,-0.00000046,0.00000210,0.00094981,-0.00026056,0.00017469,-
 0.00026717,0.00019762,0.00002861,-0.00028015,-0.00004728,-0.00003713,-
 0.00024517,0.00010009,-0.00019006,0.00877139,-0.03727149,-0.08265088,-
 0.01410696,-0.04860928,-0.01756879,-0.02267296,0.10127132,0.10659693,-
 0.00017872,-0.00015358,-0.00001931,-0.00004556,0.00008937,0.00007806,-
 0.00012829,0.00010021,0.00000365,0.00006298,0.00004760,-0.00004418,-0.
 00012395,0.00030910,-0.00003947,0.00001484,0.00000482,0.00000106,-0.00
 000415,0.00002218,-0.00001778,0.00001676,-0.00003252,-0.00002586,-0.00
 000612,-0.00003429,-0.00000989,0.00003432,-0.00000492,-0.00005923,0.00
 007755,-0.00011302,0.00002923,0.00003985,-0.00007492,-0.00004686,0.000
 13389,-0.00002309,-0.00005712,0.00067623,0.00021772,-0.00045440,0.0002
 9504,-0.00060352,-0.00005815,-0.00005255,0.00007712,0.00011190,0.00002
 188,0.00000738,-0.00001333,-0.00000019,-0.00006097,-0.00002381,-0.0000
 2951,-0.00021851,-0.00014541,-0.00002836,-0.00008055,0.00007364,0.0000
 1904,0.00007261,-0.00006794,-0.00004261,0.00000743,0.00009236,0.000025
 10,-0.00003141,-0.00000276,-0.00091969,-0.00108850,0.00063077,0.000135
 02,0.00030691,0.00014014,0.00010846,0.00019168,0.00002115,0.00010127,-
 0.00064365,-0.00094338,0.00006930,0.00096221,0.00040010,0.00014300,-0.
 00012316,0.00013279,-0.00006411,-0.00010632,-0.00008652,-0.00008791,-0
 .00010666,-0.00012118,0.00007689,0.00002307,-0.00006783,-0.00002005,0.
 00006160,-0.00005147,0.00028827,0.00062897,-0.00012960,0.00006268,-0.0
 0002513,-0.00012564,0.00015957,-0.00009371,-0.00000223,0.00000496,0.00
 004197,-0.00000325,-0.00000303,0.00000976,0.00004057,0.00000112,0.0000
 0100,-0.00000689,0.00001942,-0.00000065,-0.00004276,-0.00001496,0.0000
 0291,-0.00000079,-0.00026970,-0.00041457,0.00022831,-0.00020109,-0.000
 23159,0.00056316,-0.00011918,-0.00012820,0.00007599,-0.00015914,-0.000
 01548,0.00010370,-0.00017037,0.00007666,0.00000687,0.00082684,0.000247
 95,0.00008133,-0.00016670,0.00001168,0.00003543,0.00008972,-0.00036573
 ,0.00019251,-0.00040520,-0.00003285,-0.00036794,0.00089385,0.00076722,
 -0.00053854,-0.00022175,-0.00052259,-0.00007331,-0.00034166,-0.0001594
 2,0.00017329,-0.00053212,-0.00029222,-0.00036564,0.00045538,0.00007018
 ,0.00010138,0.00147036,-0.00135781,0.00247947,0.00109151,-0.00080888,0
 .00061887,0.00015473,0.00010469,-0.00000284,-0.00940410,-0.00156673,0.
 01305240,0.00058265,0.00060667,-0.00043433,-0.00336568,0.00005632,-0.0
 0307399,0.00215510,0.00089400,0.00029435,0.00009541,0.00006730,-0.0000
 2273,-0.00001478,-0.00000084,-0.00000495,-0.00001666,-0.00000138,0.000
 00486,-0.00000556,-0.00001203,0.00000801,0.00003517,-0.00003541,-0.000
 07325,0.00000592,0.00000472,0.00000327,0.00000196,0.00000512,0.0000107
 0,-0.00001544,0.00000045,0.00000911,0.00011522,-0.00003752,0.00005523,
 -0.00002059,-0.00000668,-0.00000479,0.00000719,-0.00000440,-0.00000337
 ,-0.00000974,0.00001310,-0.00000073,0.00009534,-0.00015510,0.00021222,
 -0.00002882,-0.00000415,-0.00003413,-0.00000749,0.00000694,0.00003359,
 -0.00001363,0.00004491,-0.00000781,-0.00000073,0.00002815,-0.00000205,
 0.00000125,-0.00000784,-0.00000438,0.00000228,0.00000044,0.00000296,-0
 .00000186,-0.00000237,0.00000261,0.00003600,0.00014023,-0.00000130,-0.
 00000664,-0.00003984,0.00000345,-0.00000078,0.00002635,-0.00001644,-0.
 00000209,-0.00000228,0.00000320,-0.00000177,0.00000054,0.00000076,-0.0
 0000049,-0.00000756,-0.00000163,0.00000733,0.00001067,0.00000475,0.000
 00032,-0.00000786,-0.00000072,0.00001211,0.00000813,0.00000180,-0.0000
 0207,-0.00000252,0.00000300,-0.00099116,-0.00012831,0.00019110,0.00030
 653,-0.00015373,-0.00008336,0.00032966,0.00017550,-0.00006514,0.000224
 95,-0.00003492,0.00007575,-0.19428118,-0.02280428,0.10378648,-0.078060
 66,-0.01894058,0.00459423,-0.02658002,0.03066239,0.03243041,0.30558441
 ,0.00020961,0.00038846,0.00007387,-0.00011379,0.00004505,0.00004375,0.
 00007602,0.00015980,0.00005722,-0.00001194,0.00008520,0.00000166,0.000
 04276,-0.00000140,0.00008586,-0.00001179,-0.00003187,0.00000359,0.0000
 1638,0.00003186,-0.00000821,-0.00001806,-0.00003066,-0.00001781,-0.000
 00167,-0.00001963,-0.00001024,0.00002064,-0.00000404,-0.00001317,-0.00
 005008,-0.00007808,-0.00002573,-0.00002990,-0.00016428,-0.00004805,0.0
 0001219,-0.00014770,-0.00005744,-0.00008614,-0.00031891,-0.00012544,-0
 .00015130,-0.00001985,-0.00008067,0.00002771,-0.00001031,0.00004900,0.
 00000291,0.00000770,-0.00001657,-0.00002440,-0.00003417,-0.00000885,-0
 .00008355,-0.00007001,-0.00006288,0.00003644,0.00012313,0.00004026,-0.
 00000023,0.00005135,-0.00003115,-0.00008290,-0.00002679,0.00005344,0.0
 0003446,-0.00004994,-0.00000929,0.00111473,0.00068608,-0.00059122,-0.0
 0015068,-0.00027794,-0.00011354,-0.00023349,-0.00051198,-0.00016056,-0
 .00109803,-0.00288329,-0.00084888,0.00011698,0.00001546,0.00007650,0.0
 0004106,-0.00001625,0.00003444,-0.00001873,-0.00000410,-0.00000424,-0.
 00002479,-0.00000791,-0.00004322,0.00005733,-0.00002577,-0.00001620,-0
 .00000006,0.00000822,-0.00003190,0.00025570,0.00014096,0.00023170,0.00
 011319,-0.00021650,-0.00000966,0.00004691,-0.00002423,0.00000440,0.000
 03282,0.00002099,-0.00000690,-0.00000838,-0.00000004,0.00002291,0.0000
 0401,-0.00000548,-0.00000757,-0.00000439,-0.00001021,0.00000809,-0.000
 00171,0.00000167,0.00000127,-0.00020471,0.00008804,-0.00006506,-0.0003
 6922,-0.00020305,0.00065655,-0.00009689,-0.00003646,0.00002534,-0.0000
 7071,0.00002276,0.00003434,-0.00006535,0.00007169,-0.00000222,0.000096
 31,0.00002711,0.00000897,-0.00005378,0.00001424,-0.00000267,0.00002492
 ,-0.00015202,0.00001274,-0.00003773,0.00006297,-0.00007883,0.00182826,
 0.00051881,-0.00071819,-0.00051872,-0.00057719,-0.00005439,-0.00073705
 ,0.00007706,-0.00000672,-0.00031235,-0.00157690,0.00032738,-0.00054694
 ,-0.00037304,0.00042271,0.00213785,-0.00015599,0.00288852,-0.00011493,
 -0.00002775,-0.00020455,0.00001176,0.00003931,0.00000097,-0.02076890,0
 .00408790,0.01895452,0.00010489,0.00050086,-0.00005689,-0.00029344,-0.
 00064384,0.00059885,0.00001317,-0.00045577,0.00086057,0.00005863,0.000
 03976,-0.00002228,-0.00001073,-0.00000332,-0.00000243,-0.00001190,-0.0
 0000172,0.00000638,-0.00000108,-0.00000451,0.00000311,0.00001650,-0.00
 002338,-0.00003275,-0.00000039,0.00000593,0.00000275,-0.00000005,0.000
 00185,0.00000258,-0.00000586,0.00000118,0.00000457,0.00003298,-0.00001
 672,0.00002719,-0.00000321,0.00000155,-0.00000377,-0.00000083,-0.00000
 325,-0.00000590,-0.00000866,0.00000589,0.00000070,-0.00000275,-0.00005
 174,0.00006755,0.00000372,0.00000390,-0.00000627,0.00000734,-0.0000103
 5,-0.00000330,-0.00001137,0.00001564,-0.00000309,0.00003290,0.00007981
 ,-0.00000479,0.,-0.00001448,-0.00000672,-0.00001000,-0.00000654,0.0000
 0202,-0.00000469,-0.00001013,0.00000764,0.00009379,0.00009681,-0.00000
 244,-0.00002088,-0.00002648,-0.00000001,0.00000510,0.00001824,-0.00001
 282,-0.00000462,-0.00000162,0.00000312,-0.00000185,-0.00000028,-0.0000
 0234,0.00000030,-0.00000404,-0.00000073,0.00001624,0.00000487,0.000009
 50,-0.00000057,-0.00000390,-0.00000123,0.00001024,0.00000377,-0.000000
 08,-0.00000516,-0.00000287,0.00000363,-0.00118919,0.00012722,-0.000472
 75,0.00034557,-0.00018249,0.00002545,0.00039500,0.00013069,0.00008734,
 0.00026303,-0.00007650,0.00030802,-0.01920094,-0.07900846,0.02130719,-
 0.01965488,0.00750369,0.00196364,0.04409721,-0.00866824,-0.03653063,0.
 01468882,0.08199689,0.00028158,0.00048103,0.00007765,-0.00010428,-0.00
 008276,-0.00027251,0.00006256,-0.00008796,0.00000733,-0.00008441,0.000
 08302,-0.00005857,0.00006632,-0.00011263,-0.00018861,-0.00001583,-0.00
 003822,0.00001129,0.00000970,-0.00004782,0.00001709,-0.00002447,0.0000
 1023,0.00003255,-0.00000323,0.00001767,0.00001914,-0.00003216,0.000024
 13,0.00002102,-0.00000422,0.00002423,0.00010401,-0.00001030,0.00005495
 ,0.00007294,0.00009981,0.00013486,0.00025618,-0.00060197,-0.00075713,0
 .00068868,-0.00019066,-0.00001544,0.00016439,0.00009677,-0.00007794,-0
 .00017072,0.00000189,-0.00000312,0.00004513,-0.00002294,0.00004182,0.0
 0004024,-0.00001022,0.00019072,0.00026800,-0.00009513,-0.00010315,-0.0
 0021718,-0.00001618,-0.00011577,0.00011840,0.00005128,0.00000240,-0.00
 016740,-0.00002460,0.00005413,0.00002461,0.00196900,0.00150203,-0.0008
 4292,-0.00017505,-0.00029692,-0.00003366,-0.00030094,-0.00066079,-0.00
 007782,-0.00127256,-0.00108737,0.00002976,0.00006293,-0.00010576,-0.00
 004711,0.00001275,0.00000076,-0.00002971,-0.00003628,-0.00001209,0.000
 00128,0.00002322,0.00002058,0.00003179,-0.00010325,0.00001049,0.000014
 58,0.00001739,-0.00001838,0.00004345,-0.00049312,-0.00039316,-0.000508
 63,-0.00015268,0.00017454,-0.00006863,-0.00008102,0.00003769,0.0000096
 0,-0.00002097,-0.00004524,-0.00002227,0.00002180,-0.00000868,-0.000046
 61,-0.00000883,0.00000753,0.00002270,-0.00000995,0.00000639,0.00002883
 ,0.00002318,0.00000196,-0.00000158,0.00033885,0.00002098,0.00014447,0.
 00067667,0.00048662,-0.00115311,0.00015261,0.00008983,-0.00002078,0.00
 012364,-0.00000741,-0.00003897,0.00012378,-0.00008145,0.00002673,-0.00
 010117,-0.00002918,-0.00014442,0.00001877,-0.00000120,0.00001191,0.000
 03829,0.00001047,-0.00003666,0.00007378,-0.00000614,0.00023688,-0.0030
 2019,-0.00136734,0.00089615,0.00078153,0.00116147,0.00026215,0.0012884
 4,0.00002209,0.00007433,0.00190325,0.00159536,-0.00040993,0.00008214,0
 .00040270,-0.00056205,-0.00427194,0.00289096,-0.00583455,0.00027852,0.
 00053404,-0.00015207,-0.00003705,-0.00005237,-0.00000897,0.03801180,0.
 00848522,-0.02088455,-0.00020486,-0.00042227,0.00005629,0.00142214,0.0
 0004864,-0.00018028,0.00002703,0.00047500,-0.00185563,-0.00009582,-0.0
 0007265,0.00002941,0.00002077,0.00000520,0.00000752,0.00001653,0.00000
 384,-0.00000673,0.00000186,0.00000658,-0.00000796,-0.00002897,0.000024
 91,0.00003959,-0.00000389,-0.00000364,-0.00000547,-0.00000015,-0.00000
 688,-0.00000153,0.00001329,0.00000043,-0.00000585,-0.00007774,0.000028
 87,-0.00006054,0.00001260,0.00000364,0.00000549,0.00000228,-0.00000071
 ,0.00001154,0.00000670,-0.00000736,0.00000206,0.00005140,0.00007364,-0
 .00013699,0.00000436,-0.00000193,0.00001855,-0.00002394,-0.00001158,0.
 00000804,-0.00000949,-0.00001315,0.00001051,-0.00000318,-0.00000819,-0
 .00000228,-0.00000169,0.00000810,0.00000315,0.00000104,0.00000087,-0.0
 0000327,0.00000231,-0.00000288,0.00000356,-0.00010105,-0.00017409,-0.0
 0009097,0.00002335,0.00003726,0.00002047,-0.00000544,-0.00002224,0.000
 00644,0.00000234,0.00000090,-0.00000243,0.00000555,-0.00000153,0.00000
 287,0.00000043,0.00000752,0.00000338,-0.00002267,-0.00000718,-0.000022
 90,0.00000170,0.00000983,0.00000303,-0.00000755,-0.00000779,-0.0000027
 9,0.00000421,0.00000178,-0.00000025,0.00207111,-0.00043028,0.00056944,
 -0.00066228,0.00045151,0.00005995,-0.00066626,-0.00014879,-0.00010908,
 -0.00045917,0.00016661,-0.00048045,0.09279898,0.02333791,-0.16153920,-
 0.00943848,-0.00120642,0.02278047,0.03330551,-0.02635036,-0.01510283,-
 0.15334956,-0.00875856,0.18417237\\-0.00000072,-0.00000075,-0.00000106
 ,-0.00000026,-0.00000071,-0.00000009,-0.00000024,-0.00000016,-0.000000
 34,-0.00000131,-0.00000081,0.00000056,-0.00000133,-0.00000061,-0.00000
 030,0.00000011,-0.00000021,0.00000100,0.00000008,-0.00000010,-0.000000
 75,-0.00000161,-0.00000124,-0.00000042,-0.00000154,-0.00000126,0.00000
 118,-0.00000042,-0.00000072,0.00000015,-0.00000075,-0.00000058,0.00000
 102,-0.00000102,-0.00000090,0.00000076,-0.00000053,-0.00000054,-0.0000
 0096,-0.00000111,-0.00000094,-0.00000183,-0.00000186,-0.00000139,-0.00
 000020,-0.00000071,-0.00000090,0.00000196,-0.00000148,-0.00000128,0.00
 000153,-0.00000109,-0.00000076,0.00000215,-0.00000050,-0.00000014,0.00
 000136,-0.00000045,-0.00000028,-0.00000182,0.00000051,0.00000042,-0.00
 000146,-0.00000004,-0.00000010,-0.00000226,0.00000030,-0.00000030,-0.0
 0000222,-0.00000151,-0.00000150,-0.00000157,-0.00000192,-0.00000182,-0
 .00000178,-0.00000168,-0.00000169,-0.00000223,-0.00000125,-0.00000137,
 -0.00000279,-0.00000128,-0.00000188,0.00000059,-0.00000151,-0.00000132
 ,-0.00000103,-0.00000116,-0.00000101,0.00000017,-0.00000223,-0.0000016
 3,-0.00000088,0.00000049,0.00000111,0.00000113,0.00000059,0.00000051,0
 .00000134,0.00000047,-0.00000005,0.00000076,-0.00000008,-0.00000010,-0
 .00000143,0.00000076,0.00000019,0.00000042,0.00000008,0.00000055,0.000
 00021,0.00000042,0.00000035,0.00000155,0.00000159,0.00000119,0.0000006
 4,0.00000093,0.00000064,-0.00000050,-0.00000010,-0.00000017,0.00000065
 ,0.00000021,-0.00000013,-0.00000034,0.00000208,0.00000182,-0.00000026,
 0.00000085,0.00000131,0.00000139,0.00000086,0.00000112,0.00000215,0.00
 000037,0.00000089,0.00000030,-0.00000065,-0.00000052,-0.00000039,-0.00
 000035,-0.00000011,-0.00000112,-0.00000013,-0.00000065,-0.00000146,-0.
 00000103,-0.00000095,0.00000008,0.00000153,0.00000102,-0.00000046,0.00
 000058,0.00000143,-0.00000033,0.00000103,0.00000108,-0.00000062,0.0000
 0166,0.00000026,-0.00000079,0.00000114,0.00000101,-0.00000223,0.000000
 15,0.00000080,-0.00000331,0.00000141,0.00000072,-0.00000282,0.00000175
 ,0.00000149,-0.00000196,0.00000067,-0.00000014,-0.00000259,-0.00000045
 ,0.00000069,-0.00000064,0.00000056,0.00000047,-0.00000351,0.00000005,-
 0.00000019,-0.00000371,0.00000123,0.00000170,0.00000208,0.00000069,0.0
 0000083,0.00000284,0.00000136,0.00000152,0.00000252,0.00000151,0.00000
 100,0.00000302,0.00000155,0.00000087,0.00000131,0.00000164,0.00000187,
 0.00000117,0.00000210,0.00000194,0.00000156,0.00000191,0.00000171,0.00
 000230,0.00000012,0.00000045,0.00000121,0.00000026,0.00000026,0.000001
 21,-0.00000014,-0.00000025,0.,0.00000060,0.00000022,0.00000020,-0.0000
 0134,-0.00000147,-0.00000112,-0.00000197,-0.00000157,0.,-0.00000168,-0
 .00000148,-0.00000109,-0.00000149,-0.00000138,-0.00000086,-0.00000153,
 -0.00000058,0.00000177,-0.00000148,-0.00000121,0.00000152,-0.00000073,
 -0.00000089,0.00000199,-0.00000057,-0.00000033,0.00000142,0.00000100,-
 0.00000023,0.00000187,0.00000023,0.00000093,0.00000369,0.00000199,0.00
 000037,0.00000281,0.00000065,0.00000133,0.00000406,0.00000099,0.000001
 45,0.00000278,0.00000064,0.00000123,0.00000390,-0.00000040,0.00000105,
 0.00000326,-0.00000025,-0.00000014,0.00000363,-0.00000054,-0.00000035,
 0.00000331,0.00000043,0.00000059,0.00000395,0.00000139,0.00000058,-0.0
 0000399,0.00000099,0.00000098,-0.00000317,0.00000113,0.00000063,-0.000
 00432,0.00000200,0.00000159,-0.00000308,-0.00000047,-0.00000049,-0.000
 00354,0.00000004,-0.00000066,-0.00000187,0.00000008,-0.00000044,-0.000
 00349,-0.00000089,-0.00000080,-0.00000343\\\@


 HONESTY IN A LAWYER IS LIKE A HEN'S HIND LEGS.
  -- MAGNUS OLESON, LAKE WOBEGON PATRIARCH, C.1875
 Job cpu time:       5 days 19 hours 16 minutes 39.6 seconds.
 Elapsed time:       0 days  4 hours 35 minutes  7.9 seconds.
 File lengths (MBytes):  RWF=   9958 Int=      0 D2E=      0 Chk=     88 Scr=      1
 Normal termination of Gaussian 16 at Mon Jun 17 00:09:00 2019.
