 Entering Gaussian System, Link 0=g16
 Input=clay_new-glu_gluC6-bisCF3-sm-m06l_d3-custom-pcm_thf.gjf
 Output=clay_new-glu_gluC6-bisCF3-sm-m06l_d3-custom-pcm_thf.out
 Initial command:
 /home/ekwan/sw/g16/l1.exe "/scratch/users/ekwan/clay_new-glu_gluC6-bisCF3-sm-m06l_d3-custom-pcm_thf/Gau-17221.inp" -scrdir="/scratch/users/ekwan/clay_new-glu_gluC6-bisCF3-sm-m06l_d3-custom-pcm_thf/"
 Entering Link 1 = /home/ekwan/sw/g16/l1.exe PID=     17222.
  
 Copyright (c) 1988,1990,1992,1993,1995,1998,2003,2009,2016,
            Gaussian, Inc.  All Rights Reserved.
  
 This is part of the Gaussian(R) 16 program.  It is based on
 the Gaussian(R) 09 system (copyright 2009, Gaussian, Inc.),
 the Gaussian(R) 03 system (copyright 2003, Gaussian, Inc.),
 the Gaussian(R) 98 system (copyright 1998, Gaussian, Inc.),
 the Gaussian(R) 94 system (copyright 1995, Gaussian, Inc.),
 the Gaussian 92(TM) system (copyright 1992, Gaussian, Inc.),
 the Gaussian 90(TM) system (copyright 1990, Gaussian, Inc.),
 the Gaussian 88(TM) system (copyright 1988, Gaussian, Inc.),
 the Gaussian 86(TM) system (copyright 1986, Carnegie Mellon
 University), and the Gaussian 82(TM) system (copyright 1983,
 Carnegie Mellon University). Gaussian is a federally registered
 trademark of Gaussian, Inc.
  
 This software contains proprietary and confidential information,
 including trade secrets, belonging to Gaussian, Inc.
  
 This software is provided under written license and may be
 used, copied, transmitted, or stored only in accord with that
 written license.
  
 The following legend is applicable only to US Government
 contracts under FAR:
  
                    RESTRICTED RIGHTS LEGEND
  
 Use, reproduction and disclosure by the US Government is
 subject to restrictions as set forth in subparagraphs (a)
 and (c) of the Commercial Computer Software - Restricted
 Rights clause in FAR 52.227-19.
  
 Gaussian, Inc.
 340 Quinnipiac St., Bldg. 40, Wallingford CT 06492
  
  
 ---------------------------------------------------------------
 Warning -- This program may not be used in any manner that
 competes with the business of Gaussian, Inc. or will provide
 assistance to any competitor of Gaussian, Inc.  The licensee
 of this program is prohibited from giving any competitor of
 Gaussian, Inc. access to this program.  By using this program,
 the user acknowledges that Gaussian, Inc. is engaged in the
 business of creating and licensing software in the field of
 computational chemistry and represents and warrants to the
 licensee that it is not a competitor of Gaussian, Inc. and that
 it will not use this program in any manner prohibited above.
 ---------------------------------------------------------------
  

 Cite this work as:
 Gaussian 16, Revision A.03,
 M. J. Frisch, G. W. Trucks, H. B. Schlegel, G. E. Scuseria, 
 M. A. Robb, J. R. Cheeseman, G. Scalmani, V. Barone, 
 G. A. Petersson, H. Nakatsuji, X. Li, M. Caricato, A. V. Marenich, 
 J. Bloino, B. G. Janesko, R. Gomperts, B. Mennucci, H. P. Hratchian, 
 J. V. Ortiz, A. F. Izmaylov, J. L. Sonnenberg, D. Williams-Young, 
 F. Ding, F. Lipparini, F. Egidi, J. Goings, B. Peng, A. Petrone, 
 T. Henderson, D. Ranasinghe, V. G. Zakrzewski, J. Gao, N. Rega, 
 G. Zheng, W. Liang, M. Hada, M. Ehara, K. Toyota, R. Fukuda, 
 J. Hasegawa, M. Ishida, T. Nakajima, Y. Honda, O. Kitao, H. Nakai, 
 T. Vreven, K. Throssell, J. A. Montgomery, Jr., J. E. Peralta, 
 F. Ogliaro, M. J. Bearpark, J. J. Heyd, E. N. Brothers, K. N. Kudin, 
 V. N. Staroverov, T. A. Keith, R. Kobayashi, J. Normand, 
 K. Raghavachari, A. P. Rendell, J. C. Burant, S. S. Iyengar, 
 J. Tomasi, M. Cossi, J. M. Millam, M. Klene, C. Adamo, R. Cammi, 
 J. W. Ochterski, R. L. Martin, K. Morokuma, O. Farkas, 
 J. B. Foresman, and D. J. Fox, Gaussian, Inc., Wallingford CT, 2016.
 
 ******************************************
 Gaussian 16:  AS64L-G16RevA.03 25-Dec-2016
                15-Jun-2019 
 ******************************************
 %nprocshared=32
 Will use up to   32 processors via shared memory.
 %mem=48GB
 ----------------------------------------------------------------------
 #p opt freq=noraman pop=none 6-31g* scrf=(pcm,solvent=tetrahydrofuran)
  m06l empiricaldispersion=gd3 extrabasis
 ----------------------------------------------------------------------
 1/18=20,19=15,26=3,38=1/1,3;
 2/9=110,12=2,17=6,18=5,40=1/2;
 3/5=1,6=6,7=1,10=1,11=2,25=1,30=1,70=2201,71=1,72=20,74=-53,124=31/1,2,3;
 4//1;
 5/5=2,38=5,53=20/2;
 7//1,2,3,16;
 1/18=20,19=15,26=3/3(2);
 2/9=110/2;
 99//99;
 2/9=110/2;
 3/5=7,6=1,7=1,11=2,25=1,30=1,70=2205,71=1,72=20,74=-53,82=7,124=31/1,2,3;
 4/5=5,16=3,69=1/1;
 5/5=2,38=5,53=20/2;
 7//1,2,3,16;
 1/18=20,19=15,26=3/3(-5);
 2/9=110/2;
 99/9=1/99;
 Leave Link    1 at Sat Jun 15 08:34:14 2019, MaxMem=  6442450944 cpu:               6.9 elap:               0.3
 (Enter /home/ekwan/sw/g16/l101.exe)
 -----
 title
 -----
 Symbolic Z-matrix:
 Charge =  0 Multiplicity = 1
 6                     3.39734   0.39855   0.52175 
 6                     3.31283  -0.56099  -0.65575 
 6                     1.85726  -0.90649  -0.98169 
 6                     1.04313   1.10788  -0.00186 
 6                     2.45456   1.57517   0.32858 
 1                     1.76077  -1.47783  -1.91063 
 1                     3.70509  -0.04673  -1.55502 
 1                     3.10429  -0.136     1.44085 
 1                     0.63414   0.5632    0.86707 
 1                     2.82338   2.19777  -0.50315 
 8                     1.0596    0.21558  -1.13855 
 8                     1.39021  -1.74646   0.11722 
 8                     4.10019  -1.68559  -0.3585 
 8                     4.71665   0.89977   0.64709 
 8                     2.37778   2.33783   1.52013 
 6                     0.10409   2.25726  -0.31644 
 1                    -0.09997   2.78544   0.6212 
 1                    -0.84665   1.8513   -0.70144 
 8                     0.62104   3.2257   -1.20091 
 16                    0.08183  -2.68319  -0.15309 
 8                     0.06583  -3.5924    0.97784 
 8                     0.12326  -3.15867  -1.52903 
 6                    -1.27683  -1.54593   0.0118 
 6                    -1.71845  -1.21223   1.28674 
 6                    -1.84192  -0.99294  -1.13333 
 6                    -2.76116  -0.29613   1.41245 
 1                    -1.25677  -1.65757   2.16499 
 6                    -2.88451  -0.08554  -0.98589 
 1                    -1.47085  -1.26646  -2.11722 
 6                    -3.34574   0.26591   0.28221 
 1                    -4.15759   0.98132   0.38725 
 6                     4.26486  -2.56675  -1.45343 
 1                     3.3415   -3.12132  -1.68118 
 1                     4.58736  -2.0252   -2.35627 
 1                     5.03881  -3.28258  -1.16809 
 6                     5.41771   0.37041   1.7539 
 1                     6.4126    0.82426   1.74269 
 1                     4.91911   0.62851   2.70201 
 1                     5.51779  -0.72191   1.68806 
 6                     3.08683   3.56094   1.4523 
 1                     2.93893   4.06259   2.41266 
 1                     4.16061   3.39521   1.2898 
 1                     2.69527   4.20226   0.64757 
 6                     0.64214   2.8126   -2.55466 
 1                     0.77709   3.71463  -3.1583 
 1                    -0.30617   2.3273   -2.83573 
 1                     1.46263   2.11222  -2.76555 
 6                    -3.28579   0.04004   2.77865 
 9                    -2.3043    0.03199   3.69942 
 9                    -4.21237  -0.85351   3.1801 
 9                    -3.86579   1.25318   2.80506 
 6                    -3.47949   0.58939  -2.1869 
 9                    -3.01602   1.8554   -2.30661 
 9                    -4.81882   0.67531  -2.09349 
 9                    -3.18361  -0.05264  -3.32839 
 
 ITRead=  0  0  0  0  0  0  0  0  0  0  0  0  0  0  0  0  0  0  0  0
 ITRead=  0  0  0  0  0  0  0  0  0  0  0  0  0  0  0  0  0  0  0  0
 ITRead=  0  0  0  0  0  0  0  0  0  0  0  0  0  0  0
 MicOpt= -1 -1 -1 -1 -1 -1 -1 -1 -1 -1 -1 -1 -1 -1 -1 -1 -1 -1 -1 -1
 MicOpt= -1 -1 -1 -1 -1 -1 -1 -1 -1 -1 -1 -1 -1 -1 -1 -1 -1 -1 -1 -1
 MicOpt= -1 -1 -1 -1 -1 -1 -1 -1 -1 -1 -1 -1 -1 -1 -1
 NAtoms=     55 NQM=       55 NQMF=       0 NMMI=      0 NMMIF=      0
                NMic=       0 NMicF=      0.
                    Isotopes and Nuclear Properties:
 (Nuclear quadrupole moments (NQMom) in fm**2, nuclear magnetic moments (NMagM)
  in nuclear magnetons)

  Atom         1           2           3           4           5           6           7           8           9          10
 IAtWgt=          12          12          12          12          12           1           1           1           1           1
 AtmWgt=  12.0000000  12.0000000  12.0000000  12.0000000  12.0000000   1.0078250   1.0078250   1.0078250   1.0078250   1.0078250
 NucSpn=           0           0           0           0           0           1           1           1           1           1
 AtZEff=   0.0000000   0.0000000   0.0000000   0.0000000   0.0000000   0.0000000   0.0000000   0.0000000   0.0000000   0.0000000
 NQMom=    0.0000000   0.0000000   0.0000000   0.0000000   0.0000000   0.0000000   0.0000000   0.0000000   0.0000000   0.0000000
 NMagM=    0.0000000   0.0000000   0.0000000   0.0000000   0.0000000   2.7928460   2.7928460   2.7928460   2.7928460   2.7928460
 AtZNuc=   6.0000000   6.0000000   6.0000000   6.0000000   6.0000000   1.0000000   1.0000000   1.0000000   1.0000000   1.0000000

  Atom        11          12          13          14          15          16          17          18          19          20
 IAtWgt=          16          16          16          16          16          12           1           1          16          32
 AtmWgt=  15.9949146  15.9949146  15.9949146  15.9949146  15.9949146  12.0000000   1.0078250   1.0078250  15.9949146  31.9720718
 NucSpn=           0           0           0           0           0           0           1           1           0           0
 AtZEff=   0.0000000   0.0000000   0.0000000   0.0000000   0.0000000   0.0000000   0.0000000   0.0000000   0.0000000   0.0000000
 NQMom=    0.0000000   0.0000000   0.0000000   0.0000000   0.0000000   0.0000000   0.0000000   0.0000000   0.0000000   0.0000000
 NMagM=    0.0000000   0.0000000   0.0000000   0.0000000   0.0000000   0.0000000   2.7928460   2.7928460   0.0000000   0.0000000
 AtZNuc=   8.0000000   8.0000000   8.0000000   8.0000000   8.0000000   6.0000000   1.0000000   1.0000000   8.0000000  16.0000000

  Atom        21          22          23          24          25          26          27          28          29          30
 IAtWgt=          16          16          12          12          12          12           1          12           1          12
 AtmWgt=  15.9949146  15.9949146  12.0000000  12.0000000  12.0000000  12.0000000   1.0078250  12.0000000   1.0078250  12.0000000
 NucSpn=           0           0           0           0           0           0           1           0           1           0
 AtZEff=   0.0000000   0.0000000   0.0000000   0.0000000   0.0000000   0.0000000   0.0000000   0.0000000   0.0000000   0.0000000
 NQMom=    0.0000000   0.0000000   0.0000000   0.0000000   0.0000000   0.0000000   0.0000000   0.0000000   0.0000000   0.0000000
 NMagM=    0.0000000   0.0000000   0.0000000   0.0000000   0.0000000   0.0000000   2.7928460   0.0000000   2.7928460   0.0000000
 AtZNuc=   8.0000000   8.0000000   6.0000000   6.0000000   6.0000000   6.0000000   1.0000000   6.0000000   1.0000000   6.0000000

  Atom        31          32          33          34          35          36          37          38          39          40
 IAtWgt=           1          12           1           1           1          12           1           1           1          12
 AtmWgt=   1.0078250  12.0000000   1.0078250   1.0078250   1.0078250  12.0000000   1.0078250   1.0078250   1.0078250  12.0000000
 NucSpn=           1           0           1           1           1           0           1           1           1           0
 AtZEff=   0.0000000   0.0000000   0.0000000   0.0000000   0.0000000   0.0000000   0.0000000   0.0000000   0.0000000   0.0000000
 NQMom=    0.0000000   0.0000000   0.0000000   0.0000000   0.0000000   0.0000000   0.0000000   0.0000000   0.0000000   0.0000000
 NMagM=    2.7928460   0.0000000   2.7928460   2.7928460   2.7928460   0.0000000   2.7928460   2.7928460   2.7928460   0.0000000
 AtZNuc=   1.0000000   6.0000000   1.0000000   1.0000000   1.0000000   6.0000000   1.0000000   1.0000000   1.0000000   6.0000000

  Atom        41          42          43          44          45          46          47          48          49          50
 IAtWgt=           1           1           1          12           1           1           1          12          19          19
 AtmWgt=   1.0078250   1.0078250   1.0078250  12.0000000   1.0078250   1.0078250   1.0078250  12.0000000  18.9984033  18.9984033
 NucSpn=           1           1           1           0           1           1           1           0           1           1
 AtZEff=   0.0000000   0.0000000   0.0000000   0.0000000   0.0000000   0.0000000   0.0000000   0.0000000   0.0000000   0.0000000
 NQMom=    0.0000000   0.0000000   0.0000000   0.0000000   0.0000000   0.0000000   0.0000000   0.0000000   0.0000000   0.0000000
 NMagM=    2.7928460   2.7928460   2.7928460   0.0000000   2.7928460   2.7928460   2.7928460   0.0000000   2.6288670   2.6288670
 AtZNuc=   1.0000000   1.0000000   1.0000000   6.0000000   1.0000000   1.0000000   1.0000000   6.0000000   9.0000000   9.0000000

  Atom        51          52          53          54          55
 IAtWgt=          19          12          19          19          19
 AtmWgt=  18.9984033  12.0000000  18.9984033  18.9984033  18.9984033
 NucSpn=           1           0           1           1           1
 AtZEff=   0.0000000   0.0000000   0.0000000   0.0000000   0.0000000
 NQMom=    0.0000000   0.0000000   0.0000000   0.0000000   0.0000000
 NMagM=    2.6288670   0.0000000   2.6288670   2.6288670   2.6288670
 AtZNuc=   9.0000000   6.0000000   9.0000000   9.0000000   9.0000000
 Leave Link  101 at Sat Jun 15 08:34:15 2019, MaxMem=  6442450944 cpu:              17.0 elap:               0.6
 (Enter /home/ekwan/sw/g16/l103.exe)

 GradGradGradGradGradGradGradGradGradGradGradGradGradGradGradGradGradGrad
 Berny optimization.
 Initialization pass.
                           ----------------------------
                           !    Initial Parameters    !
                           ! (Angstroms and Degrees)  !
 --------------------------                            --------------------------
 ! Name  Definition              Value          Derivative Info.                !
 --------------------------------------------------------------------------------
 ! R1    R(1,2)                  1.5213         estimate D2E/DX2                !
 ! R2    R(1,5)                  1.5201         estimate D2E/DX2                !
 ! R3    R(1,8)                  1.1029         estimate D2E/DX2                !
 ! R4    R(1,14)                 1.4169         estimate D2E/DX2                !
 ! R5    R(2,3)                  1.5311         estimate D2E/DX2                !
 ! R6    R(2,7)                  1.1077         estimate D2E/DX2                !
 ! R7    R(2,13)                 1.4046         estimate D2E/DX2                !
 ! R8    R(3,6)                  1.0948         estimate D2E/DX2                !
 ! R9    R(3,11)                 1.3856         estimate D2E/DX2                !
 ! R10   R(3,12)                 1.4599         estimate D2E/DX2                !
 ! R11   R(4,5)                  1.523          estimate D2E/DX2                !
 ! R12   R(4,9)                  1.1041         estimate D2E/DX2                !
 ! R13   R(4,11)                 1.4452         estimate D2E/DX2                !
 ! R14   R(4,16)                 1.5172         estimate D2E/DX2                !
 ! R15   R(5,10)                 1.1025         estimate D2E/DX2                !
 ! R16   R(5,15)                 1.4168         estimate D2E/DX2                !
 ! R17   R(12,20)                1.6317         estimate D2E/DX2                !
 ! R18   R(13,32)                1.4151         estimate D2E/DX2                !
 ! R19   R(14,36)                1.4131         estimate D2E/DX2                !
 ! R20   R(15,40)                1.4154         estimate D2E/DX2                !
 ! R21   R(16,17)                1.0953         estimate D2E/DX2                !
 ! R22   R(16,18)                1.1031         estimate D2E/DX2                !
 ! R23   R(16,19)                1.4097         estimate D2E/DX2                !
 ! R24   R(19,44)                1.4155         estimate D2E/DX2                !
 ! R25   R(20,21)                1.4512         estimate D2E/DX2                !
 ! R26   R(20,22)                1.4564         estimate D2E/DX2                !
 ! R27   R(20,23)                1.7795         estimate D2E/DX2                !
 ! R28   R(23,24)                1.3899         estimate D2E/DX2                !
 ! R29   R(23,25)                1.3916         estimate D2E/DX2                !
 ! R30   R(24,26)                1.3937         estimate D2E/DX2                !
 ! R31   R(24,27)                1.0876         estimate D2E/DX2                !
 ! R32   R(25,28)                1.39           estimate D2E/DX2                !
 ! R33   R(25,29)                1.0865         estimate D2E/DX2                !
 ! R34   R(26,30)                1.3911         estimate D2E/DX2                !
 ! R35   R(26,48)                1.5016         estimate D2E/DX2                !
 ! R36   R(28,30)                1.3944         estimate D2E/DX2                !
 ! R37   R(28,52)                1.5006         estimate D2E/DX2                !
 ! R38   R(30,31)                1.0872         estimate D2E/DX2                !
 ! R39   R(32,33)                1.1009         estimate D2E/DX2                !
 ! R40   R(32,34)                1.1011         estimate D2E/DX2                !
 ! R41   R(32,35)                1.0922         estimate D2E/DX2                !
 ! R42   R(36,37)                1.0936         estimate D2E/DX2                !
 ! R43   R(36,38)                1.1019         estimate D2E/DX2                !
 ! R44   R(36,39)                1.0989         estimate D2E/DX2                !
 ! R45   R(40,41)                1.0935         estimate D2E/DX2                !
 ! R46   R(40,42)                1.0986         estimate D2E/DX2                !
 ! R47   R(40,43)                1.101          estimate D2E/DX2                !
 ! R48   R(44,45)                1.0937         estimate D2E/DX2                !
 ! R49   R(44,46)                1.1017         estimate D2E/DX2                !
 ! R50   R(44,47)                1.0992         estimate D2E/DX2                !
 ! R51   R(48,49)                1.3458         estimate D2E/DX2                !
 ! R52   R(48,50)                1.3484         estimate D2E/DX2                !
 ! R53   R(48,51)                1.3449         estimate D2E/DX2                !
 ! R54   R(52,53)                1.3535         estimate D2E/DX2                !
 ! R55   R(52,54)                1.3453         estimate D2E/DX2                !
 ! R56   R(52,55)                1.3427         estimate D2E/DX2                !
 ! A1    A(2,1,5)              110.8188         estimate D2E/DX2                !
 ! A2    A(2,1,8)              108.9386         estimate D2E/DX2                !
 ! A3    A(2,1,14)             110.0794         estimate D2E/DX2                !
 ! A4    A(5,1,8)              108.4375         estimate D2E/DX2                !
 ! A5    A(5,1,14)             108.3573         estimate D2E/DX2                !
 ! A6    A(8,1,14)             110.191          estimate D2E/DX2                !
 ! A7    A(1,2,3)              111.0947         estimate D2E/DX2                !
 ! A8    A(1,2,7)              108.4131         estimate D2E/DX2                !
 ! A9    A(1,2,13)             108.0623         estimate D2E/DX2                !
 ! A10   A(3,2,7)              105.5801         estimate D2E/DX2                !
 ! A11   A(3,2,13)             113.4083         estimate D2E/DX2                !
 ! A12   A(7,2,13)             110.1812         estimate D2E/DX2                !
 ! A13   A(2,3,6)              112.4677         estimate D2E/DX2                !
 ! A14   A(2,3,11)             112.8699         estimate D2E/DX2                !
 ! A15   A(2,3,12)             105.8858         estimate D2E/DX2                !
 ! A16   A(6,3,11)             106.0107         estimate D2E/DX2                !
 ! A17   A(6,3,12)             108.0725         estimate D2E/DX2                !
 ! A18   A(11,3,12)            111.5294         estimate D2E/DX2                !
 ! A19   A(5,4,9)              108.8989         estimate D2E/DX2                !
 ! A20   A(5,4,11)             110.458          estimate D2E/DX2                !
 ! A21   A(5,4,16)             112.714          estimate D2E/DX2                !
 ! A22   A(9,4,11)             108.5806         estimate D2E/DX2                !
 ! A23   A(9,4,16)             107.9178         estimate D2E/DX2                !
 ! A24   A(11,4,16)            108.1627         estimate D2E/DX2                !
 ! A25   A(1,5,4)              111.3985         estimate D2E/DX2                !
 ! A26   A(1,5,10)             108.9969         estimate D2E/DX2                !
 ! A27   A(1,5,15)             110.0848         estimate D2E/DX2                !
 ! A28   A(4,5,10)             108.6394         estimate D2E/DX2                !
 ! A29   A(4,5,15)             107.3015         estimate D2E/DX2                !
 ! A30   A(10,5,15)            110.4028         estimate D2E/DX2                !
 ! A31   A(3,11,4)             114.678          estimate D2E/DX2                !
 ! A32   A(3,12,20)            117.5253         estimate D2E/DX2                !
 ! A33   A(2,13,32)            113.5803         estimate D2E/DX2                !
 ! A34   A(1,14,36)            113.4993         estimate D2E/DX2                !
 ! A35   A(5,15,40)            113.4353         estimate D2E/DX2                !
 ! A36   A(4,16,17)            107.6447         estimate D2E/DX2                !
 ! A37   A(4,16,18)            109.0868         estimate D2E/DX2                !
 ! A38   A(4,16,19)            115.059          estimate D2E/DX2                !
 ! A39   A(17,16,18)           108.3999         estimate D2E/DX2                !
 ! A40   A(17,16,19)           105.9096         estimate D2E/DX2                !
 ! A41   A(18,16,19)           110.48           estimate D2E/DX2                !
 ! A42   A(16,19,44)           113.8905         estimate D2E/DX2                !
 ! A43   A(12,20,21)           103.8523         estimate D2E/DX2                !
 ! A44   A(12,20,22)           108.7315         estimate D2E/DX2                !
 ! A45   A(12,20,23)           103.2962         estimate D2E/DX2                !
 ! A46   A(21,20,22)           122.1432         estimate D2E/DX2                !
 ! A47   A(21,20,23)           108.65           estimate D2E/DX2                !
 ! A48   A(22,20,23)           108.5375         estimate D2E/DX2                !
 ! A49   A(20,23,24)           118.7532         estimate D2E/DX2                !
 ! A50   A(20,23,25)           119.1939         estimate D2E/DX2                !
 ! A51   A(24,23,25)           122.0328         estimate D2E/DX2                !
 ! A52   A(23,24,26)           118.5731         estimate D2E/DX2                !
 ! A53   A(23,24,27)           120.5008         estimate D2E/DX2                !
 ! A54   A(26,24,27)           120.9261         estimate D2E/DX2                !
 ! A55   A(23,25,28)           118.4709         estimate D2E/DX2                !
 ! A56   A(23,25,29)           120.4278         estimate D2E/DX2                !
 ! A57   A(28,25,29)           121.1012         estimate D2E/DX2                !
 ! A58   A(24,26,30)           120.4455         estimate D2E/DX2                !
 ! A59   A(24,26,48)           119.3823         estimate D2E/DX2                !
 ! A60   A(30,26,48)           120.1297         estimate D2E/DX2                !
 ! A61   A(25,28,30)           120.6043         estimate D2E/DX2                !
 ! A62   A(25,28,52)           120.404          estimate D2E/DX2                !
 ! A63   A(30,28,52)           118.9035         estimate D2E/DX2                !
 ! A64   A(26,30,28)           119.8721         estimate D2E/DX2                !
 ! A65   A(26,30,31)           120.0789         estimate D2E/DX2                !
 ! A66   A(28,30,31)           120.0484         estimate D2E/DX2                !
 ! A67   A(13,32,33)           112.095          estimate D2E/DX2                !
 ! A68   A(13,32,34)           111.2398         estimate D2E/DX2                !
 ! A69   A(13,32,35)           106.7645         estimate D2E/DX2                !
 ! A70   A(33,32,34)           108.8913         estimate D2E/DX2                !
 ! A71   A(33,32,35)           108.5564         estimate D2E/DX2                !
 ! A72   A(34,32,35)           109.2096         estimate D2E/DX2                !
 ! A73   A(14,36,37)           106.7296         estimate D2E/DX2                !
 ! A74   A(14,36,38)           111.2057         estimate D2E/DX2                !
 ! A75   A(14,36,39)           111.7552         estimate D2E/DX2                !
 ! A76   A(37,36,38)           108.861          estimate D2E/DX2                !
 ! A77   A(37,36,39)           109.2122         estimate D2E/DX2                !
 ! A78   A(38,36,39)           109.0026         estimate D2E/DX2                !
 ! A79   A(15,40,41)           106.653          estimate D2E/DX2                !
 ! A80   A(15,40,42)           111.492          estimate D2E/DX2                !
 ! A81   A(15,40,43)           111.1136         estimate D2E/DX2                !
 ! A82   A(41,40,42)           109.3484         estimate D2E/DX2                !
 ! A83   A(41,40,43)           109.0615         estimate D2E/DX2                !
 ! A84   A(42,40,43)           109.1094         estimate D2E/DX2                !
 ! A85   A(19,44,45)           106.7967         estimate D2E/DX2                !
 ! A86   A(19,44,46)           111.0824         estimate D2E/DX2                !
 ! A87   A(19,44,47)           112.3681         estimate D2E/DX2                !
 ! A88   A(45,44,46)           109.1888         estimate D2E/DX2                !
 ! A89   A(45,44,47)           109.1175         estimate D2E/DX2                !
 ! A90   A(46,44,47)           108.2337         estimate D2E/DX2                !
 ! A91   A(26,48,49)           111.4907         estimate D2E/DX2                !
 ! A92   A(26,48,50)           111.2607         estimate D2E/DX2                !
 ! A93   A(26,48,51)           111.7455         estimate D2E/DX2                !
 ! A94   A(49,48,50)           107.0669         estimate D2E/DX2                !
 ! A95   A(49,48,51)           107.8468         estimate D2E/DX2                !
 ! A96   A(50,48,51)           107.1907         estimate D2E/DX2                !
 ! A97   A(28,52,53)           110.837          estimate D2E/DX2                !
 ! A98   A(28,52,54)           111.5842         estimate D2E/DX2                !
 ! A99   A(28,52,55)           112.2085         estimate D2E/DX2                !
 ! A100  A(53,52,54)           106.697          estimate D2E/DX2                !
 ! A101  A(53,52,55)           107.2547         estimate D2E/DX2                !
 ! A102  A(54,52,55)           107.9955         estimate D2E/DX2                !
 ! D1    D(5,1,2,3)            -49.1911         estimate D2E/DX2                !
 ! D2    D(5,1,2,7)             66.3929         estimate D2E/DX2                !
 ! D3    D(5,1,2,13)          -174.1993         estimate D2E/DX2                !
 ! D4    D(8,1,2,3)             70.0312         estimate D2E/DX2                !
 ! D5    D(8,1,2,7)           -174.3848         estimate D2E/DX2                !
 ! D6    D(8,1,2,13)           -54.977          estimate D2E/DX2                !
 ! D7    D(14,1,2,3)          -169.0416         estimate D2E/DX2                !
 ! D8    D(14,1,2,7)           -53.4576         estimate D2E/DX2                !
 ! D9    D(14,1,2,13)           65.9502         estimate D2E/DX2                !
 ! D10   D(2,1,5,4)             51.4291         estimate D2E/DX2                !
 ! D11   D(2,1,5,10)           -68.4355         estimate D2E/DX2                !
 ! D12   D(2,1,5,15)           170.336          estimate D2E/DX2                !
 ! D13   D(8,1,5,4)            -68.0943         estimate D2E/DX2                !
 ! D14   D(8,1,5,10)           172.0411         estimate D2E/DX2                !
 ! D15   D(8,1,5,15)            50.8126         estimate D2E/DX2                !
 ! D16   D(14,1,5,4)           172.3045         estimate D2E/DX2                !
 ! D17   D(14,1,5,10)           52.4399         estimate D2E/DX2                !
 ! D18   D(14,1,5,15)          -68.7886         estimate D2E/DX2                !
 ! D19   D(2,1,14,36)         -107.6139         estimate D2E/DX2                !
 ! D20   D(5,1,14,36)          131.0537         estimate D2E/DX2                !
 ! D21   D(8,1,14,36)           12.5591         estimate D2E/DX2                !
 ! D22   D(1,2,3,6)            171.7402         estimate D2E/DX2                !
 ! D23   D(1,2,3,11)            51.8478         estimate D2E/DX2                !
 ! D24   D(1,2,3,12)           -70.4379         estimate D2E/DX2                !
 ! D25   D(7,2,3,6)             54.4157         estimate D2E/DX2                !
 ! D26   D(7,2,3,11)           -65.4767         estimate D2E/DX2                !
 ! D27   D(7,2,3,12)           172.2375         estimate D2E/DX2                !
 ! D28   D(13,2,3,6)           -66.3134         estimate D2E/DX2                !
 ! D29   D(13,2,3,11)          173.7942         estimate D2E/DX2                !
 ! D30   D(13,2,3,12)           51.5084         estimate D2E/DX2                !
 ! D31   D(1,2,13,32)         -171.2344         estimate D2E/DX2                !
 ! D32   D(3,2,13,32)           65.1444         estimate D2E/DX2                !
 ! D33   D(7,2,13,32)          -52.9506         estimate D2E/DX2                !
 ! D34   D(2,3,11,4)           -56.8201         estimate D2E/DX2                !
 ! D35   D(6,3,11,4)           179.6385         estimate D2E/DX2                !
 ! D36   D(12,3,11,4)           62.2419         estimate D2E/DX2                !
 ! D37   D(2,3,12,20)         -159.8262         estimate D2E/DX2                !
 ! D38   D(6,3,12,20)          -39.1075         estimate D2E/DX2                !
 ! D39   D(11,3,12,20)          77.0363         estimate D2E/DX2                !
 ! D40   D(9,4,5,1)             65.141          estimate D2E/DX2                !
 ! D41   D(9,4,5,10)          -174.7831         estimate D2E/DX2                !
 ! D42   D(9,4,5,15)           -55.415          estimate D2E/DX2                !
 ! D43   D(11,4,5,1)           -54.0146         estimate D2E/DX2                !
 ! D44   D(11,4,5,10)           66.0613         estimate D2E/DX2                !
 ! D45   D(11,4,5,15)         -174.5706         estimate D2E/DX2                !
 ! D46   D(16,4,5,1)          -175.1345         estimate D2E/DX2                !
 ! D47   D(16,4,5,10)          -55.0586         estimate D2E/DX2                !
 ! D48   D(16,4,5,15)           64.3095         estimate D2E/DX2                !
 ! D49   D(5,4,11,3)            57.6527         estimate D2E/DX2                !
 ! D50   D(9,4,11,3)           -61.6957         estimate D2E/DX2                !
 ! D51   D(16,4,11,3)         -178.5595         estimate D2E/DX2                !
 ! D52   D(5,4,16,17)          -71.559          estimate D2E/DX2                !
 ! D53   D(5,4,16,18)          171.0176         estimate D2E/DX2                !
 ! D54   D(5,4,16,19)           46.233          estimate D2E/DX2                !
 ! D55   D(9,4,16,17)           48.731          estimate D2E/DX2                !
 ! D56   D(9,4,16,18)          -68.6924         estimate D2E/DX2                !
 ! D57   D(9,4,16,19)          166.523          estimate D2E/DX2                !
 ! D58   D(11,4,16,17)         166.0223         estimate D2E/DX2                !
 ! D59   D(11,4,16,18)          48.5989         estimate D2E/DX2                !
 ! D60   D(11,4,16,19)         -76.1857         estimate D2E/DX2                !
 ! D61   D(1,5,15,40)          105.3221         estimate D2E/DX2                !
 ! D62   D(4,5,15,40)         -133.293          estimate D2E/DX2                !
 ! D63   D(10,5,15,40)         -15.0622         estimate D2E/DX2                !
 ! D64   D(3,12,20,21)         167.3101         estimate D2E/DX2                !
 ! D65   D(3,12,20,22)          35.8392         estimate D2E/DX2                !
 ! D66   D(3,12,20,23)         -79.317          estimate D2E/DX2                !
 ! D67   D(2,13,32,33)         -72.0941         estimate D2E/DX2                !
 ! D68   D(2,13,32,34)          50.0931         estimate D2E/DX2                !
 ! D69   D(2,13,32,35)         169.1553         estimate D2E/DX2                !
 ! D70   D(1,14,36,37)         179.7959         estimate D2E/DX2                !
 ! D71   D(1,14,36,38)         -61.6035         estimate D2E/DX2                !
 ! D72   D(1,14,36,39)          60.4611         estimate D2E/DX2                !
 ! D73   D(5,15,40,41)         178.9624         estimate D2E/DX2                !
 ! D74   D(5,15,40,42)         -61.734          estimate D2E/DX2                !
 ! D75   D(5,15,40,43)          60.2173         estimate D2E/DX2                !
 ! D76   D(4,16,19,44)          75.7738         estimate D2E/DX2                !
 ! D77   D(17,16,19,44)       -165.4617         estimate D2E/DX2                !
 ! D78   D(18,16,19,44)        -48.2794         estimate D2E/DX2                !
 ! D79   D(16,19,44,45)        163.9112         estimate D2E/DX2                !
 ! D80   D(16,19,44,46)         44.9427         estimate D2E/DX2                !
 ! D81   D(16,19,44,47)        -76.4748         estimate D2E/DX2                !
 ! D82   D(12,20,23,24)        -80.1717         estimate D2E/DX2                !
 ! D83   D(12,20,23,25)         98.2312         estimate D2E/DX2                !
 ! D84   D(21,20,23,24)         29.6692         estimate D2E/DX2                !
 ! D85   D(21,20,23,25)       -151.9279         estimate D2E/DX2                !
 ! D86   D(22,20,23,24)        164.5332         estimate D2E/DX2                !
 ! D87   D(22,20,23,25)        -17.0639         estimate D2E/DX2                !
 ! D88   D(20,23,24,26)        178.4492         estimate D2E/DX2                !
 ! D89   D(20,23,24,27)         -1.4683         estimate D2E/DX2                !
 ! D90   D(25,23,24,26)          0.0939         estimate D2E/DX2                !
 ! D91   D(25,23,24,27)       -179.8237         estimate D2E/DX2                !
 ! D92   D(20,23,25,28)       -178.7092         estimate D2E/DX2                !
 ! D93   D(20,23,25,29)          1.1565         estimate D2E/DX2                !
 ! D94   D(24,23,25,28)         -0.3609         estimate D2E/DX2                !
 ! D95   D(24,23,25,29)        179.5048         estimate D2E/DX2                !
 ! D96   D(23,24,26,30)          0.1763         estimate D2E/DX2                !
 ! D97   D(23,24,26,48)        177.8079         estimate D2E/DX2                !
 ! D98   D(27,24,26,30)       -179.9065         estimate D2E/DX2                !
 ! D99   D(27,24,26,48)         -2.2749         estimate D2E/DX2                !
 ! D100  D(23,25,28,30)          0.3619         estimate D2E/DX2                !
 ! D101  D(23,25,28,52)        176.9084         estimate D2E/DX2                !
 ! D102  D(29,25,28,30)       -179.5028         estimate D2E/DX2                !
 ! D103  D(29,25,28,52)         -2.9564         estimate D2E/DX2                !
 ! D104  D(24,26,30,28)         -0.1723         estimate D2E/DX2                !
 ! D105  D(24,26,30,31)       -179.8894         estimate D2E/DX2                !
 ! D106  D(48,26,30,28)       -177.7862         estimate D2E/DX2                !
 ! D107  D(48,26,30,31)          2.4967         estimate D2E/DX2                !
 ! D108  D(24,26,48,49)         34.5729         estimate D2E/DX2                !
 ! D109  D(24,26,48,50)        -84.876          estimate D2E/DX2                !
 ! D110  D(24,26,48,51)        155.3467         estimate D2E/DX2                !
 ! D111  D(30,26,48,49)       -147.7879         estimate D2E/DX2                !
 ! D112  D(30,26,48,50)         92.7632         estimate D2E/DX2                !
 ! D113  D(30,26,48,51)        -27.0141         estimate D2E/DX2                !
 ! D114  D(25,28,30,26)         -0.1027         estimate D2E/DX2                !
 ! D115  D(25,28,30,31)        179.6145         estimate D2E/DX2                !
 ! D116  D(52,28,30,26)       -176.7003         estimate D2E/DX2                !
 ! D117  D(52,28,30,31)          3.0169         estimate D2E/DX2                !
 ! D118  D(25,28,52,53)       -101.7657         estimate D2E/DX2                !
 ! D119  D(25,28,52,54)        139.4725         estimate D2E/DX2                !
 ! D120  D(25,28,52,55)         18.115          estimate D2E/DX2                !
 ! D121  D(30,28,52,53)         74.8389         estimate D2E/DX2                !
 ! D122  D(30,28,52,54)        -43.9229         estimate D2E/DX2                !
 ! D123  D(30,28,52,55)       -165.2803         estimate D2E/DX2                !
 --------------------------------------------------------------------------------
 Trust Radius=3.00D-01 FncErr=1.00D-07 GrdErr=1.00D-06 EigMax=2.50D+02 EigMin=1.00D-04
 Number of steps in this run=    291 maximum allowed number of steps=    330.
 GradGradGradGradGradGradGradGradGradGradGradGradGradGradGradGradGradGrad

 Leave Link  103 at Sat Jun 15 08:34:15 2019, MaxMem=  6442450944 cpu:               2.3 elap:               0.1
 (Enter /home/ekwan/sw/g16/l202.exe)
 Stoichiometry    C18H22F6O8S
 Framework group  C1[X(C18H22F6O8S)]
 Deg. of freedom   159
 Full point group                 C1      NOp   1
 Largest Abelian subgroup         C1      NOp   1
 Largest concise Abelian subgroup C1      NOp   1
                         Standard orientation:                         
 ---------------------------------------------------------------------
 Center     Atomic      Atomic             Coordinates (Angstroms)
 Number     Number       Type             X           Y           Z
 ---------------------------------------------------------------------
      1          6           0        3.397338    0.398550    0.521750
      2          6           0        3.312825   -0.560993   -0.655746
      3          6           0        1.857256   -0.906487   -0.981694
      4          6           0        1.043133    1.107882   -0.001856
      5          6           0        2.454555    1.575169    0.328583
      6          1           0        1.760770   -1.477833   -1.910625
      7          1           0        3.705093   -0.046733   -1.555023
      8          1           0        3.104286   -0.135998    1.440850
      9          1           0        0.634143    0.563198    0.867070
     10          1           0        2.823376    2.197767   -0.503146
     11          8           0        1.059604    0.215578   -1.138554
     12          8           0        1.390210   -1.746455    0.117216
     13          8           0        4.100191   -1.685587   -0.358495
     14          8           0        4.716652    0.899767    0.647091
     15          8           0        2.377775    2.337831    1.520134
     16          6           0        0.104092    2.257260   -0.316443
     17          1           0       -0.099966    2.785440    0.621201
     18          1           0       -0.846646    1.851296   -0.701441
     19          8           0        0.621043    3.225703   -1.200906
     20         16           0        0.081826   -2.683185   -0.153091
     21          8           0        0.065831   -3.592399    0.977841
     22          8           0        0.123255   -3.158671   -1.529030
     23          6           0       -1.276826   -1.545931    0.011803
     24          6           0       -1.718452   -1.212234    1.286739
     25          6           0       -1.841917   -0.992941   -1.133332
     26          6           0       -2.761160   -0.296133    1.412447
     27          1           0       -1.256773   -1.657569    2.164994
     28          6           0       -2.884513   -0.085536   -0.985887
     29          1           0       -1.470849   -1.266460   -2.117216
     30          6           0       -3.345742    0.265914    0.282212
     31          1           0       -4.157594    0.981324    0.387252
     32          6           0        4.264864   -2.566747   -1.453426
     33          1           0        3.341499   -3.121318   -1.681181
     34          1           0        4.587361   -2.025201   -2.356266
     35          1           0        5.038814   -3.282579   -1.168085
     36          6           0        5.417710    0.370410    1.753903
     37          1           0        6.412600    0.824261    1.742694
     38          1           0        4.919110    0.628512    2.702008
     39          1           0        5.517793   -0.721912    1.688064
     40          6           0        3.086833    3.560943    1.452302
     41          1           0        2.938928    4.062595    2.412662
     42          1           0        4.160614    3.395209    1.289801
     43          1           0        2.695270    4.202264    0.647566
     44          6           0        0.642136    2.812598   -2.554662
     45          1           0        0.777087    3.714625   -3.158304
     46          1           0       -0.306165    2.327303   -2.835734
     47          1           0        1.462633    2.112220   -2.765548
     48          6           0       -3.285788    0.040042    2.778646
     49          9           0       -2.304300    0.031990    3.699420
     50          9           0       -4.212373   -0.853514    3.180101
     51          9           0       -3.865793    1.253178    2.805057
     52          6           0       -3.479488    0.589393   -2.186895
     53          9           0       -3.016017    1.855398   -2.306605
     54          9           0       -4.818820    0.675306   -2.093494
     55          9           0       -3.183612   -0.052640   -3.328388
 ---------------------------------------------------------------------
 Rotational constants (GHZ):           0.1515371           0.0850054           0.0837644
 Leave Link  202 at Sat Jun 15 08:34:15 2019, MaxMem=  6442450944 cpu:               4.2 elap:               0.2
 (Enter /home/ekwan/sw/g16/l301.exe)
 Standard basis: 6-31G(d) (6D, 7F)
 Centers:      12     22     21
 SP 1 1.00
     Exponent=  8.4500000000D-02 Coefficients=  1.0000000000D+00  1.0000000000D+00
 ****
 Ernie: Thresh=  0.10000D-02 Tol=  0.10000D-05 Strict=F.
 There are   555 symmetry adapted cartesian basis functions of A   symmetry.
 There are   555 symmetry adapted basis functions of A   symmetry.
   555 basis functions,  1048 primitive gaussians,   555 cartesian basis functions
   132 alpha electrons      132 beta electrons
       nuclear repulsion energy      4354.2274200553 Hartrees.
 IExCor= 4134 DFT=T Ex+Corr=M06L ExCW=0 ScaHFX=  0.000000
 ScaDFX=  1.000000  1.000000  1.000000  1.000000 ScalE2=  1.000000  1.000000
 IRadAn=      5 IRanWt=     -1 IRanGd=            0 ICorTp=0 IEmpDi=131
 NAtoms=   55 NActive=   55 NUniq=   55 SFac= 1.00D+00 NAtFMM=   60 NAOKFM=F Big=F
 Integral buffers will be    131072 words long.
 Raffenetti 2 integral format.
 Two-electron integral symmetry is turned on.
 R6Disp:  Grimme-D3 Dispersion energy=       -0.0066245616 Hartrees.
 Nuclear repulsion after empirical dispersion term =     4354.2207954936 Hartrees.
 ------------------------------------------------------------------------------
 Polarizable Continuum Model (PCM)
 =================================
 Model                : PCM.
 Atomic radii         : UFF (Universal Force Field).
 Polarization charges : Total charges.
 Charge compensation  : None.
 Solution method      : On-the-fly selection.
 Cavity type          : Scaled VdW (van der Waals Surface) (Alpha=1.100).
 Cavity algorithm     : GePol (No added spheres)
                        Default sphere list used, NSphG=   55.
                        Lebedev-Laikov grids with approx.  5.0 points / Ang**2.
                        Smoothing algorithm: York/Karplus (Gamma=1.0000).
                        Polarization charges: spherical gaussians, with
                                              point-specific exponents (IZeta= 3).
                        Self-potential: point-specific (ISelfS= 7).
                        Self-field    : sphere-specific E.n sum rule (ISelfD= 2).
 1st derivatives      : Analytical E(r).r(x)/FMM algorithm (CHGder, D1EAlg=3).
                        Cavity 1st derivative terms included.
 Solvent              : TetraHydroFuran, Eps=   7.425700 Eps(inf)=   1.974025
 ------------------------------------------------------------------------------
 GePol: Number of generator spheres                  =      55
 GePol: Total number of spheres                      =      55
 GePol: Number of exposed spheres                    =      55 (100.00%)
 GePol: Number of points                             =    3880
 GePol: Average weight of points                     =       0.13
 GePol: Minimum weight of points                     =   0.19D-11
 GePol: Maximum weight of points                     =    0.20577
 GePol: Number of points with low weight             =     234
 GePol: Fraction of low-weight points (<1% of avg)   =       6.03%
 GePol: Cavity surface area                          =    494.575 Ang**2
 GePol: Cavity volume                                =    576.374 Ang**3
 Leave Link  301 at Sat Jun 15 08:34:16 2019, MaxMem=  6442450944 cpu:               9.3 elap:               0.4
 (Enter /home/ekwan/sw/g16/l302.exe)
 NPDir=0 NMtPBC=     1 NCelOv=     1 NCel=       1 NClECP=     1 NCelD=      1
         NCelK=      1 NCelE2=     1 NClLst=     1 CellRange=     0.0.
 One-electron integrals computed using PRISM.
 One-electron integral symmetry used in STVInt
 NBasis=   555 RedAO= T EigKep=  3.98D-04  NBF=   555
 NBsUse=   555 1.00D-06 EigRej= -1.00D+00 NBFU=   555
 Precomputing XC quadrature grid using
 IXCGrd= 4 IRadAn=           5 IRanWt=          -1 IRanGd=           0 AccXCQ= 0.00D+00.
 Generated NRdTot=       0 NPtTot=           0 NUsed=           0 NTot=          32
 NSgBfM=   544   544   544   544   544 MxSgAt=    55 MxSgA2=    55.
 Leave Link  302 at Sat Jun 15 08:34:24 2019, MaxMem=  6442450944 cpu:             243.0 elap:               8.5
 (Enter /home/ekwan/sw/g16/l303.exe)
 DipDrv:  MaxL=1.
 Leave Link  303 at Sat Jun 15 08:34:25 2019, MaxMem=  6442450944 cpu:              12.4 elap:               0.5
 (Enter /home/ekwan/sw/g16/l401.exe)
 ExpMin= 8.45D-02 ExpMax= 2.19D+04 ExpMxC= 3.30D+03 IAcc=3 IRadAn=         5 AccDes= 0.00D+00
 Harris functional with IExCor= 1009 and IRadAn=       5 diagonalized for initial guess.
 HarFok:  IExCor= 1009 AccDes= 0.00D+00 IRadAn=         5 IDoV= 1 UseB2=F ITyADJ=14
 ICtDFT=  3500011 ScaDFX=  1.000000  1.000000  1.000000  1.000000
 FoFCou: FMM=F IPFlag=           0 FMFlag=      100000 FMFlg1=           0
         NFxFlg=           0 DoJE=T BraDBF=F KetDBF=T FulRan=T
         wScrn=  0.000000 ICntrl=       500 IOpCl=  0 I1Cent=   200000004 NGrid=           0
         NMat0=    1 NMatS0=      1 NMatT0=    0 NMatD0=    1 NMtDS0=    0 NMtDT0=    0
 Petite list used in FoFCou.
 Harris En= -2296.15918356790    
 JPrj=0 DoOrth=F DoCkMO=F.
 Leave Link  401 at Sat Jun 15 08:34:33 2019, MaxMem=  6442450944 cpu:             257.8 elap:               8.5
 (Enter /home/ekwan/sw/g16/l502.exe)
 Integral symmetry usage will be decided dynamically.
 Closed shell SCF:
 Using DIIS extrapolation, IDIIS=  1040.
 NGot=  6442450944 LenX=  6441811192 LenY=  6441502612
 Requested convergence on RMS density matrix=1.00D-08 within 128 cycles.
 Requested convergence on MAX density matrix=1.00D-06.
 Requested convergence on             energy=1.00D-06.
 No special actions if energy rises.
 Fock matrices will be formed incrementally for  20 cycles.

 Cycle   1  Pass 1  IDiag  1:
 FoFJK:  IHMeth= 1 ICntrl=     500 DoSepK=F KAlg= 0 I1Cent=           0 FoldK=F
 IRaf= 710000000 NMat=       1 IRICut=       1 DoRegI=T DoRafI=F ISym2E= 0 IDoP0=0 IntGTp=1.
 FoFCou: FMM=F IPFlag=           0 FMFlag=      100000 FMFlg1=           0
         NFxFlg=           0 DoJE=T BraDBF=F KetDBF=F FulRan=T
         wScrn=  0.000000 ICntrl=       500 IOpCl=  0 I1Cent=           0 NGrid=           0
         NMat0=    1 NMatS0=      1 NMatT0=    0 NMatD0=    1 NMtDS0=    0 NMtDT0=    0
 Symmetry not used in FoFCou.
 Inv3:  Mode=1 IEnd=    45163200.
 Iteration    1 A*A^-1 deviation from unit magnitude is 4.00D-15 for   3861.
 Iteration    1 A*A^-1 deviation from orthogonality  is 1.89D-15 for   3663   1255.
 Iteration    1 A^-1*A deviation from unit magnitude is 4.00D-15 for   3861.
 Iteration    1 A^-1*A deviation from orthogonality  is 1.26D-14 for   3340   3322.
 E= -2297.21489687764    
 DIIS: error= 3.02D-02 at cycle   1 NSaved=   1.
 NSaved= 1 IEnMin= 1 EnMin= -2297.21489687764     IErMin= 1 ErrMin= 3.02D-02
 ErrMax= 3.02D-02  0.00D+00 EMaxC= 1.00D-01 BMatC= 8.90D-01 BMatP= 8.90D-01
 IDIUse=3 WtCom= 6.98D-01 WtEn= 3.02D-01
 Coeff-Com:  0.100D+01
 Coeff-En:   0.100D+01
 Coeff:      0.100D+01
 Gap=     0.081 Goal=   None    Shift=    0.000
 GapD=    0.081 DampG=0.500 DampE=0.500 DampFc=0.2500 IDamp=-1.
 Damping current iteration by 2.50D-01
 RMSDP=4.25D-03 MaxDP=5.20D-01              OVMax= 2.03D-01

 Cycle   2  Pass 1  IDiag  1:
 RMSU=  1.06D-03    CP:  9.99D-01
 E= -2297.44181130916     Delta-E=       -0.226914431516 Rises=F Damp=T
 DIIS: error= 1.94D-02 at cycle   2 NSaved=   2.
 NSaved= 2 IEnMin= 2 EnMin= -2297.44181130916     IErMin= 2 ErrMin= 1.94D-02
 ErrMax= 1.94D-02  0.00D+00 EMaxC= 1.00D-01 BMatC= 2.20D-01 BMatP= 8.90D-01
 IDIUse=3 WtCom= 8.06D-01 WtEn= 1.94D-01
 Coeff-Com: -0.577D+00 0.158D+01
 Coeff-En:   0.000D+00 0.100D+01
 Coeff:     -0.465D+00 0.147D+01
 Gap=     0.139 Goal=   None    Shift=    0.000
 RMSDP=1.35D-03 MaxDP=6.59D-02 DE=-2.27D-01 OVMax= 1.90D-01

 Cycle   3  Pass 1  IDiag  1:
 RMSU=  1.33D-03    CP:  9.86D-01  1.11D+00
 E= -2297.78968172136     Delta-E=       -0.347870412205 Rises=F Damp=F
 DIIS: error= 8.05D-03 at cycle   3 NSaved=   3.
 NSaved= 3 IEnMin= 3 EnMin= -2297.78968172136     IErMin= 3 ErrMin= 8.05D-03
 ErrMax= 8.05D-03  0.00D+00 EMaxC= 1.00D-01 BMatC= 9.11D-02 BMatP= 2.20D-01
 IDIUse=3 WtCom= 9.20D-01 WtEn= 8.05D-02
 Coeff-Com: -0.358D+00 0.796D+00 0.562D+00
 Coeff-En:   0.000D+00 0.000D+00 0.100D+01
 Coeff:     -0.329D+00 0.732D+00 0.597D+00
 Gap=     0.117 Goal=   None    Shift=    0.000
 RMSDP=1.04D-03 MaxDP=5.84D-02 DE=-3.48D-01 OVMax= 9.06D-02

 Cycle   4  Pass 1  IDiag  1:
 RMSU=  6.96D-04    CP:  9.91D-01  1.43D+00  4.83D-01
 E= -2297.82662651097     Delta-E=       -0.036944789614 Rises=F Damp=F
 DIIS: error= 5.60D-03 at cycle   4 NSaved=   4.
 NSaved= 4 IEnMin= 4 EnMin= -2297.82662651097     IErMin= 4 ErrMin= 5.60D-03
 ErrMax= 5.60D-03  0.00D+00 EMaxC= 1.00D-01 BMatC= 5.02D-02 BMatP= 9.11D-02
 IDIUse=3 WtCom= 9.44D-01 WtEn= 5.60D-02
 Coeff-Com: -0.117D+00 0.202D+00 0.427D+00 0.488D+00
 Coeff-En:   0.000D+00 0.000D+00 0.382D+00 0.618D+00
 Coeff:     -0.110D+00 0.191D+00 0.425D+00 0.495D+00
 Gap=     0.118 Goal=   None    Shift=    0.000
 RMSDP=4.79D-04 MaxDP=2.89D-02 DE=-3.69D-02 OVMax= 5.21D-02

 Cycle   5  Pass 1  IDiag  1:
 RMSU=  1.59D-04    CP:  9.90D-01  1.33D+00  6.84D-01  5.00D-01
 E= -2297.86801002356     Delta-E=       -0.041383512584 Rises=F Damp=F
 DIIS: error= 2.37D-03 at cycle   5 NSaved=   5.
 NSaved= 5 IEnMin= 5 EnMin= -2297.86801002356     IErMin= 5 ErrMin= 2.37D-03
 ErrMax= 2.37D-03  0.00D+00 EMaxC= 1.00D-01 BMatC= 2.49D-03 BMatP= 5.02D-02
 IDIUse=3 WtCom= 9.76D-01 WtEn= 2.37D-02
 Coeff-Com: -0.474D-01 0.729D-01 0.215D+00 0.292D+00 0.467D+00
 Coeff-En:   0.000D+00 0.000D+00 0.000D+00 0.000D+00 0.100D+01
 Coeff:     -0.463D-01 0.712D-01 0.210D+00 0.285D+00 0.479D+00
 Gap=     0.117 Goal=   None    Shift=    0.000
 RMSDP=1.08D-04 MaxDP=6.16D-03 DE=-4.14D-02 OVMax= 2.17D-02

 Cycle   6  Pass 1  IDiag  1:
 RMSU=  6.08D-05    CP:  9.89D-01  1.34D+00  6.89D-01  5.55D-01  4.99D-01
 E= -2297.87018530847     Delta-E=       -0.002175284911 Rises=F Damp=F
 DIIS: error= 8.71D-04 at cycle   6 NSaved=   6.
 NSaved= 6 IEnMin= 6 EnMin= -2297.87018530847     IErMin= 6 ErrMin= 8.71D-04
 ErrMax= 8.71D-04  0.00D+00 EMaxC= 1.00D-01 BMatC= 2.13D-04 BMatP= 2.49D-03
 IDIUse=3 WtCom= 9.91D-01 WtEn= 8.71D-03
 Coeff-Com: -0.149D-01 0.206D-01 0.695D-01 0.100D+00 0.270D+00 0.554D+00
 Coeff-En:   0.000D+00 0.000D+00 0.000D+00 0.000D+00 0.566D-01 0.943D+00
 Coeff:     -0.148D-01 0.205D-01 0.689D-01 0.992D-01 0.269D+00 0.558D+00
 Gap=     0.117 Goal=   None    Shift=    0.000
 RMSDP=3.44D-05 MaxDP=1.78D-03 DE=-2.18D-03 OVMax= 7.09D-03

 Cycle   7  Pass 1  IDiag  1:
 RMSU=  1.88D-05    CP:  9.89D-01  1.34D+00  6.91D-01  5.53D-01  5.89D-01
                    CP:  5.98D-01
 E= -2297.87037903647     Delta-E=       -0.000193727998 Rises=F Damp=F
 DIIS: error= 2.36D-04 at cycle   7 NSaved=   7.
 NSaved= 7 IEnMin= 7 EnMin= -2297.87037903647     IErMin= 7 ErrMin= 2.36D-04
 ErrMax= 2.36D-04  0.00D+00 EMaxC= 1.00D-01 BMatC= 2.04D-05 BMatP= 2.13D-04
 IDIUse=3 WtCom= 9.98D-01 WtEn= 2.36D-03
 Coeff-Com: -0.573D-02 0.727D-02 0.232D-01 0.346D-01 0.119D+00 0.324D+00
 Coeff-Com:  0.498D+00
 Coeff-En:   0.000D+00 0.000D+00 0.000D+00 0.000D+00 0.000D+00 0.305D-01
 Coeff-En:   0.970D+00
 Coeff:     -0.572D-02 0.725D-02 0.232D-01 0.345D-01 0.119D+00 0.323D+00
 Coeff:      0.499D+00
 Gap=     0.117 Goal=   None    Shift=    0.000
 RMSDP=1.12D-05 MaxDP=7.47D-04 DE=-1.94D-04 OVMax= 2.01D-03

 Cycle   8  Pass 1  IDiag  1:
 RMSU=  7.10D-06    CP:  9.89D-01  1.34D+00  6.90D-01  5.54D-01  5.84D-01
                    CP:  6.68D-01  6.18D-01
 E= -2297.87039713666     Delta-E=       -0.000018100195 Rises=F Damp=F
 DIIS: error= 6.63D-05 at cycle   8 NSaved=   8.
 NSaved= 8 IEnMin= 8 EnMin= -2297.87039713666     IErMin= 8 ErrMin= 6.63D-05
 ErrMax= 6.63D-05  0.00D+00 EMaxC= 1.00D-01 BMatC= 3.12D-06 BMatP= 2.04D-05
 IDIUse=1 WtCom= 1.00D+00 WtEn= 0.00D+00
 Coeff-Com: -0.137D-02 0.148D-02 0.249D-02 0.417D-02 0.294D-01 0.111D+00
 Coeff-Com:  0.310D+00 0.543D+00
 Coeff:     -0.137D-02 0.148D-02 0.249D-02 0.417D-02 0.294D-01 0.111D+00
 Coeff:      0.310D+00 0.543D+00
 Gap=     0.117 Goal=   None    Shift=    0.000
 RMSDP=4.27D-06 MaxDP=2.59D-04 DE=-1.81D-05 OVMax= 6.03D-04

 Cycle   9  Pass 1  IDiag  1:
 RMSU=  2.64D-06    CP:  9.89D-01  1.34D+00  6.90D-01  5.54D-01  5.89D-01
                    CP:  6.71D-01  6.92D-01  6.00D-01
 E= -2297.87039970712     Delta-E=       -0.000002570458 Rises=F Damp=F
 DIIS: error= 1.52D-05 at cycle   9 NSaved=   9.
 NSaved= 9 IEnMin= 9 EnMin= -2297.87039970712     IErMin= 9 ErrMin= 1.52D-05
 ErrMax= 1.52D-05  0.00D+00 EMaxC= 1.00D-01 BMatC= 4.83D-07 BMatP= 3.12D-06
 IDIUse=1 WtCom= 1.00D+00 WtEn= 0.00D+00
 Coeff-Com: -0.366D-03 0.369D-03-0.119D-02-0.161D-02 0.379D-02 0.297D-01
 Coeff-Com:  0.132D+00 0.344D+00 0.494D+00
 Coeff:     -0.366D-03 0.369D-03-0.119D-02-0.161D-02 0.379D-02 0.297D-01
 Coeff:      0.132D+00 0.344D+00 0.494D+00
 Gap=     0.117 Goal=   None    Shift=    0.000
 RMSDP=1.51D-06 MaxDP=8.71D-05 DE=-2.57D-06 OVMax= 1.39D-04

 Cycle  10  Pass 1  IDiag  1:
 RMSU=  8.09D-07    CP:  9.89D-01  1.34D+00  6.90D-01  5.54D-01  5.90D-01
                    CP:  6.72D-01  6.95D-01  6.87D-01  5.87D-01
 E= -2297.87040010116     Delta-E=       -0.000000394041 Rises=F Damp=F
 DIIS: error= 6.11D-06 at cycle  10 NSaved=  10.
 NSaved=10 IEnMin=10 EnMin= -2297.87040010116     IErMin=10 ErrMin= 6.11D-06
 ErrMax= 6.11D-06  0.00D+00 EMaxC= 1.00D-01 BMatC= 3.10D-08 BMatP= 4.83D-07
 IDIUse=1 WtCom= 1.00D+00 WtEn= 0.00D+00
 Coeff-Com: -0.157D-03 0.178D-03-0.793D-03-0.113D-02-0.354D-03 0.708D-02
 Coeff-Com:  0.444D-01 0.141D+00 0.270D+00 0.540D+00
 Coeff:     -0.157D-03 0.178D-03-0.793D-03-0.113D-02-0.354D-03 0.708D-02
 Coeff:      0.444D-01 0.141D+00 0.270D+00 0.540D+00
 Gap=     0.117 Goal=   None    Shift=    0.000
 RMSDP=3.91D-07 MaxDP=2.51D-05 DE=-3.94D-07 OVMax= 3.80D-05

 Cycle  11  Pass 1  IDiag  1:
 RMSU=  2.98D-07    CP:  9.89D-01  1.34D+00  6.90D-01  5.54D-01  5.90D-01
                    CP:  6.72D-01  6.99D-01  6.91D-01  6.29D-01  7.55D-01
 E= -2297.87040012179     Delta-E=       -0.000000020626 Rises=F Damp=F
 DIIS: error= 2.07D-06 at cycle  11 NSaved=  11.
 NSaved=11 IEnMin=11 EnMin= -2297.87040012179     IErMin=11 ErrMin= 2.07D-06
 ErrMax= 2.07D-06  0.00D+00 EMaxC= 1.00D-01 BMatC= 4.75D-09 BMatP= 3.10D-08
 IDIUse=1 WtCom= 1.00D+00 WtEn= 0.00D+00
 Coeff-Com: -0.584D-04 0.732D-04-0.326D-03-0.454D-03-0.817D-03-0.527D-04
 Coeff-Com:  0.720D-02 0.345D-01 0.904D-01 0.321D+00 0.549D+00
 Coeff:     -0.584D-04 0.732D-04-0.326D-03-0.454D-03-0.817D-03-0.527D-04
 Coeff:      0.720D-02 0.345D-01 0.904D-01 0.321D+00 0.549D+00
 Gap=     0.117 Goal=   None    Shift=    0.000
 RMSDP=1.70D-07 MaxDP=1.43D-05 DE=-2.06D-08 OVMax= 1.48D-05

 Cycle  12  Pass 1  IDiag  1:
 RMSU=  1.11D-07    CP:  9.89D-01  1.34D+00  6.90D-01  5.54D-01  5.90D-01
                    CP:  6.73D-01  6.99D-01  6.92D-01  6.41D-01  8.09D-01
                    CP:  6.29D-01
 E= -2297.87040012527     Delta-E=       -0.000000003482 Rises=F Damp=F
 DIIS: error= 8.47D-07 at cycle  12 NSaved=  12.
 NSaved=12 IEnMin=12 EnMin= -2297.87040012527     IErMin=12 ErrMin= 8.47D-07
 ErrMax= 8.47D-07  0.00D+00 EMaxC= 1.00D-01 BMatC= 7.64D-10 BMatP= 4.75D-09
 IDIUse=1 WtCom= 1.00D+00 WtEn= 0.00D+00
 Coeff-Com: -0.235D-04 0.322D-04-0.110D-03-0.144D-03-0.477D-03-0.931D-03
 Coeff-Com: -0.104D-02 0.421D-02 0.225D-01 0.134D+00 0.346D+00 0.496D+00
 Coeff:     -0.235D-04 0.322D-04-0.110D-03-0.144D-03-0.477D-03-0.931D-03
 Coeff:     -0.104D-02 0.421D-02 0.225D-01 0.134D+00 0.346D+00 0.496D+00
 Gap=     0.117 Goal=   None    Shift=    0.000
 RMSDP=6.87D-08 MaxDP=4.85D-06 DE=-3.48D-09 OVMax= 6.52D-06

 Cycle  13  Pass 1  IDiag  1:
 RMSU=  4.29D-08    CP:  9.89D-01  1.34D+00  6.90D-01  5.54D-01  5.90D-01
                    CP:  6.73D-01  6.99D-01  6.93D-01  6.45D-01  8.16D-01
                    CP:  7.00D-01  6.19D-01
 E= -2297.87040012583     Delta-E=       -0.000000000561 Rises=F Damp=F
 DIIS: error= 3.23D-07 at cycle  13 NSaved=  13.
 NSaved=13 IEnMin=13 EnMin= -2297.87040012583     IErMin=13 ErrMin= 3.23D-07
 ErrMax= 3.23D-07  0.00D+00 EMaxC= 1.00D-01 BMatC= 1.26D-10 BMatP= 7.64D-10
 IDIUse=1 WtCom= 1.00D+00 WtEn= 0.00D+00
 Coeff-Com: -0.850D-05 0.127D-04-0.167D-04-0.161D-04-0.167D-03-0.563D-03
 Coeff-Com: -0.175D-02-0.262D-02-0.318D-03 0.346D-01 0.137D+00 0.327D+00
 Coeff-Com:  0.506D+00
 Coeff:     -0.850D-05 0.127D-04-0.167D-04-0.161D-04-0.167D-03-0.563D-03
 Coeff:     -0.175D-02-0.262D-02-0.318D-03 0.346D-01 0.137D+00 0.327D+00
 Coeff:      0.506D+00
 Gap=     0.117 Goal=   None    Shift=    0.000
 RMSDP=2.51D-08 MaxDP=1.46D-06 DE=-5.61D-10 OVMax= 2.68D-06

 Cycle  14  Pass 1  IDiag  1:
 RMSU=  1.40D-08    CP:  9.89D-01  1.34D+00  6.90D-01  5.54D-01  5.90D-01
                    CP:  6.73D-01  6.99D-01  6.93D-01  6.45D-01  8.21D-01
                    CP:  7.05D-01  7.04D-01  5.99D-01
 E= -2297.87040012593     Delta-E=       -0.000000000102 Rises=F Damp=F
 DIIS: error= 7.74D-08 at cycle  14 NSaved=  14.
 NSaved=14 IEnMin=14 EnMin= -2297.87040012593     IErMin=14 ErrMin= 7.74D-08
 ErrMax= 7.74D-08  0.00D+00 EMaxC= 1.00D-01 BMatC= 7.58D-12 BMatP= 1.26D-10
 IDIUse=1 WtCom= 1.00D+00 WtEn= 0.00D+00
 Coeff-Com: -0.210D-05 0.343D-05 0.231D-05 0.604D-05-0.394D-04-0.194D-03
 Coeff-Com: -0.776D-03-0.177D-02-0.267D-02 0.402D-02 0.347D-01 0.113D+00
 Coeff-Com:  0.268D+00 0.585D+00
 Coeff:     -0.210D-05 0.343D-05 0.231D-05 0.604D-05-0.394D-04-0.194D-03
 Coeff:     -0.776D-03-0.177D-02-0.267D-02 0.402D-02 0.347D-01 0.113D+00
 Coeff:      0.268D+00 0.585D+00
 Gap=     0.117 Goal=   None    Shift=    0.000
 RMSDP=6.66D-09 MaxDP=3.60D-07 DE=-1.02D-10 OVMax= 6.85D-07

 Error on total polarization charges =  0.00958
 SCF Done:  E(RM06L) =  -2297.87040013     A.U. after   14 cycles
            NFock= 14  Conv=0.67D-08     -V/T= 2.0065
 KE= 2.283049842758D+03 PE=-1.411635876514D+04 EE= 5.181217726767D+03
 Leave Link  502 at Sat Jun 15 08:41:04 2019, MaxMem=  6442450944 cpu:           11810.2 elap:             390.6
 (Enter /home/ekwan/sw/g16/l701.exe)
 ... and contract with generalized density number  0.
 Compute integral first derivatives.
 R6Disp: Adding Grimme-D3 dispersion energy 1st derivatives to the gradient.
 D1PCM: PCM CHGder 1st derivatives, ID1Alg=3 FixD1E=F DoIter=F DoCFld=F I1PDM=0.
 GePol: Maximum number of non-zero 1st derivatives   =     218
 Leave Link  701 at Sat Jun 15 08:41:15 2019, MaxMem=  6442450944 cpu:             315.0 elap:              11.1
 (Enter /home/ekwan/sw/g16/l702.exe)
 L702 exits ... SP integral derivatives will be done elsewhere.
 Leave Link  702 at Sat Jun 15 08:41:15 2019, MaxMem=  6442450944 cpu:               2.6 elap:               0.1
 (Enter /home/ekwan/sw/g16/l703.exe)
 Integral derivatives from FoFJK, PRISM(SPDF).
 Compute integral first derivatives, UseDBF=F ICtDFT=           0.
 Calling FoFJK, ICntrl=      2527 FMM=F ISym2X=0 I1Cent= 0 IOpClX= 0 NMat=1 NMatS=1 NMatT=0.
 FoFJK:  IHMeth= 1 ICntrl=    2527 DoSepK=F KAlg= 0 I1Cent=           0 FoldK=F
 IRaf=         0 NMat=       1 IRICut=       1 DoRegI=T DoRafI=F ISym2E= 0 IDoP0=0 IntGTp=1.
 FoFCou: FMM=F IPFlag=           0 FMFlag=      100000 FMFlg1=         800
         NFxFlg=           0 DoJE=F BraDBF=F KetDBF=F FulRan=T
         wScrn=  0.000000 ICntrl=      2527 IOpCl=  0 I1Cent=           0 NGrid=           0
         NMat0=    1 NMatS0=      1 NMatT0=    0 NMatD0=    1 NMtDS0=    0 NMtDT0=    0
 Symmetry not used in FoFCou.
 Leave Link  703 at Sat Jun 15 08:42:01 2019, MaxMem=  6442450944 cpu:            1438.9 elap:              45.8
 (Enter /home/ekwan/sw/g16/l716.exe)
 Dipole        = 3.26589924D-01 1.16097652D+00-6.64013110D-01
 ***** Axes restored to original set *****
 -------------------------------------------------------------------
 Center     Atomic                   Forces (Hartrees/Bohr)
 Number     Number              X              Y              Z
 -------------------------------------------------------------------
      1        6          -0.000002099   -0.000003526    0.000011182
      2        6           0.000021220    0.000011662    0.000014841
      3        6           0.000013393    0.000084715   -0.000027554
      4        6          -0.000002315   -0.000011902   -0.000005006
      5        6           0.000006240    0.000013197    0.000014758
      6        1          -0.000008736   -0.000027385    0.000007839
      7        1          -0.000014354   -0.000018040   -0.000005599
      8        1          -0.000003138    0.000011624    0.000007970
      9        1          -0.000005290    0.000003710    0.000013442
     10        1          -0.000001580   -0.000006807    0.000001056
     11        8           0.000030534   -0.000003159   -0.000013445
     12        8          -0.000027040   -0.000042523   -0.000031901
     13        8          -0.000003362   -0.000012653   -0.000006267
     14        8          -0.000010965   -0.000004301   -0.000009103
     15        8           0.000002330   -0.000006948   -0.000013224
     16        6          -0.000025333    0.000041892   -0.000006832
     17        1           0.000000378   -0.000010177    0.000005885
     18        1           0.000002334    0.000008620   -0.000004447
     19        8           0.000034907   -0.000028577    0.000004059
     20       16           0.000024991    0.000080609    0.000000652
     21        8          -0.000014134   -0.000028727    0.000028972
     22        8          -0.000020625   -0.000020755   -0.000025018
     23        6          -0.000029440   -0.000013008    0.000027069
     24        6           0.000011253   -0.000021528   -0.000005785
     25        6           0.000006498    0.000011098   -0.000022051
     26        6           0.000010004   -0.000012666   -0.000006334
     27        1          -0.000001924    0.000002886   -0.000000720
     28        6           0.000012131   -0.000017152   -0.000037773
     29        1          -0.000004625    0.000001102   -0.000004472
     30        6          -0.000008095    0.000014526    0.000018986
     31        1           0.000007504   -0.000009102    0.000004056
     32        6          -0.000008538    0.000001293   -0.000023861
     33        1           0.000005502    0.000010907    0.000003382
     34        1           0.000001578    0.000006899   -0.000001441
     35        1          -0.000000510    0.000006716   -0.000002682
     36        6           0.000001481   -0.000006997    0.000009441
     37        1           0.000001294   -0.000002151   -0.000002682
     38        1           0.000002515   -0.000002027   -0.000000728
     39        1          -0.000003237    0.000000808   -0.000005572
     40        6          -0.000002382   -0.000006381    0.000010011
     41        1           0.000001465    0.000000514    0.000003479
     42        1           0.000000924   -0.000007286    0.000006170
     43        1           0.000004577   -0.000004032    0.000009582
     44        6          -0.000034380    0.000017174    0.000021004
     45        1          -0.000001439   -0.000003477   -0.000001270
     46        1          -0.000014322   -0.000015165    0.000002439
     47        1           0.000019629   -0.000011539    0.000012483
     48        6          -0.000013012    0.000006179    0.000010116
     49        9           0.000020597   -0.000014426    0.000004885
     50        9          -0.000003475    0.000009719   -0.000017581
     51        9          -0.000002134   -0.000002732    0.000009906
     52        6           0.000016785    0.000031077   -0.000015264
     53        9           0.000013888    0.000006990    0.000027608
     54        9          -0.000009333   -0.000015336   -0.000002251
     55        9           0.000001868    0.000006565    0.000007591
 -------------------------------------------------------------------
 Cartesian Forces:  Max     0.000084715 RMS     0.000016906
 Leave Link  716 at Sat Jun 15 08:42:01 2019, MaxMem=  6442450944 cpu:               2.6 elap:               0.1
 (Enter /home/ekwan/sw/g16/l103.exe)

 GradGradGradGradGradGradGradGradGradGradGradGradGradGradGradGradGradGrad
 Berny optimization.
 FormGI is forming the generalized inverse of G from B-inverse, IUseBI=4.
 Internal  Forces:  Max     0.000155294 RMS     0.000023159
 Search for a local minimum.
 Step number   1 out of a maximum of  291
 All quantities printed in internal units (Hartrees-Bohrs-Radians)
 RMS Force = .23159D-04 SwitMx=.10000D-02 MixMth= 2
 Mixed Optimization -- En-DIIS/RFO-DIIS
 Second derivative matrix not updated -- first step.
 ITU=  0
     Eigenvalues ---    0.00539   0.00642   0.00659   0.00739   0.00745
     Eigenvalues ---    0.00757   0.00900   0.01433   0.01469   0.01469
     Eigenvalues ---    0.01486   0.01488   0.01492   0.01519   0.01563
     Eigenvalues ---    0.01576   0.01630   0.01634   0.01648   0.02180
     Eigenvalues ---    0.02186   0.02197   0.02199   0.02200   0.02210
     Eigenvalues ---    0.02214   0.02981   0.03326   0.04454   0.04610
     Eigenvalues ---    0.04704   0.04874   0.04952   0.05264   0.05301
     Eigenvalues ---    0.05821   0.06058   0.06620   0.07028   0.07105
     Eigenvalues ---    0.07233   0.07885   0.09287   0.10026   0.10033
     Eigenvalues ---    0.10074   0.10098   0.10549   0.10574   0.10599
     Eigenvalues ---    0.10605   0.10712   0.10807   0.10817   0.10827
     Eigenvalues ---    0.10963   0.11050   0.11476   0.11904   0.11981
     Eigenvalues ---    0.14156   0.14880   0.16000   0.16000   0.16000
     Eigenvalues ---    0.16000   0.16000   0.16000   0.16000   0.16000
     Eigenvalues ---    0.16000   0.16000   0.16000   0.16000   0.16000
     Eigenvalues ---    0.16000   0.16000   0.16548   0.16852   0.17484
     Eigenvalues ---    0.18678   0.19679   0.19783   0.20729   0.22139
     Eigenvalues ---    0.23476   0.23484   0.23499   0.24955   0.24978
     Eigenvalues ---    0.24990   0.25000   0.25000   0.25000   0.25000
     Eigenvalues ---    0.25000   0.25000   0.25000   0.25000   0.25000
     Eigenvalues ---    0.25000   0.25000   0.25000   0.27658   0.27804
     Eigenvalues ---    0.29323   0.29557   0.29772   0.30640   0.32212
     Eigenvalues ---    0.32309   0.32843   0.33235   0.33337   0.33365
     Eigenvalues ---    0.33411   0.33476   0.33493   0.33562   0.33571
     Eigenvalues ---    0.33581   0.33772   0.33807   0.33840   0.34202
     Eigenvalues ---    0.34260   0.34385   0.34402   0.34407   0.34563
     Eigenvalues ---    0.35095   0.35141   0.35218   0.36978   0.37563
     Eigenvalues ---    0.42745   0.42895   0.42935   0.42945   0.43139
     Eigenvalues ---    0.43160   0.43211   0.43523   0.44042   0.44860
     Eigenvalues ---    0.45549   0.46141   0.46710   0.47005   0.47090
     Eigenvalues ---    0.47284   0.54288   0.55364   0.55922   0.56027
     Eigenvalues ---    0.56117   0.56611   0.93151   0.95413
 RFO step:  Lambda=-3.68608813D-06 EMin= 5.38699460D-03
 Linear search not attempted -- first point.
 Iteration  1 RMS(Cart)=  0.01383648 RMS(Int)=  0.00001912
 Iteration  2 RMS(Cart)=  0.00004663 RMS(Int)=  0.00000006
 Iteration  3 RMS(Cart)=  0.00000000 RMS(Int)=  0.00000006
 ITry= 1 IFail=0 DXMaxC= 6.58D-02 DCOld= 1.00D+10 DXMaxT= 3.00D-01 DXLimC= 3.00D+00 Rises=F
 Variable       Old X    -DE/DX   Delta X   Delta X   Delta X     New X
                                 (Linear)    (Quad)   (Total)
    R1        2.87485   0.00003   0.00000   0.00009   0.00009   2.87493
    R2        2.87250   0.00000   0.00000   0.00001   0.00001   2.87251
    R3        2.08416   0.00000   0.00000   0.00000   0.00000   2.08416
    R4        2.67749  -0.00001   0.00000  -0.00002  -0.00002   2.67748
    R5        2.89337   0.00000   0.00000   0.00002   0.00002   2.89339
    R6        2.09328  -0.00001   0.00000  -0.00003  -0.00003   2.09325
    R7        2.65439  -0.00001   0.00000  -0.00002  -0.00002   2.65436
    R8        2.06893   0.00001   0.00000   0.00002   0.00002   2.06896
    R9        2.61840  -0.00003   0.00000  -0.00007  -0.00007   2.61833
   R10        2.75879   0.00002   0.00000   0.00005   0.00005   2.75884
   R11        2.87813   0.00000   0.00000   0.00000   0.00000   2.87813
   R12        2.08640   0.00001   0.00000   0.00003   0.00003   2.08643
   R13        2.73100  -0.00001   0.00000  -0.00002  -0.00002   2.73098
   R14        2.86705   0.00000   0.00000  -0.00001  -0.00001   2.86705
   R15        2.08336   0.00000   0.00000  -0.00001  -0.00001   2.08335
   R16        2.67738  -0.00001   0.00000  -0.00002  -0.00002   2.67735
   R17        3.08344  -0.00002   0.00000  -0.00005  -0.00005   3.08338
   R18        2.67410  -0.00001   0.00000  -0.00002  -0.00002   2.67408
   R19        2.67029   0.00000   0.00000   0.00000   0.00000   2.67029
   R20        2.67473  -0.00001   0.00000  -0.00001  -0.00001   2.67471
   R21        2.06991   0.00000   0.00000  -0.00001  -0.00001   2.06990
   R22        2.08465   0.00000   0.00000  -0.00001  -0.00001   2.08464
   R23        2.66404  -0.00005   0.00000  -0.00012  -0.00012   2.66392
   R24        2.67498  -0.00001   0.00000  -0.00003  -0.00003   2.67496
   R25        2.74234   0.00004   0.00000   0.00005   0.00005   2.74239
   R26        2.75214   0.00003   0.00000   0.00003   0.00003   2.75217
   R27        3.36269  -0.00004   0.00000  -0.00014  -0.00014   3.36255
   R28        2.62655  -0.00002   0.00000  -0.00005  -0.00005   2.62650
   R29        2.62968   0.00000   0.00000   0.00001   0.00001   2.62969
   R30        2.63363  -0.00002   0.00000  -0.00004  -0.00004   2.63359
   R31        2.05520   0.00000   0.00000   0.00000   0.00000   2.05520
   R32        2.62674  -0.00002   0.00000  -0.00004  -0.00004   2.62670
   R33        2.05323   0.00000   0.00000   0.00000   0.00000   2.05323
   R34        2.62873   0.00000   0.00000   0.00000   0.00000   2.62874
   R35        2.83758   0.00001   0.00000   0.00003   0.00003   2.83761
   R36        2.63502   0.00003   0.00000   0.00007   0.00007   2.63509
   R37        2.83581  -0.00002   0.00000  -0.00005  -0.00005   2.83577
   R38        2.05446  -0.00001   0.00000  -0.00003  -0.00003   2.05443
   R39        2.08044  -0.00001   0.00000  -0.00004  -0.00004   2.08040
   R40        2.08076   0.00000   0.00000   0.00000   0.00000   2.08076
   R41        2.06390   0.00000   0.00000  -0.00001  -0.00001   2.06389
   R42        2.06656   0.00000   0.00000   0.00001   0.00001   2.06657
   R43        2.08224   0.00000   0.00000   0.00000   0.00000   2.08223
   R44        2.07657   0.00000   0.00000  -0.00001  -0.00001   2.07655
   R45        2.06648   0.00000   0.00000   0.00000   0.00000   2.06649
   R46        2.07602   0.00000   0.00000   0.00000   0.00000   2.07602
   R47        2.08060  -0.00001   0.00000  -0.00002  -0.00002   2.08058
   R48        2.06685   0.00000   0.00000  -0.00001  -0.00001   2.06684
   R49        2.08195   0.00002   0.00000   0.00006   0.00006   2.08201
   R50        2.07717   0.00002   0.00000   0.00007   0.00007   2.07723
   R51        2.54321   0.00002   0.00000   0.00003   0.00003   2.54325
   R52        2.54810  -0.00001   0.00000  -0.00002  -0.00002   2.54808
   R53        2.54153   0.00000   0.00000   0.00000   0.00000   2.54153
   R54        2.55770   0.00001   0.00000   0.00001   0.00001   2.55771
   R55        2.54231   0.00001   0.00000   0.00001   0.00001   2.54232
   R56        2.53727  -0.00001   0.00000  -0.00001  -0.00001   2.53726
    A1        1.93415  -0.00001   0.00000   0.00002   0.00002   1.93417
    A2        1.90134   0.00002   0.00000   0.00021   0.00021   1.90155
    A3        1.92125  -0.00001   0.00000  -0.00010  -0.00010   1.92115
    A4        1.89259   0.00000   0.00000  -0.00005  -0.00005   1.89254
    A5        1.89119   0.00000   0.00000  -0.00013  -0.00013   1.89106
    A6        1.92320   0.00000   0.00000   0.00005   0.00005   1.92325
    A7        1.93897   0.00000   0.00000   0.00009   0.00009   1.93906
    A8        1.89217   0.00000   0.00000  -0.00002  -0.00002   1.89214
    A9        1.88604   0.00002   0.00000   0.00022   0.00022   1.88626
   A10        1.84272  -0.00001   0.00000  -0.00025  -0.00025   1.84247
   A11        1.97935   0.00000   0.00000   0.00010   0.00010   1.97945
   A12        1.92303  -0.00001   0.00000  -0.00016  -0.00016   1.92287
   A13        1.96293   0.00002   0.00000   0.00020   0.00020   1.96313
   A14        1.96995  -0.00001   0.00000   0.00003   0.00003   1.96998
   A15        1.84806   0.00005   0.00000   0.00032   0.00032   1.84837
   A16        1.85024   0.00000   0.00000  -0.00015  -0.00015   1.85009
   A17        1.88622  -0.00004   0.00000  -0.00042  -0.00042   1.88580
   A18        1.94656  -0.00002   0.00000   0.00000   0.00000   1.94655
   A19        1.90064  -0.00001   0.00000  -0.00005  -0.00005   1.90060
   A20        1.92786  -0.00002   0.00000  -0.00017  -0.00017   1.92768
   A21        1.96723   0.00004   0.00000   0.00009   0.00009   1.96732
   A22        1.89509   0.00003   0.00000   0.00041   0.00041   1.89550
   A23        1.88352   0.00000   0.00000   0.00007   0.00007   1.88359
   A24        1.88780  -0.00003   0.00000  -0.00032  -0.00032   1.88747
   A25        1.94427   0.00000   0.00000  -0.00002  -0.00002   1.94425
   A26        1.90235  -0.00001   0.00000  -0.00003  -0.00003   1.90233
   A27        1.92134   0.00000   0.00000  -0.00005  -0.00005   1.92129
   A28        1.89611   0.00000   0.00000   0.00004   0.00004   1.89615
   A29        1.87277   0.00000   0.00000  -0.00002  -0.00002   1.87275
   A30        1.92689   0.00001   0.00000   0.00009   0.00009   1.92698
   A31        2.00151   0.00003   0.00000   0.00024   0.00024   2.00175
   A32        2.05120  -0.00010   0.00000  -0.00039  -0.00039   2.05081
   A33        1.98235  -0.00004   0.00000  -0.00016  -0.00016   1.98219
   A34        1.98094   0.00002   0.00000   0.00006   0.00006   1.98100
   A35        1.97982   0.00001   0.00000   0.00005   0.00005   1.97987
   A36        1.87875   0.00001   0.00000   0.00024   0.00024   1.87899
   A37        1.90392   0.00002   0.00000  -0.00008  -0.00008   1.90385
   A38        2.00816  -0.00007   0.00000  -0.00035  -0.00035   2.00781
   A39        1.89194  -0.00001   0.00000   0.00008   0.00008   1.89201
   A40        1.84847   0.00005   0.00000   0.00053   0.00053   1.84900
   A41        1.92824  -0.00001   0.00000  -0.00036  -0.00036   1.92788
   A42        1.98776  -0.00015   0.00000  -0.00061  -0.00061   1.98715
   A43        1.81256   0.00008   0.00000   0.00037   0.00037   1.81293
   A44        1.89772   0.00004   0.00000   0.00009   0.00009   1.89781
   A45        1.80286  -0.00016   0.00000  -0.00067  -0.00067   1.80219
   A46        2.13180  -0.00001   0.00000   0.00004   0.00004   2.13184
   A47        1.89630   0.00000   0.00000   0.00000   0.00000   1.89630
   A48        1.89434   0.00003   0.00000   0.00004   0.00004   1.89438
   A49        2.07263  -0.00003   0.00000  -0.00012  -0.00012   2.07252
   A50        2.08033  -0.00001   0.00000  -0.00004  -0.00004   2.08029
   A51        2.12987   0.00003   0.00000   0.00011   0.00011   2.12999
   A52        2.06949  -0.00001   0.00000  -0.00004  -0.00004   2.06945
   A53        2.10313   0.00001   0.00000   0.00005   0.00005   2.10319
   A54        2.11056   0.00000   0.00000  -0.00001  -0.00001   2.11055
   A55        2.06771  -0.00002   0.00000  -0.00008  -0.00008   2.06763
   A56        2.10186   0.00001   0.00000   0.00005   0.00005   2.10191
   A57        2.11361   0.00001   0.00000   0.00002   0.00002   2.11364
   A58        2.10217   0.00000   0.00000  -0.00001  -0.00001   2.10216
   A59        2.08361  -0.00001   0.00000  -0.00004  -0.00004   2.08358
   A60        2.09666   0.00002   0.00000   0.00007   0.00007   2.09673
   A61        2.10494   0.00000   0.00000  -0.00001  -0.00001   2.10494
   A62        2.10145   0.00000   0.00000   0.00000   0.00000   2.10144
   A63        2.07526   0.00000   0.00000  -0.00004  -0.00004   2.07522
   A64        2.09216   0.00000   0.00000   0.00003   0.00003   2.09219
   A65        2.09577  -0.00001   0.00000  -0.00004  -0.00004   2.09573
   A66        2.09524   0.00000   0.00000   0.00001   0.00001   2.09525
   A67        1.95643  -0.00001   0.00000  -0.00005  -0.00005   1.95638
   A68        1.94150   0.00000   0.00000  -0.00003  -0.00003   1.94147
   A69        1.86339  -0.00001   0.00000  -0.00004  -0.00004   1.86336
   A70        1.90051   0.00001   0.00000   0.00005   0.00005   1.90056
   A71        1.89467   0.00001   0.00000   0.00005   0.00005   1.89472
   A72        1.90607   0.00000   0.00000   0.00001   0.00001   1.90608
   A73        1.86278   0.00000   0.00000  -0.00003  -0.00003   1.86275
   A74        1.94091   0.00000   0.00000   0.00002   0.00002   1.94092
   A75        1.95050  -0.00001   0.00000  -0.00004  -0.00004   1.95046
   A76        1.89998   0.00000   0.00000   0.00000   0.00000   1.89999
   A77        1.90611   0.00000   0.00000   0.00002   0.00002   1.90613
   A78        1.90245   0.00000   0.00000   0.00003   0.00003   1.90249
[...]
 .00003846,0.00001793,0.00005841,0.00002412,-0.00001494,-0.00000412,0.0
 0003932,-0.00003409,0.00034371,0.00040035,0.00096982,-0.00001250,0.000
 04821,-0.00011031,-0.00009985,0.00000499,0.00000114,-0.00001461,-0.000
 09836,-0.00004308,0.00203959,-0.00075981,-0.00591059,0.00021911,0.0002
 0117,0.00197620,-0.00139783,-0.00057331,0.00173112,-0.00078360,0.00093
 931,0.00148398,0.02169278,-0.02023144,0.58176108,0.00006717,-0.0001300
 4,0.00001766,0.00007459,-0.00004017,-0.00003628,0.00013927,-0.00038903
 ,0.00015033,-0.00017172,-0.00061648,-0.00018428,0.00005142,0.00026593,
 0.00008604,-0.00001587,0.00002882,-0.00000644,0.00000359,0.00000445,-0
 .00000050,-0.00000628,0.00000905,-0.00000827,-0.00000778,0.00002992,-0
 .00001751,0.00003335,-0.00001307,0.00000798,-0.00020134,0.00031903,0.0
 0002264,0.00013922,0.00024917,-0.00009490,-0.00008606,0.00009909,0.000
 01825,-0.00017522,0.00004377,-0.00008475,-0.00011831,-0.00006348,-0.00
 007292,0.00163054,0.00134004,0.00020967,-0.00019459,-0.00003291,-0.000
 12782,-0.00102307,-0.00027568,-0.00021542,-0.00064936,-0.00066279,-0.0
 0019400,-0.00009776,-0.00030609,0.00005429,0.00003076,0.00004845,-0.00
 001897,0.00001322,0.00008454,0.00004041,0.00026918,-0.00071153,0.00007
 742,0.00009394,-0.00003340,-0.00039892,-0.00019074,-0.00084312,0.00104
 981,-0.00061730,-0.00017134,-0.00022068,0.00005158,0.00002458,0.000026
 72,0.01075524,0.00348032,-0.00342172,0.00004855,0.00012261,0.00004082,
 -0.00003988,0.00111656,0.00004669,0.00002141,0.00020080,-0.00027086,0.
 00000893,-0.00003383,-0.00004848,0.00000507,0.00000039,0.00000830,0.00
 000289,-0.00000004,0.00000892,-0.00000872,0.00000902,0.00000247,0.0000
 3184,-0.00003360,0.00008692,-0.00001524,0.00000059,-0.00001090,0.00000
 415,0.00000217,-0.00001273,-0.00000374,0.00001458,-0.00000978,0.000077
 16,0.00010223,0.00002139,-0.00000476,-0.00001614,-0.00001834,-0.000025
 09,-0.00000930,0.00000175,0.00000935,0.00000915,0.00000777,0.00112303,
 0.00068547,0.00064119,-0.00017013,-0.00011417,0.00001239,-0.00300421,-
 0.00070409,0.00021907,-0.00030859,-0.00011623,-0.00001692,-0.00029989,
 -0.00004031,0.00019290,0.00006002,0.00000311,-0.00008443,0.00008515,0.
 00004830,-0.00005155,0.00006909,-0.00003565,-0.00003479,-0.07933467,-0
 .04101146,0.00773703,0.11222642,-0.00003021,-0.00019844,-0.00004843,-0
 .00011950,0.00000765,-0.00008247,-0.00024655,-0.00078443,0.00070581,-0
 .00020919,-0.00091218,-0.00016775,-0.00003140,0.00017108,-0.00002168,-
 0.00004361,0.00004612,-0.00003593,0.00007637,0.00002766,-0.00000282,-0
 .00001473,0.00001620,-0.00002704,-0.00007144,0.00004783,-0.00010553,0.
 00008322,0.00001109,0.00001042,0.00015952,0.00078706,-0.00002675,0.001
 47464,0.00058410,-0.00036320,0.00006630,0.00005598,-0.00001430,-0.0000
 1776,0.00009872,-0.00001275,-0.00004836,0.00014283,0.00001611,0.001136
 04,0.00064376,0.00045158,-0.00011515,0.00000753,-0.00009123,0.00030613
 ,-0.00095649,0.00035509,-0.00049165,-0.00005362,-0.00044529,-0.0030194
 3,0.00174180,0.00044909,0.00073605,-0.00090456,0.00038217,0.00074971,-
 0.00058355,-0.00045293,0.00178500,0.00059501,0.00071410,0.00004705,-0.
 00045887,0.00070203,-0.00206007,0.00042530,0.00299624,0.00167281,0.000
 76225,0.00140791,-0.00021220,-0.00013192,-0.00002280,-0.00860938,-0.03
 730711,0.01470571,-0.00097026,-0.00050301,-0.00032511,0.00210245,-0.00
 200072,-0.00209864,-0.00103123,-0.00070991,0.00013375,-0.00006169,-0.0
 0000753,0.00003211,0.00000350,0.00001752,0.00001013,0.00000887,0.00001
 281,-0.00001481,0.00000826,-0.00000035,0.00000311,-0.00000751,-0.00001
 065,0.00002734,0.00000344,0.00000299,-0.00000343,0.00000269,-0.0000048
 6,-0.00000067,-0.00000842,0.00000911,-0.00000388,0.00002331,-0.0000460
 5,0.00005532,0.00000497,0.00000084,-0.00000361,-0.00001305,0.00000477,
 -0.00000642,0.00001268,0.00003039,-0.00001916,0.00100312,0.00074317,0.
 00067194,-0.00011823,-0.00009012,-0.00001988,0.00008570,-0.00051034,-0
 .00033260,-0.00040712,-0.00011062,-0.00004417,0.00113447,-0.00098157,-
 0.00213234,0.00009297,0.00019712,0.00097576,-0.00050733,-0.00011103,0.
 00063016,-0.00036725,0.00062142,0.00048153,-0.04457239,-0.22440411,0.0
 3443230,0.09756896,0.33327240,0.00006893,-0.00001132,0.00003372,0.0001
 3356,-0.00004028,0.00001543,0.00026354,0.00020669,-0.00040944,-0.00001
 956,-0.00009908,-0.00011618,0.00006147,0.00014625,0.00006047,-0.000002
 84,0.00000883,0.00002540,-0.00005441,-0.00001649,0.00000558,0.00000564
 ,-0.00000266,0.00001410,0.00003627,-0.00001032,0.00006636,-0.00003284,
 -0.00002136,0.00000180,-0.00026584,-0.00015783,0.00011519,-0.00096260,
 -0.00015207,0.00025499,-0.00011377,0.00005947,0.00005151,-0.00014034,-
 0.00001225,-0.00005343,-0.00008057,-0.00011335,-0.00004158,0.00071977,
 0.00097105,-0.00021752,-0.00007931,-0.00004248,-0.00001128,-0.00075398
 ,-0.00010931,-0.00070281,-0.00021457,-0.00035034,0.00065799,0.00184950
 ,-0.00164065,-0.00065539,-0.00045037,0.00068838,-0.00022103,-0.0004295
 0,0.00047562,0.00048364,-0.00172620,-0.00021473,-0.00123328,-0.0008043
 1,0.00091742,-0.00004841,0.00260419,-0.00000707,-0.00259886,-0.0003206
 0,-0.00077755,0.00057973,0.00009692,0.00006473,0.00006133,0.00336841,0
 .03309709,-0.00040355,0.00019903,0.00055820,-0.00004279,-0.00107033,0.
 00016603,0.00089206,0.00029700,-0.00004004,0.00015124,0.00004310,-0.00
 003336,-0.00008244,0.00000685,-0.00000651,-0.00000118,-0.00000797,-0.0
 0001178,0.00001928,-0.00001104,0.00000771,0.00000284,0.00002966,-0.000
 02241,0.00004965,-0.00001494,-0.00000177,-0.00000771,0.00000069,0.0000
 0496,-0.00000674,0.00000129,0.00000785,-0.00000652,0.00005330,0.000106
 66,-0.00001725,-0.00000308,-0.00001264,-0.00000677,-0.00001713,-0.0000
 0831,0.00000482,0.00000196,-0.00001288,0.00001184,-0.00024956,-0.00031
 132,-0.00052515,0.00003298,0.00000290,0.00005232,0.00064196,0.00024424
 ,0.00007767,0.00008818,0.00006426,0.00003827,-0.00060019,0.00032237,0.
 00144130,-0.00003814,-0.00007590,-0.00051389,0.00033999,0.00014163,-0.
 00042392,0.00021637,-0.00027360,-0.00034011,0.00836394,0.03442636,-0.0
 7860513,-0.01054918,-0.02146696,0.07273042,0.00014726,-0.00000744,0.00
 008705,0.00023934,-0.00009073,0.00003686,0.00041874,-0.00000463,-0.000
 34647,0.00006498,0.00003490,0.00005591,0.00010686,0.00019979,0.0001688
 3,0.00001760,0.00000054,0.00001908,-0.00005934,-0.00001641,-0.00000486
 ,0.00000071,0.00000110,0.00000365,0.00004256,0.00000473,0.00004360,-0.
 00001066,-0.00002285,-0.00000102,-0.00046195,-0.00010202,-0.00003778,-
 0.00102585,-0.00007370,0.00011534,-0.00021439,0.00013872,0.00003154,-0
 .00026906,-0.00001288,-0.00014017,-0.00015220,-0.00020356,-0.00014724,
 0.00070414,0.00058667,0.00011144,-0.00008192,-0.00004664,-0.00007097,0
 .00002776,-0.00007100,0.00002341,-0.00040929,-0.00037101,-0.00000825,0
 .00254737,-0.00191489,-0.00053370,-0.00078744,0.00122842,-0.00060313,-
 0.00060579,0.00070031,0.00051273,-0.00058009,0.00207170,0.00052597,-0.
 00030962,-0.00008803,-0.00051663,-0.00074380,-0.00062019,-0.00671076,0
 .00030884,0.00076422,-0.00103130,0.00001577,-0.00017603,-0.00004047,-0
 .03935078,0.00850305,-0.00226590,0.00022090,-0.00089542,0.00029407,-0.
 00091731,0.00179580,0.00339472,-0.00027410,-0.00105983,-0.00148918,0.0
 0006695,-0.00005974,-0.00010631,0.00000678,-0.00001604,0.00000789,0.00
 000100,-0.00000718,0.00002645,-0.00002561,0.00001706,0.00000003,0.0000
 6772,-0.00005497,0.00012800,-0.00002722,-0.00000217,-0.00001462,0.0000
 0452,0.00000688,-0.00002255,0.00000112,0.00001930,-0.00001152,0.000102
 40,0.00017161,-0.00000072,-0.00000707,-0.00002656,-0.00002337,-0.00003
 179,-0.00001469,0.00000782,0.00000191,-0.00000560,0.00001733,0.0004878
 3,0.00031366,0.00019460,-0.00008487,-0.00009272,0.00002341,0.00004772,
 -0.00008483,-0.00014733,-0.00011988,-0.00002854,-0.00001505,-0.0013671
 0,0.00054724,0.00183248,0.00003800,-0.00010234,-0.00070609,0.00064274,
 0.00022801,-0.00060862,0.00042416,-0.00045267,-0.00041583,-0.25918910,
 0.02447456,-0.01460917,-0.05267857,-0.04036717,0.00704501,0.38932133,-
 0.00003321,-0.00004873,-0.00002747,-0.00007364,0.00001008,-0.00002432,
 -0.00013745,-0.00018424,0.00023515,-0.00006696,-0.00024338,-0.00004685
 ,-0.00002697,0.00000663,-0.00003923,-0.00001482,0.00000998,-0.00001322
 ,0.00002858,0.00001051,-0.00000099,-0.00000401,0.00000411,-0.00000798,
 -0.00002914,0.00001531,-0.00003867,0.00002643,0.00000731,0.00000337,0.
 00012933,0.00021182,0.00000684,0.00048830,0.00015018,-0.00009175,0.000
 05496,-0.00000774,-0.00000795,0.00004173,0.00002838,0.00002008,0.00001
 379,0.00007682,0.00003055,0.00017046,0.00004577,0.00009060,-0.00001597
 ,0.00001345,-0.00001117,0.00005546,-0.00022462,0.00017378,-0.00007664,
 0.00005439,-0.00014220,-0.00130957,0.00061573,0.00020202,0.00040713,-0
 .00042906,0.00020940,0.00029757,-0.00024598,-0.00021598,-0.00041915,-0
 .00121837,0.00054559,0.00049722,-0.00023905,0.00007947,-0.00005241,0.0
 0098814,0.00175671,-0.00040285,-0.00031882,0.00016899,0.00002265,0.000
 10066,-0.00000463,0.02137581,0.00548939,0.00286553,0.00007945,0.000607
 77,-0.00017191,0.00070821,-0.00084644,-0.00044852,0.00011922,0.0002135
 3,0.00050635,-0.00002812,0.00000690,0.00002641,0.00000046,0.00000715,0
 .00000128,0.00000238,0.00000492,-0.00000851,0.00000610,-0.00000292,0.0
 0000071,-0.00001293,0.00000578,-0.00001414,0.00000570,0.00000114,0.000
 00163,-0.00000008,-0.00000254,0.00000360,-0.00000247,-0.00000060,0.000
 00103,-0.00001188,-0.00004515,0.00001587,0.00000289,0.00000511,0.00000
 336,0.00000197,0.00000416,-0.00000314,0.00000302,0.00000964,-0.0000088
 9,0.00020498,0.00015275,0.00017544,-0.00001832,-0.00000590,-0.00001091
 ,0.00009076,-0.00010758,-0.00011740,-0.00009112,-0.00002660,-0.0000104
 0,0.00044717,-0.00038821,-0.00083393,0.00001571,0.00007130,0.00030307,
 -0.00020853,-0.00003311,0.00024478,-0.00016712,0.00024254,0.00018937,0
 .02362233,-0.07103302,0.00323347,-0.05550960,-0.01036052,0.00318197,-0
 .01730842,0.07536702,0.00005411,0.00002706,0.00002715,0.00010310,-0.00
 003027,0.00002716,0.00019639,0.00019944,-0.00035910,0.00008460,0.00013
 747,-0.00000443,0.00004079,0.00003387,0.00005196,0.00000294,0.00000392
 ,0.00002091,-0.00004395,-0.00001544,0.00000353,0.00000449,-0.00000278,
 0.00001145,0.00003219,-0.00000895,0.00005262,-0.00002487,-0.00001334,-
 0.00000010,-0.00018005,-0.00016980,0.00006162,-0.00073229,-0.00015403,
 0.00018386,-0.00008499,0.00004225,0.00003736,-0.00008400,-0.00001900,-
 0.00003143,-0.00004491,-0.00007951,-0.00003139,0.00004513,0.00013169,-
 0.00008639,0.00000731,-0.00001308,0.00001369,-0.00002259,0.00009768,-0
 .00008605,-0.00004438,-0.00009231,0.00021561,0.00182321,-0.00105603,-0
 .00063859,-0.00057474,0.00070697,-0.00027575,-0.00038862,0.00039552,0.
 00047200,-0.00066702,0.00187222,-0.00016389,-0.00067645,0.00052415,-0.
 00011471,-0.00043413,-0.00087704,-0.00428551,-0.00023000,-0.00008336,0
 .00090125,-0.00004271,0.00002937,0.00004009,-0.02833123,0.00683012,0.0
 0631279,-0.00040159,-0.00004203,-0.00005189,-0.00048728,-0.00042582,-0
 .00091250,-0.00131987,0.00083376,-0.00032993,0.00003392,-0.00002597,-0
 .00006181,0.00000552,-0.00000533,-0.00000171,-0.00000646,-0.00000935,0
 .00001460,-0.00000851,0.00000545,0.00000162,0.00002210,-0.00001487,0.0
 0002765,-0.00000965,-0.00000189,-0.00000424,-0.00000030,0.00000378,-0.
 00000383,0.00000184,0.00000479,-0.00000359,0.00003079,0.00006151,-0.00
 001287,-0.00000117,-0.00000707,-0.00000308,-0.00001034,-0.00000432,0.0
 0000316,0.00000011,-0.00000844,0.00000680,-0.00007991,-0.00007995,-0.0
 0016384,0.00000321,-0.00000878,0.00001715,0.00001308,0.00002387,0.0000
 0686,0.00001671,0.00001948,0.00000682,-0.00043285,0.00015546,0.0013338
 8,-0.00007386,-0.00004822,-0.00044668,0.00028608,0.00012609,-0.0003678
 0,0.00016043,-0.00020289,-0.00031900,-0.00729209,0.00224285,-0.0769933
 2,0.01042965,0.00360998,0.01198541,-0.02191073,0.00246470,0.07637694,0
 .00003411,0.00001268,0.00002890,0.00005831,-0.00002474,0.00000864,0.00
 011588,-0.00002007,-0.00001563,0.00001268,0.00008370,0.00008644,0.0000
 2549,0.00003575,0.00003441,0.00001816,-0.00001062,-0.00000292,-0.00000
 781,-0.00000077,-0.00000418,-0.00000022,-0.00000047,-0.00000206,0.0000
 0756,0.00000202,-0.00000650,-0.00000003,-0.00000219,-0.00000185,-0.000
 09767,-0.00005736,-0.00007187,-0.00018574,0.00000258,-0.00003337,-0.00
 005224,0.00002930,-0.00000615,-0.00006110,-0.00000850,-0.00003886,-0.0
 0003202,-0.00005710,-0.00004442,0.00006757,0.00004773,0.00002707,-0.00
 001678,-0.00001366,-0.00002144,-0.00002933,0.00001899,-0.00001191,-0.0
 0004350,-0.00007053,-0.00006285,0.00049619,-0.00046754,0.00029414,-0.0
 0008370,0.00017845,-0.00015533,-0.00015752,0.00017507,-0.00002988,0.00
 070026,-0.00062804,-0.00024431,0.00001601,0.00003864,-0.00033736,-0.00
 236313,0.00091485,-0.00075025,0.00018120,-0.00040501,-0.00080110,0.000
 05600,-0.00003556,-0.00009971,0.00980475,-0.00151495,-0.00757659,0.000
 43414,-0.00035233,-0.00198982,-0.00071977,0.00163409,-0.00083689,0.000
 08732,-0.00006977,-0.00036755,0.00001665,-0.00001058,-0.00001377,-0.00
 000041,-0.00000634,0.00000321,0.00000361,0.00000091,0.00000478,-0.0000
 0752,0.00000425,-0.00000178,0.00001746,-0.00001368,0.00003347,-0.00000
 626,-0.00000032,-0.00000315,0.00000153,0.00000139,-0.00000696,0.000000
 61,0.00000434,-0.00000206,0.00002129,0.00004002,-0.00000109,-0.0000023
 2,-0.00000683,-0.00000660,-0.00000572,-0.00000383,0.00000239,-0.000000
 83,-0.00000157,0.00000522,0.00008484,0.00006231,0.00006878,-0.00001473
 ,-0.00002577,0.00000177,0.00007301,0.00021856,0.00008162,0.00001746,-0
 .00000041,-0.00000306,-0.00047489,0.00013809,0.00039360,0.00000626,-0.
 00003980,-0.00026223,0.00015527,0.00005785,-0.00014268,0.00011487,-0.0
 0012217,-0.00008155,-0.07713097,0.01570427,0.02769335,0.01232279,-0.00
 657594,-0.00755636,-0.03629222,0.02710160,0.05124385,0.09283510,0.0000
 0807,-0.00005927,-0.00001346,-0.00000924,-0.00000577,-0.00001772,-0.00
 002158,-0.00021439,0.00008538,-0.00002937,-0.00025671,-0.00008793,0.00
 000629,0.00005524,0.00000844,-0.00002257,0.00001716,0.00000128,0.00000
 809,0.00000374,0.00000125,-0.00000284,0.00000416,-0.00000335,-0.000012
 36,0.00000863,-0.00000381,0.00001492,-0.00000183,0.00000360,-0.0000408
 4,0.00022505,0.00004559,0.00018063,0.00016075,0.00000121,-0.00000711,0
 .00003981,0.00001833,-0.00002888,0.00002905,-0.00000724,-0.00003138,0.
 00002966,0.00000425,0.00037258,0.00024630,0.00009381,-0.00002944,0.000
 00162,-0.00001437,0.00011949,-0.00022679,0.00013295,-0.00020042,-0.000
 03167,-0.00000873,-0.00043939,0.00005878,-0.00041390,0.00006132,-0.000
 03498,0.00009839,0.00015965,-0.00003724,0.00014057,-0.00069233,0.00080
 775,-0.00002569,-0.00019799,0.00020078,0.00055983,0.00259503,-0.001928
 92,0.00098551,0.00006911,-0.00066353,0.00066213,-0.00007139,0.00003890
 ,0.00009815,0.00090065,0.00801217,0.00348952,-0.00075192,0.00043942,0.
 00142079,0.00080680,0.00059253,-0.00009302,-0.00003352,0.00014147,0.00
 025831,-0.00001310,-0.00001799,-0.00001987,0.00000576,0.00000646,0.000
 00219,-0.00000098,-0.00000021,0.00000075,0.00000087,0.00000166,0.00000
 269,0.00000353,-0.00000780,0.00001273,-0.00000154,0.00000017,-0.000002
 28,0.00000020,-0.00000019,0.00000034,-0.00000241,0.00000467,-0.0000026
 0,0.00001685,0.00000073,0.00001316,0.00000212,-0.00000108,-0.00000040,
 -0.00000827,0.00000067,-0.00000139,0.00000454,0.00000700,-0.00000553,0
 .00026415,0.00012474,0.00007006,-0.00002137,-0.00001950,0.00000286,0.0
 0014831,-0.00000598,-0.00007478,-0.00011209,-0.00001523,-0.00000806,0.
 00008858,-0.00037771,-0.00021623,-0.00000625,0.00003799,0.00002153,-0.
 00009345,0.00003850,0.00011464,-0.00007591,0.00013899,0.00002728,0.014
 48630,-0.10148573,-0.07156604,-0.00399754,-0.05894195,-0.04981406,0.02
 259261,0.00147420,-0.01708360,-0.03596096,0.15138574,0.00009532,-0.000
 01126,0.00002546,0.00016516,-0.00004506,0.00001310,0.00036167,0.000176
 41,-0.00056476,0.00012094,-0.00001877,-0.00013576,0.00007668,0.0001122
 3,0.00009239,-0.00001784,0.00002936,0.00003623,-0.00007023,-0.00002429
 ,0.00001171,0.00000648,-0.00000177,0.00002060,0.00005460,-0.00001271,0
 .00010239,-0.00003545,-0.00002775,0.00000455,-0.00038557,-0.00011482,0
 .00020985,-0.00114191,-0.00008591,0.00029863,-0.00014752,0.00010093,0.
 00009192,-0.00016386,-0.00000730,-0.00004904,-0.00010564,-0.00011028,-
 0.00003843,0.00047313,0.00052996,-0.00010444,-0.00001611,-0.00001947,0
 .00001688,0.00005883,-0.00000154,-0.00005953,-0.00027794,-0.00021598,0
 .00048687,0.00258221,-0.00212197,-0.00080397,-0.00065903,0.00085369,-0
 .00024718,-0.00059275,0.00071050,0.00080811,-0.00003613,0.00089488,-0.
 00015736,-0.00024708,0.00001911,-0.00057833,0.00250961,-0.00177323,-0.
 00081651,0.00196607,-0.00068623,-0.00259541,-0.00009109,-0.00000657,0.
 00007791,0.01028374,-0.02333138,-0.04530866,-0.00171055,0.00068727,-0.
 00129325,-0.00744157,0.00562922,-0.00381376,-0.00006690,-0.00025220,0.
 00073680,0.00004750,-0.00005890,-0.00013083,0.00001594,-0.00000195,-0.
 00000294,-0.00001530,-0.00001889,0.00002697,-0.00001204,0.00000982,0.0
 0000663,0.00003739,-0.00002889,0.00004956,-0.00001761,-0.00000323,-0.0
 0000900,-0.00000097,0.00000670,-0.00000376,0.00000114,0.00001125,-0.00
 000859,0.00006758,0.00011111,-0.00001458,-0.00000029,-0.00001211,-0.00
 000439,-0.00002526,-0.00000733,0.00000402,0.00000466,-0.00001053,0.000
 00819,0.00003254,-0.00007328,-0.00031039,-0.00001165,-0.00002751,0.000
 03935,0.00013238,-0.00006240,-0.00010585,-0.00007683,0.00002303,0.0000
 0929,-0.00164277,0.00106226,0.00241849,-0.00025506,-0.00022046,-0.0013
 4573,0.00084786,0.00031333,-0.00084397,0.00034481,-0.00043440,-0.00056
 583,0.02057083,-0.06255118,-0.23830660,-0.00500711,-0.03556710,-0.0025
 9199,0.03783253,-0.01444094,-0.01246049,-0.05841755,0.13110655,0.30767
 545\\-0.00000286,0.00000115,0.00000045,-0.00000408,0.00000073,0.000001
 32,-0.00000216,-0.00000470,0.00001279,0.00000116,0.00000209,0.00000235
 ,0.00000310,-0.00000031,0.00000136,-0.00000398,-0.00000433,0.00000257,
 -0.00000033,-0.00000054,-0.00000104,-0.00000009,0.00000396,0.00000081,
 0.00000009,0.00000055,0.00000035,-0.00000104,-0.00000024,-0.00000151,0
 .00000053,-0.00000675,0.00000095,0.00000849,0.00000656,-0.00000780,0.0
 0000881,0.00000079,0.00000378,-0.00000028,-0.00000004,-0.00000099,-0.0
 0000368,0.00000078,-0.00000306,-0.00000226,-0.00000855,-0.00000666,0.0
 0000182,-0.00000078,-0.00000200,0.00000179,0.00000230,0.00000276,-0.00
 000449,0.00000784,-0.00000354,-0.00001050,-0.00000418,0.00000170,0.000
 00362,0.00000043,0.00000746,0.00000307,0.00000250,0.00000167,-0.000000
 46,0.00000155,0.00000227,-0.00000286,0.00000293,0.00000136,0.00000891,
 -0.00000291,-0.00000125,0.00001113,-0.00000977,0.00000800,0.00000226,0
 .00000356,0.00000109,-0.00000363,-0.00000155,0.00000168,-0.00000077,-0
 .00000177,0.00000185,-0.00000230,0.00000326,-0.00000352,-0.00000104,-0
 .00000205,-0.00000161,-0.00000358,-0.00000604,0.00000358,0.00000362,-0
 .00000059,0.00000414,0.00000171,-0.00000028,0.00000230,0.00000076,0.00
 000042,0.00000308,-0.00000031,0.00000291,0.00000103,-0.00000023,0.0000
 0334,-0.00000065,-0.00000017,0.00000381,-0.00000069,0.00000077,0.00000
 311,0.00000108,0.00000109,0.00000165,-0.00000204,-0.00000086,0.0000034
 7,-0.00000410,-0.00000117,0.00000264,-0.00000363,-0.00000193,0.0000024
 2,-0.00000602,0.00000633,-0.00000080,-0.00000735,0.00000005,-0.0000029
 0,-0.00000266,-0.00000443,-0.00000428,-0.00000316,-0.00000400,0.000001
 36,-0.00000411,0.00000224,-0.00000002,0.00000536,-0.00000755,0.0000011
 1,-0.00000492,0.00000280,0.00000250,0.00000107,-0.00000346,0.00000963,
 -0.00000054,-0.00000320,-0.00000701,-0.00000203,0.00000173,-0.00000544
 ,-0.00000305,0.00000334,-0.00000096,-0.00000200,-0.00000153,-0.0000025
 8,0.00000169\\\@


 I FIND THAT THE THREE TRULY GREAT TIMES FOR THINKING THOUGHTS
 ARE WHEN I AM STANDING IN THE SHOWER, SITTING ON THE JOHN, OR WALKING.

                                    -- COLIN FLETCHER
 Job cpu time:       1 days  6 hours 57 minutes 10.9 seconds.
 Elapsed time:       0 days  1 hours  1 minutes 38.3 seconds.
 File lengths (MBytes):  RWF=   2311 Int=      0 D2E=      0 Chk=     40 Scr=      1
 Normal termination of Gaussian 16 at Sat Jun 15 10:13:53 2019.
