 Entering Gaussian System, Link 0=g16
 Input=clay_new-glu_gluC6-bisCF3-sm-b97d3_d3bj-custom-pcm_thf.gjf
 Output=clay_new-glu_gluC6-bisCF3-sm-b97d3_d3bj-custom-pcm_thf.out
 Initial command:
 /home/ekwan/sw/g16/l1.exe "/scratch/users/ekwan/clay_new-glu_gluC6-bisCF3-sm-b97d3_d3bj-custom-pcm_thf/Gau-23052.inp" -scrdir="/scratch/users/ekwan/clay_new-glu_gluC6-bisCF3-sm-b97d3_d3bj-custom-pcm_thf/"
 Entering Link 1 = /home/ekwan/sw/g16/l1.exe PID=     23053.
  
 Copyright (c) 1988,1990,1992,1993,1995,1998,2003,2009,2016,
            Gaussian, Inc.  All Rights Reserved.
  
 This is part of the Gaussian(R) 16 program.  It is based on
 the Gaussian(R) 09 system (copyright 2009, Gaussian, Inc.),
 the Gaussian(R) 03 system (copyright 2003, Gaussian, Inc.),
 the Gaussian(R) 98 system (copyright 1998, Gaussian, Inc.),
 the Gaussian(R) 94 system (copyright 1995, Gaussian, Inc.),
 the Gaussian 92(TM) system (copyright 1992, Gaussian, Inc.),
 the Gaussian 90(TM) system (copyright 1990, Gaussian, Inc.),
 the Gaussian 88(TM) system (copyright 1988, Gaussian, Inc.),
 the Gaussian 86(TM) system (copyright 1986, Carnegie Mellon
 University), and the Gaussian 82(TM) system (copyright 1983,
 Carnegie Mellon University). Gaussian is a federally registered
 trademark of Gaussian, Inc.
  
 This software contains proprietary and confidential information,
 including trade secrets, belonging to Gaussian, Inc.
  
 This software is provided under written license and may be
 used, copied, transmitted, or stored only in accord with that
 written license.
  
 The following legend is applicable only to US Government
 contracts under FAR:
  
                    RESTRICTED RIGHTS LEGEND
  
 Use, reproduction and disclosure by the US Government is
 subject to restrictions as set forth in subparagraphs (a)
 and (c) of the Commercial Computer Software - Restricted
 Rights clause in FAR 52.227-19.
  
 Gaussian, Inc.
 340 Quinnipiac St., Bldg. 40, Wallingford CT 06492
  
  
 ---------------------------------------------------------------
 Warning -- This program may not be used in any manner that
 competes with the business of Gaussian, Inc. or will provide
 assistance to any competitor of Gaussian, Inc.  The licensee
 of this program is prohibited from giving any competitor of
 Gaussian, Inc. access to this program.  By using this program,
 the user acknowledges that Gaussian, Inc. is engaged in the
 business of creating and licensing software in the field of
 computational chemistry and represents and warrants to the
 licensee that it is not a competitor of Gaussian, Inc. and that
 it will not use this program in any manner prohibited above.
 ---------------------------------------------------------------
  

 Cite this work as:
 Gaussian 16, Revision A.03,
 M. J. Frisch, G. W. Trucks, H. B. Schlegel, G. E. Scuseria, 
 M. A. Robb, J. R. Cheeseman, G. Scalmani, V. Barone, 
 G. A. Petersson, H. Nakatsuji, X. Li, M. Caricato, A. V. Marenich, 
 J. Bloino, B. G. Janesko, R. Gomperts, B. Mennucci, H. P. Hratchian, 
 J. V. Ortiz, A. F. Izmaylov, J. L. Sonnenberg, D. Williams-Young, 
 F. Ding, F. Lipparini, F. Egidi, J. Goings, B. Peng, A. Petrone, 
 T. Henderson, D. Ranasinghe, V. G. Zakrzewski, J. Gao, N. Rega, 
 G. Zheng, W. Liang, M. Hada, M. Ehara, K. Toyota, R. Fukuda, 
 J. Hasegawa, M. Ishida, T. Nakajima, Y. Honda, O. Kitao, H. Nakai, 
 T. Vreven, K. Throssell, J. A. Montgomery, Jr., J. E. Peralta, 
 F. Ogliaro, M. J. Bearpark, J. J. Heyd, E. N. Brothers, K. N. Kudin, 
 V. N. Staroverov, T. A. Keith, R. Kobayashi, J. Normand, 
 K. Raghavachari, A. P. Rendell, J. C. Burant, S. S. Iyengar, 
 J. Tomasi, M. Cossi, J. M. Millam, M. Klene, C. Adamo, R. Cammi, 
 J. W. Ochterski, R. L. Martin, K. Morokuma, O. Farkas, 
 J. B. Foresman, and D. J. Fox, Gaussian, Inc., Wallingford CT, 2016.
 
 ******************************************
 Gaussian 16:  AS64L-G16RevA.03 25-Dec-2016
                15-Jun-2019 
 ******************************************
 %nprocshared=32
 Will use up to   32 processors via shared memory.
 %mem=48GB
 ----------------------------------------------------------------------
 #p opt freq=noraman 6-31g(d) scrf=(solvent=tetrahydrofuran,pcm) pop=no
 ne b97d3 empiricaldispersion=gd3bj extrabasis
 ----------------------------------------------------------------------
 1/18=20,19=15,26=3,38=1/1,3;
 2/9=110,12=2,17=6,18=5,40=1/2;
 3/5=1,6=6,7=1,10=1,11=2,25=1,30=1,70=2201,71=1,72=20,74=-59,124=41/1,2,3;
 4//1;
 5/5=2,38=5,53=20/2;
 7//1,2,3,16;
 1/18=20,19=15,26=3/3(2);
 2/9=110/2;
 99//99;
 2/9=110/2;
 3/5=7,6=1,7=1,11=2,25=1,30=1,70=2205,71=1,72=20,74=-59,82=7,124=41/1,2,3;
 4/5=5,16=3,69=1/1;
 5/5=2,38=5,53=20/2;
 7//1,2,3,16;
 1/18=20,19=15,26=3/3(-5);
 2/9=110/2;
 99/9=1/99;
 Leave Link    1 at Sat Jun 15 06:58:55 2019, MaxMem=  6442450944 cpu:               3.3 elap:               0.1
 (Enter /home/ekwan/sw/g16/l101.exe)
 -----
 title
 -----
 Symbolic Z-matrix:
 Charge =  0 Multiplicity = 1
 6                    -3.40234  -0.51485   0.45684 
 6                    -3.32168   0.63449  -0.55953 
 6                    -1.85679   1.05538  -0.81237 
 6                    -1.0102   -1.10237  -0.18085 
 6                    -2.42693  -1.63608   0.0765 
 1                    -1.76811   1.77738  -1.62945 
 1                    -3.69226   0.25649  -1.5313 
 1                    -3.13144  -0.13908   1.45686 
 1                    -0.59423  -0.7183    0.76448 
 1                    -2.78885  -2.12158  -0.84216 
 8                    -1.0339   -0.01523  -1.14935 
 8                    -1.41267   1.71713   0.43 
 8                    -4.13356   1.70168  -0.10559 
 8                    -4.71369  -1.07614   0.47225 
 8                    -2.33423  -2.57908   1.14416 
 6                    -0.0579   -2.18312  -0.70141 
 1                     0.14525  -2.86337   0.13504 
 1                     0.88875  -1.70979  -1.00891 
 8                    -0.57546  -2.99808  -1.74562 
 16                   -0.09666   2.71311   0.34329 
 8                    -0.09788   3.4114    1.6361 
 8                    -0.12987   3.45547  -0.92984 
 6                     1.28255   1.56105   0.30398 
 6                     1.69522   0.97006   1.50106 
 6                     1.86836   1.24835  -0.92575 
 6                     2.73707   0.03376   1.45715 
 1                     1.21487   1.22944   2.44122 
 6                     2.91203   0.31722  -0.94565 
 1                     1.51508   1.71619  -1.83976 
 6                     3.34712  -0.29253   0.23986 
 1                     4.15313  -1.02186   0.21317 
 6                    -4.44161   2.67246  -1.11021 
 1                    -3.56134   3.27651  -1.38495 
 1                    -4.84744   2.19063  -2.01637 
 1                    -5.20183   3.33233  -0.67691 
 6                    -5.53794  -0.6108    1.54308 
 1                    -6.4909   -1.14734   1.45199 
 1                    -5.08546  -0.84456   2.52277 
 1                    -5.71665   0.47229   1.47575 
 6                    -2.95251  -3.83598   0.8548 
 1                    -2.79833  -4.46622   1.73985 
 1                    -4.0314   -3.7153    0.67303 
 1                    -2.48395  -4.31553  -0.02068 
 6                    -0.56895  -2.37686  -3.03426 
 1                    -0.78665  -3.17012  -3.76064 
 1                     0.41905  -1.93921  -3.25691 
 1                    -1.33062  -1.58673  -3.11662 
 6                     3.24306  -0.5849    2.74356 
 9                     2.25945  -0.67682   3.67497 
 9                     4.24423   0.16152   3.28351 
 9                     3.73636  -1.83341   2.5374 
 6                     3.5269   -0.10978  -2.26066 
 9                     3.02733  -1.31833  -2.65825 
 9                     4.87271  -0.25513  -2.15796 
 9                     3.27739   0.77637  -3.25477 
 
 ITRead=  0  0  0  0  0  0  0  0  0  0  0  0  0  0  0  0  0  0  0  0
 ITRead=  0  0  0  0  0  0  0  0  0  0  0  0  0  0  0  0  0  0  0  0
 ITRead=  0  0  0  0  0  0  0  0  0  0  0  0  0  0  0
 MicOpt= -1 -1 -1 -1 -1 -1 -1 -1 -1 -1 -1 -1 -1 -1 -1 -1 -1 -1 -1 -1
 MicOpt= -1 -1 -1 -1 -1 -1 -1 -1 -1 -1 -1 -1 -1 -1 -1 -1 -1 -1 -1 -1
 MicOpt= -1 -1 -1 -1 -1 -1 -1 -1 -1 -1 -1 -1 -1 -1 -1
 NAtoms=     55 NQM=       55 NQMF=       0 NMMI=      0 NMMIF=      0
                NMic=       0 NMicF=      0.
                    Isotopes and Nuclear Properties:
 (Nuclear quadrupole moments (NQMom) in fm**2, nuclear magnetic moments (NMagM)
  in nuclear magnetons)

  Atom         1           2           3           4           5           6           7           8           9          10
 IAtWgt=          12          12          12          12          12           1           1           1           1           1
 AtmWgt=  12.0000000  12.0000000  12.0000000  12.0000000  12.0000000   1.0078250   1.0078250   1.0078250   1.0078250   1.0078250
 NucSpn=           0           0           0           0           0           1           1           1           1           1
 AtZEff=   0.0000000   0.0000000   0.0000000   0.0000000   0.0000000   0.0000000   0.0000000   0.0000000   0.0000000   0.0000000
 NQMom=    0.0000000   0.0000000   0.0000000   0.0000000   0.0000000   0.0000000   0.0000000   0.0000000   0.0000000   0.0000000
 NMagM=    0.0000000   0.0000000   0.0000000   0.0000000   0.0000000   2.7928460   2.7928460   2.7928460   2.7928460   2.7928460
 AtZNuc=   6.0000000   6.0000000   6.0000000   6.0000000   6.0000000   1.0000000   1.0000000   1.0000000   1.0000000   1.0000000

  Atom        11          12          13          14          15          16          17          18          19          20
 IAtWgt=          16          16          16          16          16          12           1           1          16          32
 AtmWgt=  15.9949146  15.9949146  15.9949146  15.9949146  15.9949146  12.0000000   1.0078250   1.0078250  15.9949146  31.9720718
 NucSpn=           0           0           0           0           0           0           1           1           0           0
 AtZEff=   0.0000000   0.0000000   0.0000000   0.0000000   0.0000000   0.0000000   0.0000000   0.0000000   0.0000000   0.0000000
 NQMom=    0.0000000   0.0000000   0.0000000   0.0000000   0.0000000   0.0000000   0.0000000   0.0000000   0.0000000   0.0000000
 NMagM=    0.0000000   0.0000000   0.0000000   0.0000000   0.0000000   0.0000000   2.7928460   2.7928460   0.0000000   0.0000000
 AtZNuc=   8.0000000   8.0000000   8.0000000   8.0000000   8.0000000   6.0000000   1.0000000   1.0000000   8.0000000  16.0000000

  Atom        21          22          23          24          25          26          27          28          29          30
 IAtWgt=          16          16          12          12          12          12           1          12           1          12
 AtmWgt=  15.9949146  15.9949146  12.0000000  12.0000000  12.0000000  12.0000000   1.0078250  12.0000000   1.0078250  12.0000000
 NucSpn=           0           0           0           0           0           0           1           0           1           0
 AtZEff=   0.0000000   0.0000000   0.0000000   0.0000000   0.0000000   0.0000000   0.0000000   0.0000000   0.0000000   0.0000000
 NQMom=    0.0000000   0.0000000   0.0000000   0.0000000   0.0000000   0.0000000   0.0000000   0.0000000   0.0000000   0.0000000
 NMagM=    0.0000000   0.0000000   0.0000000   0.0000000   0.0000000   0.0000000   2.7928460   0.0000000   2.7928460   0.0000000
 AtZNuc=   8.0000000   8.0000000   6.0000000   6.0000000   6.0000000   6.0000000   1.0000000   6.0000000   1.0000000   6.0000000

  Atom        31          32          33          34          35          36          37          38          39          40
 IAtWgt=           1          12           1           1           1          12           1           1           1          12
 AtmWgt=   1.0078250  12.0000000   1.0078250   1.0078250   1.0078250  12.0000000   1.0078250   1.0078250   1.0078250  12.0000000
 NucSpn=           1           0           1           1           1           0           1           1           1           0
 AtZEff=   0.0000000   0.0000000   0.0000000   0.0000000   0.0000000   0.0000000   0.0000000   0.0000000   0.0000000   0.0000000
 NQMom=    0.0000000   0.0000000   0.0000000   0.0000000   0.0000000   0.0000000   0.0000000   0.0000000   0.0000000   0.0000000
 NMagM=    2.7928460   0.0000000   2.7928460   2.7928460   2.7928460   0.0000000   2.7928460   2.7928460   2.7928460   0.0000000
 AtZNuc=   1.0000000   6.0000000   1.0000000   1.0000000   1.0000000   6.0000000   1.0000000   1.0000000   1.0000000   6.0000000

  Atom        41          42          43          44          45          46          47          48          49          50
 IAtWgt=           1           1           1          12           1           1           1          12          19          19
 AtmWgt=   1.0078250   1.0078250   1.0078250  12.0000000   1.0078250   1.0078250   1.0078250  12.0000000  18.9984033  18.9984033
 NucSpn=           1           1           1           0           1           1           1           0           1           1
 AtZEff=   0.0000000   0.0000000   0.0000000   0.0000000   0.0000000   0.0000000   0.0000000   0.0000000   0.0000000   0.0000000
 NQMom=    0.0000000   0.0000000   0.0000000   0.0000000   0.0000000   0.0000000   0.0000000   0.0000000   0.0000000   0.0000000
 NMagM=    2.7928460   2.7928460   2.7928460   0.0000000   2.7928460   2.7928460   2.7928460   0.0000000   2.6288670   2.6288670
 AtZNuc=   1.0000000   1.0000000   1.0000000   6.0000000   1.0000000   1.0000000   1.0000000   6.0000000   9.0000000   9.0000000

  Atom        51          52          53          54          55
 IAtWgt=          19          12          19          19          19
 AtmWgt=  18.9984033  12.0000000  18.9984033  18.9984033  18.9984033
 NucSpn=           1           0           1           1           1
 AtZEff=   0.0000000   0.0000000   0.0000000   0.0000000   0.0000000
 NQMom=    0.0000000   0.0000000   0.0000000   0.0000000   0.0000000
 NMagM=    2.6288670   0.0000000   2.6288670   2.6288670   2.6288670
 AtZNuc=   9.0000000   6.0000000   9.0000000   9.0000000   9.0000000
 Leave Link  101 at Sat Jun 15 06:58:55 2019, MaxMem=  6442450944 cpu:              17.0 elap:               0.6
 (Enter /home/ekwan/sw/g16/l103.exe)

 GradGradGradGradGradGradGradGradGradGradGradGradGradGradGradGradGradGrad
 Berny optimization.
 Initialization pass.
                           ----------------------------
                           !    Initial Parameters    !
                           ! (Angstroms and Degrees)  !
 --------------------------                            --------------------------
 ! Name  Definition              Value          Derivative Info.                !
 --------------------------------------------------------------------------------
 ! R1    R(1,2)                  1.5364         estimate D2E/DX2                !
 ! R2    R(1,5)                  1.534          estimate D2E/DX2                !
 ! R3    R(1,8)                  1.1021         estimate D2E/DX2                !
 ! R4    R(1,14)                 1.4265         estimate D2E/DX2                !
 ! R5    R(2,3)                  1.545          estimate D2E/DX2                !
 ! R6    R(2,7)                  1.1066         estimate D2E/DX2                !
 ! R7    R(2,13)                 1.4157         estimate D2E/DX2                !
 ! R8    R(3,6)                  1.094          estimate D2E/DX2                !
 ! R9    R(3,11)                 1.3917         estimate D2E/DX2                !
 ! R10   R(3,12)                 1.476          estimate D2E/DX2                !
 ! R11   R(4,5)                  1.5356         estimate D2E/DX2                !
 ! R12   R(4,9)                  1.1019         estimate D2E/DX2                !
 ! R13   R(4,11)                 1.4562         estimate D2E/DX2                !
 ! R14   R(4,16)                 1.5316         estimate D2E/DX2                !
 ! R15   R(5,10)                 1.1003         estimate D2E/DX2                !
 ! R16   R(5,15)                 1.4275         estimate D2E/DX2                !
 ! R17   R(12,20)                1.6527         estimate D2E/DX2                !
 ! R18   R(13,32)                1.4306         estimate D2E/DX2                !
 ! R19   R(14,36)                1.4292         estimate D2E/DX2                !
 ! R20   R(15,40)                1.4303         estimate D2E/DX2                !
 ! R21   R(16,17)                1.0971         estimate D2E/DX2                !
 ! R22   R(16,18)                1.1021         estimate D2E/DX2                !
 ! R23   R(16,19)                1.4221         estimate D2E/DX2                !
 ! R24   R(19,44)                1.4306         estimate D2E/DX2                !
 ! R25   R(20,21)                1.4693         estimate D2E/DX2                !
 ! R26   R(20,22)                1.4741         estimate D2E/DX2                !
 ! R27   R(20,23)                1.7975         estimate D2E/DX2                !
 ! R28   R(23,24)                1.3973         estimate D2E/DX2                !
 ! R29   R(23,25)                1.3976         estimate D2E/DX2                !
 ! R30   R(24,26)                1.4015         estimate D2E/DX2                !
 ! R31   R(24,27)                1.0872         estimate D2E/DX2                !
 ! R32   R(25,28)                1.3988         estimate D2E/DX2                !
 ! R33   R(25,29)                1.0859         estimate D2E/DX2                !
 ! R34   R(26,30)                1.4001         estimate D2E/DX2                !
 ! R35   R(26,48)                1.5145         estimate D2E/DX2                !
 ! R36   R(28,30)                1.4023         estimate D2E/DX2                !
 ! R37   R(28,52)                1.5132         estimate D2E/DX2                !
 ! R38   R(30,31)                1.0873         estimate D2E/DX2                !
 ! R39   R(32,33)                1.1024         estimate D2E/DX2                !
 ! R40   R(32,34)                1.1036         estimate D2E/DX2                !
 ! R41   R(32,35)                1.096          estimate D2E/DX2                !
 ! R42   R(36,37)                1.0974         estimate D2E/DX2                !
 ! R43   R(36,38)                1.1042         estimate D2E/DX2                !
 ! R44   R(36,39)                1.0998         estimate D2E/DX2                !
 ! R45   R(40,41)                1.0974         estimate D2E/DX2                !
 ! R46   R(40,42)                1.1007         estimate D2E/DX2                !
 ! R47   R(40,43)                1.1027         estimate D2E/DX2                !
 ! R48   R(44,45)                1.0974         estimate D2E/DX2                !
 ! R49   R(44,46)                1.1033         estimate D2E/DX2                !
 ! R50   R(44,47)                1.1006         estimate D2E/DX2                !
 ! R51   R(48,49)                1.3577         estimate D2E/DX2                !
 ! R52   R(48,50)                1.3605         estimate D2E/DX2                !
 ! R53   R(48,51)                1.3582         estimate D2E/DX2                !
 ! R54   R(52,53)                1.3668         estimate D2E/DX2                !
 ! R55   R(52,54)                1.3575         estimate D2E/DX2                !
 ! R56   R(52,55)                1.3549         estimate D2E/DX2                !
 ! A1    A(2,1,5)              110.4493         estimate D2E/DX2                !
 ! A2    A(2,1,8)              109.4077         estimate D2E/DX2                !
 ! A3    A(2,1,14)             110.4725         estimate D2E/DX2                !
 ! A4    A(5,1,8)              108.5351         estimate D2E/DX2                !
 ! A5    A(5,1,14)             107.434          estimate D2E/DX2                !
 ! A6    A(8,1,14)             110.5064         estimate D2E/DX2                !
 ! A7    A(1,2,3)              111.2131         estimate D2E/DX2                !
 ! A8    A(1,2,7)              107.9276         estimate D2E/DX2                !
 ! A9    A(1,2,13)             108.7663         estimate D2E/DX2                !
 ! A10   A(3,2,7)              105.478          estimate D2E/DX2                !
 ! A11   A(3,2,13)             113.0089         estimate D2E/DX2                !
 ! A12   A(7,2,13)             110.3056         estimate D2E/DX2                !
 ! A13   A(2,3,6)              112.265          estimate D2E/DX2                !
 ! A14   A(2,3,11)             112.9963         estimate D2E/DX2                !
 ! A15   A(2,3,12)             105.6452         estimate D2E/DX2                !
 ! A16   A(6,3,11)             106.1959         estimate D2E/DX2                !
 ! A17   A(6,3,12)             107.9623         estimate D2E/DX2                !
 ! A18   A(11,3,12)            111.7636         estimate D2E/DX2                !
 ! A19   A(5,4,9)              109.0042         estimate D2E/DX2                !
 ! A20   A(5,4,11)             110.8497         estimate D2E/DX2                !
 ! A21   A(5,4,16)             112.6645         estimate D2E/DX2                !
 ! A22   A(9,4,11)             108.4523         estimate D2E/DX2                !
 ! A23   A(9,4,16)             107.6262         estimate D2E/DX2                !
 ! A24   A(11,4,16)            108.1118         estimate D2E/DX2                !
 ! A25   A(1,5,4)              111.9709         estimate D2E/DX2                !
 ! A26   A(1,5,10)             108.6852         estimate D2E/DX2                !
 ! A27   A(1,5,15)             109.7972         estimate D2E/DX2                !
 ! A28   A(4,5,10)             108.4754         estimate D2E/DX2                !
 ! A29   A(4,5,15)             107.1589         estimate D2E/DX2                !
 ! A30   A(10,5,15)            110.7523         estimate D2E/DX2                !
 ! A31   A(3,11,4)             115.018          estimate D2E/DX2                !
 ! A32   A(3,12,20)            117.7498         estimate D2E/DX2                !
 ! A33   A(2,13,32)            114.1969         estimate D2E/DX2                !
 ! A34   A(1,14,36)            114.2141         estimate D2E/DX2                !
 ! A35   A(5,15,40)            113.649          estimate D2E/DX2                !
 ! A36   A(4,16,17)            107.0687         estimate D2E/DX2                !
 ! A37   A(4,16,18)            109.0158         estimate D2E/DX2                !
 ! A38   A(4,16,19)            115.3178         estimate D2E/DX2                !
 ! A39   A(17,16,18)           108.6601         estimate D2E/DX2                !
 ! A40   A(17,16,19)           105.7759         estimate D2E/DX2                !
 ! A41   A(18,16,19)           110.7221         estimate D2E/DX2                !
 ! A42   A(16,19,44)           114.2615         estimate D2E/DX2                !
 ! A43   A(12,20,21)           103.8615         estimate D2E/DX2                !
 ! A44   A(12,20,22)           109.3212         estimate D2E/DX2                !
 ! A45   A(12,20,23)           103.0545         estimate D2E/DX2                !
 ! A46   A(21,20,22)           121.3688         estimate D2E/DX2                !
 ! A47   A(21,20,23)           108.9333         estimate D2E/DX2                !
 ! A48   A(22,20,23)           108.7332         estimate D2E/DX2                !
 ! A49   A(20,23,24)           118.6156         estimate D2E/DX2                !
 ! A50   A(20,23,25)           118.9646         estimate D2E/DX2                !
 ! A51   A(24,23,25)           122.3703         estimate D2E/DX2                !
 ! A52   A(23,24,26)           118.3766         estimate D2E/DX2                !
 ! A53   A(23,24,27)           120.628          estimate D2E/DX2                !
 ! A54   A(26,24,27)           120.9949         estimate D2E/DX2                !
 ! A55   A(23,25,28)           118.3074         estimate D2E/DX2                !
 ! A56   A(23,25,29)           120.5224         estimate D2E/DX2                !
 ! A57   A(28,25,29)           121.1696         estimate D2E/DX2                !
 ! A58   A(24,26,30)           120.4534         estimate D2E/DX2                !
 ! A59   A(24,26,48)           119.6488         estimate D2E/DX2                !
 ! A60   A(30,26,48)           119.849          estimate D2E/DX2                !
 ! A61   A(25,28,30)           120.5908         estimate D2E/DX2                !
 ! A62   A(25,28,52)           120.2246         estimate D2E/DX2                !
 ! A63   A(30,28,52)           119.072          estimate D2E/DX2                !
 ! A64   A(26,30,28)           119.8988         estimate D2E/DX2                !
 ! A65   A(26,30,31)           120.0417         estimate D2E/DX2                !
 ! A66   A(28,30,31)           120.0585         estimate D2E/DX2                !
 ! A67   A(13,32,33)           112.0188         estimate D2E/DX2                !
 ! A68   A(13,32,34)           111.0704         estimate D2E/DX2                !
 ! A69   A(13,32,35)           106.2784         estimate D2E/DX2                !
 ! A70   A(33,32,34)           109.1617         estimate D2E/DX2                !
 ! A71   A(33,32,35)           108.8149         estimate D2E/DX2                !
 ! A72   A(34,32,35)           109.4152         estimate D2E/DX2                !
 ! A73   A(14,36,37)           106.2261         estimate D2E/DX2                !
 ! A74   A(14,36,38)           111.0708         estimate D2E/DX2                !
 ! A75   A(14,36,39)           111.6223         estimate D2E/DX2                !
 ! A76   A(37,36,38)           109.0259         estimate D2E/DX2                !
 ! A77   A(37,36,39)           109.5912         estimate D2E/DX2                !
 ! A78   A(38,36,39)           109.2325         estimate D2E/DX2                !
 ! A79   A(15,40,41)           106.3074         estimate D2E/DX2                !
 ! A80   A(15,40,42)           111.1465         estimate D2E/DX2                !
 ! A81   A(15,40,43)           111.0442         estimate D2E/DX2                !
 ! A82   A(41,40,42)           109.5032         estimate D2E/DX2                !
 ! A83   A(41,40,43)           109.3205         estimate D2E/DX2                !
 ! A84   A(42,40,43)           109.454          estimate D2E/DX2                !
 ! A85   A(19,44,45)           106.3461         estimate D2E/DX2                !
 ! A86   A(19,44,46)           110.9846         estimate D2E/DX2                !
 ! A87   A(19,44,47)           112.0874         estimate D2E/DX2                !
 ! A88   A(45,44,46)           109.318          estimate D2E/DX2                !
 ! A89   A(45,44,47)           109.3983         estimate D2E/DX2                !
 ! A90   A(46,44,47)           108.6546         estimate D2E/DX2                !
 ! A91   A(26,48,49)           111.6114         estimate D2E/DX2                !
 ! A92   A(26,48,50)           111.0293         estimate D2E/DX2                !
 ! A93   A(26,48,51)           111.5883         estimate D2E/DX2                !
 ! A94   A(49,48,50)           107.3366         estimate D2E/DX2                !
 ! A95   A(49,48,51)           107.7594         estimate D2E/DX2                !
 ! A96   A(50,48,51)           107.2958         estimate D2E/DX2                !
 ! A97   A(28,52,53)           110.7192         estimate D2E/DX2                !
 ! A98   A(28,52,54)           111.5494         estimate D2E/DX2                !
 ! A99   A(28,52,55)           112.2245         estimate D2E/DX2                !
 ! A100  A(53,52,54)           106.8384         estimate D2E/DX2                !
 ! A101  A(53,52,55)           107.3114         estimate D2E/DX2                !
 ! A102  A(54,52,55)           107.9449         estimate D2E/DX2                !
 ! D1    D(5,1,2,3)            -49.1999         estimate D2E/DX2                !
 ! D2    D(5,1,2,7)             66.0423         estimate D2E/DX2                !
 ! D3    D(5,1,2,13)          -174.2787         estimate D2E/DX2                !
 ! D4    D(8,1,2,3)             70.2111         estimate D2E/DX2                !
 ! D5    D(8,1,2,7)           -174.5467         estimate D2E/DX2                !
 ! D6    D(8,1,2,13)           -54.8678         estimate D2E/DX2                !
 ! D7    D(14,1,2,3)          -167.9195         estimate D2E/DX2                !
 ! D8    D(14,1,2,7)           -52.6773         estimate D2E/DX2                !
 ! D9    D(14,1,2,13)           67.0017         estimate D2E/DX2                !
 ! D10   D(2,1,5,4)             50.7305         estimate D2E/DX2                !
 ! D11   D(2,1,5,10)           -69.0822         estimate D2E/DX2                !
 ! D12   D(2,1,5,15)           169.6339         estimate D2E/DX2                !
 ! D13   D(8,1,5,4)            -69.207          estimate D2E/DX2                !
 ! D14   D(8,1,5,10)           170.9803         estimate D2E/DX2                !
 ! D15   D(8,1,5,15)            49.6965         estimate D2E/DX2                !
 ! D16   D(14,1,5,4)           171.2845         estimate D2E/DX2                !
 ! D17   D(14,1,5,10)           51.4717         estimate D2E/DX2                !
 ! D18   D(14,1,5,15)          -69.8121         estimate D2E/DX2                !
 ! D19   D(2,1,14,36)          -99.3567         estimate D2E/DX2                !
 ! D20   D(5,1,14,36)          140.104          estimate D2E/DX2                !
 ! D21   D(8,1,14,36)           21.8628         estimate D2E/DX2                !
 ! D22   D(1,2,3,6)            172.3072         estimate D2E/DX2                !
 ! D23   D(1,2,3,11)            52.2298         estimate D2E/DX2                !
 ! D24   D(1,2,3,12)           -70.2593         estimate D2E/DX2                !
 ! D25   D(7,2,3,6)             55.5576         estimate D2E/DX2                !
 ! D26   D(7,2,3,11)           -64.5198         estimate D2E/DX2                !
 ! D27   D(7,2,3,12)           172.991          estimate D2E/DX2                !
 ! D28   D(13,2,3,6)           -65.0265         estimate D2E/DX2                !
 ! D29   D(13,2,3,11)          174.8961         estimate D2E/DX2                !
 ! D30   D(13,2,3,12)           52.4069         estimate D2E/DX2                !
 ! D31   D(1,2,13,32)         -163.722          estimate D2E/DX2                !
 ! D32   D(3,2,13,32)           72.2588         estimate D2E/DX2                !
 ! D33   D(7,2,13,32)          -45.5343         estimate D2E/DX2                !
 ! D34   D(2,3,11,4)           -56.3669         estimate D2E/DX2                !
 ! D35   D(6,3,11,4)          -179.8628         estimate D2E/DX2                !
 ! D36   D(12,3,11,4)           62.6377         estimate D2E/DX2                !
 ! D37   D(2,3,12,20)         -160.2754         estimate D2E/DX2                !
 ! D38   D(6,3,12,20)          -39.9824         estimate D2E/DX2                !
 ! D39   D(11,3,12,20)          76.4503         estimate D2E/DX2                !
 ! D40   D(9,4,5,1)             66.5267         estimate D2E/DX2                !
 ! D41   D(9,4,5,10)          -173.5377         estimate D2E/DX2                !
 ! D42   D(9,4,5,15)           -53.924          estimate D2E/DX2                !
 ! D43   D(11,4,5,1)           -52.7738         estimate D2E/DX2                !
 ! D44   D(11,4,5,10)           67.1618         estimate D2E/DX2                !
 ! D45   D(11,4,5,15)         -173.2245         estimate D2E/DX2                !
 ! D46   D(16,4,5,1)          -174.0747         estimate D2E/DX2                !
 ! D47   D(16,4,5,10)          -54.1392         estimate D2E/DX2                !
 ! D48   D(16,4,5,15)           65.4746         estimate D2E/DX2                !
 ! D49   D(5,4,11,3)            56.352          estimate D2E/DX2                !
 ! D50   D(9,4,11,3)           -63.2796         estimate D2E/DX2                !
 ! D51   D(16,4,11,3)         -179.7027         estimate D2E/DX2                !
 ! D52   D(5,4,16,17)          -71.1137         estimate D2E/DX2                !
 ! D53   D(5,4,16,18)          171.51           estimate D2E/DX2                !
 ! D54   D(5,4,16,19)           46.2655         estimate D2E/DX2                !
 ! D55   D(9,4,16,17)           49.0814         estimate D2E/DX2                !
 ! D56   D(9,4,16,18)          -68.2949         estimate D2E/DX2                !
 ! D57   D(9,4,16,19)          166.4606         estimate D2E/DX2                !
 ! D58   D(11,4,16,17)         166.0396         estimate D2E/DX2                !
 ! D59   D(11,4,16,18)          48.6634         estimate D2E/DX2                !
 ! D60   D(11,4,16,19)         -76.5812         estimate D2E/DX2                !
 ! D61   D(1,5,15,40)          109.0795         estimate D2E/DX2                !
 ! D62   D(4,5,15,40)         -129.0969         estimate D2E/DX2                !
 ! D63   D(10,5,15,40)         -10.9544         estimate D2E/DX2                !
 ! D64   D(3,12,20,21)         168.4591         estimate D2E/DX2                !
 ! D65   D(3,12,20,22)          37.5641         estimate D2E/DX2                !
 ! D66   D(3,12,20,23)         -77.945          estimate D2E/DX2                !
 ! D67   D(2,13,32,33)         -70.7741         estimate D2E/DX2                !
 ! D68   D(2,13,32,34)          51.5859         estimate D2E/DX2                !
 ! D69   D(2,13,32,35)         170.5075         estimate D2E/DX2                !
 ! D70   D(1,14,36,37)        -177.9736         estimate D2E/DX2                !
 ! D71   D(1,14,36,38)         -59.551          estimate D2E/DX2                !
 ! D72   D(1,14,36,39)          62.6197         estimate D2E/DX2                !
 ! D73   D(5,15,40,41)         179.1575         estimate D2E/DX2                !
 ! D74   D(5,15,40,42)         -61.7558         estimate D2E/DX2                !
 ! D75   D(5,15,40,43)          60.3468         estimate D2E/DX2                !
 ! D76   D(4,16,19,44)          77.8713         estimate D2E/DX2                !
 ! D77   D(17,16,19,44)       -164.0249         estimate D2E/DX2                !
 ! D78   D(18,16,19,44)        -46.4859         estimate D2E/DX2                !
 ! D79   D(16,19,44,45)        168.3529         estimate D2E/DX2                !
 ! D80   D(16,19,44,46)         49.5545         estimate D2E/DX2                !
 ! D81   D(16,19,44,47)        -72.1383         estimate D2E/DX2                !
 ! D82   D(12,20,23,24)        -78.3388         estimate D2E/DX2                !
 ! D83   D(12,20,23,25)         99.1624         estimate D2E/DX2                !
 ! D84   D(21,20,23,24)         31.5098         estimate D2E/DX2                !
 ! D85   D(21,20,23,25)       -150.989          estimate D2E/DX2                !
 ! D86   D(22,20,23,24)        165.7311         estimate D2E/DX2                !
 ! D87   D(22,20,23,25)        -16.7677         estimate D2E/DX2                !
 ! D88   D(20,23,24,26)        177.5773         estimate D2E/DX2                !
 ! D89   D(20,23,24,27)         -2.1724         estimate D2E/DX2                !
 ! D90   D(25,23,24,26)          0.1659         estimate D2E/DX2                !
 ! D91   D(25,23,24,27)       -179.5838         estimate D2E/DX2                !
 ! D92   D(20,23,25,28)       -177.949          estimate D2E/DX2                !
 ! D93   D(20,23,25,29)          1.7811         estimate D2E/DX2                !
 ! D94   D(24,23,25,28)         -0.5463         estimate D2E/DX2                !
 ! D95   D(24,23,25,29)        179.1838         estimate D2E/DX2                !
 ! D96   D(23,24,26,30)          0.2084         estimate D2E/DX2                !
 ! D97   D(23,24,26,48)        177.6627         estimate D2E/DX2                !
 ! D98   D(27,24,26,30)        179.9572         estimate D2E/DX2                !
 ! D99   D(27,24,26,48)         -2.5885         estimate D2E/DX2                !
 ! D100  D(23,25,28,30)          0.5582         estimate D2E/DX2                !
 ! D101  D(23,25,28,52)        176.6636         estimate D2E/DX2                !
 ! D102  D(29,25,28,30)       -179.1701         estimate D2E/DX2                !
 ! D103  D(29,25,28,52)         -3.0647         estimate D2E/DX2                !
 ! D104  D(24,26,30,28)         -0.1901         estimate D2E/DX2                !
 ! D105  D(24,26,30,31)       -179.8383         estimate D2E/DX2                !
 ! D106  D(48,26,30,28)       -177.6392         estimate D2E/DX2                !
 ! D107  D(48,26,30,31)          2.7125         estimate D2E/DX2                !
 ! D108  D(24,26,48,49)         30.3818         estimate D2E/DX2                !
 ! D109  D(24,26,48,50)        -89.3335         estimate D2E/DX2                !
 ! D110  D(24,26,48,51)        151.0184         estimate D2E/DX2                !
 ! D111  D(30,26,48,49)       -152.1484         estimate D2E/DX2                !
 ! D112  D(30,26,48,50)         88.1363         estimate D2E/DX2                !
 ! D113  D(30,26,48,51)        -31.5118         estimate D2E/DX2                !
 ! D114  D(25,28,30,26)         -0.2025         estimate D2E/DX2                !
 ! D115  D(25,28,30,31)        179.4457         estimate D2E/DX2                !
 ! D116  D(52,28,30,26)       -176.3524         estimate D2E/DX2                !
 ! D117  D(52,28,30,31)          3.2958         estimate D2E/DX2                !
 ! D118  D(25,28,52,53)       -100.1137         estimate D2E/DX2                !
 ! D119  D(25,28,52,54)        141.0471         estimate D2E/DX2                !
 ! D120  D(25,28,52,55)         19.7688         estimate D2E/DX2                !
 ! D121  D(30,28,52,53)         76.0506         estimate D2E/DX2                !
 ! D122  D(30,28,52,54)        -42.7886         estimate D2E/DX2                !
 ! D123  D(30,28,52,55)       -164.0669         estimate D2E/DX2                !
 --------------------------------------------------------------------------------
 Trust Radius=3.00D-01 FncErr=1.00D-07 GrdErr=1.00D-06 EigMax=2.50D+02 EigMin=1.00D-04
 Number of steps in this run=    291 maximum allowed number of steps=    330.
 GradGradGradGradGradGradGradGradGradGradGradGradGradGradGradGradGradGrad

 Leave Link  103 at Sat Jun 15 06:58:55 2019, MaxMem=  6442450944 cpu:               1.4 elap:               0.1
 (Enter /home/ekwan/sw/g16/l202.exe)
 Stoichiometry    C18H22F6O8S
 Framework group  C1[X(C18H22F6O8S)]
 Deg. of freedom   159
 Full point group                 C1      NOp   1
 Largest Abelian subgroup         C1      NOp   1
 Largest concise Abelian subgroup C1      NOp   1
                         Standard orientation:                         
 ---------------------------------------------------------------------
 Center     Atomic      Atomic             Coordinates (Angstroms)
 Number     Number       Type             X           Y           Z
 ---------------------------------------------------------------------
      1          6           0       -3.402340   -0.514847    0.456835
      2          6           0       -3.321679    0.634486   -0.559525
      3          6           0       -1.856787    1.055384   -0.812369
      4          6           0       -1.010202   -1.102368   -0.180852
      5          6           0       -2.426930   -1.636078    0.076499
      6          1           0       -1.768105    1.777376   -1.629452
      7          1           0       -3.692264    0.256488   -1.531295
      8          1           0       -3.131442   -0.139075    1.456860
      9          1           0       -0.594231   -0.718300    0.764475
     10          1           0       -2.788850   -2.121583   -0.842158
     11          8           0       -1.033901   -0.015227   -1.149345
     12          8           0       -1.412668    1.717125    0.430004
     13          8           0       -4.133560    1.701678   -0.105594
     14          8           0       -4.713692   -1.076138    0.472247
     15          8           0       -2.334233   -2.579079    1.144155
     16          6           0       -0.057896   -2.183116   -0.701408
     17          1           0        0.145250   -2.863366    0.135039
     18          1           0        0.888749   -1.709792   -1.008910
     19          8           0       -0.575462   -2.998084   -1.745619
     20         16           0       -0.096662    2.713112    0.343287
     21          8           0       -0.097875    3.411397    1.636098
     22          8           0       -0.129872    3.455468   -0.929839
     23          6           0        1.282552    1.561045    0.303975
     24          6           0        1.695217    0.970063    1.501059
     25          6           0        1.868358    1.248346   -0.925751
     26          6           0        2.737074    0.033757    1.457149
     27          1           0        1.214874    1.229444    2.441216
     28          6           0        2.912030    0.317223   -0.945650
     29          1           0        1.515079    1.716191   -1.839756
     30          6           0        3.347118   -0.292530    0.239861
     31          1           0        4.153130   -1.021858    0.213165
     32          6           0       -4.441607    2.672460   -1.110207
     33          1           0       -3.561341    3.276512   -1.384947
     34          1           0       -4.847444    2.190634   -2.016367
     35          1           0       -5.201825    3.332332   -0.676906
     36          6           0       -5.537942   -0.610800    1.543083
     37          1           0       -6.490904   -1.147342    1.451991
     38          1           0       -5.085460   -0.844564    2.522773
     39          1           0       -5.716646    0.472289    1.475752
     40          6           0       -2.952512   -3.835982    0.854802
     41          1           0       -2.798330   -4.466224    1.739848
     42          1           0       -4.031401   -3.715302    0.673027
     43          1           0       -2.483954   -4.315526   -0.020679
     44          6           0       -0.568950   -2.376858   -3.034256
     45          1           0       -0.786650   -3.170116   -3.760640
     46          1           0        0.419046   -1.939206   -3.256906
     47          1           0       -1.330623   -1.586727   -3.116616
     48          6           0        3.243064   -0.584904    2.743559
     49          9           0        2.259450   -0.676820    3.674969
     50          9           0        4.244227    0.161524    3.283509
     51          9           0        3.736361   -1.833412    2.537404
     52          6           0        3.526897   -0.109782   -2.260664
     53          9           0        3.027335   -1.318326   -2.658246
     54          9           0        4.872714   -0.255132   -2.157958
     55          9           0        3.277386    0.776365   -3.254767
 ---------------------------------------------------------------------
 Rotational constants (GHZ):           0.1489951           0.0841202           0.0828511
 Leave Link  202 at Sat Jun 15 06:58:56 2019, MaxMem=  6442450944 cpu:               4.3 elap:               0.2
 (Enter /home/ekwan/sw/g16/l301.exe)
 Standard basis: 6-31G(d) (6D, 7F)
 Centers:      12     22     21
 SP 1 1.00
     Exponent=  8.4500000000D-02 Coefficients=  1.0000000000D+00  1.0000000000D+00
 ****
 Ernie: Thresh=  0.10000D-02 Tol=  0.10000D-05 Strict=F.
 There are   555 symmetry adapted cartesian basis functions of A   symmetry.
 There are   555 symmetry adapted basis functions of A   symmetry.
   555 basis functions,  1048 primitive gaussians,   555 cartesian basis functions
   132 alpha electrons      132 beta electrons
       nuclear repulsion energy      4320.1542523781 Hartrees.
 IExCor= 3630 DFT=T Ex+Corr=B97D3 ExCW=0 ScaHFX=  0.000000
 ScaDFX=  1.000000  1.000000  1.000000  1.000000 ScalE2=  1.000000  1.000000
 IRadAn=      5 IRanWt=     -1 IRanGd=            0 ICorTp=0 IEmpDi=141
 NAtoms=   55 NActive=   55 NUniq=   55 SFac= 1.00D+00 NAtFMM=   60 NAOKFM=F Big=F
 Integral buffers will be    131072 words long.
 Raffenetti 2 integral format.
 Two-electron integral symmetry is turned on.
 R6Disp:  Grimme-D3(BJ) Dispersion energy=       -0.1871792925 Hartrees.
 Nuclear repulsion after empirical dispersion term =     4319.9670730856 Hartrees.
 ------------------------------------------------------------------------------
 Polarizable Continuum Model (PCM)
 =================================
 Model                : PCM.
 Atomic radii         : UFF (Universal Force Field).
 Polarization charges : Total charges.
 Charge compensation  : None.
 Solution method      : On-the-fly selection.
 Cavity type          : Scaled VdW (van der Waals Surface) (Alpha=1.100).
 Cavity algorithm     : GePol (No added spheres)
                        Default sphere list used, NSphG=   55.
                        Lebedev-Laikov grids with approx.  5.0 points / Ang**2.
                        Smoothing algorithm: York/Karplus (Gamma=1.0000).
                        Polarization charges: spherical gaussians, with
                                              point-specific exponents (IZeta= 3).
                        Self-potential: point-specific (ISelfS= 7).
                        Self-field    : sphere-specific E.n sum rule (ISelfD= 2).
 1st derivatives      : Analytical E(r).r(x)/FMM algorithm (CHGder, D1EAlg=3).
                        Cavity 1st derivative terms included.
 Solvent              : TetraHydroFuran, Eps=   7.425700 Eps(inf)=   1.974025
 ------------------------------------------------------------------------------
 GePol: Number of generator spheres                  =      55
 GePol: Total number of spheres                      =      55
 GePol: Number of exposed spheres                    =      55 (100.00%)
 GePol: Number of points                             =    3976
 GePol: Average weight of points                     =       0.13
 GePol: Minimum weight of points                     =   0.30D-10
 GePol: Maximum weight of points                     =    0.20577
 GePol: Number of points with low weight             =     256
 GePol: Fraction of low-weight points (<1% of avg)   =       6.44%
 GePol: Cavity surface area                          =    500.597 Ang**2
 GePol: Cavity volume                                =    581.134 Ang**3
 Leave Link  301 at Sat Jun 15 06:58:56 2019, MaxMem=  6442450944 cpu:               6.2 elap:               0.2
 (Enter /home/ekwan/sw/g16/l302.exe)
 NPDir=0 NMtPBC=     1 NCelOv=     1 NCel=       1 NClECP=     1 NCelD=      1
         NCelK=      1 NCelE2=     1 NClLst=     1 CellRange=     0.0.
 One-electron integrals computed using PRISM.
 One-electron integral symmetry used in STVInt
 NBasis=   555 RedAO= T EigKep=  4.24D-04  NBF=   555
 NBsUse=   555 1.00D-06 EigRej= -1.00D+00 NBFU=   555
 Precomputing XC quadrature grid using
 IXCGrd= 4 IRadAn=           5 IRanWt=          -1 IRanGd=           0 AccXCQ= 0.00D+00.
 Generated NRdTot=       0 NPtTot=           0 NUsed=           0 NTot=          32
 NSgBfM=   544   543   544   544   544 MxSgAt=    55 MxSgA2=    55.
 Leave Link  302 at Sat Jun 15 06:59:04 2019, MaxMem=  6442450944 cpu:             223.4 elap:               7.8
 (Enter /home/ekwan/sw/g16/l303.exe)
 DipDrv:  MaxL=1.
 Leave Link  303 at Sat Jun 15 06:59:04 2019, MaxMem=  6442450944 cpu:               6.8 elap:               0.3
 (Enter /home/ekwan/sw/g16/l401.exe)
 ExpMin= 8.45D-02 ExpMax= 2.19D+04 ExpMxC= 3.30D+03 IAcc=3 IRadAn=         5 AccDes= 0.00D+00
 Harris functional with IExCor= 3630 and IRadAn=       5 diagonalized for initial guess.
 HarFok:  IExCor= 3630 AccDes= 0.00D+00 IRadAn=         5 IDoV= 1 UseB2=F ITyADJ=14
 ICtDFT=  3500011 ScaDFX=  1.000000  1.000000  1.000000  1.000000
 FoFCou: FMM=F IPFlag=           0 FMFlag=      100000 FMFlg1=           0
         NFxFlg=           0 DoJE=T BraDBF=F KetDBF=T FulRan=T
         wScrn=  0.000000 ICntrl=       500 IOpCl=  0 I1Cent=   200000004 NGrid=           0
         NMat0=    1 NMatS0=      1 NMatT0=    0 NMatD0=    1 NMtDS0=    0 NMtDT0=    0
 Petite list used in FoFCou.
 Harris En= -2297.25988456972    
 JPrj=0 DoOrth=F DoCkMO=F.
 Leave Link  401 at Sat Jun 15 06:59:10 2019, MaxMem=  6442450944 cpu:             197.7 elap:               6.3
 (Enter /home/ekwan/sw/g16/l502.exe)
 Integral symmetry usage will be decided dynamically.
 Closed shell SCF:
 Using DIIS extrapolation, IDIIS=  1040.
 NGot=  6442450944 LenX=  6441811192 LenY=  6441502612
 Requested convergence on RMS density matrix=1.00D-08 within 128 cycles.
 Requested convergence on MAX density matrix=1.00D-06.
 Requested convergence on             energy=1.00D-06.
 No special actions if energy rises.
 Fock matrices will be formed incrementally for  20 cycles.

 Cycle   1  Pass 1  IDiag  1:
 FoFJK:  IHMeth= 1 ICntrl=     500 DoSepK=F KAlg= 0 I1Cent=           0 FoldK=F
 IRaf= 710000000 NMat=       1 IRICut=       1 DoRegI=T DoRafI=F ISym2E= 0 IDoP0=0 IntGTp=1.
 FoFCou: FMM=F IPFlag=           0 FMFlag=      100000 FMFlg1=           0
         NFxFlg=           0 DoJE=T BraDBF=F KetDBF=F FulRan=T
         wScrn=  0.000000 ICntrl=       500 IOpCl=  0 I1Cent=           0 NGrid=           0
         NMat0=    1 NMatS0=      1 NMatT0=    0 NMatD0=    1 NMtDS0=    0 NMtDT0=    0
 Symmetry not used in FoFCou.
 Inv3:  Mode=1 IEnd=    47425728.
 Iteration    1 A*A^-1 deviation from unit magnitude is 6.88D-15 for   3970.
 Iteration    1 A*A^-1 deviation from orthogonality  is 2.74D-15 for   3974   2511.
 Iteration    1 A^-1*A deviation from unit magnitude is 6.88D-15 for   3970.
 Iteration    1 A^-1*A deviation from orthogonality  is 1.64D-15 for   3523    603.
 E= -2296.29740288180    
 DIIS: error= 3.24D-02 at cycle   1 NSaved=   1.
 NSaved= 1 IEnMin= 1 EnMin= -2296.29740288180     IErMin= 1 ErrMin= 3.24D-02
 ErrMax= 3.24D-02  0.00D+00 EMaxC= 1.00D-01 BMatC= 8.79D-01 BMatP= 8.79D-01
 IDIUse=3 WtCom= 6.76D-01 WtEn= 3.24D-01
 Coeff-Com:  0.100D+01
 Coeff-En:   0.100D+01
 Coeff:      0.100D+01
 Gap=     0.071 Goal=   None    Shift=    0.000
 GapD=    0.071 DampG=0.500 DampE=0.500 DampFc=0.2500 IDamp=-1.
 Damping current iteration by 2.50D-01
 RMSDP=5.45D-03 MaxDP=7.14D-01              OVMax= 2.59D-01

 Cycle   2  Pass 1  IDiag  1:
 RMSU=  1.36D-03    CP:  1.00D+00
 E= -2296.54515727056     Delta-E=       -0.247754388758 Rises=F Damp=T
 DIIS: error= 1.10D-02 at cycle   2 NSaved=   2.
 NSaved= 2 IEnMin= 2 EnMin= -2296.54515727056     IErMin= 2 ErrMin= 1.10D-02
 ErrMax= 1.10D-02  0.00D+00 EMaxC= 1.00D-01 BMatC= 1.08D-01 BMatP= 8.79D-01
 IDIUse=3 WtCom= 8.90D-01 WtEn= 1.10D-01
 Coeff-Com: -0.338D+00 0.134D+01
 Coeff-En:   0.875D-02 0.991D+00
 Coeff:     -0.300D+00 0.130D+01
 Gap=     0.127 Goal=   None    Shift=    0.000
 RMSDP=1.29D-03 MaxDP=6.59D-02 DE=-2.48D-01 OVMax= 2.04D-01

 Cycle   3  Pass 1  IDiag  1:
 RMSU=  1.29D-03    CP:  9.97D-01  9.74D-01
 E= -2296.89615169751     Delta-E=       -0.350994426944 Rises=F Damp=F
 DIIS: error= 1.08D-02 at cycle   3 NSaved=   3.
 NSaved= 3 IEnMin= 3 EnMin= -2296.89615169751     IErMin= 3 ErrMin= 1.08D-02
 ErrMax= 1.08D-02  0.00D+00 EMaxC= 1.00D-01 BMatC= 1.51D-01 BMatP= 1.08D-01
 IDIUse=2 WtCom= 0.00D+00 WtEn= 1.00D+00
 Coeff-En:   0.000D+00 0.000D+00 0.100D+01
 Coeff:      0.000D+00 0.000D+00 0.100D+01
 Gap=     0.083 Goal=   None    Shift=    0.000
 RMSDP=3.39D-03 MaxDP=2.40D-01 DE=-3.51D-01 OVMax= 2.97D-01

 Cycle   4  Pass 1  IDiag  1:
 RMSU=  1.45D-03    CP:  1.01D+00  2.31D+00 -9.13D-01
 E= -2295.90735539518     Delta-E=        0.988796302329 Rises=F Damp=F
 DIIS: error= 3.48D-02 at cycle   4 NSaved=   4.
 NSaved= 4 IEnMin= 3 EnMin= -2296.89615169751     IErMin= 3 ErrMin= 1.08D-02
 ErrMax= 3.48D-02  0.00D+00 EMaxC= 1.00D-01 BMatC= 1.35D+00 BMatP= 1.08D-01
 IDIUse=2 WtCom= 0.00D+00 WtEn= 1.00D+00
 Coeff-En:   0.000D+00 0.000D+00 0.835D+00 0.165D+00
 Coeff:      0.000D+00 0.000D+00 0.835D+00 0.165D+00
 Gap=     0.141 Goal=   None    Shift=    0.000
 RMSDP=2.09D-03 MaxDP=1.63D-01 DE= 9.89D-01 OVMax= 2.01D-01

 Cycle   5  Pass 1  IDiag  1:
 RMSU=  4.48D-04    CP:  1.00D+00  1.36D+00  8.38D-02  3.76D-01
 E= -2296.93165405499     Delta-E=       -1.024298659812 Rises=F Damp=F
 DIIS: error= 9.98D-03 at cycle   5 NSaved=   5.
 NSaved= 5 IEnMin= 5 EnMin= -2296.93165405499     IErMin= 5 ErrMin= 9.98D-03
 ErrMax= 9.98D-03  0.00D+00 EMaxC= 1.00D-01 BMatC= 1.16D-01 BMatP= 1.08D-01
 IDIUse=3 WtCom= 9.00D-01 WtEn= 9.98D-02
 Coeff-Com: -0.522D-01 0.137D+00 0.389D+00-0.609D-01 0.587D+00
 Coeff-En:   0.000D+00 0.000D+00 0.445D+00 0.000D+00 0.555D+00
 Coeff:     -0.470D-01 0.123D+00 0.395D+00-0.548D-01 0.584D+00
 Gap=     0.103 Goal=   None    Shift=    0.000
 RMSDP=6.91D-04 MaxDP=4.36D-02 DE=-1.02D+00 OVMax= 5.84D-02

 Cycle   6  Pass 1  IDiag  1:
 RMSU=  1.26D-04    CP:  1.00D+00  1.17D+00  4.97D-01  1.72D-01  6.54D-01
 E= -2297.02939292655     Delta-E=       -0.097738871559 Rises=F Damp=F
 DIIS: error= 1.43D-03 at cycle   6 NSaved=   6.
 NSaved= 6 IEnMin= 6 EnMin= -2297.02939292655     IErMin= 6 ErrMin= 1.43D-03
 ErrMax= 1.43D-03  0.00D+00 EMaxC= 1.00D-01 BMatC= 1.73D-03 BMatP= 1.08D-01
 IDIUse=3 WtCom= 9.86D-01 WtEn= 1.43D-02
 Coeff-Com: -0.317D-01 0.683D-01 0.234D+00-0.554D-01 0.420D+00 0.364D+00
 Coeff-En:   0.000D+00 0.000D+00 0.000D+00 0.000D+00 0.000D+00 0.100D+01
 Coeff:     -0.312D-01 0.673D-01 0.231D+00-0.546D-01 0.414D+00 0.374D+00
 Gap=     0.103 Goal=   None    Shift=    0.000
 RMSDP=9.17D-05 MaxDP=6.35D-03 DE=-9.77D-02 OVMax= 1.02D-02

 Cycle   7  Pass 1  IDiag  1:
 RMSU=  4.41D-05    CP:  1.00D+00  1.17D+00  4.99D-01  1.73D-01  7.00D-01
                    CP:  3.83D-01
 E= -2297.03064631515     Delta-E=       -0.001253388599 Rises=F Damp=F
 DIIS: error= 4.91D-04 at cycle   7 NSaved=   7.
 NSaved= 7 IEnMin= 7 EnMin= -2297.03064631515     IErMin= 7 ErrMin= 4.91D-04
 ErrMax= 4.91D-04  0.00D+00 EMaxC= 1.00D-01 BMatC= 1.87D-04 BMatP= 1.73D-03
 IDIUse=3 WtCom= 9.95D-01 WtEn= 4.91D-03
 Coeff-Com: -0.118D-01 0.238D-01 0.898D-01-0.251D-01 0.168D+00 0.250D+00
 Coeff-Com:  0.505D+00
 Coeff-En:   0.000D+00 0.000D+00 0.000D+00 0.000D+00 0.000D+00 0.106D+00
 Coeff-En:   0.894D+00
 Coeff:     -0.118D-01 0.237D-01 0.893D-01-0.250D-01 0.167D+00 0.250D+00
 Coeff:      0.507D+00
 Gap=     0.103 Goal=   None    Shift=    0.000
 RMSDP=3.06D-05 MaxDP=2.36D-03 DE=-1.25D-03 OVMax= 3.51D-03

 Cycle   8  Pass 1  IDiag  1:
 RMSU=  1.71D-05    CP:  1.00D+00  1.16D+00  5.02D-01  1.72D-01  6.97D-01
                    CP:  4.85D-01  5.33D-01
 E= -2297.03076793874     Delta-E=       -0.000121623595 Rises=F Damp=F
 DIIS: error= 1.51D-04 at cycle   8 NSaved=   8.
 NSaved= 8 IEnMin= 8 EnMin= -2297.03076793874     IErMin= 8 ErrMin= 1.51D-04
 ErrMax= 1.51D-04  0.00D+00 EMaxC= 1.00D-01 BMatC= 3.19D-05 BMatP= 1.87D-04
 IDIUse=3 WtCom= 9.98D-01 WtEn= 1.51D-03
 Coeff-Com: -0.132D-02 0.236D-02 0.229D-01-0.613D-02 0.386D-01 0.107D+00
 Coeff-Com:  0.352D+00 0.485D+00
 Coeff-En:   0.000D+00 0.000D+00 0.000D+00 0.000D+00 0.000D+00 0.000D+00
 Coeff-En:   0.144D+00 0.856D+00
 Coeff:     -0.132D-02 0.236D-02 0.228D-01-0.612D-02 0.386D-01 0.107D+00
 Coeff:      0.352D+00 0.485D+00
 Gap=     0.103 Goal=   None    Shift=    0.000
 RMSDP=1.16D-05 MaxDP=6.24D-04 DE=-1.22D-04 OVMax= 1.00D-03

 Cycle   9  Pass 1  IDiag  1:
 RMSU=  5.51D-06    CP:  1.00D+00  1.16D+00  5.03D-01  1.72D-01  6.93D-01
                    CP:  4.78D-01  6.27D-01  4.81D-01
 E= -2297.03079271808     Delta-E=       -0.000024779340 Rises=F Damp=F
 DIIS: error= 3.42D-05 at cycle   9 NSaved=   9.
 NSaved= 9 IEnMin= 9 EnMin= -2297.03079271808     IErMin= 9 ErrMin= 3.42D-05
 ErrMax= 3.42D-05  0.00D+00 EMaxC= 1.00D-01 BMatC= 2.63D-06 BMatP= 3.19D-05
 IDIUse=1 WtCom= 1.00D+00 WtEn= 0.00D+00
 Coeff-Com:  0.409D-03-0.969D-03 0.721D-02-0.158D-02 0.970D-02 0.462D-01
 Coeff-Com:  0.179D+00 0.308D+00 0.452D+00
 Coeff:      0.409D-03-0.969D-03 0.721D-02-0.158D-02 0.970D-02 0.462D-01
 Coeff:      0.179D+00 0.308D+00 0.452D+00
 Gap=     0.103 Goal=   None    Shift=    0.000
 RMSDP=3.55D-06 MaxDP=2.12D-04 DE=-2.48D-05 OVMax= 3.07D-04

 Cycle  10  Pass 1  IDiag  1:
 RMSU=  1.76D-06    CP:  1.00D+00  1.16D+00  5.04D-01  1.72D-01  6.92D-01
                    CP:  4.79D-01  6.28D-01  5.34D-01  4.94D-01
 E= -2297.03079473316     Delta-E=       -0.000002015081 Rises=F Damp=F
 DIIS: error= 1.57D-05 at cycle  10 NSaved=  10.
 NSaved=10 IEnMin=10 EnMin= -2297.03079473316     IErMin=10 ErrMin= 1.57D-05
 ErrMax= 1.57D-05  0.00D+00 EMaxC= 1.00D-01 BMatC= 2.82D-07 BMatP= 2.63D-06
 IDIUse=1 WtCom= 1.00D+00 WtEn= 0.00D+00
 Coeff-Com:  0.312D-03-0.571D-03 0.192D-02-0.342D-03 0.144D-02 0.168D-01
 Coeff-Com:  0.723D-01 0.142D+00 0.287D+00 0.479D+00
 Coeff:      0.312D-03-0.571D-03 0.192D-02-0.342D-03 0.144D-02 0.168D-01
 Coeff:      0.723D-01 0.142D+00 0.287D+00 0.479D+00
 Gap=     0.103 Goal=   None    Shift=    0.000
 RMSDP=1.21D-06 MaxDP=8.84D-05 DE=-2.02D-06 OVMax= 1.50D-04

 Cycle  11  Pass 1  IDiag  1:
 RMSU=  7.43D-07    CP:  1.00D+00  1.16D+00  5.04D-01  1.71D-01  6.93D-01
                    CP:  4.79D-01  6.29D-01  5.32D-01  5.45D-01  4.86D-01
 E= -2297.03079493774     Delta-E=       -0.000000204577 Rises=F Damp=F
 DIIS: error= 7.06D-06 at cycle  11 NSaved=  11.
 NSaved=11 IEnMin=11 EnMin= -2297.03079493774     IErMin=11 ErrMin= 7.06D-06
 ErrMax= 7.06D-06  0.00D+00 EMaxC= 1.00D-01 BMatC= 3.70D-08 BMatP= 2.82D-07
 IDIUse=1 WtCom= 1.00D+00 WtEn= 0.00D+00
 Coeff-Com:  0.131D-03-0.205D-03 0.525D-03-0.104D-03 0.401D-04 0.609D-02
 Coeff-Com:  0.273D-01 0.596D-01 0.141D+00 0.328D+00 0.438D+00
 Coeff:      0.131D-03-0.205D-03 0.525D-03-0.104D-03 0.401D-04 0.609D-02
 Coeff:      0.273D-01 0.596D-01 0.141D+00 0.328D+00 0.438D+00
 Gap=     0.103 Goal=   None    Shift=    0.000
 RMSDP=4.29D-07 MaxDP=2.75D-05 DE=-2.05D-07 OVMax= 7.33D-05

 Cycle  12  Pass 1  IDiag  1:
 RMSU=  1.99D-07    CP:  1.00D+00  1.16D+00  5.04D-01  1.71D-01  6.92D-01
                    CP:  4.80D-01  6.30D-01  5.35D-01  5.44D-01  5.38D-01
                    CP:  5.35D-01
 E= -2297.03079497306     Delta-E=       -0.000000035319 Rises=F Damp=F
 DIIS: error= 1.77D-06 at cycle  12 NSaved=  12.
 NSaved=12 IEnMin=12 EnMin= -2297.03079497306     IErMin=12 ErrMin= 1.77D-06
 ErrMax= 1.77D-06  0.00D+00 EMaxC= 1.00D-01 BMatC= 1.78D-09 BMatP= 3.70D-08
 IDIUse=1 WtCom= 1.00D+00 WtEn= 0.00D+00
 Coeff-Com:  0.526D-04-0.787D-04 0.358D-04 0.374D-05-0.251D-03 0.143D-02
 Coeff-Com:  0.676D-02 0.173D-01 0.465D-01 0.133D+00 0.237D+00 0.558D+00
 Coeff:      0.526D-04-0.787D-04 0.358D-04 0.374D-05-0.251D-03 0.143D-02
 Coeff:      0.676D-02 0.173D-01 0.465D-01 0.133D+00 0.237D+00 0.558D+00
 Gap=     0.103 Goal=   None    Shift=    0.000
 RMSDP=1.12D-07 MaxDP=8.77D-06 DE=-3.53D-08 OVMax= 1.66D-05

 Cycle  13  Pass 1  IDiag  1:
 RMSU=  6.52D-08    CP:  1.00D+00  1.16D+00  5.04D-01  1.71D-01  6.92D-01
                    CP:  4.80D-01  6.30D-01  5.35D-01  5.46D-01  5.54D-01
                    CP:  5.71D-01  6.01D-01
 E= -2297.03079497457     Delta-E=       -0.000000001510 Rises=F Damp=F
 DIIS: error= 6.48D-07 at cycle  13 NSaved=  13.
 NSaved=13 IEnMin=13 EnMin= -2297.03079497457     IErMin=13 ErrMin= 6.48D-07
 ErrMax= 6.48D-07  0.00D+00 EMaxC= 1.00D-01 BMatC= 2.87D-10 BMatP= 1.78D-09
 IDIUse=1 WtCom= 1.00D+00 WtEn= 0.00D+00
 Coeff-Com:  0.155D-04-0.198D-04-0.359D-05 0.605D-05-0.108D-03 0.332D-03
 Coeff-Com:  0.148D-02 0.470D-02 0.146D-01 0.494D-01 0.995D-01 0.343D+00
 Coeff-Com:  0.487D+00
 Coeff:      0.155D-04-0.198D-04-0.359D-05 0.605D-05-0.108D-03 0.332D-03
 Coeff:      0.148D-02 0.470D-02 0.146D-01 0.494D-01 0.995D-01 0.343D+00
 Coeff:      0.487D+00
 Gap=     0.103 Goal=   None    Shift=    0.000
 RMSDP=3.72D-08 MaxDP=2.49D-06 DE=-1.51D-09 OVMax= 6.75D-06

 Cycle  14  Pass 1  IDiag  1:
 RMSU=  1.72D-08    CP:  1.00D+00  1.16D+00  5.04D-01  1.71D-01  6.92D-01
                    CP:  4.80D-01  6.30D-01  5.36D-01  5.46D-01  5.54D-01
                    CP:  5.64D-01  6.57D-01  5.46D-01
 E= -2297.03079497481     Delta-E=       -0.000000000245 Rises=F Damp=F
 DIIS: error= 1.30D-07 at cycle  14 NSaved=  14.
 NSaved=14 IEnMin=14 EnMin= -2297.03079497481     IErMin=14 ErrMin= 1.30D-07
 ErrMax= 1.30D-07  0.00D+00 EMaxC= 1.00D-01 BMatC= 1.55D-11 BMatP= 2.87D-10
 IDIUse=1 WtCom= 1.00D+00 WtEn= 0.00D+00
 Coeff-Com:  0.410D-05-0.460D-05-0.160D-05 0.198D-05-0.310D-04 0.750D-04
 Coeff-Com:  0.281D-03 0.117D-02 0.429D-02 0.164D-01 0.348D-01 0.139D+00
 Coeff-Com:  0.259D+00 0.545D+00
 Coeff:      0.410D-05-0.460D-05-0.160D-05 0.198D-05-0.310D-04 0.750D-04
 Coeff:      0.281D-03 0.117D-02 0.429D-02 0.164D-01 0.348D-01 0.139D+00
 Coeff:      0.259D+00 0.545D+00
 Gap=     0.103 Goal=   None    Shift=    0.000
 RMSDP=1.10D-08 MaxDP=8.98D-07 DE=-2.45D-10 OVMax= 2.38D-06

 Cycle  15  Pass 1  IDiag  1:
 RMSU=  7.44D-09    CP:  1.00D+00  1.16D+00  5.04D-01  1.71D-01  6.92D-01
                    CP:  4.80D-01  6.30D-01  5.36D-01  5.46D-01  5.53D-01
                    CP:  5.65D-01  6.62D-01  5.64D-01  5.78D-01
 E= -2297.03079497488     Delta-E=       -0.000000000066 Rises=F Damp=F
 DIIS: error= 8.79D-08 at cycle  15 NSaved=  15.
 NSaved=15 IEnMin=15 EnMin= -2297.03079497488     IErMin=15 ErrMin= 8.79D-08
 ErrMax= 8.79D-08  0.00D+00 EMaxC= 1.00D-01 BMatC= 4.13D-12 BMatP= 1.55D-11
 IDIUse=1 WtCom= 1.00D+00 WtEn= 0.00D+00
 Coeff-Com:  0.114D-05-0.131D-05-0.105D-05 0.653D-06-0.832D-05 0.114D-04
 Coeff-Com:  0.242D-04 0.229D-03 0.115D-02 0.500D-02 0.113D-01 0.503D-01
 Coeff-Com:  0.114D+00 0.374D+00 0.444D+00
 Coeff:      0.114D-05-0.131D-05-0.105D-05 0.653D-06-0.832D-05 0.114D-04
 Coeff:      0.242D-04 0.229D-03 0.115D-02 0.500D-02 0.113D-01 0.503D-01
 Coeff:      0.114D+00 0.374D+00 0.444D+00
 Gap=     0.103 Goal=   None    Shift=    0.000
 RMSDP=4.66D-09 MaxDP=2.73D-07 DE=-6.64D-11 OVMax= 8.95D-07

 Error on total polarization charges =  0.01049
 SCF Done:  E(RB97D3) =  -2297.03079497     A.U. after   15 cycles
            NFock= 15  Conv=0.47D-08     -V/T= 2.0067
 KE= 2.281718363558D+03 PE=-1.404927033106D+04 EE= 5.150554099444D+03
 Leave Link  502 at Sat Jun 15 07:03:34 2019, MaxMem=  6442450944 cpu:            7975.5 elap:             263.0
 (Enter /home/ekwan/sw/g16/l701.exe)
 ... and contract with generalized density number  0.
 Compute integral first derivatives.
 R6Disp: Adding Grimme-D3(BJ) dispersion energy 1st derivatives to the gradient.
 D1PCM: PCM CHGder 1st derivatives, ID1Alg=3 FixD1E=F DoIter=F DoCFld=F I1PDM=0.
 GePol: Maximum number of non-zero 1st derivatives   =     213
 Leave Link  701 at Sat Jun 15 07:03:44 2019, MaxMem=  6442450944 cpu:             303.7 elap:              10.6
 (Enter /home/ekwan/sw/g16/l702.exe)
 L702 exits ... SP integral derivatives will be done elsewhere.
 Leave Link  702 at Sat Jun 15 07:03:44 2019, MaxMem=  6442450944 cpu:               1.6 elap:               0.1
 (Enter /home/ekwan/sw/g16/l703.exe)
 Integral derivatives from FoFJK, PRISM(SPDF).
 Compute integral first derivatives, UseDBF=F ICtDFT=           0.
 Calling FoFJK, ICntrl=      2527 FMM=F ISym2X=0 I1Cent= 0 IOpClX= 0 NMat=1 NMatS=1 NMatT=0.
 FoFJK:  IHMeth= 1 ICntrl=    2527 DoSepK=F KAlg= 0 I1Cent=           0 FoldK=F
 IRaf=         0 NMat=       1 IRICut=       1 DoRegI=T DoRafI=F ISym2E= 0 IDoP0=0 IntGTp=1.
 FoFCou: FMM=F IPFlag=           0 FMFlag=      100000 FMFlg1=         800
         NFxFlg=           0 DoJE=F BraDBF=F KetDBF=F FulRan=T
         wScrn=  0.000000 ICntrl=      2527 IOpCl=  0 I1Cent=           0 NGrid=           0
         NMat0=    1 NMatS0=      1 NMatT0=    0 NMatD0=    1 NMtDS0=    0 NMtDT0=    0
 Symmetry not used in FoFCou.
 Leave Link  703 at Sat Jun 15 07:04:26 2019, MaxMem=  6442450944 cpu:            1260.8 elap:              41.8
 (Enter /home/ekwan/sw/g16/l716.exe)
 Dipole        =-2.95710092D-01-1.17382581D+00-1.03323922D+00
 ***** Axes restored to original set *****
 -------------------------------------------------------------------
 Center     Atomic                   Forces (Hartrees/Bohr)
 Number     Number              X              Y              Z
 -------------------------------------------------------------------
      1        6          -0.000003711   -0.000011310    0.000001300
      2        6          -0.000026390    0.000001811   -0.000000824
      3        6           0.000010003    0.000014037    0.000014463
      4        6          -0.000002190    0.000008337   -0.000012293
      5        6           0.000004415   -0.000000780    0.000000182
      6        1          -0.000009500   -0.000005628   -0.000002397
      7        1          -0.000000718   -0.000001330    0.000002431
      8        1          -0.000002424    0.000002711    0.000000326
      9        1          -0.000000246    0.000001963    0.000002261
     10        1          -0.000000047   -0.000000200   -0.000000164
     11        8           0.000015063   -0.000011396    0.000003488
     12        8          -0.000013582   -0.000008793   -0.000001334
     13        8           0.000015486   -0.000006075   -0.000002798
     14        8           0.000003062    0.000006244   -0.000002869
     15        8          -0.000005276    0.000002870    0.000004620
     16        6           0.000000929   -0.000008222    0.000002973
     17        1           0.000003264    0.000000028    0.000000883
     18        1           0.000002484    0.000002818   -0.000000446
     19        8          -0.000000684    0.000003545    0.000003262
     20       16           0.000004026    0.000011550   -0.000004473
     21        8           0.000000088   -0.000003527   -0.000006357
     22        8          -0.000003317   -0.000003400    0.000004111
     23        6           0.000000298    0.000004501   -0.000006115
     24        6           0.000000755   -0.000009077   -0.000004635
     25        6           0.000006079   -0.000006106    0.000000940
     26        6          -0.000009857    0.000007262    0.000009358
     27        1          -0.000000004    0.000001589   -0.000000796
     28        6           0.000007247   -0.000003013    0.000003042
     29        1          -0.000003433    0.000000312    0.000000002
     30        6           0.000003830    0.000005621   -0.000004471
     31        1           0.000000748    0.000001593    0.000000712
     32        6          -0.000009172    0.000004104   -0.000006097
     33        1           0.000000911   -0.000000727    0.000000351
     34        1           0.000002250   -0.000002405    0.000000551
     35        1          -0.000002164   -0.000002977   -0.000001696
     36        6           0.000005823   -0.000002333   -0.000003153
     37        1           0.000000784   -0.000001110    0.000001417
     38        1          -0.000000633    0.000000155    0.000000923
     39        1          -0.000001967    0.000002287    0.000001057
     40        6           0.000004553   -0.000003185    0.000000295
     41        1           0.000001513   -0.000000386    0.000001390
     42        1          -0.000000481    0.000000458    0.000001558
     43        1          -0.000000241   -0.000000290    0.000001929
     44        6           0.000001382    0.000001231   -0.000003392
     45        1           0.000001138   -0.000001580    0.000001300
     46        1          -0.000001458   -0.000001794    0.000000545
     47        1           0.000000346   -0.000002186    0.000000845
     48        6          -0.000002276    0.000007106   -0.000000483
     49        9           0.000003842    0.000003957   -0.000000627
     50        9           0.000001249    0.000000552   -0.000001441
     51        9           0.000000668   -0.000002094   -0.000002427
     52        6          -0.000001642   -0.000002642    0.000006662
     53        9          -0.000000690    0.000002009    0.000000360
     54        9           0.000000162   -0.000001203   -0.000000577
     55        9          -0.000000292    0.000005120   -0.000003669
 -------------------------------------------------------------------
 Cartesian Forces:  Max     0.000026390 RMS     0.000005112
 Leave Link  716 at Sat Jun 15 07:04:26 2019, MaxMem=  6442450944 cpu:               1.9 elap:               0.1
 (Enter /home/ekwan/sw/g16/l103.exe)

 GradGradGradGradGradGradGradGradGradGradGradGradGradGradGradGradGradGrad
 Berny optimization.
 FormGI is forming the generalized inverse of G from B-inverse, IUseBI=4.
 GSVD:  received Info=                   1 from GESDD.
 Internal  Forces:  Max     0.000018623 RMS     0.000003239
 Search for a local minimum.
 Step number   1 out of a maximum of  291
 All quantities printed in internal units (Hartrees-Bohrs-Radians)
 RMS Force = .32393D-05 SwitMx=.10000D-02 MixMth= 2
 Mixed Optimization -- En-DIIS/RFO-DIIS
 Second derivative matrix not updated -- first step.
 ITU=  0
     Eigenvalues ---    0.00348   0.00403   0.00498   0.00556   0.00575
     Eigenvalues ---    0.00592   0.00686   0.01287   0.01287   0.01289
     Eigenvalues ---    0.01291   0.01305   0.01328   0.01341   0.01399
     Eigenvalues ---    0.01437   0.01485   0.01499   0.01518   0.01922
     Eigenvalues ---    0.02071   0.02076   0.02089   0.02097   0.02113
     Eigenvalues ---    0.02119   0.02817   0.03208   0.04303   0.04472
     Eigenvalues ---    0.04545   0.04748   0.04826   0.05172   0.05204
     Eigenvalues ---    0.05697   0.05976   0.06519   0.06951   0.07003
     Eigenvalues ---    0.07141   0.07771   0.09193   0.09964   0.09984
     Eigenvalues ---    0.10013   0.10055   0.10537   0.10558   0.10580
     Eigenvalues ---    0.10583   0.10625   0.10656   0.10685   0.10742
     Eigenvalues ---    0.10896   0.10973   0.11475   0.11836   0.11858
     Eigenvalues ---    0.14150   0.14909   0.16000   0.16000   0.16000
     Eigenvalues ---    0.16000   0.16000   0.16000   0.16000   0.16000
     Eigenvalues ---    0.16000   0.16000   0.16000   0.16000   0.16000
     Eigenvalues ---    0.16000   0.16000   0.16458   0.16715   0.17498
     Eigenvalues ---    0.18655   0.19702   0.19729   0.20664   0.22157
     Eigenvalues ---    0.23471   0.23482   0.23495   0.24942   0.24974
     Eigenvalues ---    0.24978   0.25000   0.25000   0.25000   0.25000
     Eigenvalues ---    0.25000   0.25000   0.25000   0.25000   0.25000
     Eigenvalues ---    0.25000   0.25000   0.25000   0.26314   0.26670
     Eigenvalues ---    0.28078   0.28348   0.28594   0.29274   0.30906
     Eigenvalues ---    0.31035   0.32963   0.33226   0.33285   0.33321
     Eigenvalues ---    0.33384   0.33421   0.33446   0.33450   0.33473
     Eigenvalues ---    0.33601   0.33620   0.33650   0.33705   0.33970
     Eigenvalues ---    0.33971   0.33971   0.34004   0.34134   0.34358
     Eigenvalues ---    0.35029   0.35123   0.35144   0.35296   0.36238
     Eigenvalues ---    0.40906   0.40907   0.40944   0.41104   0.41352
     Eigenvalues ---    0.41495   0.41700   0.41825   0.42143   0.42244
     Eigenvalues ---    0.43120   0.45161   0.45382   0.45626   0.45788
     Eigenvalues ---    0.45994   0.51591   0.52842   0.53320   0.53406
     Eigenvalues ---    0.53449   0.53992   0.85926   0.87797
 RFO step:  Lambda=-3.21365747D-08 EMin= 3.47581916D-03
 Linear search not attempted -- first point.
 Iteration  1 RMS(Cart)=  0.00062828 RMS(Int)=  0.00000005
 Iteration  2 RMS(Cart)=  0.00000011 RMS(Int)=  0.00000000
 ITry= 1 IFail=0 DXMaxC= 3.31D-03 DCOld= 1.00D+10 DXMaxT= 3.00D-01 DXLimC= 3.00D+00 Rises=F
 Variable       Old X    -DE/DX   Delta X   Delta X   Delta X     New X
                                 (Linear)    (Quad)   (Total)
    R1        2.90334   0.00000   0.00000  -0.00002  -0.00002   2.90332
    R2        2.89889   0.00000   0.00000   0.00001   0.00001   2.89890
    R3        2.08268   0.00000   0.00000   0.00000   0.00000   2.08268
    R4        2.69571  -0.00001   0.00000  -0.00002  -0.00002   2.69569
    R5        2.91961   0.00001   0.00000   0.00002   0.00002   2.91963
    R6        2.09116   0.00000   0.00000  -0.00001  -0.00001   2.09116
    R7        2.67522  -0.00001   0.00000  -0.00002  -0.00002   2.67519
    R8        2.06730   0.00000   0.00000  -0.00001  -0.00001   2.06729
    R9        2.62998   0.00001   0.00000   0.00002   0.00002   2.63000
   R10        2.78927  -0.00001   0.00000  -0.00002  -0.00002   2.78925
   R11        2.90194   0.00001   0.00000   0.00003   0.00003   2.90197
   R12        2.08229   0.00000   0.00000   0.00001   0.00001   2.08230
   R13        2.75175  -0.00001   0.00000  -0.00002  -0.00002   2.75173
   R14        2.89436   0.00000   0.00000   0.00001   0.00001   2.89437
   R15        2.07924   0.00000   0.00000   0.00000   0.00000   2.07924
   R16        2.69757   0.00000   0.00000   0.00001   0.00001   2.69757
   R17        3.12313   0.00001   0.00000   0.00002   0.00002   3.12315
   R18        2.70340   0.00001   0.00000   0.00001   0.00001   2.70342
   R19        2.70080   0.00000   0.00000   0.00000   0.00000   2.70080
   R20        2.70290   0.00000   0.00000   0.00000   0.00000   2.70291
   R21        2.07324   0.00000   0.00000   0.00000   0.00000   2.07324
   R22        2.08276   0.00000   0.00000   0.00001   0.00001   2.08277
   R23        2.68742   0.00000   0.00000   0.00000   0.00000   2.68741
   R24        2.70340   0.00000   0.00000   0.00001   0.00001   2.70341
   R25        2.77665  -0.00001   0.00000  -0.00001  -0.00001   2.77665
   R26        2.78569  -0.00001   0.00000  -0.00001  -0.00001   2.78569
   R27        3.39680   0.00001   0.00000   0.00003   0.00003   3.39683
   R28        2.64059   0.00000   0.00000   0.00001   0.00001   2.64060
   R29        2.64101   0.00000   0.00000   0.00000   0.00000   2.64101
   R30        2.64836   0.00000   0.00000  -0.00001  -0.00001   2.64835
   R31        2.05442   0.00000   0.00000   0.00000   0.00000   2.05442
   R32        2.64335   0.00000   0.00000   0.00000   0.00000   2.64335
   R33        2.05198   0.00000   0.00000   0.00000   0.00000   2.05198
   R34        2.64589   0.00000   0.00000   0.00000   0.00000   2.64589
   R35        2.86193   0.00000   0.00000  -0.00001  -0.00001   2.86192
   R36        2.65002  -0.00001   0.00000  -0.00002  -0.00002   2.65001
   R37        2.85946   0.00000   0.00000  -0.00001  -0.00001   2.85945
   R38        2.05476   0.00000   0.00000   0.00000   0.00000   2.05476
   R39        2.08319   0.00000   0.00000   0.00000   0.00000   2.08319
   R40        2.08555   0.00000   0.00000  -0.00001  -0.00001   2.08554
   R41        2.07105   0.00000   0.00000   0.00000   0.00000   2.07105
   R42        2.07381   0.00000   0.00000   0.00000   0.00000   2.07381
   R43        2.08657   0.00000   0.00000   0.00000   0.00000   2.08657
   R44        2.07831   0.00000   0.00000   0.00001   0.00001   2.07832
   R45        2.07378   0.00000   0.00000   0.00000   0.00000   2.07378
   R46        2.08008   0.00000   0.00000   0.00000   0.00000   2.08008
   R47        2.08383   0.00000   0.00000   0.00000   0.00000   2.08382
   R48        2.07378   0.00000   0.00000   0.00000   0.00000   2.07378
   R49        2.08492   0.00000   0.00000  -0.00001  -0.00001   2.08491
   R50        2.07976   0.00000   0.00000   0.00000   0.00000   2.07976
   R51        2.56576   0.00000   0.00000  -0.00001  -0.00001   2.56576
   R52        2.57102   0.00000   0.00000   0.00000   0.00000   2.57102
   R53        2.56656   0.00000   0.00000   0.00001   0.00001   2.56657
   R54        2.58293   0.00000   0.00000   0.00000   0.00000   2.58292
   R55        2.56537   0.00000   0.00000   0.00000   0.00000   2.56537
   R56        2.56039   0.00001   0.00000   0.00001   0.00001   2.56040
    A1        1.92770   0.00000   0.00000   0.00001   0.00001   1.92771
    A2        1.90952   0.00000   0.00000  -0.00002  -0.00002   1.90951
    A3        1.92811   0.00000   0.00000  -0.00003  -0.00003   1.92808
    A4        1.89429   0.00000   0.00000   0.00002   0.00002   1.89432
    A5        1.87508   0.00001   0.00000   0.00004   0.00004   1.87511
    A6        1.92870   0.00000   0.00000  -0.00002  -0.00002   1.92868
    A7        1.94104   0.00000   0.00000  -0.00003  -0.00003   1.94101
    A8        1.88369   0.00000   0.00000   0.00000   0.00000   1.88369
    A9        1.89833   0.00000   0.00000   0.00002   0.00002   1.89835
   A10        1.84094   0.00000   0.00000   0.00002   0.00002   1.84096
   A11        1.97238   0.00000   0.00000  -0.00002  -0.00002   1.97236
   A12        1.92520   0.00000   0.00000   0.00001   0.00001   1.92520
   A13        1.95939  -0.00001   0.00000  -0.00009  -0.00009   1.95931
   A14        1.97216   0.00000   0.00000   0.00003   0.00003   1.97219
   A15        1.84386   0.00000   0.00000   0.00002   0.00002   1.84387
   A16        1.85347   0.00000   0.00000   0.00001   0.00001   1.85348
   A17        1.88430   0.00001   0.00000   0.00006   0.00006   1.88435
   A18        1.95064   0.00000   0.00000  -0.00002  -0.00002   1.95062
   A19        1.90248   0.00000   0.00000  -0.00001  -0.00001   1.90247
   A20        1.93469   0.00000   0.00000   0.00002   0.00002   1.93472
   A21        1.96637   0.00000   0.00000   0.00001   0.00001   1.96638
   A22        1.89285   0.00000   0.00000  -0.00002  -0.00002   1.89283
   A23        1.87843   0.00000   0.00000   0.00001   0.00001   1.87844
   A24        1.88691   0.00000   0.00000  -0.00002  -0.00002   1.88689
   A25        1.95426   0.00000   0.00000   0.00002   0.00002   1.95428
   A26        1.89692   0.00000   0.00000  -0.00001  -0.00001   1.89691
   A27        1.91632   0.00000   0.00000  -0.00003  -0.00003   1.91629
   A28        1.89325   0.00000   0.00000  -0.00001  -0.00001   1.89325
   A29        1.87028   0.00000   0.00000   0.00002   0.00002   1.87029
   A30        1.93299   0.00000   0.00000   0.00001   0.00001   1.93300
   A31        2.00744   0.00000   0.00000  -0.00002  -0.00002   2.00742
   A32        2.05512   0.00000   0.00000  -0.00002  -0.00002   2.05511
   A33        1.99311   0.00000   0.00000   0.00002   0.00002   1.99313
   A34        1.99341  -0.00001   0.00000  -0.00003  -0.00003   1.99338
   A35        1.98355   0.00000   0.00000   0.00001   0.00001   1.98356
   A36        1.86870   0.00000   0.00000   0.00003   0.00003   1.86873
   A37        1.90268   0.00000   0.00000  -0.00002  -0.00002   1.90266
   A38        2.01268  -0.00001   0.00000  -0.00003  -0.00003   2.01265
   A39        1.89648   0.00000   0.00000   0.00000   0.00000   1.89647
   A40        1.84614   0.00000   0.00000   0.00002   0.00002   1.84616
   A41        1.93247   0.00000   0.00000   0.00000   0.00000   1.93247
   A42        1.99424   0.00001   0.00000   0.00002   0.00002   1.99426
   A43        1.81273  -0.00001   0.00000  -0.00003  -0.00003   1.81270
   A44        1.90802  -0.00001   0.00000  -0.00001  -0.00001   1.90800
   A45        1.79864   0.00002   0.00000   0.00008   0.00008   1.79872
   A46        2.11828   0.00000   0.00000  -0.00001  -0.00001   2.11828
   A47        1.90124  -0.00001   0.00000  -0.00003  -0.00003   1.90121
   A48        1.89775   0.00000   0.00000   0.00001   0.00001   1.89776
   A49        2.07023   0.00000   0.00000  -0.00001  -0.00001   2.07022
   A50        2.07632   0.00001   0.00000   0.00003   0.00003   2.07636
   A51        2.13576  -0.00001   0.00000  -0.00002  -0.00002   2.13574
   A52        2.06606   0.00000   0.00000   0.00001   0.00001   2.06607
   A53        2.10536   0.00000   0.00000   0.00000   0.00000   2.10535
   A54        2.11176   0.00000   0.00000   0.00000   0.00000   2.11175
   A55        2.06485   0.00000   0.00000   0.00001   0.00001   2.06487
   A56        2.10351   0.00000   0.00000  -0.00002  -0.00002   2.10349
   A57        2.11481   0.00000   0.00000   0.00001   0.00001   2.11482
   A58        2.10231   0.00000   0.00000   0.00000   0.00000   2.10231
   A59        2.08826   0.00001   0.00000   0.00004   0.00004   2.08831
   A60        2.09176  -0.00001   0.00000  -0.00005  -0.00005   2.09171
   A61        2.10471   0.00000   0.00000   0.00000   0.00000   2.10470
   A62        2.09832   0.00000   0.00000  -0.00001  -0.00001   2.09830
   A63        2.07820   0.00000   0.00000   0.00002   0.00002   2.07821
[...]
 0001765,0.00000975,0.00002303,0.00001546,0.00012811,0.00031651,0.00011
 754,-0.00000693,-0.00004101,0.00000771,-0.00005132,-0.00002884,-0.0000
 2143,0.00000153,-0.00004346,-0.00004000,-0.00074938,-0.00066857,0.0010
 4216,0.00009100,0.00002358,-0.00011016,0.00004311,0.00001385,-0.000326
 25,0.00014023,0.00011320,-0.00001348,-0.00233937,0.00253897,-0.0058807
 6,-0.00026949,-0.00062994,0.00204966,0.00161062,0.00006720,0.00192252,
 0.00080613,-0.00139786,0.00124346,-0.02503710,-0.00084531,0.53850623,0
 .00006541,-0.00010256,-0.00003384,0.00006525,-0.00004418,0.00002713,0.
 00013262,-0.00033920,-0.00021390,-0.00010453,-0.00051908,0.00005213,0.
 00005273,0.00022926,-0.00003965,-0.00001281,0.00002436,0.00000839,0.00
 000578,0.00000396,0.00000300,-0.00000704,0.00000527,0.00000980,-0.0000
 0443,0.00003529,0.00002215,0.00003721,-0.00001069,-0.00000537,-0.00018
 098,0.00028932,0.00003843,0.00013121,0.00022370,0.00014002,-0.00008209
 ,0.00009029,-0.00000133,-0.00015260,0.00002598,0.00007357,-0.00010434,
 -0.00006633,0.00005876,0.00141373,0.00106189,0.00002380,-0.00016647,-0
 .00005892,0.00012226,-0.00142304,-0.00064959,0.00038931,-0.00059228,-0
 .00060000,0.00023274,-0.00010058,-0.00026687,-0.00010692,0.00003393,0.
 00003352,0.00002332,0.00001869,0.00007497,-0.00001785,0.00026895,-0.00
 060011,-0.00025286,0.00007592,-0.00012712,0.00035668,-0.00013108,-0.00
 039347,-0.00098765,-0.00051991,-0.00019880,0.00012480,0.00003613,0.000
 01809,-0.00001764,0.01024881,0.00210931,0.00360937,0.00002244,0.000094
 02,0.00003640,-0.00004562,0.00113331,0.00021346,0.00005983,-0.00005862
 ,0.00040607,0.00001184,-0.00003539,0.00003873,0.00000523,0.00000112,-0
 .00000920,0.00000243,0.00000126,-0.00000763,-0.00000851,0.00000923,-0.
 00000112,0.00003418,-0.00002442,-0.00007456,-0.00001497,-0.00000029,0.
 00000900,0.00000219,0.00000204,0.00001312,-0.00000561,0.00001197,0.000
 00882,0.00006543,0.00008812,-0.00001092,-0.00000512,-0.00001734,0.0000
 1594,-0.00002295,-0.00001026,-0.00000314,0.00001020,0.00001878,-0.0000
 0388,0.00123089,0.00062405,-0.00078556,-0.00024293,-0.00012277,-0.0000
 1194,-0.00178464,-0.00031914,0.00012838,-0.00029574,-0.00006978,-0.000
 00064,-0.00027507,-0.00000541,-0.00019507,0.00005563,-0.00000634,0.000
 07250,0.00008601,0.00003169,0.00006142,0.00005647,-0.00002939,0.000027
 15,-0.07831753,-0.03404885,-0.01576871,0.10858434,-0.00001142,-0.00019
 211,0.00001021,-0.00010794,-0.00001289,0.00008961,-0.00012922,-0.00058
 126,-0.00071863,-0.00019211,-0.00087958,0.00002007,-0.00000990,0.00018
 405,0.00003686,-0.00003817,0.00004718,0.00003896,0.00006491,0.00002135
 ,0.00000663,-0.00001362,0.00001310,0.00002721,-0.00005006,0.00003762,0
 .00012132,0.00008096,0.00000700,-0.00000632,0.00008749,0.00069285,0.00
 014426,0.00115533,0.00043955,0.00038254,0.00004865,0.00005270,0.000019
 24,-0.00003898,0.00008736,0.00003394,-0.00006111,0.00011327,0.00001097
 ,0.00124553,0.00089172,-0.00030155,-0.00011701,-0.00003000,0.00010991,
 -0.00006891,-0.00097236,-0.00052215,-0.00055957,-0.00024251,0.00048214
 ,-0.00242997,0.00134172,-0.00004660,0.00059493,-0.00062357,-0.00041775
 ,0.00061174,-0.00049026,0.00024107,0.00126139,0.00051244,-0.00034380,-
 0.00012546,-0.00009798,-0.00070006,-0.00139941,0.00071210,-0.00188711,
 0.00153191,0.00084275,-0.00140906,-0.00015298,-0.00010261,-0.00003268,
 -0.00741906,-0.02340742,-0.01990066,-0.00091124,-0.00038893,0.00022281
 ,0.00166351,-0.00251474,0.00132650,-0.00105821,-0.00050122,-0.00035065
 ,-0.00004603,-0.00000004,-0.00002271,0.00000179,0.00001212,-0.00000868
 ,0.00000837,0.00000751,0.00001341,0.00000289,0.00000014,-0.00000246,-0
 .00000146,-0.00001030,-0.00003612,0.,0.00000339,0.00000453,0.00000250,
 -0.00000365,0.00000430,-0.00001181,0.00000890,0.00000648,0.00003722,-0
 .00002570,-0.00005952,0.00000199,-0.00000172,0.00000839,-0.00001596,0.
 00000152,0.00000545,0.00001334,0.00003623,0.00001990,0.00136059,0.0009
 2264,-0.00085255,-0.00021672,-0.00011325,-0.00000144,0.00010241,-0.000
 44492,0.00061672,-0.00043527,-0.00008874,0.00000387,0.00097041,-0.0012
 0220,0.00155638,0.00007973,0.00029607,-0.00076482,-0.00043563,0.000050
 44,-0.00051721,-0.00029105,0.00062236,-0.00027681,-0.03806841,-0.18155
 292,-0.05381447,0.08780540,0.27916419,-0.00006908,-0.00004767,0.000033
 86,-0.00016549,0.00003866,0.00005709,-0.00024762,-0.00028366,-0.000608
 52,-0.00005086,-0.00011400,-0.00009598,-0.00005953,-0.00009042,0.00004
 590,-0.00000208,0.00000192,0.00003464,0.00006922,0.00002080,0.00000658
 ,-0.00000820,0.00000621,0.00002129,-0.00004312,-0.00000084,0.00011383,
 0.00004958,0.00002328,0.00000270,0.00025483,0.00030584,0.00018746,0.00
 117242,0.00019361,0.00035390,0.00012726,-0.00005380,0.00004866,0.00012
 068,0.00004143,-0.00003380,0.00005489,0.00013650,-0.00002174,-0.000257
 69,-0.00056116,-0.00041140,0.00001389,0.00002813,0.00002999,0.00091771
 ,0.00006455,-0.00076035,0.00004202,0.00013532,0.00072828,-0.00233997,0
 .00198040,-0.00033736,0.00057516,-0.00074257,-0.00041211,0.00055579,-0
 .00064051,0.00042912,0.00189695,0.00044912,-0.00115238,0.00069181,-0.0
 0081250,-0.00041008,-0.00275959,0.00067574,-0.00282298,0.00072080,0.00
 079555,0.00028072,-0.00010606,-0.00008786,0.00001949,-0.00520373,-0.03
 564923,-0.01169639,-0.00035952,-0.00065554,-0.00007377,0.00124790,-0.0
 0098266,0.00080884,-0.00042096,-0.00044929,0.00001162,-0.00005379,0.00
 005016,-0.00008360,-0.00000835,0.00000331,-0.00000021,0.00001114,0.000
 00762,0.00002339,0.00000921,-0.00000928,0.00000245,-0.00003328,0.00001
 667,0.00003418,0.00001489,0.00000372,-0.00000561,0.00000118,-0.0000056
 1,-0.00000507,-0.00000389,-0.00000530,-0.00000403,-0.00003451,-0.00010
 156,-0.00004262,0.00000266,0.00001246,-0.00000136,0.00001282,0.0000090
 1,0.00000715,0.00000042,0.00001824,0.00001484,0.00064001,0.00052350,-0
 .00065201,-0.00009962,-0.00004880,0.00004555,-0.00023363,-0.00017727,0
 .00030073,-0.00018008,-0.00006971,0.00001986,0.00081350,-0.00088843,0.
 00170115,0.00006111,0.00022157,-0.00065462,-0.00046168,-0.00001866,-0.
 00056264,-0.00026248,0.00047276,-0.00032904,-0.01770389,-0.05534811,-0
 .09493258,0.03009704,0.06748000,0.08909500,0.00013612,0.00001406,-0.00
 008357,0.00024147,-0.00008546,-0.00006340,0.00033599,-0.00005776,0.000
 32823,0.00005629,0.00005882,-0.00001708,0.00010055,0.00020886,-0.00013
 089,0.00001414,-0.00000309,-0.00002371,-0.00005716,-0.00001596,0.00000
 280,-0.00000078,-0.00000332,-0.00000375,0.00003541,0.00002262,-0.00006
 393,-0.00000739,-0.00002287,0.00000299,-0.00042852,-0.00011072,-0.0000
 0228,-0.00093125,-0.00003317,-0.00011444,-0.00021172,0.00013446,-0.000
 01436,-0.00024913,-0.00003539,0.00011553,-0.00013266,-0.00021526,0.000
 11066,0.00068842,0.00054520,-0.00000517,-0.00007231,-0.00006254,0.0000
 6850,-0.00001077,-0.00004752,-0.00012863,-0.00036383,-0.00035144,0.000
 00198,0.00232781,-0.00181800,0.00017305,-0.00072355,0.00099911,0.00073
 766,-0.00056061,0.00070826,-0.00034592,-0.00060579,0.00188733,-0.00005
 905,-0.00029181,-0.00013798,0.00045295,-0.00058203,-0.00184576,0.00587
 554,0.00025228,0.00038380,0.00120036,0.00001227,-0.00016221,0.00002011
 ,-0.03678643,0.00894169,0.00349784,0.00029387,-0.00074854,-0.00044843,
 -0.00108583,0.00244418,-0.00247586,-0.00036449,-0.00156920,0.00152814,
 0.00006702,-0.00007431,0.00009468,0.00000943,-0.00001063,-0.00001106,-
 0.00000132,-0.00000297,-0.00002658,-0.00002186,0.00001863,0.00000131,0
 .00007238,-0.00004148,-0.00011296,-0.00002756,-0.00000409,0.00001250,0
 .00000188,0.00000650,0.00002288,0.00000033,0.00001598,0.00000967,0.000
 08486,0.00016244,0.00002319,-0.00000741,-0.00002966,0.00001890,-0.0000
 2929,-0.00001679,-0.00001024,0.00000319,0.00000167,-0.00001602,0.00058
 251,0.00032250,-0.00026138,-0.00011826,-0.00009180,-0.00003538,0.00005
 905,-0.00004134,0.00029006,-0.00010886,-0.00001583,0.00000740,-0.00125
 518,0.00091791,-0.00157643,0.00003072,-0.00021365,0.00060962,0.0006318
 5,0.00006521,0.00060065,0.00037114,-0.00051977,0.00029649,-0.23491710,
 0.02367511,0.01413350,-0.05007819,-0.03376710,-0.01580899,0.35347220,-
 0.00002422,-0.00004372,0.00001678,-0.00006415,0.00000534,0.00002528,-0
 .00008357,-0.00011202,-0.00019426,-0.00004139,-0.00019818,-0.00000154,
 -0.00001925,0.00000067,0.00003256,-0.00001279,0.00001079,0.00001229,0.
 00002135,0.00000705,0.00000191,-0.00000296,0.00000352,0.00000670,-0.00
 001980,0.00000737,0.00004163,0.00002202,0.00000555,-0.00000222,0.00009
 018,0.00017111,0.00002480,0.00034116,0.00009513,0.00007708,0.00004451,
 -0.00000657,0.00000364,0.00003223,0.00002614,-0.00001146,0.00000715,0.
 00006622,-0.00001649,0.00015378,0.00005279,-0.00007128,-0.00001265,0.0
 0000713,0.00001326,0.00004651,-0.00014851,-0.00017945,-0.00007796,0.00
 001324,0.00013902,-0.00095969,0.00043643,-0.00000869,0.00029322,-0.000
 25971,-0.00020472,0.00022725,-0.00018815,0.00009513,-0.00044142,-0.000
 68335,-0.00060605,0.00031158,-0.00010167,-0.00009249,-0.00008706,0.000
 91435,-0.00072561,-0.00035351,-0.00019541,-0.00046954,0.00001229,0.000
 08974,0.00000688,0.01550765,0.00696875,-0.00255128,-0.00005887,0.00053
 984,0.00031290,0.00037842,-0.00100003,0.00057733,-0.00022928,0.0004527
 5,-0.00038360,-0.00002190,0.00000871,-0.00001789,0.00000004,0.00000511
 ,-0.00000027,0.00000192,0.00000234,0.00000715,0.00000394,-0.00000282,-
 0.00000097,-0.00001151,0.00000362,0.00001025,0.00000467,0.00000141,-0.
 00000101,0.00000017,-0.00000196,-0.00000290,-0.00000293,-0.00000024,-0
 .00000011,-0.00000543,-0.00003643,-0.00001906,0.00000211,0.00000502,-0
 .00000162,0.00000081,0.00000352,0.00000318,0.00000272,0.00000872,0.000
 00832,0.00026947,0.00016119,-0.00018794,-0.00003507,-0.00001289,0.0000
 0765,0.00010584,-0.00004915,0.00015738,-0.00008987,-0.00001838,0.00000
 104,0.00036669,-0.00047856,0.00052749,0.00000422,0.00009849,-0.0002098
 0,-0.00017063,0.00003002,-0.00018692,-0.00012348,0.00023173,-0.0000958
 7,0.02414686,-0.07082587,-0.00117625,-0.04755750,-0.00410989,-0.007945
 27,-0.02811906,0.07451189,-0.00005085,-0.00004109,0.00002280,-0.000115
 90,0.00002600,0.00004579,-0.00016236,-0.00015684,-0.00040655,-0.000083
 17,-0.00017307,-0.00003658,-0.00003779,-0.00003202,0.00004779,-0.00000
 192,-0.00000139,0.00002280,0.00004578,0.00001586,0.00000397,-0.0000046
 4,0.00000385,0.00001315,-0.00002956,-0.00000241,0.00007206,0.00002810,
 0.00001371,-0.00000017,0.00016976,0.00019071,0.00009955,0.00071303,0.0
 0012222,0.00020911,0.00009007,-0.00004504,0.00003112,0.00007845,0.0000
 2786,-0.00002293,0.00003579,0.00008755,-0.00002041,0.00002663,-0.00006
 904,-0.00011936,-0.00001671,0.00000790,0.00001927,-0.00000130,-0.00010
 636,-0.00013206,-0.00000019,0.00003759,0.00024100,-0.00181202,0.001123
 33,-0.00041529,0.00057362,-0.00062312,-0.00038378,0.00039552,-0.000459
 68,0.00037584,0.00054531,-0.00173391,-0.00061807,0.00067467,-0.0004666
 7,-0.00024463,0.00044690,0.00175911,-0.00383332,0.00015777,-0.00015790
 ,0.00071243,0.00004719,-0.00002239,0.00002497,0.02891517,-0.00684968,0
 .00456684,0.00039924,0.00006714,0.00004324,0.00127821,0.00043723,-0.00
 152873,0.00136649,-0.00058985,-0.00078578,-0.00003547,0.00003843,-0.00
 005900,-0.00000649,0.00000151,0.00000071,0.00000728,0.00000497,0.00001
 587,0.00000659,-0.00000672,0.00000161,-0.00002427,0.00001249,0.0000232
 1,0.00000970,0.00000269,-0.00000354,0.00000095,-0.00000373,-0.00000358
 ,-0.00000252,-0.00000408,-0.00000261,-0.00002290,-0.00006015,-0.000023
 80,0.00000125,0.00000767,-0.00000122,0.00000904,0.00000527,0.00000427,
 0.00000021,0.00000945,0.00000811,0.00017816,0.00014671,-0.00020518,-0.
 00002157,-0.00000485,0.00001841,-0.00000119,-0.00003640,0.00007013,-0.
 00004278,-0.00002342,0.00000107,0.00046246,-0.00050081,0.00127011,0.00
 006869,0.00013115,-0.00042741,-0.00030813,-0.00001870,-0.00038577,-0.0
 0016536,0.00029054,-0.00025406,0.00895648,-0.00047703,-0.07466554,-0.0
 2230398,-0.00791170,0.00872116,0.02176056,-0.00356250,0.07389726,0.000
 02996,0.00001605,-0.00002245,0.00005538,-0.00002228,-0.00001399,0.0000
 9275,-0.00000202,0.00004065,0.00001807,0.00008032,-0.00004598,0.000021
 63,0.00003660,-0.00002611,0.00001589,-0.00000806,-0.00000242,-0.000009
 49,-0.00000157,0.00000176,-0.00000021,-0.00000157,0.00000046,0.0000076
 5,0.00000313,-0.00000300,-0.00000055,-0.00000316,0.00000152,-0.0000821
 0,-0.00006370,0.00002463,-0.00019261,-0.00000858,0.00001144,-0.0000477
 1,0.00002500,0.00000406,-0.00005368,-0.00001341,0.00002809,-0.00002648
 ,-0.00005541,0.00002896,0.00006773,0.00005819,-0.00000862,-0.00001085,
 -0.00001380,0.00001358,-0.00000120,0.00002644,-0.00002534,-0.00004052,
 -0.00006942,0.00003438,0.00050290,-0.00039752,-0.00029937,-0.00009253,
 0.00014374,0.00016280,-0.00014627,0.00014702,0.00002248,0.00062216,-0.
 00054354,0.00005343,0.00001044,-0.00004928,0.00033726,-0.00204964,0.00
 051376,0.00121146,0.00018925,-0.00051546,0.00073305,0.00004557,-0.0000
 4811,0.00007260,0.00966118,-0.00366876,0.00786886,0.00018335,-0.000496
 31,0.00184800,-0.00095826,0.00141336,0.00110782,0.00007390,-0.00015958
 ,0.00038272,0.00001618,-0.00001226,0.00001372,0.00000089,-0.00000515,-
 0.00000290,0.00000171,0.00000003,-0.00000512,-0.00000602,0.00000409,0.
 00000175,0.00001733,-0.00000909,-0.00002672,-0.00000609,-0.00000092,0.
 00000247,0.00000067,0.00000134,0.00000613,0.00000068,0.00000318,0.0000
 0153,0.00001663,0.00003623,0.00000641,-0.00000195,-0.00000701,0.000004
 67,-0.00000515,-0.00000378,-0.00000267,-0.00000036,-0.00000043,-0.0000
 0451,0.00009605,0.00005951,-0.00005422,-0.00002022,-0.00002188,-0.0000
 0455,-0.00003075,0.00005425,0.00000646,0.00001496,0.00000103,0.0000018
 0,-0.00046460,0.00024391,-0.00037799,-0.00000289,-0.00008729,0.0002539
 9,0.00017025,0.00002057,0.00015407,0.00010642,-0.00014278,0.00006389,-
 0.07359948,0.01458486,-0.01531245,0.01186558,-0.01054922,0.00680279,-0
 .02985009,0.03622717,-0.04219803,0.08379455,0.00002731,-0.00005794,-0.
 00000092,0.00002402,-0.00001740,0.00001112,0.00005886,-0.00017201,-0.0
 0000071,-0.00000288,-0.00025817,0.00007255,0.00002451,0.00007700,-0.00
 001544,-0.00002841,0.00002574,-0.00000358,-0.00000639,-0.00000232,-0.0
 0000107,-0.00000178,0.00000280,-0.00000016,-0.00000103,0.00001491,-0.0
 0001726,0.00000951,-0.00000805,-0.00000368,-0.00011434,0.00019491,-0.0
 0005308,-0.00005785,0.00014412,-0.00002846,-0.00003941,0.00005989,-0.0
 0002558,-0.00005918,0.00002375,0.00001894,-0.00004991,0.00000560,0.000
 00636,0.00049253,0.00035363,-0.00002926,-0.00003152,-0.00001047,0.0000
 2074,0.00011865,-0.00021508,-0.00018183,-0.00025215,-0.00007752,-0.000
 04505,0.00009366,-0.00046406,0.00046286,-0.00007158,0.00013971,-0.0000
 1962,0.00002694,0.00016988,-0.00025511,-0.00065348,0.00088955,0.000255
 24,-0.00020894,0.00026517,-0.00034942,0.00302633,-0.00179622,-0.001142
 79,0.00041853,-0.00069347,-0.00022878,-0.00008450,0.00005330,-0.000089
 28,0.00253014,0.00170370,0.00631790,-0.00089857,0.00077892,-0.00120407
 ,-0.00073195,0.00141369,0.00098877,-0.00002932,0.00019991,-0.00042694,
 -0.00000024,-0.00003536,0.00004179,0.00000827,0.00000880,-0.00000398,-
 0.00000387,-0.00000072,-0.00000583,-0.00000148,0.00000436,-0.00000417,
 0.00001278,-0.00001212,-0.00002195,-0.00000530,-0.00000044,0.00000386,
 -0.00000026,0.00000104,0.00000115,-0.00000396,0.00000664,0.00000466,0.
 00002920,0.00002138,-0.00000919,0.00000133,-0.00000348,0.00000172,-0.0
 0001353,-0.00000209,0.00000006,0.00000598,0.00000817,0.00000521,0.0003
 8039,0.00013450,-0.00008052,-0.00005183,-0.00002693,-0.00001414,0.0001
 2816,-0.00004514,0.00016488,-0.00013860,-0.00000607,-0.00000052,-0.000
 23049,-0.00007500,-0.00029942,-0.00006096,-0.00004551,0.00023845,0.000
 08553,0.00007498,0.00007665,-0.00000375,0.00003112,0.00008268,0.012076
 69,-0.12627702,0.08317642,-0.00776379,-0.06853149,0.03207360,0.0287403
 5,-0.00647216,0.01956960,-0.03671843,0.19849906,-0.00008965,-0.0000077
 4,0.00002760,-0.00017407,0.00004461,0.00003909,-0.00030138,-0.00008242
 ,-0.00054816,-0.00010902,-0.00001868,-0.00013270,-0.00007296,-0.000106
 99,0.00007569,0.00001889,-0.00002531,0.00003126,0.00006653,0.00002278,
 0.00000817,-0.00000551,0.00000338,0.00002000,-0.00004346,-0.00001218,0
 .00012058,0.00003377,0.00002655,0.00000374,0.00034468,0.00010914,0.000
 21352,0.00102689,0.00002269,0.00026713,0.00015179,-0.00010538,0.000067
 61,0.00015235,0.00001904,-0.00004160,0.00008995,0.00011722,-0.00002813
 ,-0.00039758,-0.00039932,-0.00016600,0.00000453,0.00001725,0.00000925,
 -0.00003254,-0.00002376,-0.00007851,0.00021825,0.00013344,0.00041527,-
 0.00238010,0.00204819,-0.00033501,0.00060993,-0.00072306,-0.00036445,0
 .00055003,-0.00076254,0.00058474,-0.00003399,-0.00077145,-0.00029971,0
 .00018042,0.00016305,-0.00066278,-0.00169197,0.00152650,-0.00134764,-0
 .00158676,0.00090010,-0.00238456,0.00008593,-0.00000058,0.00004676,-0.
 00677489,0.03107876,-0.03668947,0.00191247,-0.00065947,-0.00147083,0.0
 0680331,-0.00415202,-0.00372271,0.00000977,0.00013841,0.00072793,-0.00
 004912,0.00007935,-0.00011576,-0.00001574,-0.00000564,0.00000312,0.000
 01433,0.00000800,0.00002693,0.00000934,-0.00001225,0.00000616,-0.00004
 187,0.00002561,0.00004529,0.00001749,0.00000411,-0.00000778,0.00000171
 ,-0.00000619,-0.00000449,-0.00000047,-0.00001048,-0.00000730,-0.000054
 83,-0.00010346,-0.00002832,0.00000082,0.00001278,-0.00000265,0.0000233
 8,0.00000937,0.00000593,-0.00000469,0.00000765,0.00000827,-0.00004162,
 0.00009760,-0.00022886,0.00001580,0.00001525,0.00003957,-0.00011080,0.
 00002981,-0.00006264,0.00005868,-0.00002665,0.00000298,0.00148885,-0.0
 0149910,0.00203713,0.00024014,0.00041211,-0.00117229,-0.00080657,-0.00
 006278,-0.00079693,-0.00030824,0.00052946,-0.00042089,-0.01038032,0.07
 632939,-0.18841440,0.00440968,0.01786183,0.01293078,-0.03015825,0.0168
 1740,-0.00600434,0.03712674,-0.13903338,0.22777441\\0.00000005,-0.0000
 0186,-0.00000024,0.00000356,0.00000246,-0.00000144,-0.00000126,-0.0000
 0784,-0.00000662,0.00000015,-0.00000636,-0.00000022,-0.00000134,0.0000
 0080,-0.00000114,0.00000035,-0.00000116,0.00000233,-0.00000114,0.00000
 084,0.00000082,-0.00000263,0.00000065,-0.00000029,0.00000056,0.0000014
 4,-0.00000248,0.00000133,0.00000028,-0.00000134,-0.00000395,0.00000446
 ,0.00000120,0.00000752,0.00000806,0.00000519,-0.00000600,0.00000033,0.
 00000153,0.00000174,0.00000238,-0.00000321,-0.00000118,-0.00000103,0.0
 0000046,0.00000391,0.00000041,0.00000072,-0.00000060,0.00000057,0.0000
 0078,-0.00001090,-0.00000949,0.00000083,-0.00000257,0.00000129,-0.0000
 0001,-0.00000068,-0.00000799,0.00000493,-0.00000060,-0.00000106,-0.000
 00101,-0.00000159,0.00000334,-0.00000062,0.00000469,0.00000386,0.00001
 425,-0.00000348,0.00000032,-0.00000209,0.00000703,-0.00000060,-0.00000
 288,0.00000855,-0.00000678,-0.00000774,-0.00000033,-0.00000057,0.00000
 028,-0.00000384,0.00000604,-0.00000146,0.00000288,-0.00000116,0.000001
 48,-0.00000510,-0.00000414,0.00000481,-0.00000138,-0.00000336,-0.00000
 046,0.00000214,0.00000136,0.00000436,0.00000117,0.00000139,-0.00000065
 ,0.00000016,0.00000133,0.00000060,0.00000169,0.00000226,0.00000174,0.0
 0000077,0.00000310,0.00000073,0.00000061,0.00000093,-0.00000093,-0.000
 00007,-0.00000038,-0.00000008,-0.00000080,0.00000205,0.00000142,-0.000
 00163,0.00000008,0.00000012,-0.00000144,-0.00000025,-0.00000149,-0.000
 00010,0.00000032,-0.00000154,-0.00000117,-0.00000013,-0.00000153,0.000
 00161,0.00000436,-0.00000372,-0.00000105,0.00000127,-0.00000142,-0.000
 00672,-0.00000287,-0.00000155,-0.00000130,0.00000009,-0.00000148,0.000
 00402,-0.00000459,-0.00000306,-0.00000196,-0.00000189,0.00000003,-0.00
 000115,-0.00000160,0.00000135,0.,0.00000225,-0.00000107,0.00000377,0.0
 0000980,0.00000219,0.00000973,-0.00000058,-0.00000311,-0.00000050,-0.0
 0000014,0.00000059,-0.00000151,-0.00000229,0.00000214\\\@


 Everywhere is walking distance if you have the time.
                                    -- Steven Wright
 Job cpu time:       0 days 18 hours 45 minutes 10.5 seconds.
 Elapsed time:       0 days  0 hours 37 minutes 35.6 seconds.
 File lengths (MBytes):  RWF=   2324 Int=      0 D2E=      0 Chk=     38 Scr=      1
 Normal termination of Gaussian 16 at Sat Jun 15 07:52:49 2019.
