 Entering Gaussian System, Link 0=g16
 Input=clay_new-glu_gluC6-bisCF3-sm-cam_b3lyp_d3bj-custom-pcm_thf.gjf
 Output=clay_new-glu_gluC6-bisCF3-sm-cam_b3lyp_d3bj-custom-pcm_thf.out
 Initial command:
 /home/ekwan/sw/g16/l1.exe "/scratch/users/ekwan/clay_new-glu_gluC6-bisCF3-sm-cam_b3lyp_d3bj-custom-pcm_thf/Gau-35004.inp" -scrdir="/scratch/users/ekwan/clay_new-glu_gluC6-bisCF3-sm-cam_b3lyp_d3bj-custom-pcm_thf/"
 Entering Link 1 = /home/ekwan/sw/g16/l1.exe PID=     35005.
  
 Copyright (c) 1988,1990,1992,1993,1995,1998,2003,2009,2016,
            Gaussian, Inc.  All Rights Reserved.
  
 This is part of the Gaussian(R) 16 program.  It is based on
 the Gaussian(R) 09 system (copyright 2009, Gaussian, Inc.),
 the Gaussian(R) 03 system (copyright 2003, Gaussian, Inc.),
 the Gaussian(R) 98 system (copyright 1998, Gaussian, Inc.),
 the Gaussian(R) 94 system (copyright 1995, Gaussian, Inc.),
 the Gaussian 92(TM) system (copyright 1992, Gaussian, Inc.),
 the Gaussian 90(TM) system (copyright 1990, Gaussian, Inc.),
 the Gaussian 88(TM) system (copyright 1988, Gaussian, Inc.),
 the Gaussian 86(TM) system (copyright 1986, Carnegie Mellon
 University), and the Gaussian 82(TM) system (copyright 1983,
 Carnegie Mellon University). Gaussian is a federally registered
 trademark of Gaussian, Inc.
  
 This software contains proprietary and confidential information,
 including trade secrets, belonging to Gaussian, Inc.
  
 This software is provided under written license and may be
 used, copied, transmitted, or stored only in accord with that
 written license.
  
 The following legend is applicable only to US Government
 contracts under FAR:
  
                    RESTRICTED RIGHTS LEGEND
  
 Use, reproduction and disclosure by the US Government is
 subject to restrictions as set forth in subparagraphs (a)
 and (c) of the Commercial Computer Software - Restricted
 Rights clause in FAR 52.227-19.
  
 Gaussian, Inc.
 340 Quinnipiac St., Bldg. 40, Wallingford CT 06492
  
  
 ---------------------------------------------------------------
 Warning -- This program may not be used in any manner that
 competes with the business of Gaussian, Inc. or will provide
 assistance to any competitor of Gaussian, Inc.  The licensee
 of this program is prohibited from giving any competitor of
 Gaussian, Inc. access to this program.  By using this program,
 the user acknowledges that Gaussian, Inc. is engaged in the
 business of creating and licensing software in the field of
 computational chemistry and represents and warrants to the
 licensee that it is not a competitor of Gaussian, Inc. and that
 it will not use this program in any manner prohibited above.
 ---------------------------------------------------------------
  

 Cite this work as:
 Gaussian 16, Revision A.03,
 M. J. Frisch, G. W. Trucks, H. B. Schlegel, G. E. Scuseria, 
 M. A. Robb, J. R. Cheeseman, G. Scalmani, V. Barone, 
 G. A. Petersson, H. Nakatsuji, X. Li, M. Caricato, A. V. Marenich, 
 J. Bloino, B. G. Janesko, R. Gomperts, B. Mennucci, H. P. Hratchian, 
 J. V. Ortiz, A. F. Izmaylov, J. L. Sonnenberg, D. Williams-Young, 
 F. Ding, F. Lipparini, F. Egidi, J. Goings, B. Peng, A. Petrone, 
 T. Henderson, D. Ranasinghe, V. G. Zakrzewski, J. Gao, N. Rega, 
 G. Zheng, W. Liang, M. Hada, M. Ehara, K. Toyota, R. Fukuda, 
 J. Hasegawa, M. Ishida, T. Nakajima, Y. Honda, O. Kitao, H. Nakai, 
 T. Vreven, K. Throssell, J. A. Montgomery, Jr., J. E. Peralta, 
 F. Ogliaro, M. J. Bearpark, J. J. Heyd, E. N. Brothers, K. N. Kudin, 
 V. N. Staroverov, T. A. Keith, R. Kobayashi, J. Normand, 
 K. Raghavachari, A. P. Rendell, J. C. Burant, S. S. Iyengar, 
 J. Tomasi, M. Cossi, J. M. Millam, M. Klene, C. Adamo, R. Cammi, 
 J. W. Ochterski, R. L. Martin, K. Morokuma, O. Farkas, 
 J. B. Foresman, and D. J. Fox, Gaussian, Inc., Wallingford CT, 2016.
 
 ******************************************
 Gaussian 16:  AS64L-G16RevA.03 25-Dec-2016
                15-Jun-2019 
 ******************************************
 %nprocshared=32
 Will use up to   32 processors via shared memory.
 %mem=48GB
 ----------------------------------------------------------------------
 #p opt freq=noraman pop=none 6-31g* scrf=(pcm,solvent=tetrahydrofuran)
  cam-b3lyp empiricaldispersion=gd3bj extrabasis
 ----------------------------------------------------------------------
 1/18=20,19=15,26=3,38=1/1,3;
 2/9=110,12=2,17=6,18=5,40=1/2;
 3/5=1,6=6,7=1,10=1,11=2,25=1,30=1,70=2201,71=1,72=20,74=-40,124=41/1,2,3;
 4//1;
 5/5=2,38=5,53=20/2;
 7//1,2,3,16;
 1/18=20,19=15,26=3/3(2);
 2/9=110/2;
 99//99;
 2/9=110/2;
 3/5=7,6=1,7=1,11=2,25=1,30=1,70=2205,71=1,72=20,74=-40,82=7,124=41/1,2,3;
 4/5=5,16=3,69=1/1;
 5/5=2,38=5,53=20/2;
 7//1,2,3,16;
 1/18=20,19=15,26=3/3(-5);
 2/9=110/2;
 99/9=1/99;
 Leave Link    1 at Sat Jun 15 07:54:59 2019, MaxMem=  6442450944 cpu:               3.8 elap:               0.1
 (Enter /home/ekwan/sw/g16/l101.exe)
 -----
 title
 -----
 Symbolic Z-matrix:
 Charge =  0 Multiplicity = 1
 6                     3.37011   0.15179   0.72235 
 6                     3.31818  -0.35775  -0.71392 
 6                     1.87094  -0.53672  -1.18202 
 6                     1.05541   1.08487   0.36713 
 6                     2.46373   1.36505   0.88119 
 1                     1.80755  -0.77595  -2.24246 
 1                     3.75505   0.41574  -1.36351 
 1                     3.02309  -0.63592   1.40369 
 1                     0.58616   0.32896   1.00894 
 1                     2.88307   2.19815   0.30568 
 8                     1.09747   0.59068  -0.98313 
 8                     1.34637  -1.66865  -0.43427 
 8                     4.06038  -1.5434   -0.8026 
 8                     4.68075   0.54927   1.06008 
 8                     2.3473    1.71198   2.24397 
 6                     0.17886   2.32617   0.39291 
 1                    -0.01071   2.56592   1.44124 
 1                    -0.77867   2.10623  -0.09386 
 8                     0.77289   3.47021  -0.17546 
 16                    0.06463  -2.46006  -1.00915 
 8                     0.03632  -3.70079  -0.25838 
 8                     0.13125  -2.46223  -2.46309 
 6                    -1.30684  -1.4531   -0.50451 
 6                    -1.80869  -1.60229   0.78029 
 6                    -1.81492  -0.51456  -1.39068 
 6                    -2.85335  -0.78029   1.18185 
 1                    -1.39387  -2.34359   1.45275 
 6                    -2.85585   0.29808  -0.96536 
 1                    -1.40627  -0.4197   -2.38868 
 6                    -3.37739   0.17104   0.31641 
 1                    -4.18908   0.81186   0.63957 
 6                     4.4331   -1.91127  -2.11874 
 1                     3.57061  -2.22884  -2.71661 
 1                     4.93884  -1.08215  -2.62955 
 1                     5.12192  -2.75144  -2.02638 
 6                     5.43593  -0.42729   1.75427 
 1                     6.40437   0.02525   1.97575 
 1                     4.94764  -0.70327   2.698 
 1                     5.58139  -1.32603   1.1487 
 6                     3.08827   2.86119   2.61474 
 1                     2.90656   3.02331   3.67892 
 1                     4.15885   2.71063   2.44576 
 1                     2.75056   3.74149   2.0537 
 6                     0.70541   3.5328   -1.5893 
 1                     0.98793   4.54828  -1.87401 
 1                    -0.31414   3.33073  -1.94081 
 1                     1.38645   2.82023  -2.06472 
 6                    -3.45456  -0.95604   2.54754 
 9                    -2.55606  -1.43181   3.42153 
 9                    -4.4822   -1.81971   2.52217 
 9                    -3.92393   0.20485   3.02824 
 6                    -3.3702    1.37928  -1.87101 
 9                    -2.72659   2.54453  -1.64854 
 9                    -4.67421   1.61206  -1.67274 
 9                    -3.19278   1.07216  -3.16195 
 
 ITRead=  0  0  0  0  0  0  0  0  0  0  0  0  0  0  0  0  0  0  0  0
 ITRead=  0  0  0  0  0  0  0  0  0  0  0  0  0  0  0  0  0  0  0  0
 ITRead=  0  0  0  0  0  0  0  0  0  0  0  0  0  0  0
 MicOpt= -1 -1 -1 -1 -1 -1 -1 -1 -1 -1 -1 -1 -1 -1 -1 -1 -1 -1 -1 -1
 MicOpt= -1 -1 -1 -1 -1 -1 -1 -1 -1 -1 -1 -1 -1 -1 -1 -1 -1 -1 -1 -1
 MicOpt= -1 -1 -1 -1 -1 -1 -1 -1 -1 -1 -1 -1 -1 -1 -1
 NAtoms=     55 NQM=       55 NQMF=       0 NMMI=      0 NMMIF=      0
                NMic=       0 NMicF=      0.
                    Isotopes and Nuclear Properties:
 (Nuclear quadrupole moments (NQMom) in fm**2, nuclear magnetic moments (NMagM)
  in nuclear magnetons)

  Atom         1           2           3           4           5           6           7           8           9          10
 IAtWgt=          12          12          12          12          12           1           1           1           1           1
 AtmWgt=  12.0000000  12.0000000  12.0000000  12.0000000  12.0000000   1.0078250   1.0078250   1.0078250   1.0078250   1.0078250
 NucSpn=           0           0           0           0           0           1           1           1           1           1
 AtZEff=   0.0000000   0.0000000   0.0000000   0.0000000   0.0000000   0.0000000   0.0000000   0.0000000   0.0000000   0.0000000
 NQMom=    0.0000000   0.0000000   0.0000000   0.0000000   0.0000000   0.0000000   0.0000000   0.0000000   0.0000000   0.0000000
 NMagM=    0.0000000   0.0000000   0.0000000   0.0000000   0.0000000   2.7928460   2.7928460   2.7928460   2.7928460   2.7928460
 AtZNuc=   6.0000000   6.0000000   6.0000000   6.0000000   6.0000000   1.0000000   1.0000000   1.0000000   1.0000000   1.0000000

  Atom        11          12          13          14          15          16          17          18          19          20
 IAtWgt=          16          16          16          16          16          12           1           1          16          32
 AtmWgt=  15.9949146  15.9949146  15.9949146  15.9949146  15.9949146  12.0000000   1.0078250   1.0078250  15.9949146  31.9720718
 NucSpn=           0           0           0           0           0           0           1           1           0           0
 AtZEff=   0.0000000   0.0000000   0.0000000   0.0000000   0.0000000   0.0000000   0.0000000   0.0000000   0.0000000   0.0000000
 NQMom=    0.0000000   0.0000000   0.0000000   0.0000000   0.0000000   0.0000000   0.0000000   0.0000000   0.0000000   0.0000000
 NMagM=    0.0000000   0.0000000   0.0000000   0.0000000   0.0000000   0.0000000   2.7928460   2.7928460   0.0000000   0.0000000
 AtZNuc=   8.0000000   8.0000000   8.0000000   8.0000000   8.0000000   6.0000000   1.0000000   1.0000000   8.0000000  16.0000000

  Atom        21          22          23          24          25          26          27          28          29          30
 IAtWgt=          16          16          12          12          12          12           1          12           1          12
 AtmWgt=  15.9949146  15.9949146  12.0000000  12.0000000  12.0000000  12.0000000   1.0078250  12.0000000   1.0078250  12.0000000
 NucSpn=           0           0           0           0           0           0           1           0           1           0
 AtZEff=   0.0000000   0.0000000   0.0000000   0.0000000   0.0000000   0.0000000   0.0000000   0.0000000   0.0000000   0.0000000
 NQMom=    0.0000000   0.0000000   0.0000000   0.0000000   0.0000000   0.0000000   0.0000000   0.0000000   0.0000000   0.0000000
 NMagM=    0.0000000   0.0000000   0.0000000   0.0000000   0.0000000   0.0000000   2.7928460   0.0000000   2.7928460   0.0000000
 AtZNuc=   8.0000000   8.0000000   6.0000000   6.0000000   6.0000000   6.0000000   1.0000000   6.0000000   1.0000000   6.0000000

  Atom        31          32          33          34          35          36          37          38          39          40
 IAtWgt=           1          12           1           1           1          12           1           1           1          12
 AtmWgt=   1.0078250  12.0000000   1.0078250   1.0078250   1.0078250  12.0000000   1.0078250   1.0078250   1.0078250  12.0000000
 NucSpn=           1           0           1           1           1           0           1           1           1           0
 AtZEff=   0.0000000   0.0000000   0.0000000   0.0000000   0.0000000   0.0000000   0.0000000   0.0000000   0.0000000   0.0000000
 NQMom=    0.0000000   0.0000000   0.0000000   0.0000000   0.0000000   0.0000000   0.0000000   0.0000000   0.0000000   0.0000000
 NMagM=    2.7928460   0.0000000   2.7928460   2.7928460   2.7928460   0.0000000   2.7928460   2.7928460   2.7928460   0.0000000
 AtZNuc=   1.0000000   6.0000000   1.0000000   1.0000000   1.0000000   6.0000000   1.0000000   1.0000000   1.0000000   6.0000000

  Atom        41          42          43          44          45          46          47          48          49          50
 IAtWgt=           1           1           1          12           1           1           1          12          19          19
 AtmWgt=   1.0078250   1.0078250   1.0078250  12.0000000   1.0078250   1.0078250   1.0078250  12.0000000  18.9984033  18.9984033
 NucSpn=           1           1           1           0           1           1           1           0           1           1
 AtZEff=   0.0000000   0.0000000   0.0000000   0.0000000   0.0000000   0.0000000   0.0000000   0.0000000   0.0000000   0.0000000
 NQMom=    0.0000000   0.0000000   0.0000000   0.0000000   0.0000000   0.0000000   0.0000000   0.0000000   0.0000000   0.0000000
 NMagM=    2.7928460   2.7928460   2.7928460   0.0000000   2.7928460   2.7928460   2.7928460   0.0000000   2.6288670   2.6288670
 AtZNuc=   1.0000000   1.0000000   1.0000000   6.0000000   1.0000000   1.0000000   1.0000000   6.0000000   9.0000000   9.0000000

  Atom        51          52          53          54          55
 IAtWgt=          19          12          19          19          19
 AtmWgt=  18.9984033  12.0000000  18.9984033  18.9984033  18.9984033
 NucSpn=           1           0           1           1           1
 AtZEff=   0.0000000   0.0000000   0.0000000   0.0000000   0.0000000
 NQMom=    0.0000000   0.0000000   0.0000000   0.0000000   0.0000000
 NMagM=    2.6288670   0.0000000   2.6288670   2.6288670   2.6288670
 AtZNuc=   9.0000000   6.0000000   9.0000000   9.0000000   9.0000000
 Leave Link  101 at Sat Jun 15 07:54:59 2019, MaxMem=  6442450944 cpu:              16.8 elap:               0.6
 (Enter /home/ekwan/sw/g16/l103.exe)

 GradGradGradGradGradGradGradGradGradGradGradGradGradGradGradGradGradGrad
 Berny optimization.
 Initialization pass.
                           ----------------------------
                           !    Initial Parameters    !
                           ! (Angstroms and Degrees)  !
 --------------------------                            --------------------------
 ! Name  Definition              Value          Derivative Info.                !
 --------------------------------------------------------------------------------
 ! R1    R(1,2)                  1.5249         estimate D2E/DX2                !
 ! R2    R(1,5)                  1.5228         estimate D2E/DX2                !
 ! R3    R(1,8)                  1.0978         estimate D2E/DX2                !
 ! R4    R(1,14)                 1.4106         estimate D2E/DX2                !
 ! R5    R(2,3)                  1.5316         estimate D2E/DX2                !
 ! R6    R(2,7)                  1.1005         estimate D2E/DX2                !
 ! R7    R(2,13)                 1.4016         estimate D2E/DX2                !
 ! R8    R(3,6)                  1.0889         estimate D2E/DX2                !
 ! R9    R(3,11)                 1.3816         estimate D2E/DX2                !
 ! R10   R(3,12)                 1.4545         estimate D2E/DX2                !
 ! R11   R(4,5)                  1.5252         estimate D2E/DX2                !
 ! R12   R(4,9)                  1.097          estimate D2E/DX2                !
 ! R13   R(4,11)                 1.4385         estimate D2E/DX2                !
 ! R14   R(4,16)                 1.5198         estimate D2E/DX2                !
 ! R15   R(5,10)                 1.096          estimate D2E/DX2                !
 ! R16   R(5,15)                 1.4111         estimate D2E/DX2                !
 ! R17   R(12,20)                1.6124         estimate D2E/DX2                !
 ! R18   R(13,32)                1.4165         estimate D2E/DX2                !
 ! R19   R(14,36)                1.4163         estimate D2E/DX2                !
 ! R20   R(15,40)                1.4168         estimate D2E/DX2                !
 ! R21   R(16,17)                1.092          estimate D2E/DX2                !
 ! R22   R(16,18)                1.0964         estimate D2E/DX2                !
 ! R23   R(16,19)                1.4088         estimate D2E/DX2                !
 ! R24   R(19,44)                1.4168         estimate D2E/DX2                !
 ! R25   R(20,21)                1.4505         estimate D2E/DX2                !
 ! R26   R(20,22)                1.4555         estimate D2E/DX2                !
 ! R27   R(20,23)                1.7747         estimate D2E/DX2                !
 ! R28   R(23,24)                1.3874         estimate D2E/DX2                !
 ! R29   R(23,25)                1.3872         estimate D2E/DX2                !
 ! R30   R(24,26)                1.3886         estimate D2E/DX2                !
 ! R31   R(24,27)                1.0834         estimate D2E/DX2                !
 ! R32   R(25,28)                1.3874         estimate D2E/DX2                !
 ! R33   R(25,29)                1.0826         estimate D2E/DX2                !
 ! R34   R(26,30)                1.3888         estimate D2E/DX2                !
 ! R35   R(26,48)                1.5025         estimate D2E/DX2                !
 ! R36   R(28,30)                1.3896         estimate D2E/DX2                !
 ! R37   R(28,52)                1.5013         estimate D2E/DX2                !
 ! R38   R(30,31)                1.0835         estimate D2E/DX2                !
 ! R39   R(32,33)                1.0964         estimate D2E/DX2                !
 ! R40   R(32,34)                1.0973         estimate D2E/DX2                !
 ! R41   R(32,35)                1.0904         estimate D2E/DX2                !
 ! R42   R(36,37)                1.0917         estimate D2E/DX2                !
 ! R43   R(36,38)                1.0978         estimate D2E/DX2                !
 ! R44   R(36,39)                1.0934         estimate D2E/DX2                !
 ! R45   R(40,41)                1.0917         estimate D2E/DX2                !
 ! R46   R(40,42)                1.0942         estimate D2E/DX2                !
 ! R47   R(40,43)                1.0972         estimate D2E/DX2                !
 ! R48   R(44,45)                1.0918         estimate D2E/DX2                !
 ! R49   R(44,46)                1.0972         estimate D2E/DX2                !
 ! R50   R(44,47)                1.0943         estimate D2E/DX2                !
 ! R51   R(48,49)                1.3407         estimate D2E/DX2                !
 ! R52   R(48,50)                1.3426         estimate D2E/DX2                !
 ! R53   R(48,51)                1.3413         estimate D2E/DX2                !
 ! R54   R(52,53)                1.3496         estimate D2E/DX2                !
 ! R55   R(52,54)                1.3394         estimate D2E/DX2                !
 ! R56   R(52,55)                1.3388         estimate D2E/DX2                !
 ! A1    A(2,1,5)              110.1343         estimate D2E/DX2                !
 ! A2    A(2,1,8)              109.5155         estimate D2E/DX2                !
 ! A3    A(2,1,14)             110.5678         estimate D2E/DX2                !
 ! A4    A(5,1,8)              108.5906         estimate D2E/DX2                !
 ! A5    A(5,1,14)             107.6711         estimate D2E/DX2                !
 ! A6    A(8,1,14)             110.3221         estimate D2E/DX2                !
 ! A7    A(1,2,3)              111.0458         estimate D2E/DX2                !
 ! A8    A(1,2,7)              107.9144         estimate D2E/DX2                !
 ! A9    A(1,2,13)             108.919          estimate D2E/DX2                !
 ! A10   A(3,2,7)              106.0715         estimate D2E/DX2                !
 ! A11   A(3,2,13)             112.4698         estimate D2E/DX2                !
 ! A12   A(7,2,13)             110.304          estimate D2E/DX2                !
 ! A13   A(2,3,6)              112.23           estimate D2E/DX2                !
 ! A14   A(2,3,11)             112.9336         estimate D2E/DX2                !
 ! A15   A(2,3,12)             105.9386         estimate D2E/DX2                !
 ! A16   A(6,3,11)             106.6709         estimate D2E/DX2                !
 ! A17   A(6,3,12)             107.9792         estimate D2E/DX2                !
 ! A18   A(11,3,12)            111.0462         estimate D2E/DX2                !
 ! A19   A(5,4,9)              108.9269         estimate D2E/DX2                !
 ! A20   A(5,4,11)             110.6406         estimate D2E/DX2                !
 ! A21   A(5,4,16)             112.1356         estimate D2E/DX2                !
 ! A22   A(9,4,11)             108.9623         estimate D2E/DX2                !
 ! A23   A(9,4,16)             107.827          estimate D2E/DX2                !
 ! A24   A(11,4,16)            108.2632         estimate D2E/DX2                !
 ! A25   A(1,5,4)              111.5981         estimate D2E/DX2                !
 ! A26   A(1,5,10)             108.8524         estimate D2E/DX2                !
 ! A27   A(1,5,15)             110.2275         estimate D2E/DX2                !
 ! A28   A(4,5,10)             108.4192         estimate D2E/DX2                !
 ! A29   A(4,5,15)             107.1279         estimate D2E/DX2                !
 ! A30   A(10,5,15)            110.5994         estimate D2E/DX2                !
 ! A31   A(3,11,4)             115.5844         estimate D2E/DX2                !
 ! A32   A(3,12,20)            119.0377         estimate D2E/DX2                !
 ! A33   A(2,13,32)            114.6967         estimate D2E/DX2                !
 ! A34   A(1,14,36)            114.7385         estimate D2E/DX2                !
 ! A35   A(5,15,40)            114.1442         estimate D2E/DX2                !
 ! A36   A(4,16,17)            107.2015         estimate D2E/DX2                !
 ! A37   A(4,16,18)            109.4091         estimate D2E/DX2                !
 ! A38   A(4,16,19)            114.4071         estimate D2E/DX2                !
 ! A39   A(17,16,18)           108.5806         estimate D2E/DX2                !
 ! A40   A(17,16,19)           106.3929         estimate D2E/DX2                !
 ! A41   A(18,16,19)           110.6112         estimate D2E/DX2                !
 ! A42   A(16,19,44)           114.7323         estimate D2E/DX2                !
 ! A43   A(12,20,21)           104.5264         estimate D2E/DX2                !
 ! A44   A(12,20,22)           108.6941         estimate D2E/DX2                !
 ! A45   A(12,20,23)           103.5591         estimate D2E/DX2                !
 ! A46   A(21,20,22)           121.1097         estimate D2E/DX2                !
 ! A47   A(21,20,23)           108.8496         estimate D2E/DX2                !
 ! A48   A(22,20,23)           108.6796         estimate D2E/DX2                !
 ! A49   A(20,23,24)           118.8063         estimate D2E/DX2                !
 ! A50   A(20,23,25)           119.0308         estimate D2E/DX2                !
 ! A51   A(24,23,25)           122.1312         estimate D2E/DX2                !
 ! A52   A(23,24,26)           118.4424         estimate D2E/DX2                !
 ! A53   A(23,24,27)           120.6552         estimate D2E/DX2                !
 ! A54   A(26,24,27)           120.9023         estimate D2E/DX2                !
 ! A55   A(23,25,28)           118.3758         estimate D2E/DX2                !
 ! A56   A(23,25,29)           120.6599         estimate D2E/DX2                !
 ! A57   A(28,25,29)           120.9642         estimate D2E/DX2                !
 ! A58   A(24,26,30)           120.6084         estimate D2E/DX2                !
 ! A59   A(24,26,48)           119.6463         estimate D2E/DX2                !
 ! A60   A(30,26,48)           119.708          estimate D2E/DX2                !
 ! A61   A(25,28,30)           120.718          estimate D2E/DX2                !
 ! A62   A(25,28,52)           119.6012         estimate D2E/DX2                !
 ! A63   A(30,28,52)           119.5839         estimate D2E/DX2                !
 ! A64   A(26,30,28)           119.7233         estimate D2E/DX2                !
 ! A65   A(26,30,31)           120.1309         estimate D2E/DX2                !
 ! A66   A(28,30,31)           120.1458         estimate D2E/DX2                !
 ! A67   A(13,32,33)           112.0173         estimate D2E/DX2                !
 ! A68   A(13,32,34)           110.9509         estimate D2E/DX2                !
 ! A69   A(13,32,35)           106.7168         estimate D2E/DX2                !
 ! A70   A(33,32,34)           109.1202         estimate D2E/DX2                !
 ! A71   A(33,32,35)           108.6595         estimate D2E/DX2                !
 ! A72   A(34,32,35)           109.2976         estimate D2E/DX2                !
 ! A73   A(14,36,37)           106.6565         estimate D2E/DX2                !
 ! A74   A(14,36,38)           110.9483         estimate D2E/DX2                !
 ! A75   A(14,36,39)           111.4829         estimate D2E/DX2                !
 ! A76   A(37,36,38)           108.9282         estimate D2E/DX2                !
 ! A77   A(37,36,39)           109.5772         estimate D2E/DX2                !
 ! A78   A(38,36,39)           109.1853         estimate D2E/DX2                !
 ! A79   A(15,40,41)           106.7691         estimate D2E/DX2                !
 ! A80   A(15,40,42)           111.0801         estimate D2E/DX2                !
 ! A81   A(15,40,43)           110.856          estimate D2E/DX2                !
 ! A82   A(41,40,42)           109.5014         estimate D2E/DX2                !
 ! A83   A(41,40,43)           109.1525         estimate D2E/DX2                !
 ! A84   A(42,40,43)           109.4253         estimate D2E/DX2                !
 ! A85   A(19,44,45)           106.7966         estimate D2E/DX2                !
 ! A86   A(19,44,46)           110.8435         estimate D2E/DX2                !
 ! A87   A(19,44,47)           112.0312         estimate D2E/DX2                !
 ! A88   A(45,44,46)           109.159          estimate D2E/DX2                !
 ! A89   A(45,44,47)           109.3469         estimate D2E/DX2                !
 ! A90   A(46,44,47)           108.6135         estimate D2E/DX2                !
 ! A91   A(26,48,49)           111.462          estimate D2E/DX2                !
 ! A92   A(26,48,50)           111.3671         estimate D2E/DX2                !
 ! A93   A(26,48,51)           111.3796         estimate D2E/DX2                !
 ! A94   A(49,48,50)           107.2767         estimate D2E/DX2                !
 ! A95   A(49,48,51)           107.9403         estimate D2E/DX2                !
 ! A96   A(50,48,51)           107.1984         estimate D2E/DX2                !
 ! A97   A(28,52,53)           111.0375         estimate D2E/DX2                !
 ! A98   A(28,52,54)           111.6803         estimate D2E/DX2                !
 ! A99   A(28,52,55)           111.7829         estimate D2E/DX2                !
 ! A100  A(53,52,54)           106.8476         estimate D2E/DX2                !
 ! A101  A(53,52,55)           107.0865         estimate D2E/DX2                !
 ! A102  A(54,52,55)           108.158          estimate D2E/DX2                !
 ! D1    D(5,1,2,3)            -50.1842         estimate D2E/DX2                !
 ! D2    D(5,1,2,7)             65.6727         estimate D2E/DX2                !
 ! D3    D(5,1,2,13)          -174.5713         estimate D2E/DX2                !
 ! D4    D(8,1,2,3)             69.169          estimate D2E/DX2                !
 ! D5    D(8,1,2,7)           -174.9741         estimate D2E/DX2                !
 ! D6    D(8,1,2,13)           -55.2181         estimate D2E/DX2                !
 ! D7    D(14,1,2,3)          -169.0588         estimate D2E/DX2                !
 ! D8    D(14,1,2,7)           -53.2019         estimate D2E/DX2                !
 ! D9    D(14,1,2,13)           66.5541         estimate D2E/DX2                !
 ! D10   D(2,1,5,4)             52.0364         estimate D2E/DX2                !
 ! D11   D(2,1,5,10)           -67.5851         estimate D2E/DX2                !
 ! D12   D(2,1,5,15)           170.9466         estimate D2E/DX2                !
 ! D13   D(8,1,5,4)            -67.8784         estimate D2E/DX2                !
 ! D14   D(8,1,5,10)           172.5002         estimate D2E/DX2                !
 ! D15   D(8,1,5,15)            51.0318         estimate D2E/DX2                !
 ! D16   D(14,1,5,4)           172.6679         estimate D2E/DX2                !
 ! D17   D(14,1,5,10)           53.0464         estimate D2E/DX2                !
 ! D18   D(14,1,5,15)          -68.4219         estimate D2E/DX2                !
 ! D19   D(2,1,14,36)          -96.9171         estimate D2E/DX2                !
 ! D20   D(5,1,14,36)          142.7244         estimate D2E/DX2                !
 ! D21   D(8,1,14,36)           24.3787         estimate D2E/DX2                !
 ! D22   D(1,2,3,6)            172.6296         estimate D2E/DX2                !
 ! D23   D(1,2,3,11)            52.0035         estimate D2E/DX2                !
 ! D24   D(1,2,3,12)           -69.7567         estimate D2E/DX2                !
 ! D25   D(7,2,3,6)             55.6393         estimate D2E/DX2                !
 ! D26   D(7,2,3,11)           -64.9867         estimate D2E/DX2                !
 ! D27   D(7,2,3,12)           173.253          estimate D2E/DX2                !
 ! D28   D(13,2,3,6)           -65.0204         estimate D2E/DX2                !
 ! D29   D(13,2,3,11)          174.3536         estimate D2E/DX2                !
 ! D30   D(13,2,3,12)           52.5933         estimate D2E/DX2                !
 ! D31   D(1,2,13,32)         -162.0286         estimate D2E/DX2                !
 ! D32   D(3,2,13,32)           74.428          estimate D2E/DX2                !
 ! D33   D(7,2,13,32)          -43.7658         estimate D2E/DX2                !
 ! D34   D(2,3,11,4)           -55.734          estimate D2E/DX2                !
 ! D35   D(6,3,11,4)          -179.4808         estimate D2E/DX2                !
 ! D36   D(12,3,11,4)           63.1014         estimate D2E/DX2                !
 ! D37   D(2,3,12,20)         -158.8828         estimate D2E/DX2                !
 ! D38   D(6,3,12,20)          -38.4633         estimate D2E/DX2                !
 ! D39   D(11,3,12,20)          78.1541         estimate D2E/DX2                !
 ! D40   D(9,4,5,1)             66.3542         estimate D2E/DX2                !
 ! D41   D(9,4,5,10)          -173.7687         estimate D2E/DX2                !
 ! D42   D(9,4,5,15)           -54.3841         estimate D2E/DX2                !
 ! D43   D(11,4,5,1)           -53.3979         estimate D2E/DX2                !
 ! D44   D(11,4,5,10)           66.4792         estimate D2E/DX2                !
 ! D45   D(11,4,5,15)         -174.1362         estimate D2E/DX2                !
 ! D46   D(16,4,5,1)          -174.3787         estimate D2E/DX2                !
 ! D47   D(16,4,5,10)          -54.5017         estimate D2E/DX2                !
 ! D48   D(16,4,5,15)           64.883          estimate D2E/DX2                !
 ! D49   D(5,4,11,3)            56.102          estimate D2E/DX2                !
 ! D50   D(9,4,11,3)           -63.6288         estimate D2E/DX2                !
 ! D51   D(16,4,11,3)          179.3532         estimate D2E/DX2                !
 ! D52   D(5,4,16,17)          -69.1427         estimate D2E/DX2                !
 ! D53   D(5,4,16,18)          173.2937         estimate D2E/DX2                !
 ! D54   D(5,4,16,19)           48.5616         estimate D2E/DX2                !
 ! D55   D(9,4,16,17)           50.7679         estimate D2E/DX2                !
 ! D56   D(9,4,16,18)          -66.7957         estimate D2E/DX2                !
 ! D57   D(9,4,16,19)          168.4721         estimate D2E/DX2                !
 ! D58   D(11,4,16,17)         168.5148         estimate D2E/DX2                !
 ! D59   D(11,4,16,18)          50.9512         estimate D2E/DX2                !
 ! D60   D(11,4,16,19)         -73.781          estimate D2E/DX2                !
 ! D61   D(1,5,15,40)          104.9482         estimate D2E/DX2                !
 ! D62   D(4,5,15,40)         -133.4477         estimate D2E/DX2                !
 ! D63   D(10,5,15,40)         -15.4753         estimate D2E/DX2                !
 ! D64   D(3,12,20,21)         164.8882         estimate D2E/DX2                !
 ! D65   D(3,12,20,22)          34.2604         estimate D2E/DX2                !
 ! D66   D(3,12,20,23)         -81.1698         estimate D2E/DX2                !
 ! D67   D(2,13,32,33)         -69.5948         estimate D2E/DX2                !
 ! D68   D(2,13,32,34)          52.6245         estimate D2E/DX2                !
 ! D69   D(2,13,32,35)         171.6028         estimate D2E/DX2                !
 ! D70   D(1,14,36,37)        -178.1989         estimate D2E/DX2                !
 ! D71   D(1,14,36,38)         -59.7033         estimate D2E/DX2                !
 ! D72   D(1,14,36,39)          62.2226         estimate D2E/DX2                !
 ! D73   D(5,15,40,41)         179.52           estimate D2E/DX2                !
 ! D74   D(5,15,40,42)         -61.1515         estimate D2E/DX2                !
 ! D75   D(5,15,40,43)          60.7377         estimate D2E/DX2                !
 ! D76   D(4,16,19,44)          81.2193         estimate D2E/DX2                !
 ! D77   D(17,16,19,44)       -160.6161         estimate D2E/DX2                !
 ! D78   D(18,16,19,44)        -42.8738         estimate D2E/DX2                !
 ! D79   D(16,19,44,45)        167.4327         estimate D2E/DX2                !
 ! D80   D(16,19,44,46)         48.6331         estimate D2E/DX2                !
 ! D81   D(16,19,44,47)        -72.8674         estimate D2E/DX2                !
 ! D82   D(12,20,23,24)        -83.0672         estimate D2E/DX2                !
 ! D83   D(12,20,23,25)         94.9315         estimate D2E/DX2                !
 ! D84   D(21,20,23,24)         27.7246         estimate D2E/DX2                !
 ! D85   D(21,20,23,25)       -154.2767         estimate D2E/DX2                !
 ! D86   D(22,20,23,24)        161.4923         estimate D2E/DX2                !
 ! D87   D(22,20,23,25)        -20.509          estimate D2E/DX2                !
 ! D88   D(20,23,24,26)        177.9301         estimate D2E/DX2                !
 ! D89   D(20,23,24,27)         -2.0854         estimate D2E/DX2                !
 ! D90   D(25,23,24,26)         -0.0035         estimate D2E/DX2                !
 ! D91   D(25,23,24,27)        179.981          estimate D2E/DX2                !
 ! D92   D(20,23,25,28)       -177.732          estimate D2E/DX2                !
 ! D93   D(20,23,25,29)          2.1789         estimate D2E/DX2                !
 ! D94   D(24,23,25,28)          0.1971         estimate D2E/DX2                !
 ! D95   D(24,23,25,29)       -179.892          estimate D2E/DX2                !
 ! D96   D(23,24,26,30)         -0.2388         estimate D2E/DX2                !
 ! D97   D(23,24,26,48)        177.5332         estimate D2E/DX2                !
 ! D98   D(27,24,26,30)        179.7767         estimate D2E/DX2                !
 ! D99   D(27,24,26,48)         -2.4512         estimate D2E/DX2                !
 ! D100  D(23,25,28,30)         -0.1522         estimate D2E/DX2                !
 ! D101  D(23,25,28,52)        176.2539         estimate D2E/DX2                !
 ! D102  D(29,25,28,30)        179.9372         estimate D2E/DX2                !
 ! D103  D(29,25,28,52)         -3.6568         estimate D2E/DX2                !
 ! D104  D(24,26,30,28)          0.283          estimate D2E/DX2                !
 ! D105  D(24,26,30,31)       -179.6806         estimate D2E/DX2                !
 ! D106  D(48,26,30,28)       -177.4877         estimate D2E/DX2                !
 ! D107  D(48,26,30,31)          2.5488         estimate D2E/DX2                !
 ! D108  D(24,26,48,49)         29.1053         estimate D2E/DX2                !
 ! D109  D(24,26,48,50)        -90.662          estimate D2E/DX2                !
 ! D110  D(24,26,48,51)        149.7256         estimate D2E/DX2                !
 ! D111  D(30,26,48,49)       -153.1024         estimate D2E/DX2                !
 ! D112  D(30,26,48,50)         87.1303         estimate D2E/DX2                !
 ! D113  D(30,26,48,51)        -32.4821         estimate D2E/DX2                !
 ! D114  D(25,28,30,26)         -0.083          estimate D2E/DX2                !
 ! D115  D(25,28,30,31)        179.8805         estimate D2E/DX2                !
 ! D116  D(52,28,30,26)       -176.4897         estimate D2E/DX2                !
 ! D117  D(52,28,30,31)          3.4739         estimate D2E/DX2                !
 ! D118  D(25,28,52,53)        -91.4919         estimate D2E/DX2                !
 ! D119  D(25,28,52,54)        149.3602         estimate D2E/DX2                !
 ! D120  D(25,28,52,55)         28.0266         estimate D2E/DX2                !
 ! D121  D(30,28,52,53)         84.9553         estimate D2E/DX2                !
 ! D122  D(30,28,52,54)        -34.1927         estimate D2E/DX2                !
 ! D123  D(30,28,52,55)       -155.5262         estimate D2E/DX2                !
 --------------------------------------------------------------------------------
 Trust Radius=3.00D-01 FncErr=1.00D-07 GrdErr=1.00D-06 EigMax=2.50D+02 EigMin=1.00D-04
 Number of steps in this run=    291 maximum allowed number of steps=    330.
 GradGradGradGradGradGradGradGradGradGradGradGradGradGradGradGradGradGrad

 Leave Link  103 at Sat Jun 15 07:54:59 2019, MaxMem=  6442450944 cpu:               2.3 elap:               0.1
 (Enter /home/ekwan/sw/g16/l202.exe)
 Stoichiometry    C18H22F6O8S
 Framework group  C1[X(C18H22F6O8S)]
 Deg. of freedom   159
 Full point group                 C1      NOp   1
 Largest Abelian subgroup         C1      NOp   1
 Largest concise Abelian subgroup C1      NOp   1
                         Standard orientation:                         
 ---------------------------------------------------------------------
 Center     Atomic      Atomic             Coordinates (Angstroms)
 Number     Number       Type             X           Y           Z
 ---------------------------------------------------------------------
      1          6           0        3.370111    0.151787    0.722348
      2          6           0        3.318179   -0.357748   -0.713917
      3          6           0        1.870941   -0.536716   -1.182022
      4          6           0        1.055408    1.084867    0.367127
      5          6           0        2.463725    1.365054    0.881194
      6          1           0        1.807549   -0.775950   -2.242456
      7          1           0        3.755045    0.415742   -1.363508
      8          1           0        3.023090   -0.635918    1.403694
      9          1           0        0.586157    0.328964    1.008939
     10          1           0        2.883070    2.198153    0.305684
     11          8           0        1.097465    0.590678   -0.983125
     12          8           0        1.346372   -1.668654   -0.434269
     13          8           0        4.060380   -1.543402   -0.802601
     14          8           0        4.680747    0.549274    1.060080
     15          8           0        2.347303    1.711978    2.243969
     16          6           0        0.178860    2.326169    0.392908
     17          1           0       -0.010711    2.565920    1.441238
     18          1           0       -0.778671    2.106226   -0.093857
     19          8           0        0.772890    3.470209   -0.175463
     20         16           0        0.064625   -2.460057   -1.009149
     21          8           0        0.036316   -3.700788   -0.258378
     22          8           0        0.131251   -2.462228   -2.463086
     23          6           0       -1.306842   -1.453100   -0.504510
     24          6           0       -1.808686   -1.602287    0.780286
     25          6           0       -1.814918   -0.514555   -1.390683
     26          6           0       -2.853354   -0.780293    1.181852
     27          1           0       -1.393865   -2.343586    1.452748
     28          6           0       -2.855854    0.298077   -0.965359
     29          1           0       -1.406274   -0.419695   -2.388676
     30          6           0       -3.377390    0.171040    0.316413
     31          1           0       -4.189081    0.811864    0.639573
     32          6           0        4.433099   -1.911270   -2.118737
     33          1           0        3.570609   -2.228842   -2.716611
     34          1           0        4.938842   -1.082148   -2.629553
     35          1           0        5.121922   -2.751444   -2.026385
     36          6           0        5.435929   -0.427287    1.754272
     37          1           0        6.404373    0.025254    1.975753
     38          1           0        4.947636   -0.703271    2.698003
     39          1           0        5.581388   -1.326029    1.148702
     40          6           0        3.088274    2.861186    2.614744
     41          1           0        2.906559    3.023305    3.678923
     42          1           0        4.158849    2.710630    2.445755
     43          1           0        2.750558    3.741494    2.053704
     44          6           0        0.705409    3.532797   -1.589298
     45          1           0        0.987933    4.548282   -1.874008
     46          1           0       -0.314141    3.330732   -1.940814
     47          1           0        1.386450    2.820230   -2.064719
     48          6           0       -3.454556   -0.956039    2.547536
     49          9           0       -2.556059   -1.431812    3.421528
     50          9           0       -4.482200   -1.819705    2.522170
     51          9           0       -3.923926    0.204854    3.028238
     52          6           0       -3.370200    1.379278   -1.871013
     53          9           0       -2.726593    2.544526   -1.648536
     54          9           0       -4.674206    1.612056   -1.672740
     55          9           0       -3.192780    1.072160   -3.161950
 ---------------------------------------------------------------------
 Rotational constants (GHZ):           0.1514553           0.0849119           0.0823829
 Leave Link  202 at Sat Jun 15 07:55:00 2019, MaxMem=  6442450944 cpu:               3.4 elap:               0.2
 (Enter /home/ekwan/sw/g16/l301.exe)
 Standard basis: 6-31G(d) (6D, 7F)
 Centers:      12     22     21
 SP 1 1.00
     Exponent=  8.4500000000D-02 Coefficients=  1.0000000000D+00  1.0000000000D+00
 ****
 Ernie: Thresh=  0.10000D-02 Tol=  0.10000D-05 Strict=F.
 There are   555 symmetry adapted cartesian basis functions of A   symmetry.
 There are   555 symmetry adapted basis functions of A   symmetry.
   555 basis functions,  1048 primitive gaussians,   555 cartesian basis functions
   132 alpha electrons      132 beta electrons
       nuclear repulsion energy      4349.2605655937 Hartrees.
 IExCor=20419 DFT=T Ex+Corr=CAM-B3LYP ExCW=0 ScaHFX=  1.000000
 ScaDFX=  1.000000  1.000000  1.000000  0.810000 ScalE2=  1.000000  1.000000
 IRadAn=      5 IRanWt=     -1 IRanGd=            0 ICorTp=0 IEmpDi=141
 HFx  wShort=  0.000000 wLong=  0.330000 cFull=  0.190000 cShort=  0.000000 cLong=  0.460000
 DFx  wShort=  0.000000 wLong=  0.330000 cFull=  0.190000 cShort=  0.000000 cLong=  0.460000
 NAtoms=   55 NActive=   55 NUniq=   55 SFac= 1.00D+00 NAtFMM=   60 NAOKFM=F Big=F
 Integral buffers will be    131072 words long.
 Raffenetti 2 integral format.
 Two-electron integral symmetry is turned on.
 R6Disp:  Grimme-D3(BJ) Dispersion energy=       -0.0618893921 Hartrees.
 Nuclear repulsion after empirical dispersion term =     4349.1986762016 Hartrees.
 ------------------------------------------------------------------------------
 Polarizable Continuum Model (PCM)
 =================================
 Model                : PCM.
 Atomic radii         : UFF (Universal Force Field).
 Polarization charges : Total charges.
 Charge compensation  : None.
 Solution method      : On-the-fly selection.
 Cavity type          : Scaled VdW (van der Waals Surface) (Alpha=1.100).
 Cavity algorithm     : GePol (No added spheres)
                        Default sphere list used, NSphG=   55.
                        Lebedev-Laikov grids with approx.  5.0 points / Ang**2.
                        Smoothing algorithm: York/Karplus (Gamma=1.0000).
                        Polarization charges: spherical gaussians, with
                                              point-specific exponents (IZeta= 3).
                        Self-potential: point-specific (ISelfS= 7).
                        Self-field    : sphere-specific E.n sum rule (ISelfD= 2).
 1st derivatives      : Analytical E(r).r(x)/FMM algorithm (CHGder, D1EAlg=3).
                        Cavity 1st derivative terms included.
 Solvent              : TetraHydroFuran, Eps=   7.425700 Eps(inf)=   1.974025
 ------------------------------------------------------------------------------
 GePol: Number of generator spheres                  =      55
 GePol: Total number of spheres                      =      55
 GePol: Number of exposed spheres                    =      55 (100.00%)
 GePol: Number of points                             =    3927
 GePol: Average weight of points                     =       0.13
 GePol: Minimum weight of points                     =   0.65D-11
 GePol: Maximum weight of points                     =    0.20577
 GePol: Number of points with low weight             =     257
 GePol: Fraction of low-weight points (<1% of avg)   =       6.54%
 GePol: Cavity surface area                          =    495.108 Ang**2
 GePol: Cavity volume                                =    574.933 Ang**3
 Leave Link  301 at Sat Jun 15 07:55:00 2019, MaxMem=  6442450944 cpu:               5.8 elap:               0.2
 (Enter /home/ekwan/sw/g16/l302.exe)
 NPDir=0 NMtPBC=     1 NCelOv=     1 NCel=       1 NClECP=     1 NCelD=      1
         NCelK=      1 NCelE2=     1 NClLst=     1 CellRange=     0.0.
 One-electron integrals computed using PRISM.
 One-electron integral symmetry used in STVInt
 NBasis=   555 RedAO= T EigKep=  3.90D-04  NBF=   555
 NBsUse=   555 1.00D-06 EigRej= -1.00D+00 NBFU=   555
 Precomputing XC quadrature grid using
 IXCGrd= 4 IRadAn=           5 IRanWt=          -1 IRanGd=           0 AccXCQ= 0.00D+00.
 Generated NRdTot=       0 NPtTot=           0 NUsed=           0 NTot=          32
 NSgBfM=   544   544   544   544   544 MxSgAt=    55 MxSgA2=    55.
 Leave Link  302 at Sat Jun 15 07:55:06 2019, MaxMem=  6442450944 cpu:             193.2 elap:               6.5
 (Enter /home/ekwan/sw/g16/l303.exe)
 DipDrv:  MaxL=1.
 Leave Link  303 at Sat Jun 15 07:55:07 2019, MaxMem=  6442450944 cpu:              10.1 elap:               0.4
 (Enter /home/ekwan/sw/g16/l401.exe)
 ExpMin= 8.45D-02 ExpMax= 2.19D+04 ExpMxC= 3.30D+03 IAcc=3 IRadAn=         5 AccDes= 0.00D+00
 Harris functional with IExCor=20419 and IRadAn=       5 diagonalized for initial guess.
 HarFok:  IExCor=20419 AccDes= 0.00D+00 IRadAn=         5 IDoV= 1 UseB2=F ITyADJ=14
 ICtDFT=  3500011 ScaDFX=  1.000000  1.000000  1.000000  1.000000
 FoFCou: FMM=F IPFlag=           0 FMFlag=      100000 FMFlg1=           0
         NFxFlg=           0 DoJE=T BraDBF=F KetDBF=T FulRan=T
         wScrn=  0.000000 ICntrl=       500 IOpCl=  0 I1Cent=   200000004 NGrid=           0
         NMat0=    1 NMatS0=      1 NMatT0=    0 NMatD0=    1 NMtDS0=    0 NMtDT0=    0
 Petite list used in FoFCou.
 Harris En= -2227.65889814783    
 JPrj=0 DoOrth=F DoCkMO=F.
 Leave Link  401 at Sat Jun 15 07:55:15 2019, MaxMem=  6442450944 cpu:             252.1 elap:               8.2
 (Enter /home/ekwan/sw/g16/l502.exe)
 Integral symmetry usage will be decided dynamically.
 Closed shell SCF:
 Using DIIS extrapolation, IDIIS=  1040.
 NGot=  6442450944 LenX=  6441811192 LenY=  6441502612
 Requested convergence on RMS density matrix=1.00D-08 within 128 cycles.
 Requested convergence on MAX density matrix=1.00D-06.
 Requested convergence on             energy=1.00D-06.
 No special actions if energy rises.
 Fock matrices will be formed incrementally for  20 cycles.

 Cycle   1  Pass 1  IDiag  1:
 FoFJK:  IHMeth= 1 ICntrl=       0 DoSepK=T KAlg= 0 I1Cent=           0 FoldK=F
 IRaf=         1 NMat=       1 IRICut=       1 DoRegI=T DoRafI=F ISym2E= 0 IDoP0=0 IntGTp=1.
 FoFCou: FMM=F IPFlag=           0 FMFlag=      100000 FMFlg1=           0
         NFxFlg=           0 DoJE=T BraDBF=F KetDBF=F FulRan=T
         wScrn=  0.000000 ICntrl=       500 IOpCl=  0 I1Cent=           0 NGrid=           0
         NMat0=    1 NMatS0=      1 NMatT0=    0 NMatD0=    1 NMtDS0=    0 NMtDT0=    0
 Symmetry not used in FoFCou.
 Inv3:  Mode=1 IEnd=    46263987.
 Iteration    1 A*A^-1 deviation from unit magnitude is 7.99D-15 for   3923.
 Iteration    1 A*A^-1 deviation from orthogonality  is 4.55D-15 for   3915   2618.
 Iteration    1 A^-1*A deviation from unit magnitude is 7.99D-15 for   3923.
 Iteration    1 A^-1*A deviation from orthogonality  is 2.40D-15 for   3898   3331.
 E= -2296.71552020143    
 DIIS: error= 6.79D-02 at cycle   1 NSaved=   1.
 NSaved= 1 IEnMin= 1 EnMin= -2296.71552020143     IErMin= 1 ErrMin= 6.79D-02
 ErrMax= 6.79D-02  0.00D+00 EMaxC= 1.00D-01 BMatC= 1.82D+00 BMatP= 1.82D+00
 IDIUse=3 WtCom= 3.21D-01 WtEn= 6.79D-01
 Coeff-Com:  0.100D+01
 Coeff-En:   0.100D+01
 Coeff:      0.100D+01
 Gap=     0.385 Goal=   None    Shift=    0.000
 GapD=    0.385 DampG=1.000 DampE=0.500 DampFc=0.5000 IDamp=-1.
 Damping current iteration by 5.00D-01
 RMSDP=3.76D-03 MaxDP=5.25D-01              OVMax= 1.64D-01

 Cycle   2  Pass 1  IDiag  1:
 RMSU=  1.88D-03    CP:  9.94D-01
 E= -2297.07710500813     Delta-E=       -0.361584806702 Rises=F Damp=T
 DIIS: error= 2.51D-02 at cycle   2 NSaved=   2.
 NSaved= 2 IEnMin= 2 EnMin= -2297.07710500813     IErMin= 2 ErrMin= 2.51D-02
 ErrMax= 2.51D-02  0.00D+00 EMaxC= 1.00D-01 BMatC= 2.46D-01 BMatP= 1.82D+00
 IDIUse=3 WtCom= 7.49D-01 WtEn= 2.51D-01
 Coeff-Com: -0.239D+00 0.124D+01
 Coeff-En:   0.000D+00 0.100D+01
 Coeff:     -0.179D+00 0.118D+01
 Gap=     0.472 Goal=   None    Shift=    0.000
 RMSDP=1.00D-03 MaxDP=5.97D-02 DE=-3.62D-01 OVMax= 1.04D-01

 Cycle   3  Pass 1  IDiag  1:
 RMSU=  9.78D-04    CP:  9.93D-01  1.12D+00
 E= -2297.39855084858     Delta-E=       -0.321445840451 Rises=F Damp=F
 DIIS: error= 6.05D-03 at cycle   3 NSaved=   3.
 NSaved= 3 IEnMin= 3 EnMin= -2297.39855084858     IErMin= 3 ErrMin= 6.05D-03
 ErrMax= 6.05D-03  0.00D+00 EMaxC= 1.00D-01 BMatC= 7.85D-02 BMatP= 2.46D-01
 IDIUse=3 WtCom= 9.40D-01 WtEn= 6.05D-02
 Coeff-Com: -0.187D+00 0.507D+00 0.680D+00
 Coeff-En:   0.000D+00 0.000D+00 0.100D+01
 Coeff:     -0.176D+00 0.476D+00 0.699D+00
 Gap=     0.283 Goal=   None    Shift=    0.000
 RMSDP=5.90D-04 MaxDP=3.58D-02 DE=-3.21D-01 OVMax= 4.09D-02

 Cycle   4  Pass 1  IDiag  1:
 RMSU=  4.16D-04    CP:  9.91D-01  1.27D+00  6.83D-01
 E= -2297.44537012423     Delta-E=       -0.046819275647 Rises=F Damp=F
 DIIS: error= 3.41D-03 at cycle   4 NSaved=   4.
 NSaved= 4 IEnMin= 4 EnMin= -2297.44537012423     IErMin= 4 ErrMin= 3.41D-03
 ErrMax= 3.41D-03  0.00D+00 EMaxC= 1.00D-01 BMatC= 1.44D-02 BMatP= 7.85D-02
 IDIUse=3 WtCom= 9.66D-01 WtEn= 3.41D-02
 Coeff-Com: -0.779D-01 0.174D+00 0.379D+00 0.525D+00
 Coeff-En:   0.000D+00 0.000D+00 0.111D+00 0.889D+00
 Coeff:     -0.753D-01 0.168D+00 0.370D+00 0.537D+00
 Gap=     0.284 Goal=   None    Shift=    0.000
 RMSDP=2.20D-04 MaxDP=1.64D-02 DE=-4.68D-02 OVMax= 1.83D-02

 Cycle   5  Pass 1  IDiag  1:
 RMSU=  1.11D-04    CP:  9.90D-01  1.27D+00  7.79D-01  6.05D-01
 E= -2297.45547720888     Delta-E=       -0.010107084651 Rises=F Damp=F
 DIIS: error= 5.67D-04 at cycle   5 NSaved=   5.
 NSaved= 5 IEnMin= 5 EnMin= -2297.45547720888     IErMin= 5 ErrMin= 5.67D-04
 ErrMax= 5.67D-04  0.00D+00 EMaxC= 1.00D-01 BMatC= 6.10D-04 BMatP= 1.44D-02
 IDIUse=3 WtCom= 9.94D-01 WtEn= 5.67D-03
 Coeff-Com: -0.251D-01 0.511D-01 0.141D+00 0.269D+00 0.564D+00
 Coeff-En:   0.000D+00 0.000D+00 0.000D+00 0.000D+00 0.100D+01
 Coeff:     -0.250D-01 0.508D-01 0.140D+00 0.268D+00 0.566D+00
 Gap=     0.281 Goal=   None    Shift=    0.000
 RMSDP=4.78D-05 MaxDP=3.16D-03 DE=-1.01D-02 OVMax= 3.47D-03

 Cycle   6  Pass 1  IDiag  1:
 RMSU=  2.70D-05    CP:  9.90D-01  1.27D+00  7.78D-01  6.59D-01  7.20D-01
 E= -2297.45593523681     Delta-E=       -0.000458027927 Rises=F Damp=F
 DIIS: error= 1.09D-04 at cycle   6 NSaved=   6.
 NSaved= 6 IEnMin= 6 EnMin= -2297.45593523681     IErMin= 6 ErrMin= 1.09D-04
 ErrMax= 1.09D-04  0.00D+00 EMaxC= 1.00D-01 BMatC= 2.48D-05 BMatP= 6.10D-04
 IDIUse=3 WtCom= 9.99D-01 WtEn= 1.09D-03
 Coeff-Com: -0.140D-02 0.153D-02 0.150D-01 0.484D-01 0.202D+00 0.734D+00
 Coeff-En:   0.000D+00 0.000D+00 0.000D+00 0.000D+00 0.000D+00 0.100D+01
 Coeff:     -0.140D-02 0.153D-02 0.150D-01 0.484D-01 0.202D+00 0.735D+00
 Gap=     0.281 Goal=   None    Shift=    0.000
 RMSDP=1.39D-05 MaxDP=1.18D-03 DE=-4.58D-04 OVMax= 9.75D-04

 Cycle   7  Pass 1  IDiag  1:
 RMSU=  1.03D-05    CP:  9.90D-01  1.27D+00  7.83D-01  6.70D-01  7.64D-01
                    CP:  8.91D-01
 E= -2297.45595749411     Delta-E=       -0.000022257304 Rises=F Damp=F
 DIIS: error= 4.95D-05 at cycle   7 NSaved=   7.
 NSaved= 7 IEnMin= 7 EnMin= -2297.45595749411     IErMin= 7 ErrMin= 4.95D-05
 ErrMax= 4.95D-05  0.00D+00 EMaxC= 1.00D-01 BMatC= 3.98D-06 BMatP= 2.48D-05
 IDIUse=1 WtCom= 1.00D+00 WtEn= 0.00D+00
 Coeff-Com:  0.332D-02-0.722D-02-0.148D-01-0.192D-01-0.913D-03 0.303D+00
 Coeff-Com:  0.736D+00
 Coeff:      0.332D-02-0.722D-02-0.148D-01-0.192D-01-0.913D-03 0.303D+00
 Coeff:      0.736D+00
 Gap=     0.281 Goal=   None    Shift=    0.000
 RMSDP=5.08D-06 MaxDP=2.02D-04 DE=-2.23D-05 OVMax= 5.90D-04

 Cycle   8  Pass 1  IDiag  1:
 RMSU=  3.12D-06    CP:  9.90D-01  1.27D+00  7.83D-01  6.73D-01  7.82D-01
                    CP:  9.99D-01  8.66D-01
 E= -2297.45596164235     Delta-E=       -0.000004148241 Rises=F Damp=F
 DIIS: error= 1.33D-05 at cycle   8 NSaved=   8.
 NSaved= 8 IEnMin= 8 EnMin= -2297.45596164235     IErMin= 8 ErrMin= 1.33D-05
 ErrMax= 1.33D-05  0.00D+00 EMaxC= 1.00D-01 BMatC= 2.19D-07 BMatP= 3.98D-06
 IDIUse=1 WtCom= 1.00D+00 WtEn= 0.00D+00
 Coeff-Com:  0.125D-02-0.261D-02-0.600D-02-0.956D-02-0.143D-01 0.486D-01
 Coeff-Com:  0.248D+00 0.735D+00
 Coeff:      0.125D-02-0.261D-02-0.600D-02-0.956D-02-0.143D-01 0.486D-01
 Coeff:      0.248D+00 0.735D+00
 Gap=     0.281 Goal=   None    Shift=    0.000
 RMSDP=1.33D-06 MaxDP=5.57D-05 DE=-4.15D-06 OVMax= 1.98D-04

 Cycle   9  Pass 1  IDiag  1:
 RMSU=  1.01D-06    CP:  9.90D-01  1.27D+00  7.83D-01  6.74D-01  7.83D-01
                    CP:  1.01D+00  9.29D-01  1.05D+00
 E= -2297.45596186039     Delta-E=       -0.000000218040 Rises=F Damp=F
 DIIS: error= 7.28D-06 at cycle   9 NSaved=   9.
 NSaved= 9 IEnMin= 9 EnMin= -2297.45596186039     IErMin= 9 ErrMin= 7.28D-06
 ErrMax= 7.28D-06  0.00D+00 EMaxC= 1.00D-01 BMatC= 6.10D-08 BMatP= 2.19D-07
 IDIUse=1 WtCom= 1.00D+00 WtEn= 0.00D+00
 Coeff-Com:  0.409D-04-0.366D-04-0.352D-03-0.130D-02-0.677D-02-0.262D-01
 Coeff-Com:  0.148D-01 0.367D+00 0.653D+00
 Coeff:      0.409D-04-0.366D-04-0.352D-03-0.130D-02-0.677D-02-0.262D-01
 Coeff:      0.148D-01 0.367D+00 0.653D+00
 Gap=     0.281 Goal=   None    Shift=    0.000
 RMSDP=5.65D-07 MaxDP=4.62D-05 DE=-2.18D-07 OVMax= 9.53D-05

 Cycle  10  Pass 1  IDiag  1:
 RMSU=  4.03D-07    CP:  9.90D-01  1.27D+00  7.83D-01  6.74D-01  7.84D-01
                    CP:  1.02D+00  9.44D-01  1.14D+00  8.43D-01
 E= -2297.45596192164     Delta-E=       -0.000000061251 Rises=F Damp=F
 DIIS: error= 1.67D-06 at cycle  10 NSaved=  10.
 NSaved=10 IEnMin=10 EnMin= -2297.45596192164     IErMin=10 ErrMin= 1.67D-06
 ErrMax= 1.67D-06  0.00D+00 EMaxC= 1.00D-01 BMatC= 4.82D-09 BMatP= 6.10D-08
 IDIUse=1 WtCom= 1.00D+00 WtEn= 0.00D+00
 Coeff-Com: -0.128D-03 0.286D-03 0.592D-03 0.734D-03-0.476D-03-0.153D-01
 Coeff-Com: -0.211D-01 0.194D-01 0.203D+00 0.812D+00
 Coeff:     -0.128D-03 0.286D-03 0.592D-03 0.734D-03-0.476D-03-0.153D-01
 Coeff:     -0.211D-01 0.194D-01 0.203D+00 0.812D+00
 Gap=     0.281 Goal=   None    Shift=    0.000
 RMSDP=2.37D-07 MaxDP=1.45D-05 DE=-6.13D-08 OVMax= 4.47D-05

 Cycle  11  Pass 1  IDiag  1:
 RMSU=  1.62D-07    CP:  9.90D-01  1.27D+00  7.83D-01  6.74D-01  7.84D-01
                    CP:  1.02D+00  9.51D-01  1.17D+00  9.66D-01  1.04D+00
 E= -2297.45596192862     Delta-E=       -0.000000006975 Rises=F Damp=F
 DIIS: error= 1.40D-06 at cycle  11 NSaved=  11.
 NSaved=11 IEnMin=11 EnMin= -2297.45596192862     IErMin=11 ErrMin= 1.40D-06
 ErrMax= 1.40D-06  0.00D+00 EMaxC= 1.00D-01 BMatC= 2.05D-09 BMatP= 4.82D-09
 IDIUse=1 WtCom= 1.00D+00 WtEn= 0.00D+00
 Coeff-Com: -0.742D-04 0.155D-03 0.381D-03 0.648D-03 0.968D-03-0.398D-02
 Coeff-Com: -0.139D-01-0.601D-01-0.126D-01 0.459D+00 0.629D+00
 Coeff:     -0.742D-04 0.155D-03 0.381D-03 0.648D-03 0.968D-03-0.398D-02
 Coeff:     -0.139D-01-0.601D-01-0.126D-01 0.459D+00 0.629D+00
 Gap=     0.281 Goal=   None    Shift=    0.000
 RMSDP=1.04D-07 MaxDP=5.99D-06 DE=-6.97D-09 OVMax= 1.81D-05

 Cycle  12  Pass 1  IDiag  1:
 RMSU=  5.88D-08    CP:  9.90D-01  1.27D+00  7.83D-01  6.74D-01  7.84D-01
                    CP:  1.02D+00  9.52D-01  1.18D+00  9.85D-01  1.20D+00
                    CP:  8.70D-01
 E= -2297.45596193059     Delta-E=       -0.000000001974 Rises=F Damp=F
 DIIS: error= 2.20D-07 at cycle  12 NSaved=  12.
 NSaved=12 IEnMin=12 EnMin= -2297.45596193059     IErMin=12 ErrMin= 2.20D-07
 ErrMax= 2.20D-07  0.00D+00 EMaxC= 1.00D-01 BMatC= 9.39D-11 BMatP= 2.05D-09
 IDIUse=1 WtCom= 1.00D+00 WtEn= 0.00D+00
 Coeff-Com: -0.114D-04 0.216D-04 0.710D-04 0.156D-03 0.394D-03 0.305D-03
 Coeff-Com: -0.257D-02-0.252D-01-0.303D-01 0.623D-01 0.196D+00 0.799D+00
 Coeff:     -0.114D-04 0.216D-04 0.710D-04 0.156D-03 0.394D-03 0.305D-03
 Coeff:     -0.257D-02-0.252D-01-0.303D-01 0.623D-01 0.196D+00 0.799D+00
 Gap=     0.281 Goal=   None    Shift=    0.000
 RMSDP=3.49D-08 MaxDP=1.49D-06 DE=-1.97D-09 OVMax= 5.80D-06

 Cycle  13  Pass 1  IDiag  1:
 RMSU=  2.26D-08    CP:  9.90D-01  1.27D+00  7.83D-01  6.74D-01  7.84D-01
                    CP:  1.02D+00  9.52D-01  1.18D+00  9.98D-01  1.24D+00
                    CP:  9.61D-01  1.03D+00
 E= -2297.45596193071     Delta-E=       -0.000000000115 Rises=F Damp=F
 DIIS: error= 9.37D-08 at cycle  13 NSaved=  13.
 NSaved=13 IEnMin=13 EnMin= -2297.45596193071     IErMin=13 ErrMin= 9.37D-08
 ErrMax= 9.37D-08  0.00D+00 EMaxC= 1.00D-01 BMatC= 2.12D-11 BMatP= 9.39D-11
 IDIUse=1 WtCom= 1.00D+00 WtEn= 0.00D+00
 Coeff-Com:  0.744D-05-0.166D-04-0.305D-04-0.374D-04 0.530D-05 0.703D-03
 Coeff-Com:  0.123D-02-0.116D-02-0.905D-02-0.349D-01-0.704D-02 0.366D+00
 Coeff-Com:  0.684D+00
 Coeff:      0.744D-05-0.166D-04-0.305D-04-0.374D-04 0.530D-05 0.703D-03
 Coeff:      0.123D-02-0.116D-02-0.905D-02-0.349D-01-0.704D-02 0.366D+00
 Coeff:      0.684D+00
 Gap=     0.281 Goal=   None    Shift=    0.000
 RMSDP=1.10D-08 MaxDP=7.61D-07 DE=-1.15D-10 OVMax= 2.13D-06

 Cycle  14  Pass 1  IDiag  1:
 RMSU=  7.37D-09    CP:  9.90D-01  1.27D+00  7.83D-01  6.74D-01  7.84D-01
                    CP:  1.02D+00  9.52D-01  1.18D+00  9.99D-01  1.24D+00
                    CP:  9.77D-01  1.15D+00  9.00D-01
 E= -2297.45596193072     Delta-E=       -0.000000000015 Rises=F Damp=F
 DIIS: error= 3.08D-08 at cycle  14 NSaved=  14.
 NSaved=14 IEnMin=14 EnMin= -2297.45596193072     IErMin=14 ErrMin= 3.08D-08
 ErrMax= 3.08D-08  0.00D+00 EMaxC= 1.00D-01 BMatC= 2.09D-12 BMatP= 2.12D-11
 IDIUse=1 WtCom= 1.00D+00 WtEn= 0.00D+00
 Coeff-Com:  0.383D-05-0.816D-05-0.172D-04-0.276D-04-0.303D-04 0.248D-03
 Coeff-Com:  0.751D-03 0.176D-02-0.100D-02-0.193D-01-0.220D-01 0.676D-01
 Coeff-Com:  0.285D+00 0.687D+00
 Coeff:      0.383D-05-0.816D-05-0.172D-04-0.276D-04-0.303D-04 0.248D-03
 Coeff:      0.751D-03 0.176D-02-0.100D-02-0.193D-01-0.220D-01 0.676D-01
 Coeff:      0.285D+00 0.687D+00
 Gap=     0.281 Goal=   None    Shift=    0.000
 RMSDP=4.16D-09 MaxDP=2.99D-07 DE=-1.55D-11 OVMax= 4.96D-07

 Error on total polarization charges =  0.01067
 SCF Done:  E(RCAM-B3LYP) =  -2297.45596193     A.U. after   14 cycles
            NFock= 14  Conv=0.42D-08     -V/T= 2.0072
 KE= 2.280965303689D+03 PE=-1.410407485979D+04 EE= 5.176454917966D+03
 Leave Link  502 at Sat Jun 15 08:00:27 2019, MaxMem=  6442450944 cpu:            9647.6 elap:             311.8
 (Enter /home/ekwan/sw/g16/l701.exe)
 ... and contract with generalized density number  0.
 Compute integral first derivatives.
 R6Disp: Adding Grimme-D3(BJ) dispersion energy 1st derivatives to the gradient.
 D1PCM: PCM CHGder 1st derivatives, ID1Alg=3 FixD1E=F DoIter=F DoCFld=F I1PDM=0.
 GePol: Maximum number of non-zero 1st derivatives   =     225
 Leave Link  701 at Sat Jun 15 08:00:39 2019, MaxMem=  6442450944 cpu:             353.0 elap:              12.3
 (Enter /home/ekwan/sw/g16/l702.exe)
 L702 exits ... SP integral derivatives will be done elsewhere.
 Leave Link  702 at Sat Jun 15 08:00:39 2019, MaxMem=  6442450944 cpu:               2.3 elap:               0.1
 (Enter /home/ekwan/sw/g16/l703.exe)
 Integral derivatives from FoFJK, PRISM(SPDF).
 Compute integral first derivatives, UseDBF=F ICtDFT=           0.
 Calling FoFJK, ICntrl=      2127 FMM=F ISym2X=0 I1Cent= 0 IOpClX= 0 NMat=1 NMatS=1 NMatT=0.
 FoFJK:  IHMeth= 1 ICntrl=    2127 DoSepK=T KAlg= 0 I1Cent=           0 FoldK=F
 IRaf=         1 NMat=       1 IRICut=       1 DoRegI=T DoRafI=F ISym2E= 0 IDoP0=0 IntGTp=1.
 FoFCou: FMM=F IPFlag=           0 FMFlag=      100000 FMFlg1=         800
         NFxFlg=           0 DoJE=F BraDBF=F KetDBF=F FulRan=T
         wScrn=  0.000000 ICntrl=      2527 IOpCl=  0 I1Cent=           0 NGrid=           0
         NMat0=    1 NMatS0=      1 NMatT0=    0 NMatD0=    1 NMtDS0=    0 NMtDT0=    0
 Symmetry not used in FoFCou.
 Leave Link  703 at Sat Jun 15 08:01:53 2019, MaxMem=  6442450944 cpu:            2168.5 elap:              73.8
 (Enter /home/ekwan/sw/g16/l716.exe)
 Dipole        = 3.28220878D-01 1.46759668D+00-3.19701235D-01
 ***** Axes restored to original set *****
 -------------------------------------------------------------------
 Center     Atomic                   Forces (Hartrees/Bohr)
 Number     Number              X              Y              Z
 -------------------------------------------------------------------
      1        6          -0.000002411    0.000004804   -0.000003421
      2        6          -0.000004747    0.000012911    0.000008148
      3        6           0.000002942    0.000025106   -0.000014155
      4        6           0.000003041    0.000000523   -0.000002510
      5        6          -0.000001040   -0.000004977   -0.000011924
      6        1           0.000002386   -0.000001118    0.000001621
      7        1           0.000002888   -0.000005076   -0.000003018
      8        1           0.000003055   -0.000000638    0.000002411
      9        1           0.000000341    0.000000168    0.000000912
     10        1           0.000001868    0.000000302   -0.000000883
     11        8           0.000003595   -0.000012850    0.000005236
     12        8          -0.000003024   -0.000000618    0.000014447
     13        8           0.000006892   -0.000009869   -0.000008953
     14        8          -0.000002370    0.000001902   -0.000000616
     15        8           0.000003694    0.000002735    0.000006275
     16        6          -0.000001513    0.000003232    0.000002910
     17        1          -0.000000136    0.000000795   -0.000003040
     18        1          -0.000001222   -0.000000582   -0.000001043
     19        8           0.000000226   -0.000000792   -0.000002203
     20       16          -0.000013053   -0.000017199   -0.000002699
     21        8           0.000004056    0.000009091   -0.000008720
     22        8          -0.000001780   -0.000007457    0.000012657
     23        6          -0.000002289   -0.000001584   -0.000002915
     24        6          -0.000001309   -0.000000581    0.000004924
     25        6           0.000001427    0.000001919    0.000004521
     26        6           0.000002507   -0.000001968    0.000002542
     27        1          -0.000000107    0.000001005    0.000003944
     28        6          -0.000001504   -0.000000032    0.000002287
     29        1          -0.000001676   -0.000000787   -0.000000537
     30        6          -0.000001342   -0.000001908   -0.000000251
     31        1           0.000000680    0.000000405    0.000000897
     32        6          -0.000003467   -0.000000130    0.000008815
     33        1           0.000001079   -0.000001991   -0.000000167
     34        1          -0.000000381   -0.000000381   -0.000001211
     35        1           0.000001149   -0.000001042   -0.000000675
     36        6           0.000002237    0.000001397   -0.000001412
     37        1          -0.000000345    0.000001875   -0.000002346
     38        1           0.000000670    0.000001849   -0.000000745
     39        1           0.000000528    0.000001099   -0.000000057
     40        6          -0.000004537   -0.000000204   -0.000003289
     41        1          -0.000000143    0.000003218   -0.000002410
     42        1           0.000001625    0.000002059   -0.000002213
     43        1           0.000001644    0.000002014   -0.000002885
     44        6          -0.000001786    0.000000807   -0.000001084
     45        1          -0.000001373   -0.000001629   -0.000002943
     46        1          -0.000000405   -0.000001679   -0.000001774
     47        1          -0.000000393   -0.000000992   -0.000002536
     48        6           0.000005427    0.000000772    0.000004610
     49        9           0.000000056    0.000002782    0.000000411
     50        9          -0.000001429   -0.000000316    0.000001898
     51        9           0.000001331    0.000001853    0.000001076
     52        6          -0.000002959   -0.000005056   -0.000004291
     53        9           0.000002478    0.000002226    0.000000670
     54        9           0.000000033   -0.000002529    0.000001596
     55        9          -0.000001113   -0.000002869    0.000004121
 -------------------------------------------------------------------
 Cartesian Forces:  Max     0.000025106 RMS     0.000004632
 Leave Link  716 at Sat Jun 15 08:01:53 2019, MaxMem=  6442450944 cpu:               2.6 elap:               0.1
 (Enter /home/ekwan/sw/g16/l103.exe)

 GradGradGradGradGradGradGradGradGradGradGradGradGradGradGradGradGradGrad
 Berny optimization.
 FormGI is forming the generalized inverse of G from B-inverse, IUseBI=4.
 GSVD:  received Info=                   1 from GESDD.
 Internal  Forces:  Max     0.000020397 RMS     0.000002848
 Search for a local minimum.
 Step number   1 out of a maximum of  291
 All quantities printed in internal units (Hartrees-Bohrs-Radians)
 RMS Force = .28484D-05 SwitMx=.10000D-02 MixMth= 2
 Mixed Optimization -- En-DIIS/RFO-DIIS
 Second derivative matrix not updated -- first step.
 ITU=  0
     Eigenvalues ---    0.00504   0.00641   0.00705   0.00710   0.00733
     Eigenvalues ---    0.00749   0.00971   0.01433   0.01469   0.01470
     Eigenvalues ---    0.01474   0.01476   0.01546   0.01551   0.01575
     Eigenvalues ---    0.01613   0.01671   0.01673   0.01682   0.02231
     Eigenvalues ---    0.02236   0.02244   0.02247   0.02256   0.02257
     Eigenvalues ---    0.02456   0.02961   0.03350   0.04494   0.04629
     Eigenvalues ---    0.04752   0.04874   0.04945   0.05261   0.05297
     Eigenvalues ---    0.05816   0.06072   0.06601   0.07034   0.07094
     Eigenvalues ---    0.07229   0.07809   0.09332   0.10048   0.10073
     Eigenvalues ---    0.10107   0.10149   0.10568   0.10588   0.10608
     Eigenvalues ---    0.10611   0.10729   0.10766   0.10875   0.10882
     Eigenvalues ---    0.10952   0.11015   0.11509   0.11818   0.11924
     Eigenvalues ---    0.14112   0.14929   0.16000   0.16000   0.16000
     Eigenvalues ---    0.16000   0.16000   0.16000   0.16000   0.16000
     Eigenvalues ---    0.16000   0.16000   0.16000   0.16000   0.16000
     Eigenvalues ---    0.16000   0.16000   0.16442   0.16944   0.17483
     Eigenvalues ---    0.18668   0.19649   0.19768   0.20820   0.22138
     Eigenvalues ---    0.23476   0.23487   0.23497   0.24951   0.24981
     Eigenvalues ---    0.24985   0.25000   0.25000   0.25000   0.25000
     Eigenvalues ---    0.25000   0.25000   0.25000   0.25000   0.25000
     Eigenvalues ---    0.25000   0.25000   0.25000   0.27557   0.28216
     Eigenvalues ---    0.29047   0.29313   0.29620   0.30385   0.32119
     Eigenvalues ---    0.32246   0.33627   0.33924   0.33928   0.33978
     Eigenvalues ---    0.33992   0.33998   0.34011   0.34078   0.34079
     Eigenvalues ---    0.34134   0.34315   0.34328   0.34418   0.34585
     Eigenvalues ---    0.34602   0.34618   0.34621   0.34770   0.34936
     Eigenvalues ---    0.35577   0.35584   0.35684   0.37661   0.38418
     Eigenvalues ---    0.42942   0.42953   0.42992   0.43024   0.43246
     Eigenvalues ---    0.43410   0.43837   0.43906   0.44191   0.45355
     Eigenvalues ---    0.46833   0.47474   0.47634   0.47675   0.47790
     Eigenvalues ---    0.48901   0.55098   0.56623   0.56917   0.57045
     Eigenvalues ---    0.57345   0.57480   0.93540   0.95729
 RFO step:  Lambda=-1.33413681D-08 EMin= 5.03858839D-03
 Linear search not attempted -- first point.
 Iteration  1 RMS(Cart)=  0.00040520 RMS(Int)=  0.00000002
 Iteration  2 RMS(Cart)=  0.00000005 RMS(Int)=  0.00000000
 ITry= 1 IFail=0 DXMaxC= 1.65D-03 DCOld= 1.00D+10 DXMaxT= 3.00D-01 DXLimC= 3.00D+00 Rises=F
 Variable       Old X    -DE/DX   Delta X   Delta X   Delta X     New X
                                 (Linear)    (Quad)   (Total)
    R1        2.88156   0.00000   0.00000   0.00000   0.00000   2.88155
    R2        2.87759   0.00000   0.00000  -0.00001  -0.00001   2.87758
    R3        2.07452   0.00000   0.00000   0.00001   0.00001   2.07452
    R4        2.66567   0.00000   0.00000   0.00000   0.00000   2.66566
    R5        2.89421   0.00001   0.00000   0.00002   0.00002   2.89423
    R6        2.07965   0.00000   0.00000   0.00000   0.00000   2.07965
    R7        2.64865   0.00001   0.00000   0.00003   0.00003   2.64868
    R8        2.05778   0.00000   0.00000   0.00000   0.00000   2.05778
    R9        2.61086  -0.00001   0.00000  -0.00002  -0.00002   2.61084
   R10        2.74862   0.00002   0.00000   0.00005   0.00005   2.74867
   R11        2.88214   0.00000   0.00000  -0.00001  -0.00001   2.88213
   R12        2.07312   0.00000   0.00000   0.00000   0.00000   2.07312
   R13        2.71830   0.00000   0.00000  -0.00001  -0.00001   2.71829
   R14        2.87203   0.00000   0.00000   0.00001   0.00001   2.87204
   R15        2.07105   0.00000   0.00000   0.00000   0.00000   2.07105
   R16        2.66650   0.00001   0.00000   0.00001   0.00001   2.66652
   R17        3.04690   0.00002   0.00000   0.00004   0.00004   3.04694
   R18        2.67679  -0.00001   0.00000  -0.00001  -0.00001   2.67678
   R19        2.67640   0.00000   0.00000   0.00000   0.00000   2.67640
   R20        2.67728   0.00000   0.00000  -0.00001  -0.00001   2.67727
   R21        2.06354   0.00000   0.00000  -0.00001  -0.00001   2.06353
   R22        2.07197   0.00000   0.00000   0.00000   0.00000   2.07197
   R23        2.66226   0.00000   0.00000   0.00000   0.00000   2.66227
   R24        2.67742   0.00000   0.00000   0.00000   0.00000   2.67742
   R25        2.74100  -0.00001   0.00000  -0.00001  -0.00001   2.74098
   R26        2.75043  -0.00001   0.00000  -0.00001  -0.00001   2.75042
   R27        3.35369   0.00000   0.00000   0.00001   0.00001   3.35369
   R28        2.62176   0.00000   0.00000   0.00001   0.00001   2.62177
   R29        2.62142   0.00000   0.00000   0.00000   0.00000   2.62142
   R30        2.62411   0.00000   0.00000   0.00000   0.00000   2.62410
   R31        2.04737   0.00000   0.00000   0.00000   0.00000   2.04737
   R32        2.62177   0.00000   0.00000   0.00000   0.00000   2.62176
   R33        2.04578   0.00000   0.00000   0.00000   0.00000   2.04578
   R34        2.62436   0.00000   0.00000   0.00000   0.00000   2.62436
   R35        2.83926   0.00000   0.00000   0.00000   0.00000   2.83926
   R36        2.62602   0.00000   0.00000   0.00000   0.00000   2.62602
   R37        2.83695   0.00000   0.00000   0.00000   0.00000   2.83695
   R38        2.04748   0.00000   0.00000   0.00000   0.00000   2.04748
   R39        2.07198   0.00000   0.00000   0.00000   0.00000   2.07198
   R40        2.07367   0.00000   0.00000   0.00000   0.00000   2.07367
   R41        2.06049   0.00000   0.00000   0.00000   0.00000   2.06050
   R42        2.06295   0.00000   0.00000   0.00000   0.00000   2.06294
   R43        2.07459   0.00000   0.00000   0.00000   0.00000   2.07459
   R44        2.06630   0.00000   0.00000   0.00000   0.00000   2.06630
   R45        2.06299   0.00000   0.00000   0.00000   0.00000   2.06299
   R46        2.06781   0.00000   0.00000   0.00000   0.00000   2.06781
   R47        2.07333   0.00000   0.00000   0.00000   0.00000   2.07333
   R48        2.06326   0.00000   0.00000   0.00000   0.00000   2.06326
   R49        2.07343   0.00000   0.00000   0.00000   0.00000   2.07343
   R50        2.06801   0.00000   0.00000   0.00000   0.00000   2.06802
   R51        2.53359   0.00000   0.00000   0.00000   0.00000   2.53358
   R52        2.53717   0.00000   0.00000   0.00000   0.00000   2.53718
   R53        2.53467   0.00000   0.00000   0.00000   0.00000   2.53467
   R54        2.55045   0.00000   0.00000   0.00001   0.00001   2.55046
   R55        2.53105   0.00000   0.00000   0.00000   0.00000   2.53105
   R56        2.52992   0.00000   0.00000  -0.00001  -0.00001   2.52991
    A1        1.92221   0.00000   0.00000   0.00001   0.00001   1.92222
    A2        1.91141   0.00000   0.00000   0.00001   0.00001   1.91142
    A3        1.92977   0.00000   0.00000  -0.00001  -0.00001   1.92976
    A4        1.89526   0.00000   0.00000   0.00002   0.00002   1.89528
    A5        1.87922   0.00000   0.00000  -0.00001  -0.00001   1.87920
    A6        1.92548   0.00000   0.00000  -0.00002  -0.00002   1.92547
    A7        1.93811   0.00000   0.00000   0.00002   0.00002   1.93813
    A8        1.88346   0.00000   0.00000   0.00002   0.00002   1.88348
    A9        1.90100   0.00000   0.00000   0.00000   0.00000   1.90099
   A10        1.85130   0.00000   0.00000   0.00001   0.00001   1.85131
   A11        1.96297   0.00000   0.00000   0.00001   0.00001   1.96298
   A12        1.92517   0.00000   0.00000  -0.00005  -0.00005   1.92512
   A13        1.95878   0.00000   0.00000  -0.00001  -0.00001   1.95877
   A14        1.97106   0.00000   0.00000   0.00002   0.00002   1.97108
   A15        1.84898   0.00000   0.00000   0.00000   0.00000   1.84898
   A16        1.86176   0.00000   0.00000   0.00002   0.00002   1.86177
   A17        1.88459   0.00000   0.00000   0.00001   0.00001   1.88460
   A18        1.93812   0.00000   0.00000  -0.00003  -0.00003   1.93809
   A19        1.90113   0.00000   0.00000   0.00000   0.00000   1.90113
   A20        1.93104   0.00000   0.00000  -0.00001  -0.00001   1.93104
   A21        1.95713   0.00000   0.00000   0.00000   0.00000   1.95714
   A22        1.90175   0.00000   0.00000   0.00000   0.00000   1.90175
   A23        1.88194   0.00000   0.00000   0.00000   0.00000   1.88194
   A24        1.88955   0.00000   0.00000   0.00001   0.00001   1.88955
   A25        1.94775   0.00000   0.00000   0.00002   0.00002   1.94777
   A26        1.89983   0.00000   0.00000  -0.00001  -0.00001   1.89983
   A27        1.92383   0.00000   0.00000   0.00000   0.00000   1.92384
   A28        1.89227   0.00000   0.00000   0.00001   0.00001   1.89228
   A29        1.86973   0.00000   0.00000  -0.00002  -0.00002   1.86972
   A30        1.93032   0.00000   0.00000   0.00000   0.00000   1.93032
   A31        2.01733   0.00000   0.00000   0.00001   0.00001   2.01734
   A32        2.07760   0.00002   0.00000   0.00006   0.00006   2.07767
   A33        2.00183   0.00000   0.00000   0.00002   0.00002   2.00185
   A34        2.00257   0.00000   0.00000   0.00000   0.00000   2.00257
   A35        1.99219   0.00000   0.00000   0.00000   0.00000   1.99220
   A36        1.87102   0.00000   0.00000   0.00000   0.00000   1.87102
   A37        1.90955   0.00000   0.00000   0.00000   0.00000   1.90955
   A38        1.99678   0.00000   0.00000   0.00001   0.00001   1.99679
   A39        1.89509   0.00000   0.00000   0.00000   0.00000   1.89509
   A40        1.85691   0.00000   0.00000   0.00000   0.00000   1.85690
   A41        1.93053   0.00000   0.00000   0.00000   0.00000   1.93053
   A42        2.00246   0.00000   0.00000   0.00001   0.00001   2.00247
   A43        1.82433   0.00000   0.00000  -0.00001  -0.00001   1.82432
   A44        1.89707   0.00000   0.00000   0.00002   0.00002   1.89709
   A45        1.80745  -0.00001   0.00000  -0.00002  -0.00002   1.80743
   A46        2.11376  -0.00001   0.00000  -0.00004  -0.00004   2.11372
   A47        1.89978   0.00000   0.00000   0.00002   0.00002   1.89980
   A48        1.89682   0.00000   0.00000   0.00003   0.00003   1.89684
   A49        2.07356   0.00000   0.00000  -0.00001  -0.00001   2.07355
   A50        2.07748   0.00000   0.00000   0.00001   0.00001   2.07749
   A51        2.13159   0.00000   0.00000   0.00000   0.00000   2.13159
   A52        2.06721   0.00000   0.00000   0.00000   0.00000   2.06721
   A53        2.10583   0.00000   0.00000   0.00001   0.00001   2.10584
   A54        2.11014   0.00000   0.00000  -0.00001  -0.00001   2.11013
   A55        2.06605   0.00000   0.00000   0.00000   0.00000   2.06605
   A56        2.10591   0.00000   0.00000   0.00001   0.00001   2.10592
   A57        2.11122   0.00000   0.00000  -0.00001  -0.00001   2.11121
   A58        2.10501   0.00000   0.00000   0.00000   0.00000   2.10502
   A59        2.08822   0.00000   0.00000   0.00000   0.00000   2.08822
   A60        2.08930   0.00000   0.00000   0.00000   0.00000   2.08930
   A61        2.10693   0.00000   0.00000   0.00000   0.00000   2.10693
   A62        2.08744   0.00000   0.00000  -0.00001  -0.00001   2.08742
   A63        2.08713   0.00000   0.00000   0.00001   0.00001   2.08714
   A64        2.08957   0.00000   0.00000   0.00000   0.00000   2.08957
   A65        2.09668   0.00000   0.00000   0.00000   0.00000   2.09668
   A66        2.09694   0.00000   0.00000   0.00000   0.00000   2.09694
   A67        1.95507   0.00000   0.00000   0.00002   0.00002   1.95509
   A68        1.93646   0.00000   0.00000   0.00000   0.00000   1.93646
   A69        1.86256   0.00000   0.00000   0.00001   0.00001   1.86257
   A70        1.90451   0.00000   0.00000  -0.00001  -0.00001   1.90450
   A71        1.89647   0.00000   0.00000  -0.00001  -0.00001   1.89646
   A72        1.90760   0.00000   0.00000  -0.00001  -0.00001   1.90759
   A73        1.86151   0.00000   0.00000  -0.00001  -0.00001   1.86150
   A74        1.93641   0.00000   0.00000   0.00000   0.00000   1.93641
   A75        1.94574   0.00000   0.00000   0.00000   0.00000   1.94575
   A76        1.90116   0.00000   0.00000   0.00000   0.00000   1.90116
[...]
 0.00002137,0.00002041,0.00004837,0.00001826,0.00000302,-0.00000762,0.0
 0001505,-0.00000535,-0.00045641,-0.00007294,0.00031773,0.00011032,0.00
 009347,-0.00005113,-0.00037705,-0.00005131,0.00031006,0.00021731,-0.00
 003709,-0.00001726,0.00125673,0.00162958,-0.00361802,0.00001053,-0.000
 40742,0.00109775,-0.00096665,-0.00074168,0.00080440,-0.00045001,0.0000
 1163,0.00112459,0.00170978,-0.03565616,0.59115223,0.00006117,-0.000160
 71,-0.00003743,0.00007113,-0.00002702,-0.00006081,0.00010411,-0.000626
 02,0.00006217,-0.00024983,-0.00072053,-0.00045163,0.00006165,0.0002788
 6,0.00021020,-0.00001955,0.00004243,0.00000177,0.00001701,0.00000562,0
 .00000038,-0.00000978,0.00001436,-0.00000767,-0.00000854,0.00005098,-0
 .00001778,0.00005917,-0.00001449,0.00000219,-0.00020120,0.00048977,0.0
 0017969,0.00036786,0.00040882,-0.00003329,-0.00009252,0.00010971,0.000
 05517,-0.00019480,0.00010308,-0.00006767,-0.00016054,-0.00001851,-0.00
 012228,0.00209031,0.00123186,0.00053976,-0.00027031,0.00000643,-0.0002
 0369,-0.00167387,-0.00046818,-0.00068531,-0.00107745,-0.00059239,-0.00
 071479,-0.00058088,-0.00013539,0.00008116,0.00013587,-0.00006488,0.000
 00522,0.00013214,0.00001739,-0.00002420,0.00065412,-0.00073418,0.00037
 527,0.00030035,-0.00011645,-0.00050296,-0.00057289,-0.00087148,0.00085
 501,-0.00046377,0.00019339,-0.00017400,0.00000798,-0.00002314,0.000004
 66,0.00974338,-0.00136078,-0.00244326,-0.00015285,-0.00007831,-0.00005
 623,0.00012520,0.00090112,0.00068819,-0.00005427,0.00015029,-0.0003856
 4,0.00001396,-0.00001470,-0.00005759,0.00000294,-0.00000471,0.00001104
 ,0.00000331,-0.00000074,0.00000701,-0.00000844,0.00000777,0.00000569,0
 .00003770,-0.00007436,0.00006430,-0.00001593,0.00000639,-0.00000970,0.
 00000234,0.00000913,-0.00001103,-0.00000629,0.00001681,-0.00000392,0.0
 0009702,0.00009075,0.00007695,-0.00000520,-0.00000999,-0.00002527,-0.0
 0002687,-0.00001077,-0.00000492,0.00001122,0.00001773,0.00000925,0.001
 77743,-0.00000320,0.00128542,-0.00039203,-0.00012776,-0.00007088,-0.00
 218177,-0.00004250,-0.00012085,-0.00042434,-0.00006153,-0.00003344,-0.
 00016139,-0.00007316,-0.00016924,0.00007169,0.00000251,0.00005776,0.00
 001851,0.00000688,0.00004243,0.00002162,0.00002282,0.00005163,-0.10329
 434,-0.06993099,-0.00670251,0.15283075,-0.00003010,-0.00017288,-0.0001
 0206,-0.00010663,0.00004231,-0.00007754,-0.00031236,-0.00104658,0.0004
 0844,-0.00026471,-0.00081444,-0.00042449,0.00000842,0.00016792,0.00007
 318,-0.00003542,0.00006155,-0.00001408,0.00007503,0.00001809,0.0000060
 5,-0.00001570,0.00002708,-0.00002440,-0.00006985,0.00006098,-0.0001092
 7,0.00009818,0.00000243,0.00001347,0.00020808,0.00085209,0.00021621,0.
 00155828,0.00071941,-0.00017344,0.00007518,0.00006027,-0.00000775,-0.0
 0002493,0.00011105,0.00001134,-0.00007060,0.00012475,0.00001807,0.0012
 1248,0.00039707,0.00075451,-0.00011005,0.00004851,-0.00013461,0.000539
 85,-0.00110409,0.00057777,-0.00065408,0.00020261,-0.00094942,-0.003353
 60,0.00161635,0.00106796,0.00080109,-0.00104124,0.00002570,0.00085246,
 -0.00046050,-0.00073009,0.00163159,0.00036749,0.00133342,0.00022824,-0
 .00095961,0.00068594,-0.00204282,-0.00016992,0.00248567,0.00184145,0.0
 0037499,0.00161346,-0.00018999,-0.00007460,-0.00012777,-0.01837221,-0.
 04424094,0.00135223,-0.00095717,-0.00060216,-0.00051423,0.00248317,-0.
 00188096,-0.00216880,-0.00098733,-0.00070117,-0.00035778,-0.00005369,-
 0.00000745,0.00002993,0.00000123,0.00000183,0.00001619,0.00001271,0.00
 001382,-0.00000759,0.00000171,-0.00000133,0.00000129,-0.00000255,-0.00
 002896,0.00002764,0.00000154,0.00000552,-0.00000175,0.00000184,-0.0000
 0130,-0.00000797,-0.00001082,0.00000803,0.00000031,0.00003252,-0.00004
 821,0.00004658,0.00000224,0.00000047,-0.00000872,-0.00001352,0.0000034
 6,-0.00000534,0.00001571,0.00003860,-0.00000280,0.00184202,0.00025920,
 0.00165955,-0.00037042,-0.00012433,-0.00008631,-0.00002587,0.00010302,
 -0.00087706,-0.00057054,-0.00008950,-0.00006382,0.00133929,-0.00003210
 ,-0.00240383,0.00000950,-0.00023626,0.00103314,-0.00060422,-0.00032383
 ,0.00052296,-0.00035819,0.00037438,0.00071538,-0.07203836,-0.23595764,
 -0.01138300,0.13367987,0.31095014,0.00004470,-0.00007802,-0.00001480,0
 .00008043,-0.00003408,-0.00002284,0.00017300,-0.00001326,-0.00015003,-
 0.00013478,-0.00037450,-0.00032620,0.00003978,0.00018784,0.00012653,-0
 .00001787,0.00002003,0.00001074,-0.00002174,-0.00000409,-0.00000107,0.
 00000024,-0.00000009,0.00000613,0.00001988,0.00000644,0.00004098,0.000
 00071,-0.00001645,-0.00000289,-0.00020860,0.00007111,0.00015962,-0.000
 39047,0.00000254,0.00012376,-0.00008857,0.00005593,0.00006606,-0.00013
 472,0.00004512,-0.00003920,-0.00010016,-0.00004074,-0.00006249,0.00107
 990,0.00107465,0.00021839,-0.00013163,-0.00003161,-0.00007752,-0.00111
 748,-0.00019992,-0.00085576,-0.00047667,-0.00052459,0.00034064,0.00080
 741,-0.00071966,-0.00073573,-0.00020244,0.00036014,0.00005032,-0.00018
 565,0.00015042,0.00038226,-0.00085315,0.00021798,-0.00111144,-0.000718
 44,0.00063789,0.00030557,0.00187075,0.00026649,-0.00116562,-0.00020319
 ,-0.00084771,0.00048762,0.00004101,0.00000183,0.00006281,0.00383900,0.
 01899665,0.00980681,-0.00004779,0.00050002,0.00007308,-0.00034124,-0.0
 0068346,0.00055247,0.00013296,0.00000889,0.00010077,0.00002638,-0.0000
 1081,-0.00006963,0.00000589,0.00000128,0.00000295,-0.00000588,-0.00000
 681,0.00000809,-0.00000527,0.00000469,0.00000605,0.00002584,-0.0000419
 3,0.00003141,-0.00001176,0.00000295,-0.00000699,0.00000017,0.00000567,
 -0.00000293,-0.00000210,0.00001070,-0.00000306,0.00006140,0.00007820,0
 .00003767,-0.00000173,-0.00000790,-0.00001015,-0.00001784,-0.00000697,
 -0.00000199,0.00000443,-0.00000096,0.00000260,0.00015258,0.00009462,-0
 .00013939,-0.00002120,-0.00002874,0.00004408,0.00033617,-0.00011099,-0
 .00021721,-0.00006320,0.00000589,0.00002358,-0.00028197,-0.00019842,0.
 00060703,0.00002002,0.00005927,-0.00018231,0.00017962,0.00013676,-0.00
 013426,0.00008856,-0.00001269,-0.00017037,-0.00700698,-0.01101998,-0.0
 7381971,0.02483959,0.04941081,0.08332526,0.00011554,-0.00004443,0.0000
 6216,0.00019179,-0.00009183,-0.00000128,0.00037622,0.00000561,-0.00024
 592,0.00001863,-0.00004850,0.00002917,0.00008881,0.00013458,0.00020341
 ,0.00001285,-0.00000630,0.00001152,-0.00003775,-0.00000613,-0.00000879
 ,-0.00000250,-0.00000077,0.00000524,0.00003480,0.00002005,0.00005005,0
 .00000814,-0.00001320,-0.00001019,-0.00044049,-0.00002310,-0.00005422,
 -0.00083694,-0.00005364,0.00005407,-0.00019497,0.00011292,0.00006667,-
 0.00023153,0.00004355,-0.00011299,-0.00014405,-0.00011320,-0.00019388,
 0.00078897,0.00041852,0.00028679,-0.00010495,-0.00001890,-0.00010419,0
 .00001982,-0.00017345,0.00015702,-0.00046774,-0.00027545,-0.00027143,0
 .00205705,-0.00140713,-0.00083312,-0.00061826,0.00115298,-0.00015043,-
 0.00052344,0.00045719,0.00057150,-0.00068817,0.00124390,0.00110636,-0.
 00013077,0.00013092,-0.00057442,-0.00065584,0.00288915,-0.00596582,0.0
 0024372,0.00096935,-0.00069965,0.00005420,-0.00012260,-0.00006825,-0.0
 3463573,0.01257810,0.00407852,0.00037548,-0.00078549,-0.00009163,-0.00
 094442,0.00017086,0.00388017,-0.00015372,-0.00038116,-0.00207785,0.000
 06360,-0.00001718,-0.00009397,0.00000158,-0.00001289,0.00000236,-0.000
 00172,-0.00000955,0.00001576,-0.00001587,0.00001343,0.00000468,0.00005
 866,-0.00008256,0.00006934,-0.00002164,0.00000340,-0.00001100,0.000002
 32,0.00001393,-0.00001155,0.00000091,0.00001556,-0.00000399,0.00009422
 ,0.00013221,0.00006296,-0.00000655,-0.00001356,-0.00002602,-0.00002355
 ,-0.00001427,-0.00000109,0.00000023,-0.00000208,0.00000991,0.00075348,
 0.00009741,0.00052088,-0.00017217,-0.00009605,-0.00002489,0.00004378,0
 .00017174,-0.00031407,-0.00014309,-0.00001698,-0.00001796,-0.00120418,
 -0.00001157,0.00140188,0.00009638,0.00011730,-0.00051416,0.00055605,0.
 00027985,-0.00033572,0.00034149,-0.00025340,-0.00043708,-0.27719155,0.
 05812267,0.00817365,-0.06582098,-0.03370841,-0.00039577,0.40554372,-0.
 00004922,-0.00004143,-0.00005275,-0.00010148,0.00004222,-0.00002680,-0
 .00023590,-0.00037380,0.00023817,-0.00010374,-0.00025595,-0.00014029,-
 0.00002784,0.00001130,-0.00004781,-0.00001415,0.00002039,-0.00001060,0
 .00003900,0.00000943,0.00000499,-0.00000442,0.00000930,-0.00001111,-0.
 00003650,0.00001550,-0.00005915,0.00003047,0.00000589,0.00000852,0.000
 20935,0.00028895,0.00008298,0.00079677,0.00025992,-0.00007951,0.000091
 13,-0.00001637,-0.00002842,0.00006864,0.00002314,0.00003965,0.00002416
 ,0.00008061,0.00007032,0.00017068,-0.00001369,0.00010190,-0.00001243,0
 .00002194,-0.00001122,0.00002060,-0.00024356,0.00009967,-0.00009139,0.
 00013560,-0.00019649,-0.00205964,0.00085190,0.00070354,0.00061870,-0.0
 0080877,0.00008357,0.00048344,-0.00027519,-0.00049716,0.00010001,-0.00
 193345,-0.00019259,0.00071456,-0.00051082,0.00001693,0.00035585,-0.000
 75350,0.00430889,-0.00017769,-0.00017251,-0.00020558,0.00000374,0.0000
 6479,-0.00000146,0.03503373,-0.00182795,-0.00074394,0.00003647,0.00066
 717,0.00005099,0.00073125,-0.00087830,-0.00028043,0.00052009,-0.000483
 67,0.00090403,-0.00003967,0.00000342,0.00004500,-0.00000059,0.00000394
 ,0.00000480,0.00000582,0.00000853,-0.00000793,0.00000543,-0.00000470,-
 0.00000158,-0.00001987,0.00001688,-0.00001285,0.00000775,0.00000073,0.
 00000316,0.,-0.00000502,0.00000077,-0.00000395,-0.00000256,0.00000161,
 -0.00002084,-0.00006112,-0.00000551,0.00000311,0.00000460,0.00000575,0
 .00000341,0.00000588,-0.00000126,0.00000492,0.00001371,-0.00000451,0.0
 0033595,0.00000961,0.00030677,-0.00004926,-0.00000305,-0.00001751,0.00
 004419,0.00006198,-0.00015495,-0.00010622,-0.00001724,-0.00000851,0.00
 071045,0.00006134,-0.00131892,-0.00001063,-0.00009760,0.00045462,-0.00
 034418,-0.00017635,0.00029158,-0.00022427,0.00019790,0.00039896,0.0526
 9073,-0.08945690,0.00180372,-0.05030782,0.00192378,0.00059894,-0.05590
 356,0.08747111,0.00002960,0.00000626,0.00001287,0.00005207,-0.00002854
 ,0.00000989,0.00012990,0.00019579,-0.00017214,0.00005254,0.00005650,-0
 .00000729,0.00001998,0.00000910,0.00002785,-0.00000470,-0.00000135,0.0
 0000818,-0.00002479,-0.00000602,-0.00000288,0.00000231,-0.00000447,0.0
 0000749,0.00001665,-0.00000819,0.00003843,-0.00001260,-0.00000625,-0.0
 0000363,-0.00011339,-0.00010583,0.00003176,-0.00049704,-0.00012308,0.0
 0010105,-0.00005431,0.00001833,0.00003809,-0.00004719,-0.00000129,-0.0
 0001422,-0.00002868,-0.00002927,-0.00002198,0.00004241,0.00008038,-0.0
 0003045,0.00001105,-0.00000756,0.00001150,0.00003077,0.00001890,-0.000
 00008,-0.00003703,-0.00008053,0.00012866,0.00115676,-0.00057021,-0.000
 68823,-0.00033290,0.00047654,0.00000194,-0.00024723,0.00014062,0.00041
 252,-0.00082518,0.00115559,0.00038657,-0.00038225,0.00037603,-0.000051
 23,-0.00013297,0.00106789,-0.00303985,-0.00052868,-0.00013508,0.000859
 61,-0.00005271,0.00003934,0.00006194,-0.01742753,0.00754697,0.01023884
 ,-0.00037572,0.00020339,-0.00001042,-0.00055250,0.00002225,-0.00231073
 ,-0.00149602,0.00112148,0.00038360,0.00001997,-0.00000694,-0.00004380,
 0.00000425,0.00000143,-0.00000081,-0.00000530,-0.00000555,0.00000520,-
 0.00000269,0.00000233,0.00000291,0.00001284,-0.00001251,0.00000587,-0.
 00000471,-0.00000017,-0.00000256,-0.00000066,0.00000218,0.00000075,0.0
 0000079,0.00000347,-0.00000094,0.00001838,0.00002968,0.00000626,0.0000
 0042,-0.00000256,-0.00000076,-0.00000588,-0.00000187,0.00000004,0.0000
 0057,-0.00000406,0.00000003,-0.00003417,-0.00000423,-0.00010726,0.0000
 0337,-0.00000557,0.00000900,0.00004033,0.00001428,-0.00001131,-0.00000
 589,0.00000895,0.00000333,-0.00026716,-0.00037057,0.00086129,-0.000048
 97,0.00011014,-0.00028997,0.00021630,0.00016666,-0.00017862,0.00008632
 ,0.00000479,-0.00024084,0.01553765,-0.00053864,-0.07945536,-0.00235179
 ,-0.00026911,0.01273420,-0.04901926,0.00827472,0.08678375,0.00002938,-
 0.00000569,0.00002487,0.00005370,-0.00002621,-0.00000258,0.00011109,-0
 .00002863,-0.00002579,0.00000374,0.00002049,0.00006937,0.00002546,0.00
 002791,0.00004640,0.00001498,-0.00000428,0.00000005,-0.00000581,-0.000
 00015,-0.00000232,-0.00000091,0.00000012,-0.00000047,0.00000720,0.0000
 0607,0.00000292,0.00000333,-0.00000143,-0.00000242,-0.00009714,-0.0000
 1422,-0.00005516,-0.00018311,0.00002467,-0.00001869,-0.00005178,0.0000
 3150,0.00000956,-0.00005874,0.00000959,-0.00003430,-0.00003453,-0.0000
 3197,-0.00005666,0.00013100,0.00006892,0.00006193,-0.00002068,-0.00000
 577,-0.00002462,0.00002862,-0.00005056,0.00006706,-0.00008070,-0.00004
 747,-0.00009264,0.00048029,-0.00055039,0.00007166,-0.00008120,0.000224
 00,-0.00007484,-0.00014540,0.00015933,0.00005946,0.00057008,-0.0004219
 8,-0.00036327,-0.00000010,0.00012180,-0.00022494,-0.00203457,0.0005886
 7,-0.00038580,0.00031601,-0.00007063,-0.00088938,0.00005541,-0.0000021
 8,-0.00006570,0.01076656,0.00066934,-0.00852535,0.00049723,0.00022964,
 -0.00164743,-0.00115545,0.00168664,-0.00031637,0.00011992,0.00013414,-
 0.00040165,0.00001674,-0.00000410,-0.00001789,-0.00000064,-0.00000587,
 0.00000088,0.00000155,-0.00000143,0.00000395,-0.00000509,0.00000403,0.
 00000010,0.00001599,-0.00002262,0.00001978,-0.00000550,0.00000089,-0.0
 0000268,0.00000088,0.00000385,-0.00000392,0.00000051,0.00000368,-0.000
 00074,0.00002243,0.00003333,0.00001525,-0.00000189,-0.00000366,-0.0000
 0724,-0.00000522,-0.00000386,0.00000009,-0.00000081,-0.00000078,0.0000
 0279,0.00014807,0.00002525,0.00010974,-0.00003373,-0.00002543,-0.00000
 971,-0.00000779,0.00006232,0.00001065,0.00000860,0.00000053,-0.0000002
 1,-0.00043042,0.00002931,0.00038484,0.00001437,0.00005418,-0.00022255,
 0.00017816,0.00009083,-0.00010131,0.00010077,-0.00007432,-0.00011069,-
 0.07693865,0.00607398,0.01846532,0.00930071,-0.01319960,-0.02068213,-0
 .02652990,0.01608489,0.05743470,0.08488696,-0.00002078,-0.00005246,-0.
 00003986,-0.00005386,0.00002054,-0.00002188,-0.00014704,-0.00035741,0.
 00014126,-0.00008686,-0.00025939,-0.00014414,-0.00000572,0.00004127,0.
 00000290,-0.00001714,0.00001679,-0.00000428,0.00002646,0.00000685,0.00
 000238,-0.00000440,0.00000840,-0.00000859,-0.00002521,0.00001637,-0.00
 003749,0.00002738,0.00000191,0.00000500,0.00008960,0.00028475,0.000082
 83,0.00055427,0.00022222,-0.00001899,0.00004012,0.00001219,-0.00000503
 ,0.00001373,0.00003298,0.00001524,-0.00001026,0.00005256,0.00002696,0.
 00035537,0.00012340,0.00017803,-0.00003723,0.00001159,-0.00003143,0.00
 009021,-0.00031275,0.00008676,-0.00018953,0.00005332,-0.00017636,-0.00
 129897,0.00075069,0.00005243,0.00027823,-0.00036142,0.00006860,0.00036
 492,-0.00021340,-0.00019105,-0.00065164,0.00050658,0.00002144,-0.00025
 805,-0.00007927,0.00091982,0.00192036,-0.00164732,0.00072698,-0.000438
 71,-0.00127131,0.00100403,-0.00005113,0.00002735,0.00004703,-0.0009838
 8,0.00947790,0.02303505,-0.00030210,-0.00048011,0.00155275,0.00280297,
 -0.00125766,0.00025732,0.00005316,0.00026505,0.00016172,-0.00002511,-0
 .00000290,0.00001399,0.00000108,0.00000203,0.00000593,0.00000440,0.000
 00570,-0.00000375,0.00000193,-0.00000168,0.00000030,-0.00000645,-0.000
 00190,0.00000191,0.00000269,0.00000152,0.00000048,0.00000032,-0.000001
 88,-0.00000136,-0.00000384,0.00000132,0.00000055,0.00000126,-0.0000283
 7,0.00000824,0.00000159,0.00000121,0.00000015,-0.00000225,0.00000242,-
 0.00000158,0.00000485,0.00001222,-0.00000250,0.00039817,0.00002876,0.0
 0026651,-0.00006304,-0.00001867,-0.00001526,0.00005755,0.00006756,-0.0
 0012304,-0.00011062,-0.00001371,-0.00000684,0.00063443,-0.00027520,-0.
 00110272,0.00002370,-0.00007021,0.00041541,-0.00034990,-0.00013239,0.0
 0028036,-0.00017801,0.00018116,0.00028965,0.00621762,-0.08084445,-0.02
 890429,-0.01119012,-0.02881721,-0.05799941,0.01441211,0.00612203,-0.01
 882456,-0.01186667,0.09814240,0.00008753,-0.00004103,0.00000545,0.0001
 3531,-0.00005761,-0.00000588,0.00035043,0.00016761,-0.00038070,0.00006
 792,-0.00007892,-0.00019131,0.00007023,0.00009342,0.00012926,-0.000024
 90,0.00001437,0.00002018,-0.00004999,-0.00001175,-0.00000447,0.0000029
 1,-0.00000643,0.00001590,0.00004393,-0.00000958,0.00009690,-0.00001649
 ,-0.00002027,-0.00000850,-0.00040858,-0.00005751,0.00018313,-0.0009393
 7,-0.00006773,0.00023683,-0.00015370,0.00008073,0.00011682,-0.00016554
 ,0.00003150,-0.00004332,-0.00012108,-0.00006753,-0.00007742,0.00067070
 ,0.00047247,0.00013107,-0.00004081,-0.00001895,-0.00002346,0.00005967,
 -0.00015064,0.00001513,-0.00039225,-0.00030785,0.00023235,0.00218284,-
 0.00156471,-0.00145499,-0.00056366,0.00080488,0.00008650,-0.00048667,0
 .00036950,0.00095339,0.00000239,0.00127959,0.00011468,-0.00035606,0.00
 029744,-0.00047037,0.00318786,-0.00164036,-0.00090322,0.00169690,0.000
 60048,-0.00183416,-0.00010440,-0.00006777,0.00008901,0.00573301,-0.006
 77878,-0.04696299,-0.00214443,0.00084747,-0.00044297,-0.00599629,0.005
 76170,-0.00170803,-0.00026310,-0.00057418,0.00069995,0.00004647,-0.000
 02319,-0.00013014,0.00001331,0.00000485,0.00000298,-0.00001284,-0.0000
 1339,0.00001428,-0.00000781,0.00000691,0.00001002,0.00004005,-0.000049
 46,0.00002883,-0.00001533,0.00000149,-0.00000882,-0.00000130,0.0000070
 4,0.00000003,-0.00000089,0.00001377,-0.00000343,0.00007321,0.00009465,
 0.00003777,0.00000011,-0.00000882,-0.00000788,-0.00002316,-0.00000727,
 -0.00000189,0.00000532,-0.00000382,0.00000135,0.00032495,0.00004188,-0
 .00006821,-0.00007188,-0.00004859,0.00001389,0.00012963,0.00004329,-0.
 00018327,-0.00013842,0.00001182,0.00000078,-0.00142232,0.00001221,0.00
 209130,-0.00012031,0.00028164,-0.00106657,0.00075303,0.00042237,-0.000
 47576,0.00027800,-0.00012843,-0.00057093,0.01269337,-0.02009104,-0.290
 19835,-0.01396213,-0.04307417,-0.03041393,0.04184653,-0.01478570,-0.02
 648807,-0.04249191,0.07799239,0.39880124\\0.00000240,-0.00000484,0.000
 00339,0.00000468,-0.00001289,-0.00000815,-0.00000294,-0.00002494,0.000
 01415,-0.00000306,-0.00000055,0.00000244,0.00000100,0.00000498,0.00001
 189,-0.00000238,0.00000110,-0.00000160,-0.00000288,0.00000506,0.000003
 03,-0.00000305,0.00000064,-0.00000240,-0.00000033,-0.00000015,-0.00000
 090,-0.00000186,-0.00000030,0.00000089,-0.00000354,0.00001279,-0.00000
 521,0.00000299,0.00000058,-0.00001448,-0.00000687,0.00000987,0.0000089
 4,0.00000239,-0.00000190,0.00000063,-0.00000369,-0.00000272,-0.0000062
 4,0.00000151,-0.00000327,-0.00000291,0.00000013,-0.00000078,0.00000304
 ,0.00000124,0.00000059,0.00000105,-0.00000023,0.00000078,0.00000221,0.
 00001294,0.00001714,0.00000281,-0.00000403,-0.00000904,0.00000865,0.00
 000181,0.00000747,-0.00001263,0.00000225,0.00000166,0.00000291,0.00000
 135,0.00000058,-0.00000500,-0.00000137,-0.00000200,-0.00000447,-0.0000
 0243,0.00000197,-0.00000269,0.00000009,-0.00000099,-0.00000394,0.00000
 155,-0.00000008,-0.00000218,0.00000166,0.00000080,0.00000055,0.0000013
 2,0.00000194,0.00000023,-0.00000067,-0.00000041,-0.00000090,0.00000348
 ,0.00000013,-0.00000884,-0.00000108,0.00000199,0.00000018,0.00000038,0
 .00000038,0.00000122,-0.00000115,0.00000104,0.00000068,-0.00000222,-0.
 00000142,0.00000143,0.00000034,-0.00000187,0.00000234,-0.00000067,-0.0
 0000184,0.00000074,-0.00000053,-0.00000109,0.00000005,0.00000454,0.000
 00022,0.00000329,0.00000014,-0.00000322,0.00000241,-0.00000163,-0.0000
 0206,0.00000221,-0.00000165,-0.00000202,0.00000289,0.00000178,-0.00000
 081,0.00000107,0.00000137,0.00000164,0.00000294,0.00000041,0.00000168,
 0.00000178,0.00000039,0.00000099,0.00000254,-0.00000544,-0.00000077,-0
 .00000456,0.,-0.00000281,-0.00000037,0.00000137,0.00000027,-0.00000191
 ,-0.00000135,-0.00000179,-0.00000106,0.00000295,0.00000510,0.00000427,
 -0.00000245,-0.00000219,-0.00000066,-0.00000009,0.00000253,-0.00000158
 ,0.00000112,0.00000285,-0.00000417\\\@


 HIGGLEDY-PIGGLEDY
 NIC'LAUS COPERNICUS
 LOOKED AT THE UNIVERSE,
 SPOKE TO THE THRONG;
 GIVE UP YOUR PTOLOMY,
 RISE UP AND FOLLOW ME,
 HELIOCENTRICALLY
 PTOLEMY'S WRONG.
   -- NANCY L. STARK
 Job cpu time:       1 days  3 hours 19 minutes  2.0 seconds.
 Elapsed time:       0 days  0 hours 54 minutes 45.7 seconds.
 File lengths (MBytes):  RWF=   2318 Int=      0 D2E=      0 Chk=     41 Scr=      1
 Normal termination of Gaussian 16 at Sat Jun 15 08:57:07 2019.
