 Entering Gaussian System, Link 0=g16
 Input=clay_new-glu_gluC6-bisCF3-sm-b98-custom-pcm_thf.gjf
 Output=clay_new-glu_gluC6-bisCF3-sm-b98-custom-pcm_thf.out
 Initial command:
 /home/ekwan/sw/g16/l1.exe "/scratch/users/ekwan/clay_new-glu_gluC6-bisCF3-sm-b98-custom-pcm_thf/Gau-21257.inp" -scrdir="/scratch/users/ekwan/clay_new-glu_gluC6-bisCF3-sm-b98-custom-pcm_thf/"
 Entering Link 1 = /home/ekwan/sw/g16/l1.exe PID=     21258.
  
 Copyright (c) 1988,1990,1992,1993,1995,1998,2003,2009,2016,
            Gaussian, Inc.  All Rights Reserved.
  
 This is part of the Gaussian(R) 16 program.  It is based on
 the Gaussian(R) 09 system (copyright 2009, Gaussian, Inc.),
 the Gaussian(R) 03 system (copyright 2003, Gaussian, Inc.),
 the Gaussian(R) 98 system (copyright 1998, Gaussian, Inc.),
 the Gaussian(R) 94 system (copyright 1995, Gaussian, Inc.),
 the Gaussian 92(TM) system (copyright 1992, Gaussian, Inc.),
 the Gaussian 90(TM) system (copyright 1990, Gaussian, Inc.),
 the Gaussian 88(TM) system (copyright 1988, Gaussian, Inc.),
 the Gaussian 86(TM) system (copyright 1986, Carnegie Mellon
 University), and the Gaussian 82(TM) system (copyright 1983,
 Carnegie Mellon University). Gaussian is a federally registered
 trademark of Gaussian, Inc.
  
 This software contains proprietary and confidential information,
 including trade secrets, belonging to Gaussian, Inc.
  
 This software is provided under written license and may be
 used, copied, transmitted, or stored only in accord with that
 written license.
  
 The following legend is applicable only to US Government
 contracts under FAR:
  
                    RESTRICTED RIGHTS LEGEND
  
 Use, reproduction and disclosure by the US Government is
 subject to restrictions as set forth in subparagraphs (a)
 and (c) of the Commercial Computer Software - Restricted
 Rights clause in FAR 52.227-19.
  
 Gaussian, Inc.
 340 Quinnipiac St., Bldg. 40, Wallingford CT 06492
  
  
 ---------------------------------------------------------------
 Warning -- This program may not be used in any manner that
 competes with the business of Gaussian, Inc. or will provide
 assistance to any competitor of Gaussian, Inc.  The licensee
 of this program is prohibited from giving any competitor of
 Gaussian, Inc. access to this program.  By using this program,
 the user acknowledges that Gaussian, Inc. is engaged in the
 business of creating and licensing software in the field of
 computational chemistry and represents and warrants to the
 licensee that it is not a competitor of Gaussian, Inc. and that
 it will not use this program in any manner prohibited above.
 ---------------------------------------------------------------
  

 Cite this work as:
 Gaussian 16, Revision A.03,
 M. J. Frisch, G. W. Trucks, H. B. Schlegel, G. E. Scuseria, 
 M. A. Robb, J. R. Cheeseman, G. Scalmani, V. Barone, 
 G. A. Petersson, H. Nakatsuji, X. Li, M. Caricato, A. V. Marenich, 
 J. Bloino, B. G. Janesko, R. Gomperts, B. Mennucci, H. P. Hratchian, 
 J. V. Ortiz, A. F. Izmaylov, J. L. Sonnenberg, D. Williams-Young, 
 F. Ding, F. Lipparini, F. Egidi, J. Goings, B. Peng, A. Petrone, 
 T. Henderson, D. Ranasinghe, V. G. Zakrzewski, J. Gao, N. Rega, 
 G. Zheng, W. Liang, M. Hada, M. Ehara, K. Toyota, R. Fukuda, 
 J. Hasegawa, M. Ishida, T. Nakajima, Y. Honda, O. Kitao, H. Nakai, 
 T. Vreven, K. Throssell, J. A. Montgomery, Jr., J. E. Peralta, 
 F. Ogliaro, M. J. Bearpark, J. J. Heyd, E. N. Brothers, K. N. Kudin, 
 V. N. Staroverov, T. A. Keith, R. Kobayashi, J. Normand, 
 K. Raghavachari, A. P. Rendell, J. C. Burant, S. S. Iyengar, 
 J. Tomasi, M. Cossi, J. M. Millam, M. Klene, C. Adamo, R. Cammi, 
 J. W. Ochterski, R. L. Martin, K. Morokuma, O. Farkas, 
 J. B. Foresman, and D. J. Fox, Gaussian, Inc., Wallingford CT, 2016.
 
 ******************************************
 Gaussian 16:  AS64L-G16RevA.03 25-Dec-2016
                15-Jun-2019 
 ******************************************
 %nprocshared=32
 Will use up to   32 processors via shared memory.
 %mem=48GB
 ----------------------------------------------------------------------
 #p opt freq=noraman pop=none 6-31g* scrf=(pcm,solvent=tetrahydrofuran)
  b98 extrabasis
 ----------------------------------------------------------------------
 1/18=20,19=15,26=3,38=1/1,3;
 2/9=110,12=2,17=6,18=5,40=1/2;
 3/5=1,6=6,7=1,10=1,11=2,25=1,30=1,70=2201,71=1,72=20,74=-18/1,2,3;
 4//1;
 5/5=2,38=5,53=20/2;
 7//1,2,3,16;
 1/18=20,19=15,26=3/3(2);
 2/9=110/2;
 99//99;
 2/9=110/2;
 3/5=7,6=1,7=1,11=2,25=1,30=1,70=2205,71=1,72=20,74=-18,82=7/1,2,3;
 4/5=5,16=3,69=1/1;
 5/5=2,38=5,53=20/2;
 7//1,2,3,16;
 1/18=20,19=15,26=3/3(-5);
 2/9=110/2;
 99/9=1/99;
 Leave Link    1 at Sat Jun 15 07:38:58 2019, MaxMem=  6442450944 cpu:              22.5 elap:               0.8
 (Enter /home/ekwan/sw/g16/l101.exe)
 -----
 title
 -----
 Symbolic Z-matrix:
 Charge =  0 Multiplicity = 1
 6                     3.52415  -0.20432   0.74221 
 6                     3.37417  -0.47816  -0.76433 
 6                     1.89511  -0.37986  -1.20691 
 6                     1.33865   1.08777   0.60688 
 6                     2.79179   1.09517   1.11637 
 1                     1.79188  -0.4325   -2.2923 
 1                     3.90042   0.32708  -1.30499 
 1                     3.0799   -1.03338   1.31355 
 1                     0.77824   0.31      1.14719 
 1                     3.31822   1.94343   0.65701 
 8                     1.29025   0.80078  -0.80849 
 8                     1.21582  -1.5439   -0.63403 
 8                     3.94785  -1.72646  -1.06806 
 8                     4.89001  -0.04592   1.08361 
 8                     2.74263   1.23833   2.52586 
 6                     0.62106   2.42077   0.84719 
 1                     0.50861   2.53162   1.93098 
 1                    -0.38168   2.37693   0.39604 
 8                     1.32239   3.56416   0.40053 
 16                   -0.08665  -2.16728  -1.38022 
 8                    -0.17763  -3.5299   -0.87704 
 8                     0.01474  -1.89841  -2.8122 
 6                    -1.4657   -1.22356  -0.71775 
 6                    -2.11567  -1.69295   0.4248 
 6                    -1.85045  -0.04453  -1.35875 
 6                    -3.18548  -0.95151   0.93479 
 1                    -1.7986   -2.61617   0.89885 
 6                    -2.91532   0.68558  -0.82521 
 1                    -1.3372    0.29366  -2.25245 
 6                    -3.58506   0.23716   0.31754 
 1                    -4.41414   0.80868   0.72206 
 6                     4.3431   -1.8866   -2.42491 
 1                     3.48163  -1.92065  -3.10696 
 1                     5.01798  -1.07628  -2.73813 
 1                     4.87337  -2.84061  -2.48296 
 6                     5.50573  -1.20139   1.63647 
 1                     6.53614  -0.91978   1.87434 
 1                     4.99962  -1.51626   2.56176 
 1                     5.51025  -2.03669   0.92608 
 6                     3.61977   2.22796   3.04788 
 1                     3.47058   2.23575   4.132 
 1                     4.66751   1.98925   2.82608 
 1                     3.37986   3.22312   2.6451 
 6                     1.13326   3.88635  -0.97051 
 1                     1.55322   4.88628  -1.11782 
 1                     0.06281   3.90537  -1.22713 
 1                     1.64167   3.17782  -1.63656 
 6                    -3.95359  -1.47335   2.13143 
 9                    -3.16613  -2.19889   2.94467 
 9                    -4.97237  -2.26717   1.74844 
 9                    -4.48078  -0.46954   2.85495 
 6                    -3.30102   2.00617  -1.45645 
 9                    -2.5949    3.0265   -0.91712 
 9                    -4.60132   2.28656  -1.27026 
 9                    -3.05886   2.01431  -2.77779 
 
 ITRead=  0  0  0  0  0  0  0  0  0  0  0  0  0  0  0  0  0  0  0  0
 ITRead=  0  0  0  0  0  0  0  0  0  0  0  0  0  0  0  0  0  0  0  0
 ITRead=  0  0  0  0  0  0  0  0  0  0  0  0  0  0  0
 MicOpt= -1 -1 -1 -1 -1 -1 -1 -1 -1 -1 -1 -1 -1 -1 -1 -1 -1 -1 -1 -1
 MicOpt= -1 -1 -1 -1 -1 -1 -1 -1 -1 -1 -1 -1 -1 -1 -1 -1 -1 -1 -1 -1
 MicOpt= -1 -1 -1 -1 -1 -1 -1 -1 -1 -1 -1 -1 -1 -1 -1
 NAtoms=     55 NQM=       55 NQMF=       0 NMMI=      0 NMMIF=      0
                NMic=       0 NMicF=      0.
                    Isotopes and Nuclear Properties:
 (Nuclear quadrupole moments (NQMom) in fm**2, nuclear magnetic moments (NMagM)
  in nuclear magnetons)

  Atom         1           2           3           4           5           6           7           8           9          10
 IAtWgt=          12          12          12          12          12           1           1           1           1           1
 AtmWgt=  12.0000000  12.0000000  12.0000000  12.0000000  12.0000000   1.0078250   1.0078250   1.0078250   1.0078250   1.0078250
 NucSpn=           0           0           0           0           0           1           1           1           1           1
 AtZEff=   0.0000000   0.0000000   0.0000000   0.0000000   0.0000000   0.0000000   0.0000000   0.0000000   0.0000000   0.0000000
 NQMom=    0.0000000   0.0000000   0.0000000   0.0000000   0.0000000   0.0000000   0.0000000   0.0000000   0.0000000   0.0000000
 NMagM=    0.0000000   0.0000000   0.0000000   0.0000000   0.0000000   2.7928460   2.7928460   2.7928460   2.7928460   2.7928460
 AtZNuc=   6.0000000   6.0000000   6.0000000   6.0000000   6.0000000   1.0000000   1.0000000   1.0000000   1.0000000   1.0000000

  Atom        11          12          13          14          15          16          17          18          19          20
 IAtWgt=          16          16          16          16          16          12           1           1          16          32
 AtmWgt=  15.9949146  15.9949146  15.9949146  15.9949146  15.9949146  12.0000000   1.0078250   1.0078250  15.9949146  31.9720718
 NucSpn=           0           0           0           0           0           0           1           1           0           0
 AtZEff=   0.0000000   0.0000000   0.0000000   0.0000000   0.0000000   0.0000000   0.0000000   0.0000000   0.0000000   0.0000000
 NQMom=    0.0000000   0.0000000   0.0000000   0.0000000   0.0000000   0.0000000   0.0000000   0.0000000   0.0000000   0.0000000
 NMagM=    0.0000000   0.0000000   0.0000000   0.0000000   0.0000000   0.0000000   2.7928460   2.7928460   0.0000000   0.0000000
 AtZNuc=   8.0000000   8.0000000   8.0000000   8.0000000   8.0000000   6.0000000   1.0000000   1.0000000   8.0000000  16.0000000

  Atom        21          22          23          24          25          26          27          28          29          30
 IAtWgt=          16          16          12          12          12          12           1          12           1          12
 AtmWgt=  15.9949146  15.9949146  12.0000000  12.0000000  12.0000000  12.0000000   1.0078250  12.0000000   1.0078250  12.0000000
 NucSpn=           0           0           0           0           0           0           1           0           1           0
 AtZEff=   0.0000000   0.0000000   0.0000000   0.0000000   0.0000000   0.0000000   0.0000000   0.0000000   0.0000000   0.0000000
 NQMom=    0.0000000   0.0000000   0.0000000   0.0000000   0.0000000   0.0000000   0.0000000   0.0000000   0.0000000   0.0000000
 NMagM=    0.0000000   0.0000000   0.0000000   0.0000000   0.0000000   0.0000000   2.7928460   0.0000000   2.7928460   0.0000000
 AtZNuc=   8.0000000   8.0000000   6.0000000   6.0000000   6.0000000   6.0000000   1.0000000   6.0000000   1.0000000   6.0000000

  Atom        31          32          33          34          35          36          37          38          39          40
 IAtWgt=           1          12           1           1           1          12           1           1           1          12
 AtmWgt=   1.0078250  12.0000000   1.0078250   1.0078250   1.0078250  12.0000000   1.0078250   1.0078250   1.0078250  12.0000000
 NucSpn=           1           0           1           1           1           0           1           1           1           0
 AtZEff=   0.0000000   0.0000000   0.0000000   0.0000000   0.0000000   0.0000000   0.0000000   0.0000000   0.0000000   0.0000000
 NQMom=    0.0000000   0.0000000   0.0000000   0.0000000   0.0000000   0.0000000   0.0000000   0.0000000   0.0000000   0.0000000
 NMagM=    2.7928460   0.0000000   2.7928460   2.7928460   2.7928460   0.0000000   2.7928460   2.7928460   2.7928460   0.0000000
 AtZNuc=   1.0000000   6.0000000   1.0000000   1.0000000   1.0000000   6.0000000   1.0000000   1.0000000   1.0000000   6.0000000

  Atom        41          42          43          44          45          46          47          48          49          50
 IAtWgt=           1           1           1          12           1           1           1          12          19          19
 AtmWgt=   1.0078250   1.0078250   1.0078250  12.0000000   1.0078250   1.0078250   1.0078250  12.0000000  18.9984033  18.9984033
 NucSpn=           1           1           1           0           1           1           1           0           1           1
 AtZEff=   0.0000000   0.0000000   0.0000000   0.0000000   0.0000000   0.0000000   0.0000000   0.0000000   0.0000000   0.0000000
 NQMom=    0.0000000   0.0000000   0.0000000   0.0000000   0.0000000   0.0000000   0.0000000   0.0000000   0.0000000   0.0000000
 NMagM=    2.7928460   2.7928460   2.7928460   0.0000000   2.7928460   2.7928460   2.7928460   0.0000000   2.6288670   2.6288670
 AtZNuc=   1.0000000   1.0000000   1.0000000   6.0000000   1.0000000   1.0000000   1.0000000   6.0000000   9.0000000   9.0000000

  Atom        51          52          53          54          55
 IAtWgt=          19          12          19          19          19
 AtmWgt=  18.9984033  12.0000000  18.9984033  18.9984033  18.9984033
 NucSpn=           1           0           1           1           1
 AtZEff=   0.0000000   0.0000000   0.0000000   0.0000000   0.0000000
 NQMom=    0.0000000   0.0000000   0.0000000   0.0000000   0.0000000
 NMagM=    2.6288670   0.0000000   2.6288670   2.6288670   2.6288670
 AtZNuc=   9.0000000   6.0000000   9.0000000   9.0000000   9.0000000
 Leave Link  101 at Sat Jun 15 07:38:58 2019, MaxMem=  6442450944 cpu:              19.3 elap:               0.7
 (Enter /home/ekwan/sw/g16/l103.exe)

 GradGradGradGradGradGradGradGradGradGradGradGradGradGradGradGradGradGrad
 Berny optimization.
 Initialization pass.
                           ----------------------------
                           !    Initial Parameters    !
                           ! (Angstroms and Degrees)  !
 --------------------------                            --------------------------
 ! Name  Definition              Value          Derivative Info.                !
 --------------------------------------------------------------------------------
 ! R1    R(1,2)                  1.5385         estimate D2E/DX2                !
 ! R2    R(1,5)                  1.5379         estimate D2E/DX2                !
 ! R3    R(1,8)                  1.1005         estimate D2E/DX2                !
 ! R4    R(1,14)                 1.4168         estimate D2E/DX2                !
 ! R5    R(2,3)                  1.547          estimate D2E/DX2                !
 ! R6    R(2,7)                  1.1035         estimate D2E/DX2                !
 ! R7    R(2,13)                 1.407          estimate D2E/DX2                !
 ! R8    R(3,6)                  1.0916         estimate D2E/DX2                !
 ! R9    R(3,11)                 1.3851         estimate D2E/DX2                !
 ! R10   R(3,12)                 1.4644         estimate D2E/DX2                !
 ! R11   R(4,5)                  1.5399         estimate D2E/DX2                !
 ! R12   R(4,9)                  1.1004         estimate D2E/DX2                !
 ! R13   R(4,11)                 1.445          estimate D2E/DX2                !
 ! R14   R(4,16)                 1.5328         estimate D2E/DX2                !
 ! R15   R(5,10)                 1.0989         estimate D2E/DX2                !
 ! R16   R(5,15)                 1.4176         estimate D2E/DX2                !
 ! R17   R(12,20)                1.6254         estimate D2E/DX2                !
 ! R18   R(13,32)                1.4223         estimate D2E/DX2                !
 ! R19   R(14,36)                1.4212         estimate D2E/DX2                !
 ! R20   R(15,40)                1.4217         estimate D2E/DX2                !
 ! R21   R(16,17)                1.0952         estimate D2E/DX2                !
 ! R22   R(16,18)                1.1004         estimate D2E/DX2                !
 ! R23   R(16,19)                1.4138         estimate D2E/DX2                !
 ! R24   R(19,44)                1.421          estimate D2E/DX2                !
 ! R25   R(20,21)                1.4554         estimate D2E/DX2                !
 ! R26   R(20,22)                1.4605         estimate D2E/DX2                !
 ! R27   R(20,23)                1.7976         estimate D2E/DX2                !
 ! R28   R(23,24)                1.3958         estimate D2E/DX2                !
 ! R29   R(23,25)                1.3961         estimate D2E/DX2                !
 ! R30   R(24,26)                1.398          estimate D2E/DX2                !
 ! R31   R(24,27)                1.0852         estimate D2E/DX2                !
 ! R32   R(25,28)                1.397          estimate D2E/DX2                !
 ! R33   R(25,29)                1.0847         estimate D2E/DX2                !
 ! R34   R(26,30)                1.3977         estimate D2E/DX2                !
 ! R35   R(26,48)                1.5147         estimate D2E/DX2                !
 ! R36   R(28,30)                1.3984         estimate D2E/DX2                !
 ! R37   R(28,52)                1.5137         estimate D2E/DX2                !
 ! R38   R(30,31)                1.0852         estimate D2E/DX2                !
 ! R39   R(32,33)                1.0993         estimate D2E/DX2                !
 ! R40   R(32,34)                1.1001         estimate D2E/DX2                !
 ! R41   R(32,35)                1.093          estimate D2E/DX2                !
 ! R42   R(36,37)                1.0944         estimate D2E/DX2                !
 ! R43   R(36,38)                1.1007         estimate D2E/DX2                !
 ! R44   R(36,39)                1.0965         estimate D2E/DX2                !
 ! R45   R(40,41)                1.0944         estimate D2E/DX2                !
 ! R46   R(40,42)                1.0972         estimate D2E/DX2                !
 ! R47   R(40,43)                1.1001         estimate D2E/DX2                !
 ! R48   R(44,45)                1.0945         estimate D2E/DX2                !
 ! R49   R(44,46)                1.1009         estimate D2E/DX2                !
 ! R50   R(44,47)                1.0973         estimate D2E/DX2                !
 ! R51   R(48,49)                1.3446         estimate D2E/DX2                !
 ! R52   R(48,50)                1.3471         estimate D2E/DX2                !
 ! R53   R(48,51)                1.345          estimate D2E/DX2                !
 ! R54   R(52,53)                1.353          estimate D2E/DX2                !
 ! R55   R(52,54)                1.3432         estimate D2E/DX2                !
 ! R56   R(52,55)                1.3434         estimate D2E/DX2                !
 ! A1    A(2,1,5)              110.0118         estimate D2E/DX2                !
 ! A2    A(2,1,8)              109.5679         estimate D2E/DX2                !
 ! A3    A(2,1,14)             110.4777         estimate D2E/DX2                !
 ! A4    A(5,1,8)              108.5429         estimate D2E/DX2                !
 ! A5    A(5,1,14)             107.8183         estimate D2E/DX2                !
 ! A6    A(8,1,14)             110.3834         estimate D2E/DX2                !
 ! A7    A(1,2,3)              111.2248         estimate D2E/DX2                !
 ! A8    A(1,2,7)              107.662          estimate D2E/DX2                !
 ! A9    A(1,2,13)             109.2412         estimate D2E/DX2                !
 ! A10   A(3,2,7)              105.6297         estimate D2E/DX2                !
 ! A11   A(3,2,13)             112.6095         estimate D2E/DX2                !
 ! A12   A(7,2,13)             110.3165         estimate D2E/DX2                !
 ! A13   A(2,3,6)              111.8282         estimate D2E/DX2                !
 ! A14   A(2,3,11)             112.9164         estimate D2E/DX2                !
 ! A15   A(2,3,12)             106.3234         estimate D2E/DX2                !
 ! A16   A(6,3,11)             106.6088         estimate D2E/DX2                !
 ! A17   A(6,3,12)             107.865          estimate D2E/DX2                !
 ! A18   A(11,3,12)            111.2509         estimate D2E/DX2                !
 ! A19   A(5,4,9)              108.7555         estimate D2E/DX2                !
 ! A20   A(5,4,11)             110.8947         estimate D2E/DX2                !
 ! A21   A(5,4,16)             112.6887         estimate D2E/DX2                !
 ! A22   A(9,4,11)             108.8749         estimate D2E/DX2                !
 ! A23   A(9,4,16)             107.4132         estimate D2E/DX2                !
 ! A24   A(11,4,16)            108.0948         estimate D2E/DX2                !
 ! A25   A(1,5,4)              111.3969         estimate D2E/DX2                !
 ! A26   A(1,5,10)             108.8089         estimate D2E/DX2                !
 ! A27   A(1,5,15)             110.106          estimate D2E/DX2                !
 ! A28   A(4,5,10)             108.5094         estimate D2E/DX2                !
 ! A29   A(4,5,15)             107.2611         estimate D2E/DX2                !
 ! A30   A(10,5,15)            110.7493         estimate D2E/DX2                !
 ! A31   A(3,11,4)             115.8751         estimate D2E/DX2                !
 ! A32   A(3,12,20)            119.7994         estimate D2E/DX2                !
 ! A33   A(2,13,32)            114.7805         estimate D2E/DX2                !
 ! A34   A(1,14,36)            114.8666         estimate D2E/DX2                !
 ! A35   A(5,15,40)            114.4545         estimate D2E/DX2                !
 ! A36   A(4,16,17)            106.9309         estimate D2E/DX2                !
 ! A37   A(4,16,18)            109.1277         estimate D2E/DX2                !
 ! A38   A(4,16,19)            114.9327         estimate D2E/DX2                !
 ! A39   A(17,16,18)           108.4314         estimate D2E/DX2                !
 ! A40   A(17,16,19)           106.3625         estimate D2E/DX2                !
 ! A41   A(18,16,19)           110.7768         estimate D2E/DX2                !
 ! A42   A(16,19,44)           114.9717         estimate D2E/DX2                !
 ! A43   A(12,20,21)           104.504          estimate D2E/DX2                !
 ! A44   A(12,20,22)           108.8978         estimate D2E/DX2                !
 ! A45   A(12,20,23)           104.1355         estimate D2E/DX2                !
 ! A46   A(21,20,22)           121.0424         estimate D2E/DX2                !
 ! A47   A(21,20,23)           108.4306         estimate D2E/DX2                !
 ! A48   A(22,20,23)           108.5388         estimate D2E/DX2                !
 ! A49   A(20,23,24)           118.8404         estimate D2E/DX2                !
 ! A50   A(20,23,25)           119.0514         estimate D2E/DX2                !
 ! A51   A(24,23,25)           122.108          estimate D2E/DX2                !
 ! A52   A(23,24,26)           118.4649         estimate D2E/DX2                !
 ! A53   A(23,24,27)           120.5068         estimate D2E/DX2                !
 ! A54   A(26,24,27)           121.0271         estimate D2E/DX2                !
 ! A55   A(23,25,28)           118.43           estimate D2E/DX2                !
 ! A56   A(23,25,29)           120.7448         estimate D2E/DX2                !
 ! A57   A(28,25,29)           120.8246         estimate D2E/DX2                !
 ! A58   A(24,26,30)           120.5782         estimate D2E/DX2                !
 ! A59   A(24,26,48)           119.5745         estimate D2E/DX2                !
 ! A60   A(30,26,48)           119.796          estimate D2E/DX2                !
 ! A61   A(25,28,30)           120.6356         estimate D2E/DX2                !
 ! A62   A(25,28,52)           119.4008         estimate D2E/DX2                !
 ! A63   A(30,28,52)           119.9015         estimate D2E/DX2                !
 ! A64   A(26,30,28)           119.7798         estimate D2E/DX2                !
 ! A65   A(26,30,31)           120.111          estimate D2E/DX2                !
 ! A66   A(28,30,31)           120.1089         estimate D2E/DX2                !
 ! A67   A(13,32,33)           112.185          estimate D2E/DX2                !
 ! A68   A(13,32,34)           111.0494         estimate D2E/DX2                !
 ! A69   A(13,32,35)           106.4847         estimate D2E/DX2                !
 ! A70   A(33,32,34)           109.0821         estimate D2E/DX2                !
 ! A71   A(33,32,35)           108.6744         estimate D2E/DX2                !
 ! A72   A(34,32,35)           109.279          estimate D2E/DX2                !
 ! A73   A(14,36,37)           106.4548         estimate D2E/DX2                !
 ! A74   A(14,36,38)           111.1243         estimate D2E/DX2                !
 ! A75   A(14,36,39)           111.6598         estimate D2E/DX2                !
 ! A76   A(37,36,38)           108.8955         estimate D2E/DX2                !
 ! A77   A(37,36,39)           109.4478         estimate D2E/DX2                !
 ! A78   A(38,36,39)           109.1838         estimate D2E/DX2                !
 ! A79   A(15,40,41)           106.534          estimate D2E/DX2                !
 ! A80   A(15,40,42)           111.3132         estimate D2E/DX2                !
 ! A81   A(15,40,43)           111.1445         estimate D2E/DX2                !
 ! A82   A(41,40,42)           109.3888         estimate D2E/DX2                !
 ! A83   A(41,40,43)           109.0593         estimate D2E/DX2                !
 ! A84   A(42,40,43)           109.3322         estimate D2E/DX2                !
 ! A85   A(19,44,45)           106.6145         estimate D2E/DX2                !
 ! A86   A(19,44,46)           110.9905         estimate D2E/DX2                !
 ! A87   A(19,44,47)           112.183          estimate D2E/DX2                !
 ! A88   A(45,44,46)           109.0211         estimate D2E/DX2                !
 ! A89   A(45,44,47)           109.2949         estimate D2E/DX2                !
 ! A90   A(46,44,47)           108.6724         estimate D2E/DX2                !
 ! A91   A(26,48,49)           111.5154         estimate D2E/DX2                !
 ! A92   A(26,48,50)           111.2179         estimate D2E/DX2                !
 ! A93   A(26,48,51)           111.5074         estimate D2E/DX2                !
 ! A94   A(49,48,50)           107.2712         estimate D2E/DX2                !
 ! A95   A(49,48,51)           107.8737         estimate D2E/DX2                !
 ! A96   A(50,48,51)           107.2351         estimate D2E/DX2                !
 ! A97   A(28,52,53)           111.0217         estimate D2E/DX2                !
 ! A98   A(28,52,54)           111.7769         estimate D2E/DX2                !
 ! A99   A(28,52,55)           111.6873         estimate D2E/DX2                !
 ! A100  A(53,52,54)           107.0115         estimate D2E/DX2                !
 ! A101  A(53,52,55)           107.0642         estimate D2E/DX2                !
 ! A102  A(54,52,55)           108.0345         estimate D2E/DX2                !
 ! D1    D(5,1,2,3)            -49.9761         estimate D2E/DX2                !
 ! D2    D(5,1,2,7)             65.3002         estimate D2E/DX2                !
 ! D3    D(5,1,2,13)          -174.8928         estimate D2E/DX2                !
 ! D4    D(8,1,2,3)             69.2759         estimate D2E/DX2                !
 ! D5    D(8,1,2,7)           -175.4478         estimate D2E/DX2                !
 ! D6    D(8,1,2,13)           -55.6408         estimate D2E/DX2                !
 ! D7    D(14,1,2,3)          -168.8993         estimate D2E/DX2                !
 ! D8    D(14,1,2,7)           -53.623          estimate D2E/DX2                !
 ! D9    D(14,1,2,13)           66.184          estimate D2E/DX2                !
 ! D10   D(2,1,5,4)             51.7456         estimate D2E/DX2                !
 ! D11   D(2,1,5,10)           -67.8354         estimate D2E/DX2                !
 ! D12   D(2,1,5,15)           170.6148         estimate D2E/DX2                !
 ! D13   D(8,1,5,4)            -68.1306         estimate D2E/DX2                !
 ! D14   D(8,1,5,10)           172.2884         estimate D2E/DX2                !
 ! D15   D(8,1,5,15)            50.7387         estimate D2E/DX2                !
 ! D16   D(14,1,5,4)           172.2858         estimate D2E/DX2                !
 ! D17   D(14,1,5,10)           52.7048         estimate D2E/DX2                !
 ! D18   D(14,1,5,15)          -68.845          estimate D2E/DX2                !
 ! D19   D(2,1,14,36)          -98.8883         estimate D2E/DX2                !
 ! D20   D(5,1,14,36)          140.8644         estimate D2E/DX2                !
 ! D21   D(8,1,14,36)           22.4543         estimate D2E/DX2                !
 ! D22   D(1,2,3,6)            171.9714         estimate D2E/DX2                !
 ! D23   D(1,2,3,11)            51.7312         estimate D2E/DX2                !
 ! D24   D(1,2,3,12)           -70.5347         estimate D2E/DX2                !
 ! D25   D(7,2,3,6)             55.4438         estimate D2E/DX2                !
 ! D26   D(7,2,3,11)           -64.7964         estimate D2E/DX2                !
 ! D27   D(7,2,3,12)           172.9377         estimate D2E/DX2                !
 ! D28   D(13,2,3,6)           -65.0245         estimate D2E/DX2                !
 ! D29   D(13,2,3,11)          174.7352         estimate D2E/DX2                !
 ! D30   D(13,2,3,12)           52.4694         estimate D2E/DX2                !
 ! D31   D(1,2,13,32)         -156.9834         estimate D2E/DX2                !
 ! D32   D(3,2,13,32)           78.9102         estimate D2E/DX2                !
 ! D33   D(7,2,13,32)          -38.8258         estimate D2E/DX2                !
 ! D34   D(2,3,11,4)           -55.4858         estimate D2E/DX2                !
 ! D35   D(6,3,11,4)          -178.6719         estimate D2E/DX2                !
 ! D36   D(12,3,11,4)           63.974          estimate D2E/DX2                !
 ! D37   D(2,3,12,20)         -151.728          estimate D2E/DX2                !
 ! D38   D(6,3,12,20)          -31.631          estimate D2E/DX2                !
 ! D39   D(11,3,12,20)          84.9572         estimate D2E/DX2                !
 ! D40   D(9,4,5,1)             66.4287         estimate D2E/DX2                !
 ! D41   D(9,4,5,10)          -173.8127         estimate D2E/DX2                !
 ! D42   D(9,4,5,15)           -54.1266         estimate D2E/DX2                !
 ! D43   D(11,4,5,1)           -53.2623         estimate D2E/DX2                !
 ! D44   D(11,4,5,10)           66.4962         estimate D2E/DX2                !
 ! D45   D(11,4,5,15)         -173.8176         estimate D2E/DX2                !
 ! D46   D(16,4,5,1)          -174.5907         estimate D2E/DX2                !
 ! D47   D(16,4,5,10)          -54.8322         estimate D2E/DX2                !
 ! D48   D(16,4,5,15)           64.854          estimate D2E/DX2                !
 ! D49   D(5,4,11,3)            56.1299         estimate D2E/DX2                !
 ! D50   D(9,4,11,3)           -63.4896         estimate D2E/DX2                !
 ! D51   D(16,4,11,3)         -179.8768         estimate D2E/DX2                !
 ! D52   D(5,4,16,17)          -67.108          estimate D2E/DX2                !
 ! D53   D(5,4,16,18)          175.8024         estimate D2E/DX2                !
 ! D54   D(5,4,16,19)           50.6835         estimate D2E/DX2                !
 ! D55   D(9,4,16,17)           52.6514         estimate D2E/DX2                !
 ! D56   D(9,4,16,18)          -64.4381         estimate D2E/DX2                !
 ! D57   D(9,4,16,19)          170.443          estimate D2E/DX2                !
 ! D58   D(11,4,16,17)         169.9844         estimate D2E/DX2                !
 ! D59   D(11,4,16,18)          52.8948         estimate D2E/DX2                !
 ! D60   D(11,4,16,19)         -72.2241         estimate D2E/DX2                !
 ! D61   D(1,5,15,40)          106.4045         estimate D2E/DX2                !
 ! D62   D(4,5,15,40)         -132.2251         estimate D2E/DX2                !
 ! D63   D(10,5,15,40)         -13.9824         estimate D2E/DX2                !
 ! D64   D(3,12,20,21)         158.935          estimate D2E/DX2                !
 ! D65   D(3,12,20,22)          28.2761         estimate D2E/DX2                !
 ! D66   D(3,12,20,23)         -87.3674         estimate D2E/DX2                !
 ! D67   D(2,13,32,33)         -67.8946         estimate D2E/DX2                !
 ! D68   D(2,13,32,34)          54.4657         estimate D2E/DX2                !
 ! D69   D(2,13,32,35)         173.336          estimate D2E/DX2                !
 ! D70   D(1,14,36,37)        -178.3463         estimate D2E/DX2                !
 ! D71   D(1,14,36,38)         -59.9145         estimate D2E/DX2                !
 ! D72   D(1,14,36,39)          62.258          estimate D2E/DX2                !
 ! D73   D(5,15,40,41)         179.4669         estimate D2E/DX2                !
 ! D74   D(5,15,40,42)         -61.3543         estimate D2E/DX2                !
 ! D75   D(5,15,40,43)          60.7793         estimate D2E/DX2                !
 ! D76   D(4,16,19,44)          85.1328         estimate D2E/DX2                !
 ! D77   D(17,16,19,44)       -156.7554         estimate D2E/DX2                !
 ! D78   D(18,16,19,44)        -39.1211         estimate D2E/DX2                !
 ! D79   D(16,19,44,45)        168.4356         estimate D2E/DX2                !
 ! D80   D(16,19,44,46)         49.8302         estimate D2E/DX2                !
 ! D81   D(16,19,44,47)        -71.9568         estimate D2E/DX2                !
 ! D82   D(12,20,23,24)        -90.5759         estimate D2E/DX2                !
 ! D83   D(12,20,23,25)         89.2662         estimate D2E/DX2                !
 ! D84   D(21,20,23,24)         20.2885         estimate D2E/DX2                !
 ! D85   D(21,20,23,25)       -159.8694         estimate D2E/DX2                !
 ! D86   D(22,20,23,24)        153.5287         estimate D2E/DX2                !
 ! D87   D(22,20,23,25)        -26.6292         estimate D2E/DX2                !
 ! D88   D(20,23,24,26)        179.8785         estimate D2E/DX2                !
 ! D89   D(20,23,24,27)         -0.5295         estimate D2E/DX2                !
 ! D90   D(25,23,24,26)          0.0414         estimate D2E/DX2                !
 ! D91   D(25,23,24,27)        179.6334         estimate D2E/DX2                !
 ! D92   D(20,23,25,28)       -179.376          estimate D2E/DX2                !
 ! D93   D(20,23,25,29)          0.8982         estimate D2E/DX2                !
 ! D94   D(24,23,25,28)          0.4607         estimate D2E/DX2                !
 ! D95   D(24,23,25,29)       -179.2651         estimate D2E/DX2                !
 ! D96   D(23,24,26,30)         -0.4809         estimate D2E/DX2                !
 ! D97   D(23,24,26,48)        176.9092         estimate D2E/DX2                !
 ! D98   D(27,24,26,30)        179.9293         estimate D2E/DX2                !
 ! D99   D(27,24,26,48)         -2.6806         estimate D2E/DX2                !
 ! D100  D(23,25,28,30)         -0.5323         estimate D2E/DX2                !
 ! D101  D(23,25,28,52)        176.599          estimate D2E/DX2                !
 ! D102  D(29,25,28,30)        179.1932         estimate D2E/DX2                !
 ! D103  D(29,25,28,52)         -3.6755         estimate D2E/DX2                !
 ! D104  D(24,26,30,28)          0.4101         estimate D2E/DX2                !
 ! D105  D(24,26,30,31)       -179.7676         estimate D2E/DX2                !
 ! D106  D(48,26,30,28)       -176.9741         estimate D2E/DX2                !
 ! D107  D(48,26,30,31)          2.8481         estimate D2E/DX2                !
 ! D108  D(24,26,48,49)         30.8357         estimate D2E/DX2                !
 ! D109  D(24,26,48,50)        -88.8597         estimate D2E/DX2                !
 ! D110  D(24,26,48,51)        151.4959         estimate D2E/DX2                !
 ! D111  D(30,26,48,49)       -151.7536         estimate D2E/DX2                !
 ! D112  D(30,26,48,50)         88.551          estimate D2E/DX2                !
 ! D113  D(30,26,48,51)        -31.0934         estimate D2E/DX2                !
 ! D114  D(25,28,30,26)          0.1079         estimate D2E/DX2                !
 ! D115  D(25,28,30,31)       -179.7143         estimate D2E/DX2                !
 ! D116  D(52,28,30,26)       -177.009          estimate D2E/DX2                !
 ! D117  D(52,28,30,31)          3.1687         estimate D2E/DX2                !
 ! D118  D(25,28,52,53)        -88.0588         estimate D2E/DX2                !
 ! D119  D(25,28,52,54)        152.5324         estimate D2E/DX2                !
 ! D120  D(25,28,52,55)         31.3572         estimate D2E/DX2                !
 ! D121  D(30,28,52,53)         89.0939         estimate D2E/DX2                !
 ! D122  D(30,28,52,54)        -30.3149         estimate D2E/DX2                !
 ! D123  D(30,28,52,55)       -151.4902         estimate D2E/DX2                !
 --------------------------------------------------------------------------------
 Trust Radius=3.00D-01 FncErr=1.00D-07 GrdErr=1.00D-06 EigMax=2.50D+02 EigMin=1.00D-04
 Number of steps in this run=    291 maximum allowed number of steps=    330.
 GradGradGradGradGradGradGradGradGradGradGradGradGradGradGradGradGradGrad

 Leave Link  103 at Sat Jun 15 07:38:59 2019, MaxMem=  6442450944 cpu:               2.4 elap:               0.1
 (Enter /home/ekwan/sw/g16/l202.exe)
 Stoichiometry    C18H22F6O8S
 Framework group  C1[X(C18H22F6O8S)]
 Deg. of freedom   159
 Full point group                 C1      NOp   1
 Largest Abelian subgroup         C1      NOp   1
 Largest concise Abelian subgroup C1      NOp   1
                         Standard orientation:                         
 ---------------------------------------------------------------------
 Center     Atomic      Atomic             Coordinates (Angstroms)
 Number     Number       Type             X           Y           Z
 ---------------------------------------------------------------------
      1          6           0        3.524152   -0.204322    0.742205
      2          6           0        3.374173   -0.478157   -0.764327
      3          6           0        1.895105   -0.379855   -1.206906
      4          6           0        1.338654    1.087766    0.606880
      5          6           0        2.791793    1.095173    1.116372
      6          1           0        1.791878   -0.432502   -2.292301
      7          1           0        3.900422    0.327078   -1.304989
      8          1           0        3.079895   -1.033378    1.313545
      9          1           0        0.778241    0.309995    1.147185
     10          1           0        3.318225    1.943429    0.657011
     11          8           0        1.290247    0.800784   -0.808488
     12          8           0        1.215822   -1.543900   -0.634030
     13          8           0        3.947846   -1.726455   -1.068058
     14          8           0        4.890008   -0.045918    1.083613
     15          8           0        2.742625    1.238325    2.525859
     16          6           0        0.621056    2.420769    0.847187
     17          1           0        0.508608    2.531621    1.930981
     18          1           0       -0.381675    2.376933    0.396042
     19          8           0        1.322388    3.564160    0.400526
     20         16           0       -0.086653   -2.167282   -1.380223
     21          8           0       -0.177629   -3.529895   -0.877041
     22          8           0        0.014738   -1.898410   -2.812203
     23          6           0       -1.465695   -1.223561   -0.717745
     24          6           0       -2.115666   -1.692954    0.424798
     25          6           0       -1.850454   -0.044529   -1.358751
     26          6           0       -3.185485   -0.951508    0.934794
     27          1           0       -1.798602   -2.616168    0.898854
     28          6           0       -2.915317    0.685578   -0.825211
     29          1           0       -1.337203    0.293658   -2.252445
     30          6           0       -3.585064    0.237163    0.317540
     31          1           0       -4.414136    0.808681    0.722061
     32          6           0        4.343099   -1.886595   -2.424911
     33          1           0        3.481628   -1.920650   -3.106957
     34          1           0        5.017978   -1.076283   -2.738127
     35          1           0        4.873372   -2.840612   -2.482962
     36          6           0        5.505729   -1.201390    1.636471
     37          1           0        6.536143   -0.919782    1.874339
     38          1           0        4.999619   -1.516262    2.561759
     39          1           0        5.510254   -2.036691    0.926082
     40          6           0        3.619768    2.227963    3.047878
     41          1           0        3.470575    2.235752    4.131999
     42          1           0        4.667508    1.989249    2.826079
     43          1           0        3.379864    3.223117    2.645100
     44          6           0        1.133261    3.886350   -0.970513
     45          1           0        1.553219    4.886279   -1.117824
     46          1           0        0.062809    3.905369   -1.227134
     47          1           0        1.641668    3.177822   -1.636564
     48          6           0       -3.953587   -1.473348    2.131429
     49          9           0       -3.166128   -2.198888    2.944669
     50          9           0       -4.972366   -2.267166    1.748437
     51          9           0       -4.480780   -0.469539    2.854949
     52          6           0       -3.301015    2.006174   -1.456450
     53          9           0       -2.594899    3.026503   -0.917119
     54          9           0       -4.601324    2.286557   -1.270258
     55          9           0       -3.058862    2.014313   -2.777793
 ---------------------------------------------------------------------
 Rotational constants (GHZ):           0.1497494           0.0801207           0.0741408
 Leave Link  202 at Sat Jun 15 07:38:59 2019, MaxMem=  6442450944 cpu:               4.7 elap:               0.2
 (Enter /home/ekwan/sw/g16/l301.exe)
 Standard basis: 6-31G(d) (6D, 7F)
 Centers:      12     22     21
 SP 1 1.00
     Exponent=  8.4500000000D-02 Coefficients=  1.0000000000D+00  1.0000000000D+00
 ****
 Ernie: Thresh=  0.10000D-02 Tol=  0.10000D-05 Strict=F.
 There are   555 symmetry adapted cartesian basis functions of A   symmetry.
 There are   555 symmetry adapted basis functions of A   symmetry.
   555 basis functions,  1048 primitive gaussians,   555 cartesian basis functions
   132 alpha electrons      132 beta electrons
       nuclear repulsion energy      4265.2277029329 Hartrees.
 IExCor= 1412 DFT=T Ex+Corr=B98 ExCW=0 ScaHFX=  0.219800
 ScaDFX=  1.000000  1.000000  1.000000  1.000000 ScalE2=  1.000000  1.000000
 IRadAn=      5 IRanWt=     -1 IRanGd=            0 ICorTp=0 IEmpDi=  4
 NAtoms=   55 NActive=   55 NUniq=   55 SFac= 1.00D+00 NAtFMM=   60 NAOKFM=F Big=F
 Integral buffers will be    131072 words long.
 Raffenetti 2 integral format.
 Two-electron integral symmetry is turned on.
 ------------------------------------------------------------------------------
 Polarizable Continuum Model (PCM)
 =================================
 Model                : PCM.
 Atomic radii         : UFF (Universal Force Field).
 Polarization charges : Total charges.
 Charge compensation  : None.
 Solution method      : On-the-fly selection.
 Cavity type          : Scaled VdW (van der Waals Surface) (Alpha=1.100).
 Cavity algorithm     : GePol (No added spheres)
                        Default sphere list used, NSphG=   55.
                        Lebedev-Laikov grids with approx.  5.0 points / Ang**2.
                        Smoothing algorithm: York/Karplus (Gamma=1.0000).
                        Polarization charges: spherical gaussians, with
                                              point-specific exponents (IZeta= 3).
                        Self-potential: point-specific (ISelfS= 7).
                        Self-field    : sphere-specific E.n sum rule (ISelfD= 2).
 1st derivatives      : Analytical E(r).r(x)/FMM algorithm (CHGder, D1EAlg=3).
                        Cavity 1st derivative terms included.
 Solvent              : TetraHydroFuran, Eps=   7.425700 Eps(inf)=   1.974025
 ------------------------------------------------------------------------------
 GePol: Number of generator spheres                  =      55
 GePol: Total number of spheres                      =      55
 GePol: Number of exposed spheres                    =      55 (100.00%)
 GePol: Number of points                             =    4035
 GePol: Average weight of points                     =       0.13
 GePol: Minimum weight of points                     =   0.81D-10
 GePol: Maximum weight of points                     =    0.20577
 GePol: Number of points with low weight             =     289
 GePol: Fraction of low-weight points (<1% of avg)   =       7.16%
 GePol: Cavity surface area                          =    508.896 Ang**2
 GePol: Cavity volume                                =    582.415 Ang**3
 Leave Link  301 at Sat Jun 15 07:38:59 2019, MaxMem=  6442450944 cpu:               7.9 elap:               0.3
 (Enter /home/ekwan/sw/g16/l302.exe)
 NPDir=0 NMtPBC=     1 NCelOv=     1 NCel=       1 NClECP=     1 NCelD=      1
         NCelK=      1 NCelE2=     1 NClLst=     1 CellRange=     0.0.
 One-electron integrals computed using PRISM.
 One-electron integral symmetry used in STVInt
 NBasis=   555 RedAO= T EigKep=  4.18D-04  NBF=   555
 NBsUse=   555 1.00D-06 EigRej= -1.00D+00 NBFU=   555
 Precomputing XC quadrature grid using
 IXCGrd= 4 IRadAn=           5 IRanWt=          -1 IRanGd=           0 AccXCQ= 0.00D+00.
 Generated NRdTot=       0 NPtTot=           0 NUsed=           0 NTot=          32
 NSgBfM=   542   542   542   542   542 MxSgAt=    55 MxSgA2=    55.
 Leave Link  302 at Sat Jun 15 07:39:06 2019, MaxMem=  6442450944 cpu:             188.8 elap:               6.3
 (Enter /home/ekwan/sw/g16/l303.exe)
 DipDrv:  MaxL=1.
 Leave Link  303 at Sat Jun 15 07:39:06 2019, MaxMem=  6442450944 cpu:              10.2 elap:               0.4
 (Enter /home/ekwan/sw/g16/l401.exe)
 ExpMin= 8.45D-02 ExpMax= 2.19D+04 ExpMxC= 3.30D+03 IAcc=3 IRadAn=         5 AccDes= 0.00D+00
 Harris functional with IExCor= 1412 and IRadAn=       5 diagonalized for initial guess.
 HarFok:  IExCor= 1412 AccDes= 0.00D+00 IRadAn=         5 IDoV= 1 UseB2=F ITyADJ=14
 ICtDFT=  3500011 ScaDFX=  1.000000  1.000000  1.000000  1.000000
 FoFCou: FMM=F IPFlag=           0 FMFlag=      100000 FMFlg1=           0
         NFxFlg=           0 DoJE=T BraDBF=F KetDBF=T FulRan=T
         wScrn=  0.000000 ICntrl=       500 IOpCl=  0 I1Cent=   200000004 NGrid=           0
         NMat0=    1 NMatS0=      1 NMatT0=    0 NMatD0=    1 NMtDS0=    0 NMtDT0=    0
 Petite list used in FoFCou.
 Harris En= -2242.58239315973    
 JPrj=0 DoOrth=F DoCkMO=F.
 Leave Link  401 at Sat Jun 15 07:39:15 2019, MaxMem=  6442450944 cpu:             267.7 elap:               9.0
 (Enter /home/ekwan/sw/g16/l502.exe)
 Integral symmetry usage will be decided dynamically.
 Closed shell SCF:
 Using DIIS extrapolation, IDIIS=  1040.
 NGot=  6442450944 LenX=  6441811192 LenY=  6441502612
 Requested convergence on RMS density matrix=1.00D-08 within 128 cycles.
 Requested convergence on MAX density matrix=1.00D-06.
 Requested convergence on             energy=1.00D-06.
 No special actions if energy rises.
 Fock matrices will be formed incrementally for  20 cycles.

 Cycle   1  Pass 1  IDiag  1:
 FoFJK:  IHMeth= 1 ICntrl=       0 DoSepK=F KAlg= 0 I1Cent=           0 FoldK=F
 IRaf= 690000000 NMat=       1 IRICut=       1 DoRegI=T DoRafI=F ISym2E= 0 IDoP0=0 IntGTp=1.
 FoFCou: FMM=F IPFlag=           0 FMFlag=      100000 FMFlg1=           0
         NFxFlg=           0 DoJE=F BraDBF=F KetDBF=F FulRan=T
         wScrn=  0.000000 ICntrl=         0 IOpCl=  0 I1Cent=           0 NGrid=           0
         NMat0=    1 NMatS0=      1 NMatT0=    0 NMatD0=    1 NMtDS0=    0 NMtDT0=    0
 Symmetry not used in FoFCou.
 Inv3:  Mode=1 IEnd=    48843675.
 Iteration    1 A*A^-1 deviation from unit magnitude is 5.44D-15 for   4035.
 Iteration    1 A*A^-1 deviation from orthogonality  is 3.66D-15 for   4035   2504.
 Iteration    1 A^-1*A deviation from unit magnitude is 5.44D-15 for   4035.
 Iteration    1 A^-1*A deviation from orthogonality  is 4.86D-15 for   4026   2672.
 E= -2296.57959646147    
 DIIS: error= 6.75D-02 at cycle   1 NSaved=   1.
 NSaved= 1 IEnMin= 1 EnMin= -2296.57959646147     IErMin= 1 ErrMin= 6.75D-02
 ErrMax= 6.75D-02  0.00D+00 EMaxC= 1.00D-01 BMatC= 2.11D+00 BMatP= 2.11D+00
 IDIUse=3 WtCom= 3.25D-01 WtEn= 6.75D-01
 Coeff-Com:  0.100D+01
 Coeff-En:   0.100D+01
 Coeff:      0.100D+01
 Gap=     0.281 Goal=   None    Shift=    0.000
 GapD=    0.281 DampG=1.000 DampE=0.500 DampFc=0.5000 IDamp=-1.
 Damping current iteration by 5.00D-01
 RMSDP=4.19D-03 MaxDP=5.84D-01              OVMax= 2.60D-01

 Cycle   2  Pass 1  IDiag  1:
 RMSU=  2.09D-03    CP:  9.98D-01
 E= -2296.90259467376     Delta-E=       -0.322998212291 Rises=F Damp=T
 DIIS: error= 3.18D-02 at cycle   2 NSaved=   2.
 NSaved= 2 IEnMin= 2 EnMin= -2296.90259467376     IErMin= 2 ErrMin= 3.18D-02
 ErrMax= 3.18D-02  0.00D+00 EMaxC= 1.00D-01 BMatC= 3.15D-01 BMatP= 2.11D+00
 IDIUse=3 WtCom= 6.82D-01 WtEn= 3.18D-01
 Coeff-Com: -0.157D+00 0.116D+01
 Coeff-En:   0.114D+00 0.886D+00
 Coeff:     -0.711D-01 0.107D+01
 Gap=     0.378 Goal=   None    Shift=    0.000
 RMSDP=1.35D-03 MaxDP=1.28D-01 DE=-3.23D-01 OVMax= 1.78D-01

 Cycle   3  Pass 1  IDiag  1:
 RMSU=  1.32D-03    CP:  1.00D+00  8.60D-01
 E= -2297.20497420792     Delta-E=       -0.302379534160 Rises=F Damp=F
 DIIS: error= 9.98D-03 at cycle   3 NSaved=   3.
 NSaved= 3 IEnMin= 3 EnMin= -2297.20497420792     IErMin= 3 ErrMin= 9.98D-03
 ErrMax= 9.98D-03  0.00D+00 EMaxC= 1.00D-01 BMatC= 1.91D-01 BMatP= 3.15D-01
 IDIUse=3 WtCom= 9.00D-01 WtEn= 9.98D-02
 Coeff-Com: -0.195D+00 0.581D+00 0.614D+00
 Coeff-En:   0.000D+00 0.000D+00 0.100D+01
 Coeff:     -0.175D+00 0.523D+00 0.652D+00
 Gap=     0.182 Goal=   None    Shift=    0.000
 RMSDP=1.13D-03 MaxDP=7.42D-02 DE=-3.02D-01 OVMax= 9.80D-02

 Cycle   4  Pass 1  IDiag  1:
 RMSU=  6.59D-04    CP:  1.00D+00  1.11D+00  4.31D-01
 E= -2297.30843713603     Delta-E=       -0.103462928107 Rises=F Damp=F
 DIIS: error= 6.77D-03 at cycle   4 NSaved=   4.
 NSaved= 4 IEnMin= 4 EnMin= -2297.30843713603     IErMin= 4 ErrMin= 6.77D-03
 ErrMax= 6.77D-03  0.00D+00 EMaxC= 1.00D-01 BMatC= 6.16D-02 BMatP= 1.91D-01
 IDIUse=3 WtCom= 9.32D-01 WtEn= 6.77D-02
 Coeff-Com: -0.996D-01 0.237D+00 0.421D+00 0.441D+00
 Coeff-En:   0.000D+00 0.000D+00 0.258D+00 0.742D+00
 Coeff:     -0.929D-01 0.221D+00 0.410D+00 0.462D+00
 Gap=     0.187 Goal=   None    Shift=    0.000
 RMSDP=5.23D-04 MaxDP=3.31D-02 DE=-1.03D-01 OVMax= 4.31D-02

 Cycle   5  Pass 1  IDiag  1:
 RMSU=  2.03D-04    CP:  9.99D-01  1.08D+00  6.32D-01  3.99D-01
 E= -2297.35358851629     Delta-E=       -0.045151380262 Rises=F Damp=F
 DIIS: error= 1.28D-03 at cycle   5 NSaved=   5.
 NSaved= 5 IEnMin= 5 EnMin= -2297.35358851629     IErMin= 5 ErrMin= 1.28D-03
 ErrMax= 1.28D-03  0.00D+00 EMaxC= 1.00D-01 BMatC= 2.73D-03 BMatP= 6.16D-02
 IDIUse=3 WtCom= 9.87D-01 WtEn= 1.28D-02
 Coeff-Com: -0.364D-01 0.787D-01 0.178D+00 0.263D+00 0.516D+00
 Coeff-En:   0.000D+00 0.000D+00 0.000D+00 0.000D+00 0.100D+01
 Coeff:     -0.359D-01 0.777D-01 0.176D+00 0.260D+00 0.523D+00
 Gap=     0.179 Goal=   None    Shift=    0.000
 RMSDP=1.10D-04 MaxDP=5.28D-03 DE=-4.52D-02 OVMax= 8.13D-03

 Cycle   6  Pass 1  IDiag  1:
 RMSU=  4.78D-05    CP:  1.00D+00  1.09D+00  6.26D-01  4.95D-01  6.31D-01
 E= -2297.35580949021     Delta-E=       -0.002220973924 Rises=F Damp=F
 DIIS: error= 2.10D-04 at cycle   6 NSaved=   6.
 NSaved= 6 IEnMin= 6 EnMin= -2297.35580949021     IErMin= 6 ErrMin= 2.10D-04
 ErrMax= 2.10D-04  0.00D+00 EMaxC= 1.00D-01 BMatC= 9.49D-05 BMatP= 2.73D-03
 IDIUse=3 WtCom= 9.98D-01 WtEn= 2.10D-03
 Coeff-Com: -0.810D-02 0.163D-01 0.434D-01 0.770D-01 0.232D+00 0.639D+00
 Coeff-En:   0.000D+00 0.000D+00 0.000D+00 0.000D+00 0.000D+00 0.100D+01
 Coeff:     -0.808D-02 0.163D-01 0.433D-01 0.768D-01 0.231D+00 0.640D+00
 Gap=     0.179 Goal=   None    Shift=    0.000
 RMSDP=2.55D-05 MaxDP=1.67D-03 DE=-2.22D-03 OVMax= 2.18D-03

 Cycle   7  Pass 1  IDiag  1:
 RMSU=  1.80D-05    CP:  9.99D-01  1.08D+00  6.29D-01  4.96D-01  6.66D-01
                    CP:  6.94D-01
 E= -2297.35587374816     Delta-E=       -0.000064257950 Rises=F Damp=F
 DIIS: error= 8.11D-05 at cycle   7 NSaved=   7.
 NSaved= 7 IEnMin= 7 EnMin= -2297.35587374816     IErMin= 7 ErrMin= 8.11D-05
 ErrMax= 8.11D-05  0.00D+00 EMaxC= 1.00D-01 BMatC= 1.74D-05 BMatP= 9.49D-05
 IDIUse=1 WtCom= 1.00D+00 WtEn= 0.00D+00
 Coeff-Com:  0.779D-03-0.209D-02-0.204D-02 0.420D-02 0.525D-01 0.354D+00
 Coeff-Com:  0.593D+00
 Coeff:      0.779D-03-0.209D-02-0.204D-02 0.420D-02 0.525D-01 0.354D+00
 Coeff:      0.593D+00
 Gap=     0.180 Goal=   None    Shift=    0.000
 RMSDP=8.63D-06 MaxDP=4.41D-04 DE=-6.43D-05 OVMax= 9.18D-04

 Cycle   8  Pass 1  IDiag  1:
 RMSU=  3.58D-06    CP:  9.99D-01  1.09D+00  6.28D-01  4.95D-01  6.74D-01
                    CP:  7.75D-01  6.50D-01
 E= -2297.35588898034     Delta-E=       -0.000015232177 Rises=F Damp=F
 DIIS: error= 2.37D-05 at cycle   8 NSaved=   8.
 NSaved= 8 IEnMin= 8 EnMin= -2297.35588898034     IErMin= 8 ErrMin= 2.37D-05
 ErrMax= 2.37D-05  0.00D+00 EMaxC= 1.00D-01 BMatC= 5.61D-07 BMatP= 1.74D-05
 IDIUse=1 WtCom= 1.00D+00 WtEn= 0.00D+00
 Coeff-Com:  0.712D-03-0.171D-02-0.271D-02-0.749D-03 0.180D-01 0.156D+00
 Coeff-Com:  0.288D+00 0.542D+00
 Coeff:      0.712D-03-0.171D-02-0.271D-02-0.749D-03 0.180D-01 0.156D+00
 Coeff:      0.288D+00 0.542D+00
 Gap=     0.180 Goal=   None    Shift=    0.000
 RMSDP=1.71D-06 MaxDP=1.27D-04 DE=-1.52D-05 OVMax= 1.73D-04

 Cycle   9  Pass 1  IDiag  1:
 RMSU=  1.47D-06    CP:  9.99D-01  1.09D+00  6.28D-01  4.95D-01  6.74D-01
                    CP:  7.78D-01  6.58D-01  7.83D-01
 E= -2297.35588931989     Delta-E=       -0.000000339548 Rises=F Damp=F
 DIIS: error= 1.11D-05 at cycle   9 NSaved=   9.
 NSaved= 9 IEnMin= 9 EnMin= -2297.35588931989     IErMin= 9 ErrMin= 1.11D-05
 ErrMax= 1.11D-05  0.00D+00 EMaxC= 1.00D-01 BMatC= 1.16D-07 BMatP= 5.61D-07
 IDIUse=1 WtCom= 1.00D+00 WtEn= 0.00D+00
 Coeff-Com:  0.273D-03-0.621D-03-0.121D-02-0.107D-02 0.224D-02 0.361D-01
 Coeff-Com:  0.759D-01 0.324D+00 0.564D+00
 Coeff:      0.273D-03-0.621D-03-0.121D-02-0.107D-02 0.224D-02 0.361D-01
 Coeff:      0.759D-01 0.324D+00 0.564D+00
 Gap=     0.180 Goal=   None    Shift=    0.000
 RMSDP=7.45D-07 MaxDP=6.35D-05 DE=-3.40D-07 OVMax= 8.68D-05

 Cycle  10  Pass 1  IDiag  1:
 RMSU=  4.46D-07    CP:  9.99D-01  1.09D+00  6.28D-01  4.95D-01  6.75D-01
                    CP:  7.80D-01  6.61D-01  8.50D-01  6.43D-01
 E= -2297.35588939950     Delta-E=       -0.000000079611 Rises=F Damp=F
 DIIS: error= 3.55D-06 at cycle  10 NSaved=  10.
 NSaved=10 IEnMin=10 EnMin= -2297.35588939950     IErMin=10 ErrMin= 3.55D-06
 ErrMax= 3.55D-06  0.00D+00 EMaxC= 1.00D-01 BMatC= 1.47D-08 BMatP= 1.16D-07
 IDIUse=1 WtCom= 1.00D+00 WtEn= 0.00D+00
 Coeff-Com:  0.942D-04-0.204D-03-0.459D-03-0.567D-03-0.299D-03 0.757D-02
 Coeff-Com:  0.196D-01 0.138D+00 0.333D+00 0.503D+00
 Coeff:      0.942D-04-0.204D-03-0.459D-03-0.567D-03-0.299D-03 0.757D-02
 Coeff:      0.196D-01 0.138D+00 0.333D+00 0.503D+00
 Gap=     0.180 Goal=   None    Shift=    0.000
 RMSDP=2.35D-07 MaxDP=1.71D-05 DE=-7.96D-08 OVMax= 2.45D-05

 Cycle  11  Pass 1  IDiag  1:
 RMSU=  1.38D-07    CP:  9.99D-01  1.09D+00  6.28D-01  4.95D-01  6.75D-01
                    CP:  7.80D-01  6.63D-01  8.49D-01  7.11D-01  6.62D-01
 E= -2297.35588941012     Delta-E=       -0.000000010624 Rises=F Damp=F
 DIIS: error= 8.46D-07 at cycle  11 NSaved=  11.
 NSaved=11 IEnMin=11 EnMin= -2297.35588941012     IErMin=11 ErrMin= 8.46D-07
 ErrMax= 8.46D-07  0.00D+00 EMaxC= 1.00D-01 BMatC= 7.34D-10 BMatP= 1.47D-08
 IDIUse=1 WtCom= 1.00D+00 WtEn= 0.00D+00
 Coeff-Com:  0.105D-04-0.192D-04-0.616D-04-0.132D-03-0.458D-03-0.134D-02
 Coeff-Com: -0.108D-02 0.168D-01 0.708D-01 0.222D+00 0.693D+00
 Coeff:      0.105D-04-0.192D-04-0.616D-04-0.132D-03-0.458D-03-0.134D-02
 Coeff:     -0.108D-02 0.168D-01 0.708D-01 0.222D+00 0.693D+00
 Gap=     0.180 Goal=   None    Shift=    0.000
 RMSDP=5.95D-08 MaxDP=3.11D-06 DE=-1.06D-08 OVMax= 7.19D-06

 Cycle  12  Pass 1  IDiag  1:
 RMSU=  3.99D-08    CP:  9.99D-01  1.09D+00  6.28D-01  4.95D-01  6.75D-01
                    CP:  7.80D-01  6.63D-01  8.55D-01  7.12D-01  7.05D-01
                    CP:  7.91D-01
 E= -2297.35588941076     Delta-E=       -0.000000000635 Rises=F Damp=F
 DIIS: error= 3.92D-07 at cycle  12 NSaved=  12.
 NSaved=12 IEnMin=12 EnMin= -2297.35588941076     IErMin=12 ErrMin= 3.92D-07
 ErrMax= 3.92D-07  0.00D+00 EMaxC= 1.00D-01 BMatC= 9.87D-11 BMatP= 7.34D-10
 IDIUse=1 WtCom= 1.00D+00 WtEn= 0.00D+00
 Coeff-Com: -0.299D-05 0.837D-05 0.884D-05-0.198D-04-0.233D-03-0.145D-02
 Coeff-Com: -0.236D-02-0.274D-02 0.107D-01 0.790D-01 0.370D+00 0.547D+00
 Coeff:     -0.299D-05 0.837D-05 0.884D-05-0.198D-04-0.233D-03-0.145D-02
 Coeff:     -0.236D-02-0.274D-02 0.107D-01 0.790D-01 0.370D+00 0.547D+00
 Gap=     0.180 Goal=   None    Shift=    0.000
 RMSDP=2.41D-08 MaxDP=1.26D-06 DE=-6.35D-10 OVMax= 3.45D-06

 Cycle  13  Pass 1  IDiag  1:
 RMSU=  1.58D-08    CP:  9.99D-01  1.09D+00  6.28D-01  4.95D-01  6.75D-01
                    CP:  7.80D-01  6.63D-01  8.55D-01  7.14D-01  7.15D-01
                    CP:  8.47D-01  6.41D-01
 E= -2297.35588941074     Delta-E=        0.000000000013 Rises=F Damp=F
 DIIS: error= 1.29D-07 at cycle  13 NSaved=  13.
 NSaved=13 IEnMin=12 EnMin= -2297.35588941076     IErMin=13 ErrMin= 1.29D-07
 ErrMax= 1.29D-07  0.00D+00 EMaxC= 1.00D-01 BMatC= 9.76D-12 BMatP= 9.87D-11
 IDIUse=1 WtCom= 1.00D+00 WtEn= 0.00D+00
 Coeff-Com: -0.235D-05 0.554D-05 0.108D-04 0.555D-05-0.613D-04-0.536D-03
 Coeff-Com: -0.954D-03-0.307D-02-0.213D-02 0.154D-01 0.109D+00 0.281D+00
 Coeff-Com:  0.601D+00
 Coeff:     -0.235D-05 0.554D-05 0.108D-04 0.555D-05-0.613D-04-0.536D-03
 Coeff:     -0.954D-03-0.307D-02-0.213D-02 0.154D-01 0.109D+00 0.281D+00
 Coeff:      0.601D+00
 Gap=     0.180 Goal=   None    Shift=    0.000
 RMSDP=7.83D-09 MaxDP=4.26D-07 DE= 1.27D-11 OVMax= 1.45D-06

 Error on total polarization charges =  0.01015
 SCF Done:  E(RB98) =  -2297.35588941     A.U. after   13 cycles
            NFock= 13  Conv=0.78D-08     -V/T= 2.0072
 KE= 2.280912034802D+03 PE=-1.393685325357D+04 EE= 5.093357626427D+03
 Leave Link  502 at Sat Jun 15 07:43:47 2019, MaxMem=  6442450944 cpu:            7899.5 elap:             272.0
 (Enter /home/ekwan/sw/g16/l701.exe)
 ... and contract with generalized density number  0.
 Compute integral first derivatives.
 D1PCM: PCM CHGder 1st derivatives, ID1Alg=3 FixD1E=F DoIter=F DoCFld=F I1PDM=0.
 GePol: Maximum number of non-zero 1st derivatives   =     225
 Leave Link  701 at Sat Jun 15 07:43:59 2019, MaxMem=  6442450944 cpu:             319.0 elap:              11.5
 (Enter /home/ekwan/sw/g16/l702.exe)
 L702 exits ... SP integral derivatives will be done elsewhere.
 Leave Link  702 at Sat Jun 15 07:43:59 2019, MaxMem=  6442450944 cpu:               2.7 elap:               0.1
 (Enter /home/ekwan/sw/g16/l703.exe)
 Integral derivatives from FoFJK, PRISM(SPDF).
 Compute integral first derivatives, UseDBF=F ICtDFT=           0.
 Calling FoFJK, ICntrl=      2127 FMM=F ISym2X=0 I1Cent= 0 IOpClX= 0 NMat=1 NMatS=1 NMatT=0.
 FoFJK:  IHMeth= 1 ICntrl=    2127 DoSepK=F KAlg= 0 I1Cent=           0 FoldK=F
 IRaf=         0 NMat=       1 IRICut=       1 DoRegI=T DoRafI=F ISym2E= 0 IDoP0=0 IntGTp=1.
 FoFCou: FMM=F IPFlag=           0 FMFlag=      100000 FMFlg1=         800
         NFxFlg=           0 DoJE=F BraDBF=F KetDBF=F FulRan=T
         wScrn=  0.000000 ICntrl=      2127 IOpCl=  0 I1Cent=           0 NGrid=           0
         NMat0=    1 NMatS0=      1 NMatT0=    0 NMatD0=    1 NMtDS0=    0 NMtDT0=    0
 Symmetry not used in FoFCou.
 Leave Link  703 at Sat Jun 15 07:44:38 2019, MaxMem=  6442450944 cpu:            1189.4 elap:              39.4
 (Enter /home/ekwan/sw/g16/l716.exe)
 Dipole        = 4.42328006D-01 1.44210343D+00 1.27392031D-02
 ***** Axes restored to original set *****
 -------------------------------------------------------------------
 Center     Atomic                   Forces (Hartrees/Bohr)
 Number     Number              X              Y              Z
 -------------------------------------------------------------------
      1        6          -0.000002455    0.000009157    0.000000003
      2        6           0.000008499    0.000018419    0.000004421
      3        6          -0.000027090   -0.000067066    0.000010232
      4        6          -0.000000548   -0.000006581   -0.000011966
      5        6           0.000005301   -0.000001895    0.000002585
      6        1           0.000006273    0.000005865   -0.000003479
      7        1          -0.000003120   -0.000006407    0.000001254
      8        1          -0.000002698   -0.000001269    0.000000568
      9        1          -0.000002837    0.000002215    0.000002387
     10        1          -0.000002900    0.000002484   -0.000000777
     11        8          -0.000006580    0.000030883    0.000012693
     12        8           0.000056578    0.000037390   -0.000000022
     13        8           0.000002602   -0.000009281   -0.000005341
     14        8           0.000002961   -0.000002411    0.000000038
     15        8          -0.000002143    0.000008560   -0.000001913
     16        6          -0.000001752    0.000004405    0.000007774
     17        1           0.000000105   -0.000001702   -0.000003267
     18        1          -0.000002445    0.000000667   -0.000003943
     19        8           0.000003455   -0.000009404   -0.000001755
     20       16          -0.000036277   -0.000037254   -0.000026845
     21        8           0.000000458    0.000029348   -0.000003805
     22        8          -0.000001523   -0.000005564    0.000025302
     23        6           0.000003297    0.000001496   -0.000012616
     24        6          -0.000002905    0.000001193    0.000002181
     25        6          -0.000006470   -0.000000545    0.000006194
     26        6          -0.000004191   -0.000000621    0.000003448
     27        1           0.000001725   -0.000001241    0.000002735
     28        6           0.000005729   -0.000001572   -0.000010071
     29        1           0.000002827    0.000001092   -0.000002436
     30        6           0.000000911   -0.000000248    0.000005267
     31        1          -0.000000390    0.000000261   -0.000000796
     32        6           0.000003467    0.000002521    0.000004598
     33        1          -0.000001378    0.000000120    0.000000440
     34        1          -0.000000433   -0.000001337    0.000001893
     35        1          -0.000000844   -0.000001080    0.000002547
     36        6           0.000001910    0.000001135   -0.000000060
     37        1          -0.000000010    0.000001166    0.000001096
     38        1          -0.000000531    0.000000890    0.000001162
     39        1          -0.000000117    0.000000682    0.000001228
     40        6           0.000006748   -0.000006655    0.000001335
     41        1          -0.000001275    0.000001891   -0.000000716
     42        1          -0.000002134    0.000001569   -0.000000653
     43        1          -0.000001377    0.000002086   -0.000001591
     44        6          -0.000005340    0.000002555   -0.000002810
     45        1          -0.000001079    0.000000195   -0.000002064
     46        1           0.000004849   -0.000001625   -0.000002428
     47        1           0.000003091   -0.000000857   -0.000001351
     48        6           0.000003227    0.000004734   -0.000000966
     49        9          -0.000000306   -0.000000642    0.000000630
     50        9          -0.000000262   -0.000001811    0.000000675
     51        9          -0.000001466    0.000001043   -0.000000424
     52        6          -0.000004385   -0.000009582   -0.000003514
     53        9           0.000002159    0.000004910    0.000005490
     54        9           0.000001703   -0.000001884   -0.000002357
     55        9          -0.000000617   -0.000000398   -0.000000213
 -------------------------------------------------------------------
 Cartesian Forces:  Max     0.000067066 RMS     0.000010570
 Leave Link  716 at Sat Jun 15 07:44:38 2019, MaxMem=  6442450944 cpu:               3.1 elap:               0.1
 (Enter /home/ekwan/sw/g16/l103.exe)

 GradGradGradGradGradGradGradGradGradGradGradGradGradGradGradGradGradGrad
 Berny optimization.
 FormGI is forming the generalized inverse of G from B-inverse, IUseBI=4.
 Internal  Forces:  Max     0.000040904 RMS     0.000005353
 Search for a local minimum.
 Step number   1 out of a maximum of  291
 All quantities printed in internal units (Hartrees-Bohrs-Radians)
 RMS Force = .53529D-05 SwitMx=.10000D-02 MixMth= 2
 Mixed Optimization -- En-DIIS/RFO-DIIS
 Second derivative matrix not updated -- first step.
 ITU=  0
     Eigenvalues ---    0.00332   0.00402   0.00486   0.00522   0.00572
     Eigenvalues ---    0.00585   0.00839   0.01309   0.01397   0.01405
     Eigenvalues ---    0.01411   0.01414   0.01448   0.01459   0.01470
     Eigenvalues ---    0.01510   0.01515   0.01537   0.01599   0.02114
     Eigenvalues ---    0.02116   0.02123   0.02130   0.02134   0.02140
     Eigenvalues ---    0.02283   0.02806   0.03237   0.04294   0.04482
     Eigenvalues ---    0.04588   0.04748   0.04830   0.05176   0.05207
     Eigenvalues ---    0.05709   0.05990   0.06502   0.06929   0.06977
     Eigenvalues ---    0.07101   0.07760   0.09275   0.09992   0.10018
     Eigenvalues ---    0.10045   0.10073   0.10559   0.10575   0.10594
     Eigenvalues ---    0.10595   0.10675   0.10680   0.10759   0.10790
     Eigenvalues ---    0.10874   0.10914   0.11411   0.11687   0.11835
     Eigenvalues ---    0.14136   0.14969   0.16000   0.16000   0.16000
     Eigenvalues ---    0.16000   0.16000   0.16000   0.16000   0.16000
     Eigenvalues ---    0.16000   0.16000   0.16000   0.16000   0.16000
     Eigenvalues ---    0.16000   0.16000   0.16385   0.16894   0.17497
     Eigenvalues ---    0.18684   0.19713   0.19771   0.20853   0.22143
     Eigenvalues ---    0.23480   0.23483   0.23503   0.24967   0.24975
     Eigenvalues ---    0.25000   0.25000   0.25000   0.25000   0.25000
     Eigenvalues ---    0.25000   0.25000   0.25000   0.25000   0.25000
     Eigenvalues ---    0.25000   0.25000   0.25000   0.26309   0.26478
     Eigenvalues ---    0.27909   0.28029   0.28274   0.29163   0.30886
     Eigenvalues ---    0.30984   0.33301   0.33578   0.33609   0.33626
     Eigenvalues ---    0.33636   0.33636   0.33673   0.33676   0.33759
     Eigenvalues ---    0.33799   0.33980   0.33989   0.34068   0.34214
     Eigenvalues ---    0.34298   0.34313   0.34313   0.34465   0.34633
     Eigenvalues ---    0.35375   0.35377   0.35437   0.36413   0.37589
     Eigenvalues ---    0.42064   0.42117   0.42141   0.42203   0.42276
     Eigenvalues ---    0.42306   0.42825   0.42952   0.43414   0.44483
     Eigenvalues ---    0.45943   0.46047   0.46133   0.46265   0.46265
     Eigenvalues ---    0.46608   0.54393   0.55638   0.56097   0.56194
     Eigenvalues ---    0.56456   0.56502   0.91388   0.93569
 RFO step:  Lambda=-5.41628973D-08 EMin= 3.31568022D-03
 Linear search not attempted -- first point.
 Iteration  1 RMS(Cart)=  0.00072885 RMS(Int)=  0.00000011
 Iteration  2 RMS(Cart)=  0.00000022 RMS(Int)=  0.00000000
 ITry= 1 IFail=0 DXMaxC= 4.61D-03 DCOld= 1.00D+10 DXMaxT= 3.00D-01 DXLimC= 3.00D+00 Rises=F
 Variable       Old X    -DE/DX   Delta X   Delta X   Delta X     New X
                                 (Linear)    (Quad)   (Total)
    R1        2.90743   0.00000   0.00000  -0.00002  -0.00002   2.90741
    R2        2.90615   0.00000   0.00000  -0.00001  -0.00001   2.90614
    R3        2.07967   0.00000   0.00000   0.00001   0.00001   2.07967
    R4        2.67729   0.00000   0.00000   0.00001   0.00001   2.67730
    R5        2.92339   0.00001   0.00000   0.00001   0.00001   2.92340
    R6        2.08527  -0.00001   0.00000  -0.00002  -0.00002   2.08525
    R7        2.65881   0.00001   0.00000   0.00001   0.00001   2.65883
    R8        2.06276   0.00000   0.00000   0.00001   0.00001   2.06276
    R9        2.61746   0.00003   0.00000   0.00005   0.00005   2.61751
   R10        2.76741  -0.00003   0.00000  -0.00009  -0.00009   2.76732
   R11        2.90996   0.00000   0.00000   0.00003   0.00003   2.90999
   R12        2.07949   0.00000   0.00000   0.00000   0.00000   2.07949
   R13        2.73062  -0.00001   0.00000  -0.00001  -0.00001   2.73060
   R14        2.89664  -0.00001   0.00000  -0.00002  -0.00002   2.89663
   R15        2.07671   0.00000   0.00000   0.00000   0.00000   2.07671
   R16        2.67886   0.00000   0.00000   0.00000   0.00000   2.67886
   R17        3.07152   0.00004   0.00000   0.00009   0.00009   3.07161
   R18        2.68775  -0.00001   0.00000  -0.00001  -0.00001   2.68773
   R19        2.68573   0.00000   0.00000   0.00000   0.00000   2.68573
   R20        2.68665   0.00000   0.00000   0.00000   0.00000   2.68664
   R21        2.06970   0.00000   0.00000  -0.00001  -0.00001   2.06969
   R22        2.07949   0.00000   0.00000   0.00001   0.00001   2.07950
   R23        2.67162   0.00000   0.00000   0.00000   0.00000   2.67161
   R24        2.68536   0.00000   0.00000   0.00001   0.00001   2.68536
   R25        2.75030  -0.00003   0.00000  -0.00003  -0.00003   2.75027
   R26        2.76000  -0.00002   0.00000  -0.00003  -0.00003   2.75997
   R27        3.39691   0.00000   0.00000  -0.00001  -0.00001   3.39690
   R28        2.63764   0.00001   0.00000   0.00001   0.00001   2.63765
   R29        2.63821   0.00000   0.00000   0.00000   0.00000   2.63821
   R30        2.64180   0.00000   0.00000   0.00000   0.00000   2.64180
   R31        2.05066   0.00000   0.00000   0.00001   0.00001   2.05067
   R32        2.63998   0.00000   0.00000  -0.00001  -0.00001   2.63997
   R33        2.04971   0.00000   0.00000   0.00001   0.00001   2.04972
   R34        2.64130   0.00000   0.00000  -0.00001  -0.00001   2.64129
   R35        2.86232   0.00000   0.00000  -0.00001  -0.00001   2.86231
   R36        2.64259   0.00000   0.00000   0.00001   0.00001   2.64260
   R37        2.86042   0.00000   0.00000  -0.00001  -0.00001   2.86041
   R38        2.05071   0.00000   0.00000   0.00000   0.00000   2.05071
   R39        2.07739   0.00000   0.00000   0.00000   0.00000   2.07740
   R40        2.07885   0.00000   0.00000   0.00000   0.00000   2.07884
   R41        2.06552   0.00000   0.00000   0.00000   0.00000   2.06552
   R42        2.06805   0.00000   0.00000   0.00000   0.00000   2.06805
   R43        2.07994   0.00000   0.00000   0.00000   0.00000   2.07994
   R44        2.07216   0.00000   0.00000   0.00000   0.00000   2.07216
   R45        2.06805   0.00000   0.00000   0.00000   0.00000   2.06805
   R46        2.07349   0.00000   0.00000  -0.00001  -0.00001   2.07348
   R47        2.07880   0.00000   0.00000   0.00000   0.00000   2.07880
   R48        2.06830   0.00000   0.00000   0.00000   0.00000   2.06830
   R49        2.08049   0.00000   0.00000  -0.00001  -0.00001   2.08047
   R50        2.07364   0.00000   0.00000   0.00001   0.00001   2.07364
   R51        2.54086   0.00000   0.00000   0.00000   0.00000   2.54086
   R52        2.54569   0.00000   0.00000   0.00000   0.00000   2.54570
   R53        2.54170   0.00000   0.00000   0.00000   0.00000   2.54170
   R54        2.55676   0.00001   0.00000   0.00001   0.00001   2.55677
   R55        2.53821   0.00000   0.00000   0.00000   0.00000   2.53821
   R56        2.53861   0.00000   0.00000   0.00000   0.00000   2.53861
    A1        1.92007   0.00000   0.00000  -0.00001  -0.00001   1.92006
    A2        1.91232   0.00000   0.00000  -0.00001  -0.00001   1.91231
    A3        1.92820   0.00000   0.00000  -0.00001  -0.00001   1.92819
    A4        1.89443   0.00000   0.00000   0.00000   0.00000   1.89443
    A5        1.88178   0.00000   0.00000   0.00002   0.00002   1.88180
    A6        1.92655   0.00000   0.00000   0.00001   0.00001   1.92657
    A7        1.94124   0.00000   0.00000  -0.00003  -0.00003   1.94121
    A8        1.87906   0.00000   0.00000   0.00002   0.00002   1.87908
    A9        1.90662   0.00000   0.00000   0.00001   0.00001   1.90663
   A10        1.84359   0.00000   0.00000   0.00002   0.00002   1.84360
   A11        1.96541   0.00000   0.00000  -0.00001  -0.00001   1.96540
   A12        1.92539   0.00000   0.00000  -0.00001  -0.00001   1.92537
   A13        1.95177   0.00000   0.00000  -0.00003  -0.00003   1.95174
   A14        1.97076  -0.00001   0.00000  -0.00008  -0.00008   1.97068
   A15        1.85569  -0.00001   0.00000  -0.00001  -0.00001   1.85568
   A16        1.86067   0.00000   0.00000  -0.00002  -0.00002   1.86065
   A17        1.88260   0.00001   0.00000   0.00010   0.00010   1.88270
   A18        1.94170   0.00001   0.00000   0.00006   0.00006   1.94176
   A19        1.89814   0.00000   0.00000   0.00004   0.00004   1.89819
   A20        1.93548   0.00000   0.00000   0.00004   0.00004   1.93551
   A21        1.96679   0.00000   0.00000  -0.00004  -0.00004   1.96674
   A22        1.90023   0.00000   0.00000   0.00002   0.00002   1.90024
   A23        1.87471   0.00000   0.00000   0.00000   0.00000   1.87472
   A24        1.88661   0.00000   0.00000  -0.00006  -0.00006   1.88655
   A25        1.94424   0.00000   0.00000   0.00002   0.00002   1.94426
   A26        1.89907   0.00000   0.00000  -0.00001  -0.00001   1.89907
   A27        1.92171   0.00000   0.00000  -0.00001  -0.00001   1.92170
   A28        1.89385   0.00000   0.00000  -0.00002  -0.00002   1.89383
   A29        1.87206   0.00000   0.00000   0.00002   0.00002   1.87208
   A30        1.93294   0.00000   0.00000   0.00000   0.00000   1.93294
   A31        2.02240   0.00000   0.00000   0.00002   0.00002   2.02242
   A32        2.09089   0.00002   0.00000   0.00006   0.00006   2.09096
   A33        2.00330  -0.00001   0.00000  -0.00003  -0.00003   2.00327
   A34        2.00480   0.00000   0.00000   0.00002   0.00002   2.00482
   A35        1.99761   0.00000   0.00000   0.00001   0.00001   1.99762
   A36        1.86630   0.00000   0.00000   0.00002   0.00002   1.86631
   A37        1.90464   0.00000   0.00000   0.00000   0.00000   1.90464
   A38        2.00595  -0.00001   0.00000  -0.00007  -0.00007   2.00589
   A39        1.89248   0.00000   0.00000   0.00002   0.00002   1.89251
   A40        1.85638   0.00000   0.00000   0.00002   0.00002   1.85639
   A41        1.93342   0.00001   0.00000   0.00001   0.00001   1.93343
   A42        2.00663   0.00001   0.00000   0.00003   0.00003   2.00667
   A43        1.82394  -0.00001   0.00000  -0.00003  -0.00003   1.82391
   A44        1.90063   0.00000   0.00000   0.00001   0.00001   1.90063
   A45        1.81751   0.00002   0.00000   0.00007   0.00007   1.81758
   A46        2.11259   0.00000   0.00000   0.00001   0.00001   2.11260
   A47        1.89247  -0.00001   0.00000  -0.00005  -0.00005   1.89242
   A48        1.89436   0.00000   0.00000   0.00001   0.00001   1.89437
   A49        2.07416  -0.00001   0.00000  -0.00005  -0.00005   2.07411
   A50        2.07784   0.00001   0.00000   0.00005   0.00005   2.07789
   A51        2.13119   0.00000   0.00000   0.00000   0.00000   2.13118
   A52        2.06760   0.00000   0.00000   0.00001   0.00001   2.06762
   A53        2.10324   0.00000   0.00000  -0.00001  -0.00001   2.10323
   A54        2.11232   0.00000   0.00000  -0.00001  -0.00001   2.11231
   A55        2.06699   0.00000   0.00000  -0.00001  -0.00001   2.06698
   A56        2.10739   0.00000   0.00000   0.00001   0.00001   2.10740
   A57        2.10879   0.00000   0.00000   0.00000   0.00000   2.10879
   A58        2.10449   0.00000   0.00000  -0.00001  -0.00001   2.10447
   A59        2.08697   0.00000   0.00000   0.00000   0.00000   2.08697
   A60        2.09084   0.00000   0.00000   0.00001   0.00001   2.09085
   A61        2.10549   0.00000   0.00000   0.00001   0.00001   2.10550
   A62        2.08394   0.00001   0.00000   0.00002   0.00002   2.08396
   A63        2.09268  -0.00001   0.00000  -0.00004  -0.00004   2.09264
   A64        2.09055   0.00000   0.00000   0.00000   0.00000   2.09056
   A65        2.09633   0.00000   0.00000   0.00000   0.00000   2.09633
   A66        2.09630   0.00000   0.00000   0.00000   0.00000   2.09629
   A67        1.95800   0.00000   0.00000  -0.00001  -0.00001   1.95799
   A68        1.93818   0.00000   0.00000  -0.00001  -0.00001   1.93817
   A69        1.85851   0.00000   0.00000  -0.00001  -0.00001   1.85850
   A70        1.90384   0.00000   0.00000   0.00000   0.00000   1.90384
   A71        1.89673   0.00000   0.00000   0.00001   0.00001   1.89673
   A72        1.90728   0.00000   0.00000   0.00001   0.00001   1.90729
   A73        1.85799   0.00000   0.00000   0.00000   0.00000   1.85799
   A74        1.93949   0.00000   0.00000   0.00000   0.00000   1.93948
   A75        1.94883   0.00000   0.00000   0.00000   0.00000   1.94883
   A76        1.90059   0.00000   0.00000   0.00000   0.00000   1.90059
   A77        1.91022   0.00000   0.00000   0.00000   0.00000   1.91023
   A78        1.90562   0.00000   0.00000   0.00000   0.00000   1.90562
   A79        1.85937   0.00000   0.00000   0.00000   0.00000   1.85937
   A80        1.94278   0.00000   0.00000   0.00000   0.00000   1.94278
   A81        1.93984   0.00000   0.00000  -0.00001  -0.00001   1.93983
   A82        1.90919   0.00000   0.00000   0.00001   0.00001   1.90920
   A83        1.90344   0.00000   0.00000   0.00000   0.00000   1.90344
   A84        1.90821   0.00000   0.00000   0.00000   0.00000   1.90821
   A85        1.86077   0.00000   0.00000   0.00000   0.00000   1.86078
   A86        1.93715   0.00000   0.00000   0.00002   0.00002   1.93717
   A87        1.95796   0.00000   0.00000  -0.00002  -0.00002   1.95795
   A88        1.90278   0.00000   0.00000   0.00000   0.00000   1.90278
   A89        1.90756   0.00000   0.00000  -0.00001  -0.00001   1.90755
   A90        1.89669   0.00000   0.00000   0.00000   0.00000   1.89669
   A91        1.94631   0.00000   0.00000   0.00000   0.00000   1.94631
   A92        1.94112   0.00000   0.00000   0.00000   0.00000   1.94112
   A93        1.94617   0.00000   0.00000   0.00001   0.00001   1.94618
   A94        1.87224   0.00000   0.00000  -0.00001  -0.00001   1.87222
   A95        1.88275   0.00000   0.00000   0.00001   0.00001   1.88276
   A96        1.87161   0.00000   0.00000   0.00000   0.00000   1.87161
   A97        1.93769   0.00000   0.00000  -0.00001  -0.00001   1.93768
   A98        1.95087   0.00000   0.00000  -0.00001  -0.00001   1.95087
[...]
 ,-0.00008675,0.00000111,0.00001417,0.00001557,0.00004807,0.00000806,0.
 00000237,-0.00000787,0.00001034,0.00000267,-0.00082158,0.00008902,0.00
 016786,0.00016118,0.00007296,-0.00003466,-0.00038505,-0.00031474,0.000
 36656,0.00026996,-0.00006273,-0.00006345,0.00099396,0.00218863,-0.0016
 0730,-0.00010409,-0.00048422,0.00051103,-0.00066954,-0.00067334,0.0002
 4653,-0.00035988,-0.00027904,0.00060734,-0.01302340,-0.03473542,0.5410
 5094,0.00002663,-0.00015054,-0.00006294,0.00004669,0.00000073,-0.00006
 780,-0.00000799,-0.00066744,-0.00000517,-0.00027733,-0.00049518,-0.000
 45826,0.00009822,0.00020241,0.00020772,-0.00001442,0.00003870,0.000008
 38,0.00002218,0.00000569,0.00000414,-0.00000651,0.00001510,-0.00000684
 ,-0.00000175,0.00004259,-0.00001059,0.00003517,-0.00001681,-0.00000081
 ,-0.00015577,0.00045822,0.00024587,0.00051007,0.00040410,0.00002203,-0
 .00006483,0.00009459,0.00006111,-0.00015125,0.00012085,-0.00003602,-0.
 00013439,0.00001803,-0.00008357,0.00191615,0.00060658,0.00052788,-0.00
 023372,0.00004598,-0.00016022,-0.00144188,0.00007002,-0.00049447,-0.00
 109344,-0.00031631,-0.00040412,-0.00086283,0.00001610,0.00022726,0.000
 20677,-0.00018470,-0.00003073,0.00019909,-0.00000311,-0.00011304,0.000
 77392,-0.00091092,0.00048341,0.00043506,-0.00010361,-0.00050885,-0.000
 96763,-0.00091829,0.00078773,-0.00025991,0.00033779,-0.00007875,-0.000
 01101,-0.00003053,-0.00002597,0.00775760,-0.00566657,-0.00371766,-0.00
 018856,-0.00017207,-0.00023691,0.00022604,0.00040424,0.00068377,-0.000
 05549,0.00017394,-0.00040590,0.00000867,-0.00000350,-0.00004730,0.0000
 0211,-0.00000590,0.00000911,0.00000263,-0.00000138,0.00000646,-0.00000
 699,0.00000705,0.00000653,0.00002122,-0.00007479,0.00004750,-0.0000129
 5,0.00000950,-0.00000759,0.00000295,0.00000870,-0.00000925,-0.00000440
 ,0.00001706,-0.00000038,0.00009061,0.00005539,0.00007122,-0.00000509,-
 0.00000573,-0.00002215,-0.00002659,-0.00000646,-0.00000344,0.00000834,
 0.00001008,0.00000519,0.00136955,-0.00037499,0.00057766,-0.00029093,-0
 .00005807,-0.00002551,-0.00108190,0.00025683,-0.00011990,-0.00022569,0
 .00002228,0.00003382,0.00000117,0.00006023,-0.00037831,0.00005516,-0.0
 0006408,0.00013991,-0.00005083,-0.00005006,0.00007105,-0.00002113,0.00
 000997,0.00011424,-0.10838679,-0.06598207,-0.02639632,0.16118394,-0.00
 006107,-0.00012635,-0.00012222,-0.00013065,0.00012613,-0.00007469,-0.0
 0040622,-0.00109593,0.00028654,-0.00027091,-0.00050127,-0.00050012,0.0
 0002065,0.00008651,0.00005725,-0.00002286,0.00005496,-0.00000604,0.000
 08869,0.00000737,0.00001491,-0.00000745,0.00002614,-0.00001436,-0.0000
 1853,0.00005752,-0.00004418,0.00005758,-0.00000448,0.00000651,0.000220
 65,0.00068758,0.00034038,0.00167051,0.00064381,-0.00005993,0.00009134,
 0.00001773,-0.00001861,0.00003027,0.00008011,0.00004379,-0.00001678,0.
 00011101,0.00007103,0.00094791,0.00009695,0.00051711,-0.00006315,0.000
 05654,-0.00006966,0.00065023,-0.00092394,0.00030784,-0.00052858,0.0003
 0711,-0.00050261,-0.00353253,0.00159730,0.00147442,0.00083559,-0.00115
 051,-0.00019045,0.00087879,-0.00033898,-0.00089319,0.00150472,-0.00016
 533,0.00159146,0.00016176,-0.00117960,0.00033235,-0.00259144,-0.000528
 32,0.00218550,0.00159385,-0.00002635,0.00196084,-0.00018857,-0.0000401
 6,-0.00015559,-0.02184021,-0.04294742,-0.01246791,-0.00075153,-0.00050
 979,-0.00078765,0.00258304,-0.00183797,-0.00262824,-0.00092239,-0.0004
 8216,-0.00062636,-0.00005988,0.00000063,0.00005314,-0.00000031,-0.0000
 0075,0.00001271,0.00001679,0.00001565,-0.00000733,0.00000241,-0.000003
 95,-0.00000178,-0.00001595,-0.00001011,0.00001016,0.00000635,0.0000036
 9,0.00000088,0.00000135,-0.00000411,-0.00000453,-0.00000796,0.00000719
 ,0.00000219,0.00000370,-0.00006342,0.00001663,0.00000419,0.00000206,-0
 .00000179,-0.00000765,0.00000608,-0.00000184,0.00001203,0.00002948,-0.
 00000415,0.00139486,-0.00030026,0.00081007,-0.00024150,-0.00002820,-0.
 00003929,-0.00003161,0.00030958,-0.00048328,-0.00030627,0.00001487,0.0
 0001619,0.00183732,0.00072813,-0.00233970,-0.00011230,-0.00059989,0.00
 102448,-0.00075657,-0.00050828,0.00037195,-0.00049370,0.00018694,0.000
 79509,-0.06891113,-0.19867032,-0.04745733,0.12050599,0.24169292,0.0000
 1917,-0.00009149,-0.00004561,0.00004163,-0.00001886,-0.00003905,0.0000
 4563,-0.00023101,-0.00007583,-0.00016184,-0.00031847,-0.00034089,0.000
 06738,0.00013772,0.00012628,-0.00001783,0.00002930,0.00001189,-0.00000
 371,0.00000104,0.00000170,-0.00000229,0.00000408,0.00000018,0.00000464
 ,0.00000615,0.00001086,0.00000939,-0.00001353,-0.00000157,-0.00012010,
 0.00020923,0.00020811,0.00002553,0.00012819,0.00009436,-0.00005112,0.0
 0005632,0.00006357,-0.00010234,0.00007264,-0.00001551,-0.00009097,0.00
 000648,-0.00003249,0.00115707,0.00054590,0.00038599,-0.00011832,0.0000
 1233,-0.00007115,-0.00070139,-0.00009351,-0.00041971,-0.00059369,-0.00
 029773,0.00010585,-0.00002348,-0.00017326,-0.00045420,0.00000282,0.000
 07140,0.00007499,0.00001883,-0.00000594,0.00017655,-0.00031711,0.00032
 240,-0.00054757,-0.00052177,0.00027609,0.00033955,0.00120982,0.0004742
 9,-0.00027148,-0.00007291,-0.00079994,0.00055647,-0.00000077,-0.000019
 32,0.00002245,-0.00075871,0.00399700,0.01080790,-0.00022257,0.00027460
 ,-0.00002058,0.00022259,-0.00095686,-0.00036660,-0.00004395,-0.0000401
 2,-0.00005490,0.00001149,-0.00000162,-0.00005604,0.00000554,-0.0000015
 2,0.00000857,-0.00000321,-0.00000350,0.00000513,-0.00000383,0.00000349
 ,0.00000639,0.00001496,-0.00004440,0.00002393,-0.00000917,0.00000565,-
 0.00000547,0.00000062,0.00000472,-0.00000296,-0.00000267,0.00001156,-0
 .00000036,0.00006050,0.00003999,0.00004193,-0.00000103,-0.00000488,-0.
 00000945,-0.00001939,-0.00000279,-0.00000176,0.00000575,0.00000342,-0.
 00000026,0.00048587,-0.00001694,0.00004339,-0.00008735,-0.00003799,0.0
 0002076,0.00024703,0.00006860,-0.00035000,-0.00011632,0.00001947,0.000
 03581,0.00005292,-0.00018010,-0.00006365,0.00001986,-0.00002962,0.0000
 8851,0.00002443,0.00004650,0.00001675,-0.00000132,0.00006481,0.0000328
 8,-0.02674279,-0.04553643,-0.08944315,0.06403478,0.09475142,0.12462359
 ,0.00009409,-0.00005777,0.00005440,0.00017108,-0.00012961,-0.00000626,
 0.00030804,0.00010751,-0.00023178,0.00000923,-0.00005854,0.00008063,0.
 00009990,0.00009735,0.00017343,0.00001054,-0.00001313,0.00001052,-0.00
 004636,0.00000356,-0.00001204,-0.00000267,-0.00000147,-0.00000011,0.00
 001401,0.00000483,0.00001617,0.00000209,-0.00001085,-0.00000822,-0.000
 36332,-0.00001757,-0.00007766,-0.00080511,-0.00008014,0.00004237,-0.00
 015734,0.00011280,0.00007777,-0.00019993,0.00007630,-0.00009110,-0.000
 13370,-0.00005941,-0.00016936,0.00076928,0.00025393,0.00026157,-0.0000
 9592,0.00000159,-0.00008585,-0.00000026,-0.00010898,0.00010706,-0.0004
 4811,-0.00015723,-0.00018180,0.00194559,-0.00110324,-0.00099483,-0.000
 56815,0.00112305,0.00006143,-0.00047639,0.00030269,0.00061197,-0.00081
 224,0.00063877,0.00129923,0.00000534,0.00022761,-0.00044187,0.00024267
 ,0.00413882,-0.00474363,0.00046431,0.00100581,-0.00053928,0.00007630,-
 0.00008864,-0.00011447,-0.02961358,0.01252817,0.00479600,0.00037294,-0
 .00065973,-0.00018220,-0.00140366,-0.00085832,0.00360909,0.00046901,0.
 00005367,-0.00211348,0.00006074,-0.00000956,-0.00009220,0.00000079,-0.
 00000962,-0.00000201,-0.00000701,-0.00001312,0.00001481,-0.00001297,0.
 00001442,0.00000779,0.00004351,-0.00008905,0.00005237,-0.00001988,0.00
 000773,-0.00000943,0.00000305,0.00001477,-0.00001023,0.00000174,0.0000
 1419,-0.00000087,0.00009444,0.00009572,0.00006598,-0.00000743,-0.00000
 871,-0.00002427,-0.00002393,-0.00001081,-0.00000085,-0.00000195,-0.000
 00672,0.00000588,0.00062377,-0.00008509,0.00026843,-0.00014059,-0.0000
 5862,-0.00001839,-0.00000477,0.00022076,-0.00014657,-0.00006160,0.0000
 1450,-0.00000130,-0.00130179,-0.00028498,0.00115511,0.00014529,0.00024
 187,-0.00043057,0.00057564,0.00033060,-0.00018171,0.00037726,-0.000155
 27,-0.00042608,-0.25516009,0.06392034,0.01166876,-0.06915167,-0.025717
 47,-0.01291488,0.38476768,-0.00006245,-0.00002916,-0.00006935,-0.00012
 344,0.00010371,-0.00003096,-0.00029393,-0.00052999,0.00022756,-0.00012
 504,-0.00018463,-0.00022891,-0.00003210,0.00000062,-0.00004358,-0.0000
 1173,0.00002504,-0.00000939,0.00005705,0.00000308,0.00001129,-0.000002
 05,0.00001166,-0.00000714,-0.00001364,0.00002354,-0.00002899,0.0000221
 1,0.00000334,0.00000618,0.00021833,0.00029479,0.00015928,0.00102210,0.
 00030737,-0.00004893,0.00010083,-0.00003590,-0.00004351,0.00008987,0.0
 0000372,0.00005124,0.00004488,0.00006752,0.00009158,0.00014593,-0.0000
 6512,0.00007900,-0.00000522,0.00002191,-0.00000053,0.00002939,-0.00017
 137,0.00004687,-0.00006798,0.00013696,-0.00010213,-0.00254324,0.000872
 46,0.00103793,0.00074347,-0.00104790,-0.00007551,0.00059122,-0.0002034
 0,-0.00069903,0.00049555,-0.00189842,-0.00106920,0.00067765,-0.0006187
 7,-0.00000104,-0.00005247,-0.00280029,0.00514382,0.00003067,-0.0000868
 2,-0.00035505,0.00000640,0.00004335,0.00001795,0.03902185,-0.00673773,
 -0.00272177,0.00010573,0.00053455,0.00017237,0.00098496,-0.00085022,-0
 .00000914,0.00074579,-0.00091553,0.00087652,-0.00004874,0.00000390,0.0
 0006382,-0.00000140,0.00000280,0.00000510,0.00001072,0.00001212,-0.000
 00883,0.00000565,-0.00000691,-0.00000432,-0.00002350,0.00002966,-0.000
 01499,0.00001037,-0.00000139,0.00000416,-0.00000036,-0.00000726,0.0000
 0160,-0.00000395,-0.00000274,0.00000129,-0.00003518,-0.00006142,-0.000
 01841,0.00000424,0.00000417,0.00000805,0.00000657,0.00000613,-0.000000
 39,0.00000518,0.00001418,-0.00000354,0.00022300,-0.00006869,0.00013503
 ,-0.00002220,0.00001222,-0.00000645,0.00001344,0.00006075,-0.00006387,
 -0.00006231,-0.00000294,0.00000794,0.00105328,0.00056842,-0.00144814,-
 0.00005853,-0.00030111,0.00051502,-0.00049211,-0.00032679,0.00023936,-
 0.00032816,0.00009434,0.00049706,0.05813990,-0.09631525,0.00065031,-0.
 04150948,0.00842531,-0.00341557,-0.06332379,0.08997667,0.00001672,-0.0
 0000458,0.00000192,0.00002972,-0.00003219,0.00000263,0.00007453,0.0001
 4126,-0.00009537,0.00002082,-0.00000497,-0.00002846,0.00001494,0.00001
 280,0.00001607,-0.00000563,0.00000358,0.00000654,-0.00001865,-0.000001
 59,-0.00000238,0.00000062,-0.00000350,0.00000349,0.00000429,-0.0000101
 1,0.00001465,-0.00000549,-0.00000394,-0.00000146,-0.00005097,-0.000044
 79,0.00003118,-0.00032109,-0.00008026,0.00006552,-0.00002953,0.0000144
 8,0.00003208,-0.00003067,0.00000776,-0.00000542,-0.00002258,-0.0000093
 1,-0.00000720,0.00010806,0.00007356,0.00000531,0.00000151,-0.00000313,
 0.00000498,0.00001613,-0.00002243,0.00002908,-0.00006247,-0.00005663,0
 .00006691,0.00066917,-0.00026388,-0.00055969,-0.00018524,0.00030521,0.
 00007559,-0.00014776,0.00002676,0.00030157,-0.00082162,0.00048878,0.00
 047573,-0.00015452,0.00026920,-0.00003144,0.00025204,0.00170538,-0.001
 66376,-0.00059769,-0.00027004,0.00062127,-0.00005515,0.00003325,0.0000
 5699,-0.00971072,0.00503780,0.01049841,-0.00030821,0.00029559,0.000054
 71,-0.00020670,0.00058275,-0.00196102,-0.00140875,0.00101119,0.0004189
 5,0.00001147,-0.00000135,-0.00003500,0.00000391,0.00000035,0.00000276,
 -0.00000451,-0.00000361,0.00000287,-0.00000126,0.00000121,0.00000292,0
 .00000704,-0.00000974,0.00000196,-0.00000327,0.00000074,-0.00000177,-0
 .00000066,0.00000131,0.00000093,0.00000022,0.00000267,-0.00000015,0.00
 001521,0.00001450,0.00000675,0.00000055,-0.00000159,-0.00000006,-0.000
 00525,-0.00000036,-0.00000004,0.00000096,-0.00000193,-0.00000099,0.000
 05761,-0.00000813,-0.00003689,-0.00001122,-0.00000558,0.00000491,0.000
 04005,0.00003814,-0.00003991,-0.00002948,0.00000770,0.00000704,-0.0002
 1095,-0.00043663,0.00039212,-0.00001719,0.00012880,-0.00015361,0.00015
 781,0.00014586,-0.00005150,0.00005925,0.00006893,-0.00012075,0.0165376
 0,-0.00124902,-0.07656563,-0.01852533,-0.00278333,0.01090354,-0.043483
 47,0.00820966,0.08468602,0.00002177,-0.00001322,0.00002008,0.00003822,
 -0.00002517,-0.00000636,0.00006384,-0.00006856,-0.00001226,-0.00000118
 ,-0.00000112,0.00007303,0.00002425,0.00001646,0.00003834,0.00001094,-0
 .00000619,-0.00000236,-0.00000262,0.00000278,-0.00000251,-0.00000128,0
 .00000170,-0.00000281,0.00000176,0.00000811,-0.00000687,0.00000435,-0.
 00000051,-0.00000155,-0.00008592,0.00002659,-0.00005520,-0.00007200,0.
 00004820,-0.00002558,-0.00003565,0.00003116,0.00000755,-0.00004615,0.0
 0001994,-0.00002693,-0.00003025,-0.00001268,-0.00004923,0.00011381,0.0
 0000477,0.00005995,-0.00002061,0.00000102,-0.00002474,0.00001250,-0.00
 001570,0.00003521,-0.00007776,0.00000501,-0.00010790,0.00018932,-0.000
 39772,0.00009338,-0.00000920,0.00014175,-0.00004257,-0.00006818,0.0001
 1301,-0.00000352,0.00049231,-0.00051174,-0.00044610,0.00005278,0.00014
 044,-0.00010662,-0.00189020,0.00079305,-0.00028270,0.00028252,-0.00001
 814,-0.00070452,0.00007407,0.00002580,-0.00005389,0.01035984,0.0015079
 3,-0.00268186,0.00065108,0.00051828,-0.00122463,-0.00058015,0.00128070
 ,0.00005074,0.00020628,0.00030678,-0.00034986,0.00001276,-0.00000307,-
 0.00001033,-0.00000177,-0.00000408,-0.00000203,0.00000098,-0.00000191,
 0.00000343,-0.00000403,0.00000441,0.00000060,0.00001075,-0.00002393,0.
 00001543,-0.00000441,0.00000199,-0.00000203,0.00000125,0.00000394,-0.0
 0000392,0.00000045,0.00000315,0.00000014,0.00002057,0.00002045,0.00001
 566,-0.00000216,-0.00000204,-0.00000707,-0.00000482,-0.00000294,0.0000
 0004,-0.00000114,-0.00000061,0.00000187,0.00015121,-0.00002181,0.00010
 571,-0.00003580,-0.00001879,-0.00001425,-0.00002968,0.00006779,0.00003
 574,0.00002096,0.00000097,-0.00000614,-0.00030374,-0.00000752,0.000152
 49,0.00003461,0.00006321,-0.00011522,0.00011065,0.00006199,-0.00002529
 ,0.00007419,-0.00004214,-0.00006176,-0.07796837,-0.00024865,0.02833779
 ,0.01019369,-0.00710539,-0.02396143,-0.03072790,0.00463686,0.05833582,
 0.08877325,-0.00004289,-0.00003331,-0.00004997,-0.00008590,0.00006970,
 -0.00002141,-0.00023691,-0.00045112,0.00016467,-0.00010562,-0.00016740
 ,-0.00016978,-0.00001734,0.00001191,-0.00001266,-0.00000894,0.00001644
 ,-0.00000584,0.00004400,0.00000364,0.00000709,-0.00000237,0.00001095,-
 0.00000712,-0.00001165,0.00002478,-0.00002523,0.00002131,0.00000243,0.
 00000419,0.00015408,0.00026470,0.00011474,0.00079639,0.00022120,-0.000
 03210,0.00006761,-0.00001483,-0.00003160,0.00005356,0.00001422,0.00003
 000,0.00002468,0.00005282,0.00005326,0.00020020,-0.00004570,0.00011803
 ,-0.00001930,0.00001845,-0.00001537,0.00006065,-0.00016804,0.00001579,
 -0.00010582,0.00011857,-0.00013465,-0.00178813,0.00103691,0.00058343,0
 .00040854,-0.00056756,-0.00005245,0.00046813,-0.00021502,-0.00046950,-
 0.00064742,0.00020495,0.00000137,-0.00023389,-0.00042951,0.00085708,0.
 00091283,-0.00119255,0.00087342,-0.00116317,-0.00160162,0.00087321,-0.
 00002315,0.00003440,0.00004617,-0.00480211,0.00164651,0.03466704,0.000
 21875,-0.00112002,0.00125896,0.00419454,-0.00287702,0.00027417,0.00012
 834,0.00035831,0.00017862,-0.00003591,0.00000146,0.00004643,-0.0000019
 4,0.00000063,0.00000386,0.00000938,0.00000933,-0.00000583,0.00000308,-
 0.00000384,-0.00000305,-0.00001518,0.00001305,-0.00000451,0.00000674,-
 0.00000009,0.00000251,0.00000039,-0.00000413,-0.00000083,-0.00000321,-
 0.00000071,0.00000107,-0.00002013,-0.00004336,-0.00000744,0.00000231,0
 .00000257,0.00000294,0.00000344,0.00000378,-0.00000041,0.00000380,0.00
 001218,-0.00000205,0.00025117,-0.00006037,0.00014488,-0.00003184,0.000
 00323,-0.00000911,-0.00000791,0.00005666,-0.00002643,-0.00004929,-0.00
 000225,0.00000444,0.00120636,0.00013388,-0.00156456,-0.00002061,-0.000
 33855,0.00064064,-0.00061741,-0.00033987,0.00026236,-0.00030422,0.0001
 0982,0.00044805,0.00108671,-0.08050429,0.02289696,-0.00624615,-0.00333
 144,-0.04930938,0.00762606,0.01160543,-0.01331662,-0.00130460,0.077449
 70,0.00006046,-0.00003812,-0.00000644,0.00010796,-0.00008524,-0.000008
 72,0.00026723,0.00027579,-0.00030694,0.00004344,-0.00007214,-0.0001489
 1,0.00006932,0.00006795,0.00008978,-0.00002055,0.00001767,0.00002261,-
 0.00005346,-0.00000484,-0.00000490,0.00000126,-0.00000985,0.00001103,0
 .00001840,-0.00003366,0.00005076,-0.00001688,-0.00001523,-0.00000579,-
 0.00026810,-0.00006799,0.00014346,-0.00085248,-0.00011642,0.00020813,-
 0.00010989,0.00006311,0.00011495,-0.00012436,0.00004208,-0.00002192,-0
 .00009800,-0.00003291,-0.00004357,0.00064699,0.00033982,0.00013158,-0.
 00003589,-0.00000887,-0.00000908,0.00006621,-0.00012246,-0.00000242,-0
 .00034327,-0.00025108,0.00022836,0.00196612,-0.00104034,-0.00154877,-0
 .00050847,0.00069847,0.00022024,-0.00044923,0.00012840,0.00093299,-0.0
 0006535,0.00123481,0.00048100,-0.00032023,0.00034932,-0.00020820,0.003
 10157,-0.00144903,-0.00107990,0.00181360,0.00060996,-0.00126584,-0.000
 12468,-0.00007246,0.00004429,0.00834345,0.00594779,-0.03828269,-0.0019
 7768,0.00064907,-0.00000314,-0.00508363,0.00550543,-0.00041025,-0.0003
 1352,-0.00063229,0.00044697,0.00003824,-0.00000405,-0.00012332,0.00001
 315,0.00000045,0.00001089,-0.00001476,-0.00001223,0.00001032,-0.000004
 82,0.00000460,0.00001092,0.00002610,-0.00004193,0.00001323,-0.00001294
 ,0.00000377,-0.00000682,-0.00000160,0.00000569,0.00000220,0.00000006,0
 .00001128,-0.00000096,0.00006556,0.00006157,0.00003506,0.00000007,-0.0
 0000612,-0.00000469,-0.00002131,-0.00000311,-0.00000112,0.00000355,-0.
 00000638,-0.00000183,0.00025892,-0.00000948,-0.00015142,-0.00005534,-0
 .00002854,0.00001880,0.00010491,0.00008167,-0.00012737,-0.00011610,0.0
 0002980,0.00002753,-0.00154701,-0.00047486,0.00165759,0.00000300,0.000
 53345,-0.00088513,0.00076255,0.00048820,-0.00022027,0.00030964,0.00001
 239,-0.00048135,0.02403743,0.02927453,-0.26939085,-0.01593264,-0.03476
 866,-0.05614760,0.04329599,-0.00773127,-0.02743288,-0.05695297,0.00070
 249,0.39342040\\-0.00000235,0.00000684,0.00000464,0.00000249,0.0000032
 6,0.00000511,-0.00000261,0.00000515,-0.00001491,0.00000468,0.00000421,
 -0.00000296,-0.00000511,0.00000560,-0.00000277,0.00000390,0.00000315,-
 0.00000143,-0.00000213,-0.00000459,0.00000159,-0.00000345,-0.00000325,
 -0.00000187,-0.00000318,0.00000165,0.00000104,0.00000062,-0.00000233,0
 .00000061,-0.00000151,-0.00000155,-0.00000071,-0.00000350,0.00000215,0
 .00000739,0.00000531,0.00000024,-0.00000633,0.00000149,-0.00000189,-0.
 00000055,0.00001336,-0.00000607,0.00000293,-0.00000078,-0.00000114,0.0
 0000860,-0.00000201,-0.00000353,-0.00000078,-0.00000005,0.00000086,-0.
 00000152,0.00000413,-0.00000743,0.00000172,0.00000877,-0.00001510,-0.0
 0000423,-0.00000542,0.00001480,-0.00000761,-0.00000715,-0.00000201,0.0
 0001167,0.00000121,0.00000400,-0.00001288,-0.00000487,0.00000279,0.000
 00368,-0.00000337,-0.00000022,0.00000680,-0.00000046,-0.00000631,0.000
 00271,0.00000078,-0.00000204,0.00000192,-0.00000006,-0.00000047,-0.000
 00399,0.00000406,0.00000361,-0.00000328,-0.00000088,-0.00000052,0.0000
 0177,-0.00000005,-0.00000048,0.00000018,0.00000093,0.00000299,-0.00000
 026,-0.00000253,0.00000199,-0.00000084,-0.00000167,0.00000104,0.000000
 73,-0.00000062,0.00000127,0.00000069,0.00000221,0.,-0.00000135,0.00000
 042,-0.00000095,-0.00000083,-0.00000042,-0.00000093,-0.00000060,0.,-0.
 00000066,-0.00000118,-0.00000326,-0.00000038,0.00000059,0.00000053,-0.
 00000209,0.00000054,0.00000027,-0.00000228,0.00000090,-0.00000054,-0.0
 0000130,-0.00000005,-0.00000457,0.00000186,-0.00000096,0.00000024,-0.0
 0000062,0.00000134,0.00000231,0.00000149,0.00000125,0.00000159,-0.0000
 0084,0.00000104,0.00000449,0.00000215,-0.00000263,-0.00000111,-0.00000
 310,-0.00000183,0.00000054,-0.00000097,0.00000053,-0.00000158,0.000001
 08,0.00000107,-0.00000135,-0.00000403,0.00000277,0.00000282,0.00000402
 ,0.00000321,0.00000082,0.00000014,-0.00000001,-0.00000139,0.00000074,-
 0.00000064\\\@


 ALMOST ANYTHING IS EASIER TO GET INTO THAN OUT OF.

                         -- AGNES ALLEN'S LAW FROM
                PAUL DICKSON'S "THE OFFICIAL RULES"
 Job cpu time:       0 days 22 hours 56 minutes 17.6 seconds.
 Elapsed time:       0 days  0 hours 46 minutes 59.6 seconds.
 File lengths (MBytes):  RWF=   2332 Int=      0 D2E=      0 Chk=     38 Scr=      1
 Normal termination of Gaussian 16 at Sat Jun 15 08:42:58 2019.
