 Entering Gaussian System, Link 0=g16
 Input=clay_new-glu_gluC6-bisCF3-sm-bhandh-custom-pcm_thf.gjf
 Output=clay_new-glu_gluC6-bisCF3-sm-bhandh-custom-pcm_thf.out
 Initial command:
 /home/ekwan/sw/g16/l1.exe "/scratch/users/ekwan/clay_new-glu_gluC6-bisCF3-sm-bhandh-custom-pcm_thf/Gau-19664.inp" -scrdir="/scratch/users/ekwan/clay_new-glu_gluC6-bisCF3-sm-bhandh-custom-pcm_thf/"
 Entering Link 1 = /home/ekwan/sw/g16/l1.exe PID=     19665.
  
 Copyright (c) 1988,1990,1992,1993,1995,1998,2003,2009,2016,
            Gaussian, Inc.  All Rights Reserved.
  
 This is part of the Gaussian(R) 16 program.  It is based on
 the Gaussian(R) 09 system (copyright 2009, Gaussian, Inc.),
 the Gaussian(R) 03 system (copyright 2003, Gaussian, Inc.),
 the Gaussian(R) 98 system (copyright 1998, Gaussian, Inc.),
 the Gaussian(R) 94 system (copyright 1995, Gaussian, Inc.),
 the Gaussian 92(TM) system (copyright 1992, Gaussian, Inc.),
 the Gaussian 90(TM) system (copyright 1990, Gaussian, Inc.),
 the Gaussian 88(TM) system (copyright 1988, Gaussian, Inc.),
 the Gaussian 86(TM) system (copyright 1986, Carnegie Mellon
 University), and the Gaussian 82(TM) system (copyright 1983,
 Carnegie Mellon University). Gaussian is a federally registered
 trademark of Gaussian, Inc.
  
 This software contains proprietary and confidential information,
 including trade secrets, belonging to Gaussian, Inc.
  
 This software is provided under written license and may be
 used, copied, transmitted, or stored only in accord with that
 written license.
  
 The following legend is applicable only to US Government
 contracts under FAR:
  
                    RESTRICTED RIGHTS LEGEND
  
 Use, reproduction and disclosure by the US Government is
 subject to restrictions as set forth in subparagraphs (a)
 and (c) of the Commercial Computer Software - Restricted
 Rights clause in FAR 52.227-19.
  
 Gaussian, Inc.
 340 Quinnipiac St., Bldg. 40, Wallingford CT 06492
  
  
 ---------------------------------------------------------------
 Warning -- This program may not be used in any manner that
 competes with the business of Gaussian, Inc. or will provide
 assistance to any competitor of Gaussian, Inc.  The licensee
 of this program is prohibited from giving any competitor of
 Gaussian, Inc. access to this program.  By using this program,
 the user acknowledges that Gaussian, Inc. is engaged in the
 business of creating and licensing software in the field of
 computational chemistry and represents and warrants to the
 licensee that it is not a competitor of Gaussian, Inc. and that
 it will not use this program in any manner prohibited above.
 ---------------------------------------------------------------
  

 Cite this work as:
 Gaussian 16, Revision A.03,
 M. J. Frisch, G. W. Trucks, H. B. Schlegel, G. E. Scuseria, 
 M. A. Robb, J. R. Cheeseman, G. Scalmani, V. Barone, 
 G. A. Petersson, H. Nakatsuji, X. Li, M. Caricato, A. V. Marenich, 
 J. Bloino, B. G. Janesko, R. Gomperts, B. Mennucci, H. P. Hratchian, 
 J. V. Ortiz, A. F. Izmaylov, J. L. Sonnenberg, D. Williams-Young, 
 F. Ding, F. Lipparini, F. Egidi, J. Goings, B. Peng, A. Petrone, 
 T. Henderson, D. Ranasinghe, V. G. Zakrzewski, J. Gao, N. Rega, 
 G. Zheng, W. Liang, M. Hada, M. Ehara, K. Toyota, R. Fukuda, 
 J. Hasegawa, M. Ishida, T. Nakajima, Y. Honda, O. Kitao, H. Nakai, 
 T. Vreven, K. Throssell, J. A. Montgomery, Jr., J. E. Peralta, 
 F. Ogliaro, M. J. Bearpark, J. J. Heyd, E. N. Brothers, K. N. Kudin, 
 V. N. Staroverov, T. A. Keith, R. Kobayashi, J. Normand, 
 K. Raghavachari, A. P. Rendell, J. C. Burant, S. S. Iyengar, 
 J. Tomasi, M. Cossi, J. M. Millam, M. Klene, C. Adamo, R. Cammi, 
 J. W. Ochterski, R. L. Martin, K. Morokuma, O. Farkas, 
 J. B. Foresman, and D. J. Fox, Gaussian, Inc., Wallingford CT, 2016.
 
 ******************************************
 Gaussian 16:  AS64L-G16RevA.03 25-Dec-2016
                15-Jun-2019 
 ******************************************
 %nprocshared=32
 Will use up to   32 processors via shared memory.
 %mem=48GB
 ----------------------------------------------------------------------
 #p opt freq=noraman pop=none 6-31g* scrf=(pcm,solvent=tetrahydrofuran)
  bhandh extrabasis
 ----------------------------------------------------------------------
 1/18=20,19=15,26=3,38=1/1,3;
 2/9=110,12=2,17=6,18=5,40=1/2;
 3/5=1,6=6,7=1,10=1,11=2,25=1,30=1,70=2201,71=1,72=20,74=-2/1,2,3;
 4//1;
 5/5=2,38=5,53=20/2;
 7//1,2,3,16;
 1/18=20,19=15,26=3/3(2);
 2/9=110/2;
 99//99;
 2/9=110/2;
 3/5=7,6=1,7=1,11=2,25=1,30=1,70=2205,71=1,72=20,74=-2,82=7/1,2,3;
 4/5=5,16=3,69=1/1;
 5/5=2,38=5,53=20/2;
 7//1,2,3,16;
 1/18=20,19=15,26=3/3(-5);
 2/9=110/2;
 99/9=1/99;
 Leave Link    1 at Sat Jun 15 07:47:31 2019, MaxMem=  6442450944 cpu:              10.6 elap:               0.4
 (Enter /home/ekwan/sw/g16/l101.exe)
 -----
 title
 -----
 Symbolic Z-matrix:
 Charge =  0 Multiplicity = 1
 6                     3.34576   0.06945   0.75403 
 6                     3.28318  -0.37088  -0.68555 
 6                     1.84843  -0.49929  -1.15031 
 6                     1.06682   1.01673   0.45738 
 6                     2.46373   1.26867   0.96154 
 1                     1.78191  -0.68986  -2.21976 
 1                     3.73474   0.42016  -1.30268 
 1                     2.98384  -0.74411   1.39693 
 1                     0.60418   0.22374   1.05775 
 1                     2.87813   2.11402   0.39969 
 8                     1.10243   0.61377  -0.89661 
 8                     1.31892  -1.6318   -0.4654 
 8                     3.98508  -1.54968  -0.82405 
 8                     4.63619   0.42695   1.11224 
 8                     2.37552   1.57801   2.30938 
 6                     0.2176    2.24959   0.58421 
 1                     0.02409   2.39752   1.64611 
 1                    -0.73891   2.08854   0.07367 
 8                     0.8294    3.40529   0.12562 
 16                    0.0585   -2.36718  -1.06894 
 8                    -0.00665  -3.61579  -0.3761 
 8                     0.15806  -2.30986  -2.49964 
 6                    -1.28888  -1.37773  -0.56695 
 6                    -1.88445  -1.63183   0.64859 
 6                    -1.70307  -0.3509   -1.3866 
 6                    -2.92776  -0.82466   1.04707 
 1                    -1.54083  -2.45008   1.26855 
 6                    -2.74019   0.44673  -0.95941 
 1                    -1.22317  -0.1797   -2.34101 
 6                    -3.35566   0.21713   0.2531 
 1                    -4.17111   0.85023   0.5784 
 6                     4.16602  -1.96145  -2.14223 
 1                     3.23752  -2.33601  -2.58456 
 1                     4.5497   -1.1431   -2.76038 
 1                     4.89271  -2.77018  -2.1327 
 6                     5.39285  -0.60391   1.6663 
 1                     6.36188  -0.18492   1.93119 
 1                     4.91727  -0.99255   2.57308 
 1                     5.52973  -1.42325   0.95936 
 6                     3.1245    2.69335   2.67967 
 1                     2.98167   2.84074   3.74872 
 1                     4.18556   2.53624   2.47431 
 1                     2.7788    3.58448   2.14587 
 6                     0.83646   3.54213  -1.2607 
 1                     1.1339    4.56503  -1.48497 
 1                    -0.1616    3.36141  -1.67383 
 1                     1.53558   2.85151  -1.73769 
 6                    -3.62795  -1.10818   2.32733 
 9                    -2.82243  -1.6869    3.19431 
 9                    -4.65595  -1.91496   2.14778 
 9                    -4.09156  -0.00144   2.87228 
 6                    -3.15614   1.60743  -1.78798 
 9                    -2.48052   2.69919  -1.45678 
 9                    -4.43279   1.88288  -1.62769 
 9                    -2.93572   1.39074  -3.06694 
 
 ITRead=  0  0  0  0  0  0  0  0  0  0  0  0  0  0  0  0  0  0  0  0
 ITRead=  0  0  0  0  0  0  0  0  0  0  0  0  0  0  0  0  0  0  0  0
 ITRead=  0  0  0  0  0  0  0  0  0  0  0  0  0  0  0
 MicOpt= -1 -1 -1 -1 -1 -1 -1 -1 -1 -1 -1 -1 -1 -1 -1 -1 -1 -1 -1 -1
 MicOpt= -1 -1 -1 -1 -1 -1 -1 -1 -1 -1 -1 -1 -1 -1 -1 -1 -1 -1 -1 -1
 MicOpt= -1 -1 -1 -1 -1 -1 -1 -1 -1 -1 -1 -1 -1 -1 -1
 NAtoms=     55 NQM=       55 NQMF=       0 NMMI=      0 NMMIF=      0
                NMic=       0 NMicF=      0.
                    Isotopes and Nuclear Properties:
 (Nuclear quadrupole moments (NQMom) in fm**2, nuclear magnetic moments (NMagM)
  in nuclear magnetons)

  Atom         1           2           3           4           5           6           7           8           9          10
 IAtWgt=          12          12          12          12          12           1           1           1           1           1
 AtmWgt=  12.0000000  12.0000000  12.0000000  12.0000000  12.0000000   1.0078250   1.0078250   1.0078250   1.0078250   1.0078250
 NucSpn=           0           0           0           0           0           1           1           1           1           1
 AtZEff=   0.0000000   0.0000000   0.0000000   0.0000000   0.0000000   0.0000000   0.0000000   0.0000000   0.0000000   0.0000000
 NQMom=    0.0000000   0.0000000   0.0000000   0.0000000   0.0000000   0.0000000   0.0000000   0.0000000   0.0000000   0.0000000
 NMagM=    0.0000000   0.0000000   0.0000000   0.0000000   0.0000000   2.7928460   2.7928460   2.7928460   2.7928460   2.7928460
 AtZNuc=   6.0000000   6.0000000   6.0000000   6.0000000   6.0000000   1.0000000   1.0000000   1.0000000   1.0000000   1.0000000

  Atom        11          12          13          14          15          16          17          18          19          20
 IAtWgt=          16          16          16          16          16          12           1           1          16          32
 AtmWgt=  15.9949146  15.9949146  15.9949146  15.9949146  15.9949146  12.0000000   1.0078250   1.0078250  15.9949146  31.9720718
 NucSpn=           0           0           0           0           0           0           1           1           0           0
 AtZEff=   0.0000000   0.0000000   0.0000000   0.0000000   0.0000000   0.0000000   0.0000000   0.0000000   0.0000000   0.0000000
 NQMom=    0.0000000   0.0000000   0.0000000   0.0000000   0.0000000   0.0000000   0.0000000   0.0000000   0.0000000   0.0000000
 NMagM=    0.0000000   0.0000000   0.0000000   0.0000000   0.0000000   0.0000000   2.7928460   2.7928460   0.0000000   0.0000000
 AtZNuc=   8.0000000   8.0000000   8.0000000   8.0000000   8.0000000   6.0000000   1.0000000   1.0000000   8.0000000  16.0000000

  Atom        21          22          23          24          25          26          27          28          29          30
 IAtWgt=          16          16          12          12          12          12           1          12           1          12
 AtmWgt=  15.9949146  15.9949146  12.0000000  12.0000000  12.0000000  12.0000000   1.0078250  12.0000000   1.0078250  12.0000000
 NucSpn=           0           0           0           0           0           0           1           0           1           0
 AtZEff=   0.0000000   0.0000000   0.0000000   0.0000000   0.0000000   0.0000000   0.0000000   0.0000000   0.0000000   0.0000000
 NQMom=    0.0000000   0.0000000   0.0000000   0.0000000   0.0000000   0.0000000   0.0000000   0.0000000   0.0000000   0.0000000
 NMagM=    0.0000000   0.0000000   0.0000000   0.0000000   0.0000000   0.0000000   2.7928460   0.0000000   2.7928460   0.0000000
 AtZNuc=   8.0000000   8.0000000   6.0000000   6.0000000   6.0000000   6.0000000   1.0000000   6.0000000   1.0000000   6.0000000

  Atom        31          32          33          34          35          36          37          38          39          40
 IAtWgt=           1          12           1           1           1          12           1           1           1          12
 AtmWgt=   1.0078250  12.0000000   1.0078250   1.0078250   1.0078250  12.0000000   1.0078250   1.0078250   1.0078250  12.0000000
 NucSpn=           1           0           1           1           1           0           1           1           1           0
 AtZEff=   0.0000000   0.0000000   0.0000000   0.0000000   0.0000000   0.0000000   0.0000000   0.0000000   0.0000000   0.0000000
 NQMom=    0.0000000   0.0000000   0.0000000   0.0000000   0.0000000   0.0000000   0.0000000   0.0000000   0.0000000   0.0000000
 NMagM=    2.7928460   0.0000000   2.7928460   2.7928460   2.7928460   0.0000000   2.7928460   2.7928460   2.7928460   0.0000000
 AtZNuc=   1.0000000   6.0000000   1.0000000   1.0000000   1.0000000   6.0000000   1.0000000   1.0000000   1.0000000   6.0000000

  Atom        41          42          43          44          45          46          47          48          49          50
 IAtWgt=           1           1           1          12           1           1           1          12          19          19
 AtmWgt=   1.0078250   1.0078250   1.0078250  12.0000000   1.0078250   1.0078250   1.0078250  12.0000000  18.9984033  18.9984033
 NucSpn=           1           1           1           0           1           1           1           0           1           1
 AtZEff=   0.0000000   0.0000000   0.0000000   0.0000000   0.0000000   0.0000000   0.0000000   0.0000000   0.0000000   0.0000000
 NQMom=    0.0000000   0.0000000   0.0000000   0.0000000   0.0000000   0.0000000   0.0000000   0.0000000   0.0000000   0.0000000
 NMagM=    2.7928460   2.7928460   2.7928460   0.0000000   2.7928460   2.7928460   2.7928460   0.0000000   2.6288670   2.6288670
 AtZNuc=   1.0000000   1.0000000   1.0000000   6.0000000   1.0000000   1.0000000   1.0000000   6.0000000   9.0000000   9.0000000

  Atom        51          52          53          54          55
 IAtWgt=          19          12          19          19          19
 AtmWgt=  18.9984033  12.0000000  18.9984033  18.9984033  18.9984033
 NucSpn=           1           0           1           1           1
 AtZEff=   0.0000000   0.0000000   0.0000000   0.0000000   0.0000000
 NQMom=    0.0000000   0.0000000   0.0000000   0.0000000   0.0000000
 NMagM=    2.6288670   0.0000000   2.6288670   2.6288670   2.6288670
 AtZNuc=   9.0000000   6.0000000   9.0000000   9.0000000   9.0000000
 Leave Link  101 at Sat Jun 15 07:47:32 2019, MaxMem=  6442450944 cpu:              17.9 elap:               0.6
 (Enter /home/ekwan/sw/g16/l103.exe)

 GradGradGradGradGradGradGradGradGradGradGradGradGradGradGradGradGradGrad
 Berny optimization.
 Initialization pass.
                           ----------------------------
                           !    Initial Parameters    !
                           ! (Angstroms and Degrees)  !
 --------------------------                            --------------------------
 ! Name  Definition              Value          Derivative Info.                !
 --------------------------------------------------------------------------------
 ! R1    R(1,2)                  1.5067         estimate D2E/DX2                !
 ! R2    R(1,5)                  1.503          estimate D2E/DX2                !
 ! R3    R(1,8)                  1.0983         estimate D2E/DX2                !
 ! R4    R(1,14)                 1.3861         estimate D2E/DX2                !
 ! R5    R(2,3)                  1.5136         estimate D2E/DX2                !
 ! R6    R(2,7)                  1.1002         estimate D2E/DX2                !
 ! R7    R(2,13)                 1.3789         estimate D2E/DX2                !
 ! R8    R(3,6)                  1.0883         estimate D2E/DX2                !
 ! R9    R(3,11)                 1.3637         estimate D2E/DX2                !
 ! R10   R(3,12)                 1.4255         estimate D2E/DX2                !
 ! R11   R(4,5)                  1.5063         estimate D2E/DX2                !
 ! R12   R(4,9)                  1.097          estimate D2E/DX2                !
 ! R13   R(4,11)                 1.4131         estimate D2E/DX2                !
 ! R14   R(4,16)                 1.5024         estimate D2E/DX2                !
 ! R15   R(5,10)                 1.0964         estimate D2E/DX2                !
 ! R16   R(5,15)                 1.3857         estimate D2E/DX2                !
 ! R17   R(12,20)                1.5792         estimate D2E/DX2                !
 ! R18   R(13,32)                1.3928         estimate D2E/DX2                !
 ! R19   R(14,36)                1.3936         estimate D2E/DX2                !
 ! R20   R(15,40)                1.3936         estimate D2E/DX2                !
 ! R21   R(16,17)                1.0895         estimate D2E/DX2                !
 ! R22   R(16,18)                1.0961         estimate D2E/DX2                !
 ! R23   R(16,19)                1.3857         estimate D2E/DX2                !
 ! R24   R(19,44)                1.3931         estimate D2E/DX2                !
 ! R25   R(20,21)                1.4294         estimate D2E/DX2                !
 ! R26   R(20,22)                1.4353         estimate D2E/DX2                !
 ! R27   R(20,23)                1.7454         estimate D2E/DX2                !
 ! R28   R(23,24)                1.3772         estimate D2E/DX2                !
 ! R29   R(23,25)                1.3776         estimate D2E/DX2                !
 ! R30   R(24,26)                1.378          estimate D2E/DX2                !
 ! R31   R(24,27)                1.0826         estimate D2E/DX2                !
 ! R32   R(25,28)                1.3764         estimate D2E/DX2                !
 ! R33   R(25,29)                1.0819         estimate D2E/DX2                !
 ! R34   R(26,30)                1.378          estimate D2E/DX2                !
 ! R35   R(26,48)                1.4865         estimate D2E/DX2                !
 ! R36   R(28,30)                1.379          estimate D2E/DX2                !
 ! R37   R(28,52)                1.4855         estimate D2E/DX2                !
 ! R38   R(30,31)                1.0824         estimate D2E/DX2                !
 ! R39   R(32,33)                1.0946         estimate D2E/DX2                !
 ! R40   R(32,34)                1.095          estimate D2E/DX2                !
 ! R41   R(32,35)                1.0873         estimate D2E/DX2                !
 ! R42   R(36,37)                1.0885         estimate D2E/DX2                !
 ! R43   R(36,38)                1.0952         estimate D2E/DX2                !
 ! R44   R(36,39)                1.0908         estimate D2E/DX2                !
 ! R45   R(40,41)                1.0886         estimate D2E/DX2                !
 ! R46   R(40,42)                1.0921         estimate D2E/DX2                !
 ! R47   R(40,43)                1.0948         estimate D2E/DX2                !
 ! R48   R(44,45)                1.0886         estimate D2E/DX2                !
 ! R49   R(44,46)                1.0952         estimate D2E/DX2                !
 ! R50   R(44,47)                1.0924         estimate D2E/DX2                !
 ! R51   R(48,49)                1.3174         estimate D2E/DX2                !
 ! R52   R(48,50)                1.3191         estimate D2E/DX2                !
 ! R53   R(48,51)                1.3179         estimate D2E/DX2                !
 ! R54   R(52,53)                1.3259         estimate D2E/DX2                !
 ! R55   R(52,54)                1.3158         estimate D2E/DX2                !
 ! R56   R(52,55)                1.3158         estimate D2E/DX2                !
 ! A1    A(2,1,5)              109.9202         estimate D2E/DX2                !
 ! A2    A(2,1,8)              109.2158         estimate D2E/DX2                !
 ! A3    A(2,1,14)             111.1584         estimate D2E/DX2                !
 ! A4    A(5,1,8)              108.4711         estimate D2E/DX2                !
 ! A5    A(5,1,14)             107.7498         estimate D2E/DX2                !
 ! A6    A(8,1,14)             110.2769         estimate D2E/DX2                !
 ! A7    A(1,2,3)              110.9488         estimate D2E/DX2                !
 ! A8    A(1,2,7)              107.9841         estimate D2E/DX2                !
 ! A9    A(1,2,13)             108.945          estimate D2E/DX2                !
 ! A10   A(3,2,7)              106.1293         estimate D2E/DX2                !
 ! A11   A(3,2,13)             112.2802         estimate D2E/DX2                !
 ! A12   A(7,2,13)             110.4497         estimate D2E/DX2                !
 ! A13   A(2,3,6)              111.9949         estimate D2E/DX2                !
 ! A14   A(2,3,11)             113.0893         estimate D2E/DX2                !
 ! A15   A(2,3,12)             105.7815         estimate D2E/DX2                !
 ! A16   A(6,3,11)             106.9949         estimate D2E/DX2                !
 ! A17   A(6,3,12)             108.0783         estimate D2E/DX2                !
 ! A18   A(11,3,12)            110.8453         estimate D2E/DX2                !
 ! A19   A(5,4,9)              109.1985         estimate D2E/DX2                !
 ! A20   A(5,4,11)             110.1828         estimate D2E/DX2                !
 ! A21   A(5,4,16)             111.0194         estimate D2E/DX2                !
 ! A22   A(9,4,11)             109.2011         estimate D2E/DX2                !
 ! A23   A(9,4,16)             107.9757         estimate D2E/DX2                !
 ! A24   A(11,4,16)            109.2157         estimate D2E/DX2                !
 ! A25   A(1,5,4)              111.3797         estimate D2E/DX2                !
 ! A26   A(1,5,10)             108.8219         estimate D2E/DX2                !
 ! A27   A(1,5,15)             110.4727         estimate D2E/DX2                !
 ! A28   A(4,5,10)             107.9368         estimate D2E/DX2                !
 ! A29   A(4,5,15)             107.6894         estimate D2E/DX2                !
 ! A30   A(10,5,15)            110.5113         estimate D2E/DX2                !
 ! A31   A(3,11,4)             115.1361         estimate D2E/DX2                !
 ! A32   A(3,12,20)            118.8692         estimate D2E/DX2                !
 ! A33   A(2,13,32)            114.4513         estimate D2E/DX2                !
 ! A34   A(1,14,36)            114.6725         estimate D2E/DX2                !
 ! A35   A(5,15,40)            113.7603         estimate D2E/DX2                !
 ! A36   A(4,16,17)            107.1039         estimate D2E/DX2                !
 ! A37   A(4,16,18)            109.4728         estimate D2E/DX2                !
 ! A38   A(4,16,19)            114.0093         estimate D2E/DX2                !
 ! A39   A(17,16,18)           108.5982         estimate D2E/DX2                !
 ! A40   A(17,16,19)           106.7227         estimate D2E/DX2                !
 ! A41   A(18,16,19)           110.711          estimate D2E/DX2                !
 ! A42   A(16,19,44)           114.4247         estimate D2E/DX2                !
 ! A43   A(12,20,21)           104.9456         estimate D2E/DX2                !
 ! A44   A(12,20,22)           107.8791         estimate D2E/DX2                !
 ! A45   A(12,20,23)           104.0189         estimate D2E/DX2                !
 ! A46   A(21,20,22)           121.4114         estimate D2E/DX2                !
 ! A47   A(21,20,23)           108.6984         estimate D2E/DX2                !
 ! A48   A(22,20,23)           108.5175         estimate D2E/DX2                !
 ! A49   A(20,23,24)           118.8866         estimate D2E/DX2                !
 ! A50   A(20,23,25)           118.9155         estimate D2E/DX2                !
 ! A51   A(24,23,25)           122.1833         estimate D2E/DX2                !
 ! A52   A(23,24,26)           118.3315         estimate D2E/DX2                !
 ! A53   A(23,24,27)           120.5055         estimate D2E/DX2                !
 ! A54   A(26,24,27)           121.1622         estimate D2E/DX2                !
 ! A55   A(23,25,28)           118.2845         estimate D2E/DX2                !
 ! A56   A(23,25,29)           120.6278         estimate D2E/DX2                !
 ! A57   A(28,25,29)           121.0877         estimate D2E/DX2                !
 ! A58   A(24,26,30)           120.7534         estimate D2E/DX2                !
 ! A59   A(24,26,48)           119.6018         estimate D2E/DX2                !
 ! A60   A(30,26,48)           119.6151         estimate D2E/DX2                !
 ! A61   A(25,28,30)           120.8453         estimate D2E/DX2                !
 ! A62   A(25,28,52)           119.3852         estimate D2E/DX2                !
 ! A63   A(30,28,52)           119.7056         estimate D2E/DX2                !
 ! A64   A(26,30,28)           119.5975         estimate D2E/DX2                !
 ! A65   A(26,30,31)           120.1973         estimate D2E/DX2                !
 ! A66   A(28,30,31)           120.2052         estimate D2E/DX2                !
 ! A67   A(13,32,33)           111.9273         estimate D2E/DX2                !
 ! A68   A(13,32,34)           111.03           estimate D2E/DX2                !
 ! A69   A(13,32,35)           107.3632         estimate D2E/DX2                !
 ! A70   A(33,32,34)           108.9564         estimate D2E/DX2                !
 ! A71   A(33,32,35)           108.4188         estimate D2E/DX2                !
 ! A72   A(34,32,35)           109.0649         estimate D2E/DX2                !
 ! A73   A(14,36,37)           107.181          estimate D2E/DX2                !
 ! A74   A(14,36,38)           110.8476         estimate D2E/DX2                !
 ! A75   A(14,36,39)           111.4742         estimate D2E/DX2                !
 ! A76   A(37,36,38)           108.7655         estimate D2E/DX2                !
 ! A77   A(37,36,39)           109.582          estimate D2E/DX2                !
 ! A78   A(38,36,39)           108.9381         estimate D2E/DX2                !
 ! A79   A(15,40,41)           107.385          estimate D2E/DX2                !
 ! A80   A(15,40,42)           110.9203         estimate D2E/DX2                !
 ! A81   A(15,40,43)           110.6214         estimate D2E/DX2                !
 ! A82   A(41,40,42)           109.3672         estimate D2E/DX2                !
 ! A83   A(41,40,43)           109.0988         estimate D2E/DX2                !
 ! A84   A(42,40,43)           109.4026         estimate D2E/DX2                !
 ! A85   A(19,44,45)           107.3794         estimate D2E/DX2                !
 ! A86   A(19,44,46)           110.7663         estimate D2E/DX2                !
 ! A87   A(19,44,47)           112.0663         estimate D2E/DX2                !
 ! A88   A(45,44,46)           109.046          estimate D2E/DX2                !
 ! A89   A(45,44,47)           109.2232         estimate D2E/DX2                !
 ! A90   A(46,44,47)           108.3128         estimate D2E/DX2                !
 ! A91   A(26,48,49)           111.2586         estimate D2E/DX2                !
 ! A92   A(26,48,50)           111.501          estimate D2E/DX2                !
 ! A93   A(26,48,51)           111.2024         estimate D2E/DX2                !
 ! A94   A(49,48,50)           107.303          estimate D2E/DX2                !
 ! A95   A(49,48,51)           108.1733         estimate D2E/DX2                !
 ! A96   A(50,48,51)           107.204          estimate D2E/DX2                !
 ! A97   A(28,52,53)           111.1835         estimate D2E/DX2                !
 ! A98   A(28,52,54)           111.5481         estimate D2E/DX2                !
 ! A99   A(28,52,55)           111.5046         estimate D2E/DX2                !
 ! A100  A(53,52,54)           106.9529         estimate D2E/DX2                !
 ! A101  A(53,52,55)           107.04           estimate D2E/DX2                !
 ! A102  A(54,52,55)           108.3854         estimate D2E/DX2                !
 ! D1    D(5,1,2,3)            -49.6922         estimate D2E/DX2                !
 ! D2    D(5,1,2,7)             66.2219         estimate D2E/DX2                !
 ! D3    D(5,1,2,13)          -173.7918         estimate D2E/DX2                !
 ! D4    D(8,1,2,3)             69.2013         estimate D2E/DX2                !
 ! D5    D(8,1,2,7)           -174.8847         estimate D2E/DX2                !
 ! D6    D(8,1,2,13)           -54.8983         estimate D2E/DX2                !
 ! D7    D(14,1,2,3)          -168.8989         estimate D2E/DX2                !
 ! D8    D(14,1,2,7)           -52.9849         estimate D2E/DX2                !
 ! D9    D(14,1,2,13)           67.0015         estimate D2E/DX2                !
 ! D10   D(2,1,5,4)             52.6296         estimate D2E/DX2                !
 ! D11   D(2,1,5,10)           -66.2421         estimate D2E/DX2                !
 ! D12   D(2,1,5,15)           172.2645         estimate D2E/DX2                !
 ! D13   D(8,1,5,4)            -66.72           estimate D2E/DX2                !
 ! D14   D(8,1,5,10)           174.4082         estimate D2E/DX2                !
 ! D15   D(8,1,5,15)            52.9148         estimate D2E/DX2                !
 ! D16   D(14,1,5,4)           173.902          estimate D2E/DX2                !
 ! D17   D(14,1,5,10)           55.0303         estimate D2E/DX2                !
 ! D18   D(14,1,5,15)          -66.4631         estimate D2E/DX2                !
 ! D19   D(2,1,14,36)          -92.4049         estimate D2E/DX2                !
 ! D20   D(5,1,14,36)          147.0983         estimate D2E/DX2                !
 ! D21   D(8,1,14,36)           28.8754         estimate D2E/DX2                !
 ! D22   D(1,2,3,6)            172.5773         estimate D2E/DX2                !
 ! D23   D(1,2,3,11)            51.588          estimate D2E/DX2                !
 ! D24   D(1,2,3,12)           -69.9101         estimate D2E/DX2                !
 ! D25   D(7,2,3,6)             55.521          estimate D2E/DX2                !
 ! D26   D(7,2,3,11)           -65.4682         estimate D2E/DX2                !
 ! D27   D(7,2,3,12)           173.0336         estimate D2E/DX2                !
 ! D28   D(13,2,3,6)           -65.245          estimate D2E/DX2                !
 ! D29   D(13,2,3,11)          173.7657         estimate D2E/DX2                !
 ! D30   D(13,2,3,12)           52.2675         estimate D2E/DX2                !
 ! D31   D(1,2,13,32)         -171.2033         estimate D2E/DX2                !
 ! D32   D(3,2,13,32)           65.4881         estimate D2E/DX2                !
 ! D33   D(7,2,13,32)          -52.7537         estimate D2E/DX2                !
 ! D34   D(2,3,11,4)           -56.3803         estimate D2E/DX2                !
 ! D35   D(6,3,11,4)           179.8384         estimate D2E/DX2                !
 ! D36   D(12,3,11,4)           62.2194         estimate D2E/DX2                !
 ! D37   D(2,3,12,20)         -158.1426         estimate D2E/DX2                !
 ! D38   D(6,3,12,20)          -38.0326         estimate D2E/DX2                !
 ! D39   D(11,3,12,20)          78.9227         estimate D2E/DX2                !
 ! D40   D(9,4,5,1)             64.8601         estimate D2E/DX2                !
 ! D41   D(9,4,5,10)          -175.7406         estimate D2E/DX2                !
 ! D42   D(9,4,5,15)           -56.4125         estimate D2E/DX2                !
 ! D43   D(11,4,5,1)           -55.076          estimate D2E/DX2                !
 ! D44   D(11,4,5,10)           64.3232         estimate D2E/DX2                !
 ! D45   D(11,4,5,15)         -176.3486         estimate D2E/DX2                !
 ! D46   D(16,4,5,1)          -176.2006         estimate D2E/DX2                !
 ! D47   D(16,4,5,10)          -56.8013         estimate D2E/DX2                !
 ! D48   D(16,4,5,15)           62.5268         estimate D2E/DX2                !
 ! D49   D(5,4,11,3)            57.6181         estimate D2E/DX2                !
 ! D50   D(9,4,11,3)           -62.3165         estimate D2E/DX2                !
 ! D51   D(16,4,11,3)          179.8141         estimate D2E/DX2                !
 ! D52   D(5,4,16,17)          -71.0517         estimate D2E/DX2                !
 ! D53   D(5,4,16,18)          171.3845         estimate D2E/DX2                !
 ! D54   D(5,4,16,19)           46.7642         estimate D2E/DX2                !
 ! D55   D(9,4,16,17)           48.6203         estimate D2E/DX2                !
 ! D56   D(9,4,16,18)          -68.9435         estimate D2E/DX2                !
 ! D57   D(9,4,16,19)          166.4362         estimate D2E/DX2                !
 ! D58   D(11,4,16,17)         167.2566         estimate D2E/DX2                !
 ! D59   D(11,4,16,18)          49.6928         estimate D2E/DX2                !
 ! D60   D(11,4,16,19)         -74.9274         estimate D2E/DX2                !
 ! D61   D(1,5,15,40)          104.7933         estimate D2E/DX2                !
 ! D62   D(4,5,15,40)         -133.3694         estimate D2E/DX2                !
 ! D63   D(10,5,15,40)         -15.6948         estimate D2E/DX2                !
 ! D64   D(3,12,20,21)         165.5279         estimate D2E/DX2                !
 ! D65   D(3,12,20,22)          34.7665         estimate D2E/DX2                !
 ! D66   D(3,12,20,23)         -80.3524         estimate D2E/DX2                !
 ! D67   D(2,13,32,33)         -72.5496         estimate D2E/DX2                !
 ! D68   D(2,13,32,34)          49.4517         estimate D2E/DX2                !
 ! D69   D(2,13,32,35)         168.5866         estimate D2E/DX2                !
 ! D70   D(1,14,36,37)        -178.108          estimate D2E/DX2                !
 ! D71   D(1,14,36,38)         -59.5495         estimate D2E/DX2                !
 ! D72   D(1,14,36,39)          61.984          estimate D2E/DX2                !
 ! D73   D(5,15,40,41)        -179.9715         estimate D2E/DX2                !
 ! D74   D(5,15,40,42)         -60.5187         estimate D2E/DX2                !
 ! D75   D(5,15,40,43)          61.0718         estimate D2E/DX2                !
 ! D76   D(4,16,19,44)          77.8881         estimate D2E/DX2                !
 ! D77   D(17,16,19,44)       -164.0772         estimate D2E/DX2                !
 ! D78   D(18,16,19,44)        -46.0679         estimate D2E/DX2                !
 ! D79   D(16,19,44,45)        167.6862         estimate D2E/DX2                !
 ! D80   D(16,19,44,46)         48.7146         estimate D2E/DX2                !
 ! D81   D(16,19,44,47)        -72.3704         estimate D2E/DX2                !
 ! D82   D(12,20,23,24)        -88.4301         estimate D2E/DX2                !
 ! D83   D(12,20,23,25)         90.2116         estimate D2E/DX2                !
 ! D84   D(21,20,23,24)         22.9857         estimate D2E/DX2                !
 ! D85   D(21,20,23,25)       -158.3725         estimate D2E/DX2                !
 ! D86   D(22,20,23,24)        156.9033         estimate D2E/DX2                !
 ! D87   D(22,20,23,25)        -24.455          estimate D2E/DX2                !
 ! D88   D(20,23,24,26)        178.5631         estimate D2E/DX2                !
 ! D89   D(20,23,24,27)         -1.775          estimate D2E/DX2                !
 ! D90   D(25,23,24,26)         -0.0321         estimate D2E/DX2                !
 ! D91   D(25,23,24,27)        179.6298         estimate D2E/DX2                !
 ! D92   D(20,23,25,28)       -178.0455         estimate D2E/DX2                !
 ! D93   D(20,23,25,29)          1.9918         estimate D2E/DX2                !
 ! D94   D(24,23,25,28)          0.5494         estimate D2E/DX2                !
 ! D95   D(24,23,25,29)       -179.4133         estimate D2E/DX2                !
 ! D96   D(23,24,26,30)         -0.54           estimate D2E/DX2                !
 ! D97   D(23,24,26,48)        177.4702         estimate D2E/DX2                !
 ! D98   D(27,24,26,30)        179.8004         estimate D2E/DX2                !
 ! D99   D(27,24,26,48)         -2.1894         estimate D2E/DX2                !
 ! D100  D(23,25,28,30)         -0.5065         estimate D2E/DX2                !
 ! D101  D(23,25,28,52)        176.578          estimate D2E/DX2                !
 ! D102  D(29,25,28,30)        179.456          estimate D2E/DX2                !
 ! D103  D(29,25,28,52)         -3.4595         estimate D2E/DX2                !
 ! D104  D(24,26,30,28)          0.5811         estimate D2E/DX2                !
 ! D105  D(24,26,30,31)       -179.5314         estimate D2E/DX2                !
 ! D106  D(48,26,30,28)       -177.4289         estimate D2E/DX2                !
 ! D107  D(48,26,30,31)          2.4586         estimate D2E/DX2                !
 ! D108  D(24,26,48,49)         28.9472         estimate D2E/DX2                !
 ! D109  D(24,26,48,50)        -90.8064         estimate D2E/DX2                !
 ! D110  D(24,26,48,51)        149.6034         estimate D2E/DX2                !
 ! D111  D(30,26,48,49)       -153.0196         estimate D2E/DX2                !
 ! D112  D(30,26,48,50)         87.2267         estimate D2E/DX2                !
 ! D113  D(30,26,48,51)        -32.3635         estimate D2E/DX2                !
 ! D114  D(25,28,30,26)         -0.0447         estimate D2E/DX2                !
 ! D115  D(25,28,30,31)       -179.9321         estimate D2E/DX2                !
 ! D116  D(52,28,30,26)       -177.1199         estimate D2E/DX2                !
 ! D117  D(52,28,30,31)          2.9926         estimate D2E/DX2                !
 ! D118  D(25,28,52,53)        -89.5373         estimate D2E/DX2                !
 ! D119  D(25,28,52,54)        151.1714         estimate D2E/DX2                !
 ! D120  D(25,28,52,55)         29.8349         estimate D2E/DX2                !
 ! D121  D(30,28,52,53)         87.5808         estimate D2E/DX2                !
 ! D122  D(30,28,52,54)        -31.7104         estimate D2E/DX2                !
 ! D123  D(30,28,52,55)       -153.0469         estimate D2E/DX2                !
 --------------------------------------------------------------------------------
 Trust Radius=3.00D-01 FncErr=1.00D-07 GrdErr=1.00D-06 EigMax=2.50D+02 EigMin=1.00D-04
 Number of steps in this run=    291 maximum allowed number of steps=    330.
 GradGradGradGradGradGradGradGradGradGradGradGradGradGradGradGradGradGrad

 Leave Link  103 at Sat Jun 15 07:47:32 2019, MaxMem=  6442450944 cpu:               2.4 elap:               0.1
 (Enter /home/ekwan/sw/g16/l202.exe)
 Stoichiometry    C18H22F6O8S
 Framework group  C1[X(C18H22F6O8S)]
 Deg. of freedom   159
 Full point group                 C1      NOp   1
 Largest Abelian subgroup         C1      NOp   1
 Largest concise Abelian subgroup C1      NOp   1
                         Standard orientation:                         
 ---------------------------------------------------------------------
 Center     Atomic      Atomic             Coordinates (Angstroms)
 Number     Number       Type             X           Y           Z
 ---------------------------------------------------------------------
      1          6           0        3.345755    0.069450    0.754025
      2          6           0        3.283181   -0.370881   -0.685549
      3          6           0        1.848429   -0.499291   -1.150310
      4          6           0        1.066822    1.016730    0.457381
      5          6           0        2.463728    1.268668    0.961540
      6          1           0        1.781905   -0.689864   -2.219758
      7          1           0        3.734737    0.420158   -1.302676
      8          1           0        2.983838   -0.744110    1.396932
      9          1           0        0.604180    0.223736    1.057752
     10          1           0        2.878134    2.114024    0.399693
     11          8           0        1.102427    0.613766   -0.896611
     12          8           0        1.318922   -1.631795   -0.465396
     13          8           0        3.985081   -1.549683   -0.824050
     14          8           0        4.636192    0.426945    1.112236
     15          8           0        2.375518    1.578012    2.309378
     16          6           0        0.217603    2.249586    0.584212
     17          1           0        0.024086    2.397518    1.646105
     18          1           0       -0.738909    2.088537    0.073666
     19          8           0        0.829401    3.405291    0.125618
     20         16           0        0.058500   -2.367176   -1.068942
     21          8           0       -0.006651   -3.615790   -0.376102
     22          8           0        0.158060   -2.309860   -2.499638
     23          6           0       -1.288881   -1.377734   -0.566952
     24          6           0       -1.884454   -1.631825    0.648590
     25          6           0       -1.703065   -0.350899   -1.386603
     26          6           0       -2.927764   -0.824664    1.047069
     27          1           0       -1.540832   -2.450076    1.268551
     28          6           0       -2.740189    0.446734   -0.959406
     29          1           0       -1.223165   -0.179700   -2.341013
     30          6           0       -3.355656    0.217128    0.253102
     31          1           0       -4.171113    0.850227    0.578404
     32          6           0        4.166020   -1.961445   -2.142228
     33          1           0        3.237518   -2.336006   -2.584556
     34          1           0        4.549702   -1.143100   -2.760379
     35          1           0        4.892711   -2.770175   -2.132702
     36          6           0        5.392851   -0.603911    1.666300
     37          1           0        6.361881   -0.184924    1.931194
     38          1           0        4.917266   -0.992545    2.573082
     39          1           0        5.529725   -1.423247    0.959362
     40          6           0        3.124497    2.693350    2.679670
     41          1           0        2.981668    2.840735    3.748719
     42          1           0        4.185561    2.536240    2.474310
     43          1           0        2.778797    3.584483    2.145872
     44          6           0        0.836464    3.542134   -1.260704
     45          1           0        1.133895    4.565031   -1.484970
     46          1           0       -0.161603    3.361413   -1.673833
     47          1           0        1.535581    2.851510   -1.737689
     48          6           0       -3.627950   -1.108180    2.327327
     49          9           0       -2.822432   -1.686900    3.194306
     50          9           0       -4.655946   -1.914964    2.147784
     51          9           0       -4.091556   -0.001437    2.872277
     52          6           0       -3.156136    1.607433   -1.787975
     53          9           0       -2.480519    2.699188   -1.456778
     54          9           0       -4.432794    1.882877   -1.627692
     55          9           0       -2.935718    1.390742   -3.066941
 ---------------------------------------------------------------------
 Rotational constants (GHZ):           0.1567651           0.0878326           0.0833280
 Leave Link  202 at Sat Jun 15 07:47:32 2019, MaxMem=  6442450944 cpu:               5.7 elap:               0.2
 (Enter /home/ekwan/sw/g16/l301.exe)
 Standard basis: 6-31G(d) (6D, 7F)
 Centers:      12     22     21
 SP 1 1.00
     Exponent=  8.4500000000D-02 Coefficients=  1.0000000000D+00  1.0000000000D+00
 ****
 Ernie: Thresh=  0.10000D-02 Tol=  0.10000D-05 Strict=F.
 There are   555 symmetry adapted cartesian basis functions of A   symmetry.
 There are   555 symmetry adapted basis functions of A   symmetry.
   555 basis functions,  1048 primitive gaussians,   555 cartesian basis functions
   132 alpha electrons      132 beta electrons
       nuclear repulsion energy      4415.2590355147 Hartrees.
 IExCor=  202 DFT=T Ex+Corr=BHandH ExCW=0 ScaHFX=  0.500000
 ScaDFX=  0.500000  0.500000  1.000000  1.000000 ScalE2=  1.000000  1.000000
 IRadAn=      5 IRanWt=     -1 IRanGd=            0 ICorTp=0 IEmpDi=  4
 NAtoms=   55 NActive=   55 NUniq=   55 SFac= 1.00D+00 NAtFMM=   60 NAOKFM=F Big=F
 Integral buffers will be    131072 words long.
 Raffenetti 2 integral format.
 Two-electron integral symmetry is turned on.
 ------------------------------------------------------------------------------
 Polarizable Continuum Model (PCM)
 =================================
 Model                : PCM.
 Atomic radii         : UFF (Universal Force Field).
 Polarization charges : Total charges.
 Charge compensation  : None.
 Solution method      : On-the-fly selection.
 Cavity type          : Scaled VdW (van der Waals Surface) (Alpha=1.100).
 Cavity algorithm     : GePol (No added spheres)
                        Default sphere list used, NSphG=   55.
                        Lebedev-Laikov grids with approx.  5.0 points / Ang**2.
                        Smoothing algorithm: York/Karplus (Gamma=1.0000).
                        Polarization charges: spherical gaussians, with
                                              point-specific exponents (IZeta= 3).
                        Self-potential: point-specific (ISelfS= 7).
                        Self-field    : sphere-specific E.n sum rule (ISelfD= 2).
 1st derivatives      : Analytical E(r).r(x)/FMM algorithm (CHGder, D1EAlg=3).
                        Cavity 1st derivative terms included.
 Solvent              : TetraHydroFuran, Eps=   7.425700 Eps(inf)=   1.974025
 ------------------------------------------------------------------------------
 GePol: Number of generator spheres                  =      55
 GePol: Total number of spheres                      =      55
 GePol: Number of exposed spheres                    =      55 (100.00%)
 GePol: Number of points                             =    3779
 GePol: Average weight of points                     =       0.13
 GePol: Minimum weight of points                     =   0.35D-10
 GePol: Maximum weight of points                     =    0.20577
 GePol: Number of points with low weight             =     230
 GePol: Fraction of low-weight points (<1% of avg)   =       6.09%
 GePol: Cavity surface area                          =    479.583 Ang**2
 GePol: Cavity volume                                =    561.622 Ang**3
 Leave Link  301 at Sat Jun 15 07:47:33 2019, MaxMem=  6442450944 cpu:               8.3 elap:               0.3
 (Enter /home/ekwan/sw/g16/l302.exe)
 NPDir=0 NMtPBC=     1 NCelOv=     1 NCel=       1 NClECP=     1 NCelD=      1
         NCelK=      1 NCelE2=     1 NClLst=     1 CellRange=     0.0.
 One-electron integrals computed using PRISM.
 One-electron integral symmetry used in STVInt
 NBasis=   555 RedAO= T EigKep=  3.62D-04  NBF=   555
 NBsUse=   555 1.00D-06 EigRej= -1.00D+00 NBFU=   555
 Precomputing XC quadrature grid using
 IXCGrd= 4 IRadAn=           5 IRanWt=          -1 IRanGd=           0 AccXCQ= 0.00D+00.
 Generated NRdTot=       0 NPtTot=           0 NUsed=           0 NTot=          32
 NSgBfM=   542   542   542   542   542 MxSgAt=    55 MxSgA2=    55.
 Leave Link  302 at Sat Jun 15 07:47:39 2019, MaxMem=  6442450944 cpu:             196.3 elap:               6.6
 (Enter /home/ekwan/sw/g16/l303.exe)
 DipDrv:  MaxL=1.
 Leave Link  303 at Sat Jun 15 07:47:41 2019, MaxMem=  6442450944 cpu:              30.6 elap:               1.1
 (Enter /home/ekwan/sw/g16/l401.exe)
 ExpMin= 8.45D-02 ExpMax= 2.19D+04 ExpMxC= 3.30D+03 IAcc=3 IRadAn=         5 AccDes= 0.00D+00
 Harris functional with IExCor=  202 and IRadAn=       5 diagonalized for initial guess.
 HarFok:  IExCor=  202 AccDes= 0.00D+00 IRadAn=         5 IDoV= 1 UseB2=F ITyADJ=14
 ICtDFT=  3500011 ScaDFX=  1.000000  1.000000  1.000000  1.000000
 FoFCou: FMM=F IPFlag=           0 FMFlag=      100000 FMFlg1=           0
         NFxFlg=           0 DoJE=T BraDBF=F KetDBF=T FulRan=T
         wScrn=  0.000000 ICntrl=       500 IOpCl=  0 I1Cent=   200000004 NGrid=           0
         NMat0=    1 NMatS0=      1 NMatT0=    0 NMatD0=    1 NMtDS0=    0 NMtDT0=    0
 Petite list used in FoFCou.
 Harris En= -2274.58528950542    
 JPrj=0 DoOrth=F DoCkMO=F.
 Leave Link  401 at Sat Jun 15 07:47:47 2019, MaxMem=  6442450944 cpu:             191.9 elap:               6.1
 (Enter /home/ekwan/sw/g16/l502.exe)
 Integral symmetry usage will be decided dynamically.
 Closed shell SCF:
 Using DIIS extrapolation, IDIIS=  1040.
 NGot=  6442450944 LenX=  6441811192 LenY=  6441502612
 Requested convergence on RMS density matrix=1.00D-08 within 128 cycles.
 Requested convergence on MAX density matrix=1.00D-06.
 Requested convergence on             energy=1.00D-06.
 No special actions if energy rises.
 Fock matrices will be formed incrementally for  20 cycles.

 Cycle   1  Pass 1  IDiag  1:
 FoFJK:  IHMeth= 1 ICntrl=       0 DoSepK=F KAlg= 0 I1Cent=           0 FoldK=F
 IRaf= 720000000 NMat=       1 IRICut=       1 DoRegI=T DoRafI=F ISym2E= 0 IDoP0=0 IntGTp=1.
 FoFCou: FMM=F IPFlag=           0 FMFlag=      100000 FMFlg1=           0
         NFxFlg=           0 DoJE=F BraDBF=F KetDBF=F FulRan=T
         wScrn=  0.000000 ICntrl=         0 IOpCl=  0 I1Cent=           0 NGrid=           0
         NMat0=    1 NMatS0=      1 NMatT0=    0 NMatD0=    1 NMtDS0=    0 NMtDT0=    0
 Symmetry not used in FoFCou.
 Inv3:  Mode=1 IEnd=    42842523.
 Iteration    1 A*A^-1 deviation from unit magnitude is 8.99D-15 for   3778.
 Iteration    1 A*A^-1 deviation from orthogonality  is 1.77D-14 for   3778   3188.
 Iteration    1 A^-1*A deviation from unit magnitude is 8.99D-15 for   3778.
 Iteration    1 A^-1*A deviation from orthogonality  is 2.32D-14 for   3465   3435.
 E= -2284.65464662992    
 DIIS: error= 3.58D-02 at cycle   1 NSaved=   1.
 NSaved= 1 IEnMin= 1 EnMin= -2284.65464662992     IErMin= 1 ErrMin= 3.58D-02
 ErrMax= 3.58D-02  0.00D+00 EMaxC= 1.00D-01 BMatC= 1.04D+00 BMatP= 1.04D+00
 IDIUse=3 WtCom= 6.42D-01 WtEn= 3.58D-01
 Coeff-Com:  0.100D+01
 Coeff-En:   0.100D+01
 Coeff:      0.100D+01
 Gap=     0.295 Goal=   None    Shift=    0.000
 GapD=    0.295 DampG=1.000 DampE=0.500 DampFc=0.5000 IDamp=-1.
 Damping current iteration by 5.00D-01
 RMSDP=2.98D-03 MaxDP=3.34D-01              OVMax= 1.49D-01

 Cycle   2  Pass 1  IDiag  1:
 RMSU=  1.49D-03    CP:  9.94D-01
 E= -2284.97293816133     Delta-E=       -0.318291531406 Rises=F Damp=T
 DIIS: error= 1.49D-02 at cycle   2 NSaved=   2.
 NSaved= 2 IEnMin= 2 EnMin= -2284.97293816133     IErMin= 2 ErrMin= 1.49D-02
 ErrMax= 1.49D-02  0.00D+00 EMaxC= 1.00D-01 BMatC= 1.41D-01 BMatP= 1.04D+00
 IDIUse=3 WtCom= 8.51D-01 WtEn= 1.49D-01
 Coeff-Com: -0.166D+00 0.117D+01
 Coeff-En:   0.000D+00 0.100D+01
 Coeff:     -0.141D+00 0.114D+01
 Gap=     0.315 Goal=   None    Shift=    0.000
 RMSDP=1.02D-03 MaxDP=1.02D-01 DE=-3.18D-01 OVMax= 1.01D-01

 Cycle   3  Pass 1  IDiag  1:
 RMSU=  1.00D-03    CP:  9.84D-01  9.46D-01
 E= -2285.26958317264     Delta-E=       -0.296645011313 Rises=F Damp=F
 DIIS: error= 5.43D-03 at cycle   3 NSaved=   3.
 NSaved= 3 IEnMin= 3 EnMin= -2285.26958317264     IErMin= 3 ErrMin= 5.43D-03
 ErrMax= 5.43D-03  0.00D+00 EMaxC= 1.00D-01 BMatC= 4.65D-02 BMatP= 1.41D-01
 IDIUse=3 WtCom= 9.46D-01 WtEn= 5.43D-02
 Coeff-Com: -0.170D+00 0.448D+00 0.721D+00
 Coeff-En:   0.000D+00 0.000D+00 0.100D+01
 Coeff:     -0.160D+00 0.424D+00 0.736D+00
 Gap=     0.275 Goal=   None    Shift=    0.000
 RMSDP=5.66D-04 MaxDP=5.69D-02 DE=-2.97D-01 OVMax= 4.43D-02

 Cycle   4  Pass 1  IDiag  1:
 RMSU=  3.68D-04    CP:  9.87D-01  1.15D+00  6.93D-01
 E= -2285.29652935685     Delta-E=       -0.026946184205 Rises=F Damp=F
 DIIS: error= 2.02D-03 at cycle   4 NSaved=   4.
 NSaved= 4 IEnMin= 4 EnMin= -2285.29652935685     IErMin= 4 ErrMin= 2.02D-03
 ErrMax= 2.02D-03  0.00D+00 EMaxC= 1.00D-01 BMatC= 9.62D-03 BMatP= 4.65D-02
 IDIUse=3 WtCom= 9.80D-01 WtEn= 2.02D-02
 Coeff-Com: -0.701D-01 0.135D+00 0.387D+00 0.548D+00
 Coeff-En:   0.000D+00 0.000D+00 0.148D+00 0.852D+00
 Coeff:     -0.687D-01 0.133D+00 0.382D+00 0.554D+00
 Gap=     0.277 Goal=   None    Shift=    0.000
 RMSDP=2.11D-04 MaxDP=1.20D-02 DE=-2.69D-02 OVMax= 1.55D-02

 Cycle   5  Pass 1  IDiag  1:
 RMSU=  6.77D-05    CP:  9.86D-01  1.13D+00  7.95D-01  5.45D-01
 E= -2285.30430410226     Delta-E=       -0.007774745418 Rises=F Damp=F
 DIIS: error= 3.14D-04 at cycle   5 NSaved=   5.
 NSaved= 5 IEnMin= 5 EnMin= -2285.30430410226     IErMin= 5 ErrMin= 3.14D-04
 ErrMax= 3.14D-04  0.00D+00 EMaxC= 1.00D-01 BMatC= 1.79D-04 BMatP= 9.62D-03
 IDIUse=3 WtCom= 9.97D-01 WtEn= 3.14D-03
 Coeff-Com: -0.210D-01 0.378D-01 0.117D+00 0.214D+00 0.652D+00
 Coeff-En:   0.000D+00 0.000D+00 0.000D+00 0.000D+00 0.100D+01
 Coeff:     -0.209D-01 0.377D-01 0.116D+00 0.213D+00 0.653D+00
 Gap=     0.276 Goal=   None    Shift=    0.000
 RMSDP=2.85D-05 MaxDP=1.93D-03 DE=-7.77D-03 OVMax= 3.21D-03

 Cycle   6  Pass 1  IDiag  1:
 RMSU=  1.84D-05    CP:  9.85D-01  1.13D+00  7.97D-01  5.86D-01  7.79D-01
 E= -2285.30444594465     Delta-E=       -0.000141842390 Rises=F Damp=F
 DIIS: error= 1.29D-04 at cycle   6 NSaved=   6.
 NSaved= 6 IEnMin= 6 EnMin= -2285.30444594465     IErMin= 6 ErrMin= 1.29D-04
 ErrMax= 1.29D-04  0.00D+00 EMaxC= 1.00D-01 BMatC= 1.44D-05 BMatP= 1.79D-04
 IDIUse=3 WtCom= 9.99D-01 WtEn= 1.29D-03
 Coeff-Com: -0.212D-02 0.283D-02 0.933D-02 0.342D-01 0.251D+00 0.705D+00
 Coeff-En:   0.000D+00 0.000D+00 0.000D+00 0.000D+00 0.000D+00 0.100D+01
 Coeff:     -0.212D-02 0.283D-02 0.932D-02 0.342D-01 0.251D+00 0.705D+00
 Gap=     0.276 Goal=   None    Shift=    0.000
 RMSDP=7.75D-06 MaxDP=4.88D-04 DE=-1.42D-04 OVMax= 1.36D-03

 Cycle   7  Pass 1  IDiag  1:
 RMSU=  6.05D-06    CP:  9.85D-01  1.13D+00  7.98D-01  5.89D-01  8.26D-01
                    CP:  8.30D-01
 E= -2285.30445857334     Delta-E=       -0.000012628682 Rises=F Damp=F
 DIIS: error= 2.64D-05 at cycle   7 NSaved=   7.
 NSaved= 7 IEnMin= 7 EnMin= -2285.30445857334     IErMin= 7 ErrMin= 2.64D-05
 ErrMax= 2.64D-05  0.00D+00 EMaxC= 1.00D-01 BMatC= 9.13D-07 BMatP= 1.44D-05
 IDIUse=1 WtCom= 1.00D+00 WtEn= 0.00D+00
 Coeff-Com:  0.159D-02-0.319D-02-0.101D-01-0.123D-01 0.259D-02 0.196D+00
 Coeff-Com:  0.825D+00
 Coeff:      0.159D-02-0.319D-02-0.101D-01-0.123D-01 0.259D-02 0.196D+00
 Coeff:      0.825D+00
 Gap=     0.276 Goal=   None    Shift=    0.000
 RMSDP=3.01D-06 MaxDP=1.62D-04 DE=-1.26D-05 OVMax= 5.92D-04

 Cycle   8  Pass 1  IDiag  1:
 RMSU=  1.99D-06    CP:  9.85D-01  1.13D+00  7.98D-01  5.90D-01  8.46D-01
                    CP:  9.17D-01  9.53D-01
 E= -2285.30445969010     Delta-E=       -0.000001116759 Rises=F Damp=F
 DIIS: error= 8.28D-06 at cycle   8 NSaved=   8.
 NSaved= 8 IEnMin= 8 EnMin= -2285.30445969010     IErMin= 8 ErrMin= 8.28D-06
 ErrMax= 8.28D-06  0.00D+00 EMaxC= 1.00D-01 BMatC= 1.25D-07 BMatP= 9.13D-07
 IDIUse=1 WtCom= 1.00D+00 WtEn= 0.00D+00
 Coeff-Com:  0.770D-03-0.139D-02-0.440D-02-0.758D-02-0.230D-01 0.111D-01
 Coeff-Com:  0.306D+00 0.719D+00
 Coeff:      0.770D-03-0.139D-02-0.440D-02-0.758D-02-0.230D-01 0.111D-01
 Coeff:      0.306D+00 0.719D+00
 Gap=     0.276 Goal=   None    Shift=    0.000
 RMSDP=9.60D-07 MaxDP=5.47D-05 DE=-1.12D-06 OVMax= 1.44D-04

 Cycle   9  Pass 1  IDiag  1:
 RMSU=  6.23D-07    CP:  9.85D-01  1.13D+00  7.98D-01  5.90D-01  8.47D-01
                    CP:  9.30D-01  1.05D+00  8.97D-01
 E= -2285.30445984670     Delta-E=       -0.000000156606 Rises=F Damp=F
 DIIS: error= 2.73D-06 at cycle   9 NSaved=   9.
 NSaved= 9 IEnMin= 9 EnMin= -2285.30445984670     IErMin= 9 ErrMin= 2.73D-06
 ErrMax= 2.73D-06  0.00D+00 EMaxC= 1.00D-01 BMatC= 8.36D-09 BMatP= 1.25D-07
 IDIUse=1 WtCom= 1.00D+00 WtEn= 0.00D+00
 Coeff-Com: -0.111D-04 0.527D-04 0.313D-03-0.105D-03-0.559D-02-0.158D-01
 Coeff-Com: -0.341D-01 0.108D+00 0.947D+00
 Coeff:     -0.111D-04 0.527D-04 0.313D-03-0.105D-03-0.559D-02-0.158D-01
 Coeff:     -0.341D-01 0.108D+00 0.947D+00
 Gap=     0.276 Goal=   None    Shift=    0.000
 RMSDP=3.94D-07 MaxDP=1.60D-05 DE=-1.57D-07 OVMax= 8.63D-05

 Cycle  10  Pass 1  IDiag  1:
 RMSU=  2.32D-07    CP:  9.85D-01  1.13D+00  7.99D-01  5.90D-01  8.47D-01
                    CP:  9.38D-01  1.08D+00  1.00D+00  1.12D+00
 E= -2285.30445986387     Delta-E=       -0.000000017166 Rises=F Damp=F
 DIIS: error= 1.14D-06 at cycle  10 NSaved=  10.
 NSaved=10 IEnMin=10 EnMin= -2285.30445986387     IErMin=10 ErrMin= 1.14D-06
 ErrMax= 1.14D-06  0.00D+00 EMaxC= 1.00D-01 BMatC= 3.05D-09 BMatP= 8.36D-09
 IDIUse=1 WtCom= 1.00D+00 WtEn= 0.00D+00
 Coeff-Com: -0.100D-03 0.194D-03 0.722D-03 0.931D-03 0.165D-03-0.822D-02
 Coeff-Com: -0.565D-01-0.541D-01 0.446D+00 0.670D+00
 Coeff:     -0.100D-03 0.194D-03 0.722D-03 0.931D-03 0.165D-03-0.822D-02
 Coeff:     -0.565D-01-0.541D-01 0.446D+00 0.670D+00
 Gap=     0.276 Goal=   None    Shift=    0.000
 RMSDP=1.41D-07 MaxDP=7.17D-06 DE=-1.72D-08 OVMax= 2.74D-05

 Cycle  11  Pass 1  IDiag  1:
 RMSU=  9.24D-08    CP:  9.85D-01  1.13D+00  7.99D-01  5.90D-01  8.47D-01
                    CP:  9.39D-01  1.08D+00  1.03D+00  1.24D+00  8.50D-01
 E= -2285.30445986692     Delta-E=       -0.000000003049 Rises=F Damp=F
 DIIS: error= 3.50D-07 at cycle  11 NSaved=  11.
 NSaved=11 IEnMin=11 EnMin= -2285.30445986692     IErMin=11 ErrMin= 3.50D-07
 ErrMax= 3.50D-07  0.00D+00 EMaxC= 1.00D-01 BMatC= 2.23D-10 BMatP= 3.05D-09
 IDIUse=1 WtCom= 1.00D+00 WtEn= 0.00D+00
 Coeff-Com: -0.363D-04 0.658D-04 0.239D-03 0.365D-03 0.714D-03-0.937D-03
 Coeff-Com: -0.170D-01-0.377D-01 0.517D-01 0.244D+00 0.759D+00
 Coeff:     -0.363D-04 0.658D-04 0.239D-03 0.365D-03 0.714D-03-0.937D-03
 Coeff:     -0.170D-01-0.377D-01 0.517D-01 0.244D+00 0.759D+00
 Gap=     0.276 Goal=   None    Shift=    0.000
 RMSDP=4.52D-08 MaxDP=2.51D-06 DE=-3.05D-09 OVMax= 8.14D-06

 Cycle  12  Pass 1  IDiag  1:
 RMSU=  3.01D-08    CP:  9.85D-01  1.13D+00  7.99D-01  5.90D-01  8.47D-01
                    CP:  9.39D-01  1.08D+00  1.03D+00  1.27D+00  9.50D-01
                    CP:  9.23D-01
 E= -2285.30445986719     Delta-E=       -0.000000000275 Rises=F Damp=F
 DIIS: error= 1.49D-07 at cycle  12 NSaved=  12.
 NSaved=12 IEnMin=12 EnMin= -2285.30445986719     IErMin=12 ErrMin= 1.49D-07
 ErrMax= 1.49D-07  0.00D+00 EMaxC= 1.00D-01 BMatC= 3.44D-11 BMatP= 2.23D-10
 IDIUse=1 WtCom= 1.00D+00 WtEn= 0.00D+00
 Coeff-Com: -0.363D-05 0.518D-05 0.198D-04 0.443D-04 0.257D-03 0.573D-03
 Coeff-Com: -0.559D-03-0.927D-02-0.229D-01 0.281D-01 0.328D+00 0.676D+00
 Coeff:     -0.363D-05 0.518D-05 0.198D-04 0.443D-04 0.257D-03 0.573D-03
 Coeff:     -0.559D-03-0.927D-02-0.229D-01 0.281D-01 0.328D+00 0.676D+00
 Gap=     0.276 Goal=   None    Shift=    0.000
 RMSDP=1.49D-08 MaxDP=9.81D-07 DE=-2.75D-10 OVMax= 2.45D-06

 Cycle  13  Pass 1  IDiag  1:
 RMSU=  1.09D-08    CP:  9.85D-01  1.13D+00  7.99D-01  5.90D-01  8.47D-01
                    CP:  9.39D-01  1.08D+00  1.03D+00  1.28D+00  9.64D-01
                    CP:  9.93D-01  8.21D-01
 E= -2285.30445986722     Delta-E=       -0.000000000029 Rises=F Damp=F
 DIIS: error= 3.37D-08 at cycle  13 NSaved=  13.
 NSaved=13 IEnMin=13 EnMin= -2285.30445986722     IErMin=13 ErrMin= 3.37D-08
 ErrMax= 3.37D-08  0.00D+00 EMaxC= 1.00D-01 BMatC= 3.67D-12 BMatP= 3.44D-11
 IDIUse=1 WtCom= 1.00D+00 WtEn= 0.00D+00
 Coeff-Com:  0.275D-05-0.556D-05-0.190D-04-0.251D-04 0.243D-04 0.332D-03
 Coeff-Com:  0.170D-02 0.817D-03-0.151D-01-0.204D-01 0.318D-01 0.268D+00
 Coeff-Com:  0.733D+00
 Coeff:      0.275D-05-0.556D-05-0.190D-04-0.251D-04 0.243D-04 0.332D-03
 Coeff:      0.170D-02 0.817D-03-0.151D-01-0.204D-01 0.318D-01 0.268D+00
 Coeff:      0.733D+00
 Gap=     0.276 Goal=   None    Shift=    0.000
 RMSDP=5.32D-09 MaxDP=3.02D-07 DE=-2.91D-11 OVMax= 6.05D-07

 Error on total polarization charges =  0.01001
 SCF Done:  E(RBHandH) =  -2285.30445987     A.U. after   13 cycles
            NFock= 13  Conv=0.53D-08     -V/T= 2.0032
 KE= 2.278057231625D+03 PE=-1.423018216988D+04 EE= 5.251561442871D+03
 Leave Link  502 at Sat Jun 15 07:52:34 2019, MaxMem=  6442450944 cpu:            8407.9 elap:             287.1
 (Enter /home/ekwan/sw/g16/l701.exe)
 ... and contract with generalized density number  0.
 Compute integral first derivatives.
 D1PCM: PCM CHGder 1st derivatives, ID1Alg=3 FixD1E=F DoIter=F DoCFld=F I1PDM=0.
 GePol: Maximum number of non-zero 1st derivatives   =     219
 Leave Link  701 at Sat Jun 15 07:52:47 2019, MaxMem=  6442450944 cpu:             377.6 elap:              13.2
 (Enter /home/ekwan/sw/g16/l702.exe)
 L702 exits ... SP integral derivatives will be done elsewhere.
 Leave Link  702 at Sat Jun 15 07:52:47 2019, MaxMem=  6442450944 cpu:               1.9 elap:               0.1
 (Enter /home/ekwan/sw/g16/l703.exe)
 Integral derivatives from FoFJK, PRISM(SPDF).
 Compute integral first derivatives, UseDBF=F ICtDFT=           0.
 Calling FoFJK, ICntrl=      2127 FMM=F ISym2X=0 I1Cent= 0 IOpClX= 0 NMat=1 NMatS=1 NMatT=0.
 FoFJK:  IHMeth= 1 ICntrl=    2127 DoSepK=F KAlg= 0 I1Cent=           0 FoldK=F
 IRaf=         0 NMat=       1 IRICut=       1 DoRegI=T DoRafI=F ISym2E= 0 IDoP0=0 IntGTp=1.
 FoFCou: FMM=F IPFlag=           0 FMFlag=      100000 FMFlg1=         800
         NFxFlg=           0 DoJE=F BraDBF=F KetDBF=F FulRan=T
         wScrn=  0.000000 ICntrl=      2127 IOpCl=  0 I1Cent=           0 NGrid=           0
         NMat0=    1 NMatS0=      1 NMatT0=    0 NMatD0=    1 NMtDS0=    0 NMtDT0=    0
 Symmetry not used in FoFCou.
 Leave Link  703 at Sat Jun 15 07:53:28 2019, MaxMem=  6442450944 cpu:            1243.6 elap:              41.3
 (Enter /home/ekwan/sw/g16/l716.exe)
 Dipole        = 2.89192532D-01 1.34541153D+00-3.49663551D-01
 ***** Axes restored to original set *****
 -------------------------------------------------------------------
 Center     Atomic                   Forces (Hartrees/Bohr)
 Number     Number              X              Y              Z
 -------------------------------------------------------------------
      1        6          -0.000003026    0.000008910   -0.000013941
      2        6          -0.000031157    0.000015580    0.000008507
      3        6           0.000002330   -0.000015127    0.000000527
      4        6           0.000009693    0.000003033    0.000003471
      5        6           0.000004414   -0.000020182   -0.000013831
      6        1          -0.000002862   -0.000000363   -0.000005120
      7        1           0.000001101   -0.000004789   -0.000004031
      8        1           0.000000680   -0.000001765    0.000006777
      9        1          -0.000002677    0.000007490    0.000003296
     10        1          -0.000000521    0.000002460   -0.000000017
     11        8           0.000006140    0.000012520   -0.000001573
     12        8           0.000032119    0.000051184    0.000017939
     13        8           0.000029316   -0.000008509   -0.000005986
     14        8          -0.000004914   -0.000002021    0.000011084
     15        8          -0.000013198    0.000012537    0.000001056
     16        6          -0.000014698    0.000008772    0.000003888
     17        1          -0.000004694   -0.000003503   -0.000003435
     18        1           0.000013931   -0.000000645    0.000002572
     19        8           0.000021355   -0.000021661   -0.000008064
     20       16          -0.000055937   -0.000014752   -0.000022522
     21        8           0.000007655   -0.000007321   -0.000002767
     22        8           0.000002997    0.000000208    0.000001590
     23        6          -0.000012870   -0.000001620   -0.000006062
     24        6           0.000006854   -0.000003211    0.000008100
     25        6           0.000020301   -0.000005891    0.000004912
     26        6           0.000005774   -0.000011064   -0.000005158
     27        1          -0.000000783    0.000000172    0.000005740
     28        6          -0.000007160   -0.000006007    0.000005806
     29        1           0.000002568    0.000003953   -0.000004997
     30        6           0.000003506    0.000005346   -0.000003459
     31        1          -0.000000809    0.000000887    0.000000086
     32        6          -0.000016195   -0.000006456    0.000009472
     33        1           0.000005662    0.000003095    0.000001257
     34        1           0.000004834    0.000002788   -0.000000110
     35        1          -0.000002788   -0.000001339   -0.000000612
     36        6           0.000010464   -0.000004704   -0.000001964
     37        1          -0.000000793   -0.000000132   -0.000002447
     38        1          -0.000001531    0.000001514    0.000000371
     39        1          -0.000001056    0.000000209    0.000001342
     40        6           0.000011874   -0.000007384    0.000005016
     41        1          -0.000001181   -0.000000283   -0.000000279
     42        1          -0.000003446    0.000000688   -0.000001565
     43        1          -0.000001488    0.000001561    0.000000658
     44        6          -0.000010316    0.000001126    0.000017544
     45        1          -0.000002496   -0.000001651   -0.000002866
     46        1          -0.000006831   -0.000003019   -0.000003758
     47        1           0.000005625   -0.000005586   -0.000000277
     48        6          -0.000000151   -0.000004065    0.000013369
     49        9          -0.000007868    0.000003867   -0.000009476
     50        9           0.000002405    0.000004037   -0.000000274
     51        9           0.000000437    0.000000878    0.000000595
     52        6          -0.000003750    0.000012721   -0.000012585
     53        9          -0.000000721   -0.000000525   -0.000007031
     54        9           0.000003254   -0.000002606    0.000000139
     55        9           0.000000629    0.000000646    0.000009091
 -------------------------------------------------------------------
 Cartesian Forces:  Max     0.000055937 RMS     0.000010280
 Leave Link  716 at Sat Jun 15 07:53:29 2019, MaxMem=  6442450944 cpu:               2.8 elap:               0.1
 (Enter /home/ekwan/sw/g16/l103.exe)

 GradGradGradGradGradGradGradGradGradGradGradGradGradGradGradGradGradGrad
 Berny optimization.
 FormGI is forming the generalized inverse of G from B-inverse, IUseBI=4.
 GSVD:  received Info=                   1 from GESDD.
 Internal  Forces:  Max     0.000048591 RMS     0.000007177
 Search for a local minimum.
 Step number   1 out of a maximum of  291
 All quantities printed in internal units (Hartrees-Bohrs-Radians)
 RMS Force = .71766D-05 SwitMx=.10000D-02 MixMth= 2
 Mixed Optimization -- En-DIIS/RFO-DIIS
 Second derivative matrix not updated -- first step.
 ITU=  0
     Eigenvalues ---    0.00734   0.00880   0.00944   0.00958   0.00973
     Eigenvalues ---    0.01093   0.01354   0.01702   0.01776   0.01777
     Eigenvalues ---    0.01783   0.01787   0.01794   0.01842   0.01875
     Eigenvalues ---    0.01880   0.01881   0.01898   0.01971   0.02373
     Eigenvalues ---    0.02377   0.02384   0.02385   0.02390   0.02394
     Eigenvalues ---    0.02895   0.03189   0.03597   0.04768   0.04853
     Eigenvalues ---    0.04975   0.05074   0.05141   0.05425   0.05489
     Eigenvalues ---    0.06006   0.06243   0.06745   0.07175   0.07242
     Eigenvalues ---    0.07387   0.07883   0.09472   0.10176   0.10206
     Eigenvalues ---    0.10240   0.10305   0.10625   0.10640   0.10667
     Eigenvalues ---    0.10676   0.10866   0.10944   0.11045   0.11079
     Eigenvalues ---    0.11136   0.11143   0.11594   0.11853   0.12080
     Eigenvalues ---    0.14122   0.14889   0.16000   0.16000   0.16000
     Eigenvalues ---    0.16000   0.16000   0.16000   0.16000   0.16000
     Eigenvalues ---    0.16000   0.16000   0.16000   0.16000   0.16000
     Eigenvalues ---    0.16000   0.16000   0.16508   0.17158   0.17536
     Eigenvalues ---    0.18734   0.19591   0.19884   0.20947   0.22136
     Eigenvalues ---    0.23484   0.23492   0.23501   0.24968   0.24985
     Eigenvalues ---    0.24993   0.25000   0.25000   0.25000   0.25000
     Eigenvalues ---    0.25000   0.25000   0.25000   0.25000   0.25000
     Eigenvalues ---    0.25000   0.25000   0.25000   0.28952   0.30663
     Eigenvalues ---    0.30937   0.31103   0.31405   0.32127   0.33657
     Eigenvalues ---    0.33835   0.33874   0.33946   0.34020   0.34087
     Eigenvalues ---    0.34113   0.34218   0.34218   0.34242   0.34265
     Eigenvalues ---    0.34291   0.34542   0.34569   0.34722   0.34874
     Eigenvalues ---    0.34973   0.34978   0.34992   0.35006   0.35127
     Eigenvalues ---    0.35685   0.35705   0.35766   0.41643   0.41834
     Eigenvalues ---    0.44709   0.44929   0.46694   0.46701   0.46787
     Eigenvalues ---    0.46836   0.47999   0.48069   0.48076   0.49300
     Eigenvalues ---    0.49375   0.49505   0.49544   0.49688   0.49955
     Eigenvalues ---    0.55471   0.60478   0.62167   0.62465   0.62595
     Eigenvalues ---    0.62981   0.62993   1.02814   1.05736
 RFO step:  Lambda=-1.17142734D-07 EMin= 7.34256612D-03
 Linear search not attempted -- first point.
 Iteration  1 RMS(Cart)=  0.00114357 RMS(Int)=  0.00000017
 Iteration  2 RMS(Cart)=  0.00000038 RMS(Int)=  0.00000000
 ITry= 1 IFail=0 DXMaxC= 4.33D-03 DCOld= 1.00D+10 DXMaxT= 3.00D-01 DXLimC= 3.00D+00 Rises=F
 Variable       Old X    -DE/DX   Delta X   Delta X   Delta X     New X
                                 (Linear)    (Quad)   (Total)
    R1        2.84727  -0.00001   0.00000  -0.00001  -0.00001   2.84726
    R2        2.84035  -0.00001   0.00000  -0.00004  -0.00004   2.84032
    R3        2.07543   0.00000   0.00000   0.00001   0.00001   2.07544
    R4        2.61940   0.00000   0.00000   0.00001   0.00001   2.61941
    R5        2.86030   0.00000   0.00000   0.00000   0.00000   2.86030
    R6        2.07912   0.00000   0.00000   0.00000   0.00000   2.07912
    R7        2.60578   0.00002   0.00000   0.00004   0.00004   2.60582
    R8        2.05665   0.00001   0.00000   0.00002   0.00002   2.05666
    R9        2.57709   0.00000   0.00000  -0.00001  -0.00001   2.57708
   R10        2.69380  -0.00002   0.00000  -0.00005  -0.00005   2.69376
   R11        2.84653  -0.00001   0.00000  -0.00004  -0.00004   2.84649
   R12        2.07296   0.00000   0.00000  -0.00001  -0.00001   2.07295
   R13        2.67043   0.00000   0.00000   0.00001   0.00001   2.67044
   R14        2.83912  -0.00002   0.00000  -0.00006  -0.00006   2.83905
   R15        2.07184   0.00000   0.00000   0.00001   0.00001   2.07185
   R16        2.61858   0.00001   0.00000   0.00001   0.00001   2.61859
   R17        2.98416   0.00005   0.00000   0.00009   0.00009   2.98425
   R18        2.63200  -0.00001   0.00000  -0.00002  -0.00002   2.63198
   R19        2.63356   0.00000   0.00000   0.00001   0.00001   2.63357
   R20        2.63348   0.00000   0.00000   0.00000   0.00000   2.63348
   R21        2.05880   0.00000   0.00000  -0.00001  -0.00001   2.05880
   R22        2.07139  -0.00001   0.00000  -0.00004  -0.00004   2.07135
   R23        2.61866  -0.00002   0.00000  -0.00005  -0.00005   2.61861
   R24        2.63253  -0.00001   0.00000  -0.00003  -0.00003   2.63251
   R25        2.70126   0.00000   0.00000   0.00000   0.00000   2.70126
   R26        2.71233   0.00000   0.00000   0.00000   0.00000   2.71232
   R27        3.29833  -0.00001   0.00000  -0.00004  -0.00004   3.29829
   R28        2.60262   0.00001   0.00000   0.00001   0.00001   2.60263
   R29        2.60328  -0.00001   0.00000  -0.00002  -0.00002   2.60326
   R30        2.60398   0.00000   0.00000   0.00000   0.00000   2.60398
   R31        2.04576   0.00000   0.00000   0.00001   0.00001   2.04577
   R32        2.60093   0.00000   0.00000   0.00000   0.00000   2.60093
   R33        2.04450   0.00001   0.00000   0.00002   0.00002   2.04452
   R34        2.60399   0.00001   0.00000   0.00002   0.00002   2.60401
   R35        2.80909   0.00001   0.00000   0.00002   0.00002   2.80911
   R36        2.60597   0.00000   0.00000   0.00000   0.00000   2.60597
   R37        2.80722   0.00001   0.00000   0.00004   0.00004   2.80726
   R38        2.04545   0.00000   0.00000   0.00000   0.00000   2.04546
   R39        2.06842  -0.00001   0.00000  -0.00002  -0.00002   2.06840
   R40        2.06924   0.00000   0.00000   0.00001   0.00001   2.06925
   R41        2.05469   0.00000   0.00000   0.00000   0.00000   2.05469
   R42        2.05689   0.00000   0.00000   0.00000   0.00000   2.05688
   R43        2.06963   0.00000   0.00000   0.00000   0.00000   2.06964
   R44        2.06128   0.00000   0.00000   0.00000   0.00000   2.06128
   R45        2.05710   0.00000   0.00000   0.00000   0.00000   2.05710
   R46        2.06380   0.00000   0.00000  -0.00001  -0.00001   2.06379
   R47        2.06885   0.00000   0.00000   0.00000   0.00000   2.06886
   R48        2.05718   0.00000   0.00000   0.00000   0.00000   2.05718
   R49        2.06964   0.00001   0.00000   0.00002   0.00002   2.06966
   R50        2.06425   0.00001   0.00000   0.00002   0.00002   2.06427
   R51        2.48944  -0.00001   0.00000  -0.00002  -0.00002   2.48942
   R52        2.49266   0.00000   0.00000  -0.00001  -0.00001   2.49265
   R53        2.49041   0.00000   0.00000   0.00000   0.00000   2.49041
   R54        2.50564   0.00000   0.00000   0.00000   0.00000   2.50563
   R55        2.48656   0.00000   0.00000  -0.00001  -0.00001   2.48656
   R56        2.48648  -0.00001   0.00000  -0.00001  -0.00001   2.48646
    A1        1.91847   0.00000   0.00000  -0.00001  -0.00001   1.91846
    A2        1.90617   0.00000   0.00000   0.00002   0.00002   1.90620
    A3        1.94008   0.00000   0.00000   0.00000   0.00000   1.94008
    A4        1.89318   0.00000   0.00000   0.00000   0.00000   1.89318
    A5        1.88059   0.00000   0.00000   0.00001   0.00001   1.88060
    A6        1.92470   0.00000   0.00000  -0.00002  -0.00002   1.92467
    A7        1.93642   0.00000   0.00000   0.00006   0.00006   1.93649
    A8        1.88468   0.00000   0.00000   0.00003   0.00003   1.88471
    A9        1.90145  -0.00001   0.00000  -0.00004  -0.00004   1.90141
   A10        1.85231   0.00000   0.00000  -0.00004  -0.00004   1.85226
   A11        1.95966   0.00001   0.00000   0.00004   0.00004   1.95970
   A12        1.92771   0.00000   0.00000  -0.00005  -0.00005   1.92766
   A13        1.95468   0.00000   0.00000   0.00000   0.00000   1.95468
   A14        1.97378   0.00000   0.00000  -0.00002  -0.00002   1.97376
   A15        1.84624   0.00001   0.00000   0.00003   0.00003   1.84626
   A16        1.86741   0.00000   0.00000   0.00004   0.00004   1.86745
   A17        1.88632   0.00000   0.00000   0.00001   0.00001   1.88633
   A18        1.93462  -0.00001   0.00000  -0.00006  -0.00006   1.93455
   A19        1.90587   0.00000   0.00000   0.00000   0.00000   1.90587
   A20        1.92305   0.00000   0.00000  -0.00001  -0.00001   1.92304
   A21        1.93765   0.00001   0.00000   0.00001   0.00001   1.93767
   A22        1.90592   0.00001   0.00000   0.00011   0.00011   1.90603
   A23        1.88453   0.00000   0.00000  -0.00005  -0.00005   1.88448
   A24        1.90617  -0.00001   0.00000  -0.00005  -0.00005   1.90612
   A25        1.94394   0.00000   0.00000  -0.00001  -0.00001   1.94393
   A26        1.89930   0.00000   0.00000   0.00001   0.00001   1.89931
   A27        1.92811   0.00000   0.00000   0.00001   0.00001   1.92813
   A28        1.88385   0.00000   0.00000   0.00002   0.00002   1.88388
   A29        1.87954  -0.00001   0.00000  -0.00004  -0.00004   1.87949
   A30        1.92879   0.00000   0.00000   0.00000   0.00000   1.92879
   A31        2.00950  -0.00001   0.00000  -0.00004  -0.00004   2.00946
   A32        2.07466   0.00000   0.00000  -0.00001  -0.00001   2.07465
   A33        1.99755  -0.00001   0.00000  -0.00002  -0.00002   1.99753
   A34        2.00141   0.00001   0.00000   0.00005   0.00005   2.00146
   A35        1.98549   0.00001   0.00000   0.00003   0.00003   1.98552
   A36        1.86932   0.00001   0.00000   0.00008   0.00008   1.86940
   A37        1.91066   0.00000   0.00000  -0.00004  -0.00004   1.91062
   A38        1.98984  -0.00003   0.00000  -0.00016  -0.00016   1.98968
   A39        1.89540   0.00000   0.00000   0.00002   0.00002   1.89542
   A40        1.86266   0.00002   0.00000   0.00017   0.00017   1.86283
   A41        1.93227   0.00001   0.00000  -0.00006  -0.00006   1.93221
   A42        1.99709  -0.00005   0.00000  -0.00018  -0.00018   1.99690
   A43        1.83165   0.00000   0.00000  -0.00001  -0.00001   1.83164
   A44        1.88285   0.00000   0.00000  -0.00003  -0.00003   1.88281
   A45        1.81547  -0.00001   0.00000  -0.00004  -0.00004   1.81543
   A46        2.11903  -0.00001   0.00000  -0.00002  -0.00002   2.11901
   A47        1.89715   0.00002   0.00000   0.00010   0.00010   1.89725
   A48        1.89399   0.00000   0.00000  -0.00001  -0.00001   1.89398
   A49        2.07496   0.00001   0.00000   0.00006   0.00006   2.07502
   A50        2.07547  -0.00003   0.00000  -0.00011  -0.00011   2.07536
   A51        2.13250   0.00001   0.00000   0.00005   0.00005   2.13255
   A52        2.06527  -0.00001   0.00000  -0.00005  -0.00005   2.06523
   A53        2.10322   0.00001   0.00000   0.00005   0.00005   2.10327
   A54        2.11468   0.00000   0.00000   0.00000   0.00000   2.11468
   A55        2.06445   0.00000   0.00000   0.00000   0.00000   2.06445
   A56        2.10535   0.00000   0.00000   0.00002   0.00002   2.10537
   A57        2.11338   0.00000   0.00000  -0.00001  -0.00001   2.11337
   A58        2.10754   0.00000   0.00000   0.00001   0.00001   2.10756
   A59        2.08744   0.00000   0.00000   0.00001   0.00001   2.08746
   A60        2.08768  -0.00001   0.00000  -0.00002  -0.00002   2.08765
   A61        2.10915   0.00000   0.00000  -0.00002  -0.00002   2.10913
   A62        2.08366   0.00000   0.00000  -0.00001  -0.00001   2.08365
   A63        2.08926   0.00001   0.00000   0.00004   0.00004   2.08929
   A64        2.08737   0.00000   0.00000   0.00001   0.00001   2.08738
   A65        2.09784   0.00000   0.00000  -0.00001  -0.00001   2.09783
   A66        2.09798   0.00000   0.00000  -0.00001  -0.00001   2.09797
   A67        1.95350   0.00000   0.00000   0.00002   0.00002   1.95352
   A68        1.93784   0.00000   0.00000  -0.00002  -0.00002   1.93782
   A69        1.87384   0.00000   0.00000   0.00001   0.00001   1.87385
   A70        1.90165   0.00000   0.00000   0.00001   0.00001   1.90166
   A71        1.89227   0.00000   0.00000  -0.00001  -0.00001   1.89226
   A72        1.90354   0.00000   0.00000  -0.00001  -0.00001   1.90353
   A73        1.87066   0.00000   0.00000  -0.00001  -0.00001   1.87065
   A74        1.93466   0.00000   0.00000  -0.00002  -0.00002   1.93464
   A75        1.94559   0.00000   0.00000   0.00000   0.00000   1.94560
   A76        1.89832   0.00000   0.00000   0.00001   0.00001   1.89833
   A77        1.91257   0.00000   0.00000   0.00000   0.00000   1.91257
   A78        1.90133   0.00000   0.00000   0.00001   0.00001   1.90133
   A79        1.87422   0.00000   0.00000  -0.00001  -0.00001   1.87421
   A80        1.93592   0.00000   0.00000   0.00000   0.00000   1.93593
   A81        1.93071   0.00000   0.00000   0.00000   0.00000   1.93071
   A82        1.90882   0.00000   0.00000   0.00002   0.00002   1.90884
   A83        1.90413   0.00000   0.00000  -0.00001  -0.00001   1.90412
   A84        1.90944   0.00000   0.00000   0.00000   0.00000   1.90944
   A85        1.87412   0.00001   0.00000   0.00004   0.00004   1.87417
   A86        1.93324   0.00000   0.00000   0.00000   0.00000   1.93324
   A87        1.95593  -0.00001   0.00000  -0.00004  -0.00004   1.95589
   A88        1.90321   0.00000   0.00000   0.00000   0.00000   1.90321
   A89        1.90630   0.00000   0.00000   0.00001   0.00001   1.90631
   A90        1.89041   0.00000   0.00000  -0.00001  -0.00001   1.89041
   A91        1.94183   0.00000   0.00000  -0.00001  -0.00001   1.94182
   A92        1.94606   0.00000   0.00000  -0.00001  -0.00001   1.94605
   A93        1.94085   0.00000   0.00000   0.00001   0.00001   1.94085
   A94        1.87279   0.00000   0.00000   0.00000   0.00000   1.87279
   A95        1.88798   0.00000   0.00000   0.00001   0.00001   1.88799
   A96        1.87106   0.00000   0.00000   0.00000   0.00000   1.87106
   A97        1.94052   0.00001   0.00000   0.00005   0.00005   1.94056
[...]
 10,0.00007803,0.00019995,0.00013696,-0.00000929,-0.00058251,-0.0000722
 9,0.00052830,0.00033036,-0.00002774,0.00002871,0.00158491,0.00207358,-
 0.00318604,-0.00012637,-0.00052606,0.00103082,-0.00101502,-0.00080801,
 0.00060001,-0.00051981,-0.00013786,0.00103567,-0.00790644,-0.03586406,
 0.66363679,0.00006443,-0.00020585,-0.00006392,0.00007407,-0.00003328,-
 0.00007147,0.00007969,-0.00077545,0.00003513,-0.00037986,-0.00092014,-
 0.00065879,0.00004998,0.00033843,0.00027002,-0.00002579,0.00004978,-0.
 00000043,0.00002416,0.00000681,-0.00000408,-0.00001116,0.00001614,-0.0
 0000992,-0.00001686,0.00005701,-0.00003293,0.00008909,-0.00001879,0.00
 001319,-0.00018593,0.00064878,0.00027635,0.00053361,0.00050835,-0.0000
 1814,-0.00009805,0.00014116,0.00007503,-0.00024159,0.00014793,-0.00007
 074,-0.00020858,-0.00000266,-0.00014484,0.00267396,0.00155513,0.000753
 72,-0.00038093,0.00003932,-0.00024242,-0.00183561,-0.00038242,-0.00094
 629,-0.00129921,-0.00070773,-0.00107572,-0.00095570,-0.00002671,0.0001
 6716,0.00021450,-0.00015194,0.00000606,0.00021748,-0.00000524,-0.00007
 662,0.00084367,-0.00089492,0.00057349,0.00046478,-0.00019096,-0.000544
 99,-0.00085907,-0.00114316,0.00096525,-0.00040740,0.00036006,-0.000183
 16,-0.00000672,-0.00003031,-0.00001699,0.00899111,-0.00472281,-0.00307
 244,-0.00023262,-0.00020752,-0.00011576,0.00021932,0.00049547,0.000768
 98,-0.00005570,0.00018955,-0.00045490,0.00000095,-0.00002061,-0.000067
 44,0.00000348,-0.00000430,0.00001174,0.00000557,-0.00000102,0.00000747
 ,-0.00000852,0.00000848,0.00000647,0.00004463,-0.00009800,0.00006644,-
 0.00001888,0.00000854,-0.00000991,0.00000294,0.00001167,-0.00001112,-0
 .00000639,0.00001882,-0.00000124,0.00012312,0.00009600,0.00009525,-0.0
 0000726,-0.00000734,-0.00003294,-0.00003224,-0.00000923,-0.00000616,0.
 00002474,0.00002862,0.00001659,0.00213851,-0.00003093,0.00190989,-0.00
 050315,-0.00013949,-0.00013781,-0.00228592,-0.00013497,-0.00033257,-0.
 00058291,-0.00009842,-0.00011087,-0.00007208,0.00000625,-0.00035839,0.
 00007051,-0.00003120,0.00013068,-0.00003092,-0.00003582,0.00007740,-0.
 00000294,0.00001814,0.00010404,-0.12622710,-0.09274458,-0.02034686,0.1
 8585693,-0.00003418,-0.00017251,-0.00012154,-0.00011379,0.00002364,-0.
 00005731,-0.00038265,-0.00102605,0.00035407,-0.00030845,-0.00083510,-0
 .00051885,-0.00001074,0.00015395,0.00007356,-0.00005516,0.00005280,-0.
 00000703,0.00007626,0.00001465,0.00000270,-0.00002017,0.00002887,-0.00
 002506,-0.00007475,0.00007016,-0.00011138,0.00011799,-0.00000104,0.000
 02442,0.00037784,0.00091575,0.00030266,0.00167314,0.00072015,-0.000107
 07,0.00008275,0.00006844,-0.00000153,-0.00001721,0.00012482,0.00002327
 ,-0.00006834,0.00014842,0.00003012,0.00099473,0.00018485,0.00077014,-0
 .00009847,0.00007017,-0.00012791,0.00076895,-0.00127631,0.00087235,-0.
 00050267,0.00040535,-0.00113972,-0.00371008,0.00176268,0.00119292,0.00
 088575,-0.00116455,-0.00000978,0.00095407,-0.00049761,-0.00081895,0.00
 159181,0.00026674,0.00162880,0.00012442,-0.00111914,0.00067470,-0.0022
 8612,0.00011822,0.00252389,0.00204759,0.00019498,0.00190611,-0.0002301
 6,-0.00001576,-0.00019134,-0.02392624,-0.04779159,-0.00444772,-0.00098
 746,-0.00061691,-0.00064455,0.00266567,-0.00203709,-0.00234658,-0.0010
 0284,-0.00072725,-0.00060781,-0.00006267,-0.00001973,0.00002122,-0.000
 00196,0.00001227,0.00002046,0.00001198,0.00001522,-0.00000600,0.000007
 27,-0.00000011,0.00000394,-0.00000188,-0.00003146,0.00002458,0.0000013
 7,0.00000575,-0.00000058,0.00000204,-0.00000019,-0.00000834,-0.0000130
 6,0.00000653,0.00000038,0.00003100,-0.00006334,0.00004727,0.00000191,0
 .00000282,-0.00000983,-0.00001371,0.00000527,-0.00000643,0.00002392,0.
 00004178,-0.00000140,0.00167852,0.00022700,0.00198986,-0.00040509,-0.0
 0011917,-0.00013616,0.00030891,-0.00003826,-0.00094443,-0.00067590,-0.
 00011943,-0.00015119,0.00168802,0.00019922,-0.00246337,-0.00010344,-0.
 00037248,0.00110061,-0.00070547,-0.00039345,0.00046049,-0.00043220,0.0
 0032623,0.00077283,-0.09566908,-0.26485451,-0.03474322,0.16031851,0.33
 420914,0.00004613,-0.00012475,-0.00003573,0.00008522,-0.00002966,-0.00
 004191,0.00017401,-0.00017805,-0.00013765,-0.00024861,-0.00056311,-0.0
 0050845,0.00003856,0.00026448,0.00017908,-0.00001899,0.00003083,0.0000
 0785,-0.00001484,-0.00000193,-0.00000316,0.00000081,0.00000045,0.00000
 400,0.00001443,0.00000580,0.00002716,0.00001780,-0.00001987,0.00000056
 ,-0.00024160,0.00019414,0.00023273,-0.00025531,0.00010026,0.00011441,-
 0.00009461,0.00008022,0.00008490,-0.00018132,0.00008209,-0.00004472,-0
 .00014540,-0.00003416,-0.00007880,0.00159015,0.00146715,0.00039688,-0.
 00022040,-0.00002125,-0.00011793,-0.00138301,-0.00019026,-0.00098955,-
 0.00067395,-0.00072426,0.00028696,0.00056106,-0.00062114,-0.00072394,-
 0.00014641,0.00030822,0.00007022,-0.00012511,0.00011825,0.00035405,-0.
 00065958,0.00030492,-0.00114186,-0.00072480,0.00059989,0.00037879,0.00
 187203,0.00019219,-0.00092341,-0.00030003,-0.00091869,0.00050527,0.000
 03602,-0.00001857,0.00006836,0.00355514,0.01584780,0.01188018,-0.00008
 717,0.00052531,0.00005513,-0.00034059,-0.00096242,0.00037542,0.0001120
 3,-0.00005368,0.00004216,0.00002039,-0.00000986,-0.00007740,0.00000592
 ,-0.00000242,0.00000167,-0.00000444,-0.00000847,0.00000775,-0.00000734
 ,0.00000519,0.00000574,0.00003229,-0.00006191,0.00003658,-0.00001444,0
 .00000499,-0.00000809,0.00000052,0.00000717,-0.00000356,-0.00000242,0.
 00001355,-0.00000138,0.00008529,0.00009083,0.00005470,-0.00000216,-0.0
 0000813,-0.00001568,-0.00002310,-0.00000633,-0.00000238,0.00001147,0.0
 0000569,0.00000441,0.00034694,0.00016683,0.00003787,-0.00005989,-0.000
 05357,0.00003363,0.00024568,-0.00015130,-0.00035971,-0.00013047,-0.000
 00844,0.00000407,-0.00023016,-0.00024783,0.00037962,0.00004074,0.00005
 130,-0.00009795,0.00014815,0.00012213,-0.00006831,0.00007371,0.0000340
 3,-0.00010870,-0.02034270,-0.03325657,-0.08580707,0.04881523,0.0825142
 8,0.10684803,0.00012187,-0.00006430,0.00005766,0.00019339,-0.00008547,
 -0.00002178,0.00039666,-0.00010773,-0.00024211,0.00001756,-0.00010499,
 0.00003857,0.00009430,0.00014073,0.00022734,0.00003177,-0.00000064,0.0
 0000043,-0.00003136,-0.00000212,-0.00001175,0.00000029,-0.00000109,0.0
 0000509,0.00003081,0.00001490,0.00004190,0.00002139,-0.00001153,-0.000
 00251,-0.00052011,0.00006544,-0.00006803,-0.00080700,0.00001303,0.0000
 2316,-0.00019810,0.00013324,0.00007578,-0.00026134,0.00006706,-0.00011
 802,-0.00017316,-0.00010989,-0.00021834,0.00091239,0.00045519,0.000361
 46,-0.00014148,-0.00000322,-0.00011318,0.00001629,-0.00021762,0.000283
 00,-0.00055152,-0.00029469,-0.00038379,0.00205464,-0.00143653,-0.00085
 773,-0.00061916,0.00120558,-0.00012954,-0.00052575,0.00046085,0.000598
 07,-0.00079481,0.00114199,0.00127954,0.00001805,0.00011066,-0.00059890
 ,-0.00029886,0.00392835,-0.00589569,0.00031350,0.00105551,-0.00063667,
 0.00008256,-0.00014411,-0.00007043,-0.03478834,0.01394143,0.00363718,0
 .00044404,-0.00085865,-0.00018011,-0.00114339,-0.00065931,0.00449440,0
 .00004450,-0.00017059,-0.00216719,0.00005232,-0.00001456,-0.00009005,0
 .00000601,-0.00002071,-0.00000165,0.00000176,-0.00001032,0.00001414,-0
 .00002002,0.00001198,0.00000258,0.00006285,-0.00009836,0.00006483,-0.0
 0002264,0.00000416,-0.00001055,0.00000267,0.00001503,-0.00000964,0.000
 00414,0.00001606,0.00000032,0.00010947,0.00013467,0.00007226,-0.000007
 32,-0.00001090,-0.00003002,-0.00002532,-0.00001233,-0.00000018,0.00000
 697,0.00000398,0.00001379,0.00078740,0.00008367,0.00068729,-0.00020671
 ,-0.00009903,-0.00005175,0.00012023,0.00017532,-0.00036063,-0.00019142
 ,-0.00002570,-0.00004507,-0.00135290,-0.00006763,0.00127797,0.00015712
 ,0.00015746,-0.00048479,0.00059623,0.00027865,-0.00025400,0.00037478,-
 0.00023004,-0.00042360,-0.32494533,0.07756463,0.00961750,-0.07590613,-
 0.03155687,-0.00634240,0.46883926,-0.00006312,-0.00004122,-0.00006699,
 -0.00012053,0.00004111,-0.00001607,-0.00030539,-0.00038025,0.00025322,
 -0.00015097,-0.00028976,-0.00021706,-0.00004296,0.00001174,-0.00006218
 ,-0.00003111,0.00001855,-0.00000568,0.00004295,0.00000810,0.00000631,-
 0.00000756,0.00001121,-0.00001297,-0.00004159,0.00002335,-0.00006470,0
 .00003525,0.00000441,0.00001028,0.00031914,0.00031370,0.00013614,0.000
 96698,0.00027370,-0.00005461,0.00011000,-0.00002487,-0.00003458,0.0000
 9449,0.00002243,0.00005276,0.00004007,0.00009887,0.00009612,0.00014008
 ,-0.00002616,0.00008318,-0.00001145,0.00002508,-0.00000963,0.00000075,
 -0.00029330,0.00007375,-0.00005781,0.00018982,-0.00022109,-0.00255398,
 0.00105473,0.00085202,0.00075792,-0.00101779,0.00009527,0.00059971,-0.
 00032408,-0.00062255,0.00026048,-0.00231456,-0.00056242,0.00077806,-0.
 00060252,0.00003904,0.00003774,-0.00167420,0.00529452,-0.00002210,-0.0
 0015447,-0.00038763,-0.00001412,0.00008533,-0.00001743,0.04149090,-0.0
 0521457,-0.00064467,0.00003501,0.00073091,0.00016459,0.00045847,-0.000
 73929,-0.00058581,0.00059511,-0.00087511,0.00085318,-0.00004553,-0.000
 00178,0.00004734,-0.00000331,0.00001188,0.00000889,0.00000505,0.000010
 88,-0.00000789,0.00001028,-0.00000459,0.00000016,-0.00002527,0.0000255
 7,-0.00001492,0.00000933,0.00000070,0.00000400,-0.00000004,-0.00000586
 ,0.00000018,-0.00000665,-0.00000392,0.00000015,-0.00003073,-0.00007515
 ,-0.00001019,0.00000345,0.00000513,0.00000776,0.00000476,0.00000634,-0
 .00000226,0.00000575,0.00001377,-0.00000587,0.00030084,-0.00000279,0.0
 0035700,-0.00004976,0.00000394,-0.00002041,0.00005705,0.00004274,-0.00
 015778,-0.00012449,-0.00002422,-0.00002136,0.00096350,0.00024460,-0.00
 149837,-0.00005793,-0.00017412,0.00053080,-0.00043965,-0.00023714,0.00
 028937,-0.00029503,0.00018448,0.00047941,0.07180056,-0.10416093,0.0026
 7673,-0.05123274,0.00572132,-0.00219232,-0.07938817,0.10210536,0.00003
 142,-0.00000153,0.00001082,0.00005185,-0.00002478,0.00000231,0.0001411
 8,0.00015991,-0.00016229,0.00005481,0.00003346,-0.00000765,0.00002393,
 0.00001545,0.00003555,-0.00000110,0.00000302,0.00000565,-0.00002324,-0
 .00000510,-0.00000376,0.00000324,-0.00000453,0.00000725,0.00001520,-0.
 00000928,0.00003555,-0.00000902,-0.00000619,-0.00000326,-0.00013467,-0
 .00008325,0.00003409,-0.00050357,-0.00010211,0.00008790,-0.00005344,0.
 00002226,0.00004346,-0.00005672,0.00000464,-0.00001571,-0.00003717,-0.
 00002902,-0.00002739,0.00009985,0.00010235,0.00000637,0.00000407,-0.00
 000722,0.00000645,0.00004469,-0.00000573,0.00003990,-0.00008094,-0.000
 09444,0.00010589,0.00118484,-0.00058072,-0.00071358,-0.00033222,0.0005
 0083,0.00000941,-0.00025573,0.00012915,0.00042709,-0.00096490,0.001119
 06,0.00054302,-0.00030224,0.00036012,-0.00007443,0.00009735,0.00166118
 ,-0.00306984,-0.00067840,-0.00012338,0.00082157,-0.00004848,0.00002397
 ,0.00006797,-0.01783711,0.00837842,0.01079946,-0.00034009,0.00022905,-
 0.00003398,-0.00030533,0.00004294,-0.00206172,-0.00126273,0.00094034,0
 .00029138,0.00001921,-0.00000317,-0.00004320,0.00000471,-0.00000196,-0
 .00000370,-0.00000535,-0.00000703,0.00000423,-0.00000441,0.00000191,0.
 00000189,0.00001407,-0.00001641,0.00000622,-0.00000491,0.00000022,-0.0
 0000286,-0.00000067,0.00000213,0.00000075,0.00000129,0.00000401,-0.000
 00017,0.00002245,0.00003140,0.00000970,0.00000064,-0.00000267,-0.00000
 194,-0.00000648,-0.00000135,0.00000018,0.00000173,-0.00000246,-0.00000
 050,0.00001808,0.00000497,-0.00005724,-0.00001173,-0.00001225,0.000003
 19,0.00004705,0.00002027,-0.00005058,-0.00002374,0.00000695,-0.0000018
 5,-0.00035144,-0.00046753,0.00078381,-0.00001769,0.00014145,-0.0002752
 8,0.00023891,0.00018498,-0.00014083,0.00010350,0.00003818,-0.00023247,
 0.01627589,0.00024118,-0.08482178,-0.01055201,-0.00230477,0.01282619,-
 0.04733566,0.00971457,0.09186452,0.00002930,-0.00001037,0.00002572,0.0
 0005129,-0.00002560,-0.00000899,0.00010314,-0.00007951,-0.00000933,-0.
 00000598,0.00000222,0.00008461,0.00002669,0.00002836,0.00004978,0.0000
 2036,-0.00000491,-0.00000566,-0.00000146,0.00000214,-0.00000262,-0.000
 00077,0.00000078,-0.00000168,0.00000245,0.00000757,-0.00000371,0.00000
 794,0.00000020,-0.00000013,-0.00010333,0.00002518,-0.00007926,-0.00013
 351,0.00005811,-0.00003835,-0.00005107,0.00003797,0.00000644,-0.000064
 11,0.00001617,-0.00003725,-0.00004010,-0.00002912,-0.00006472,0.000150
 14,0.00006730,0.00007216,-0.00003006,-0.00000212,-0.00002901,0.0000306
 6,-0.00008225,0.00010642,-0.00009501,-0.00003802,-0.00014077,0.0003550
 4,-0.00053709,0.00014032,-0.00004472,0.00020161,-0.00008054,-0.0001244
 4,0.00017096,0.00002160,0.00055437,-0.00049282,-0.00045650,0.00002869,
 0.00013332,-0.00015020,-0.00211760,0.00058944,-0.00030680,0.00033265,-
 0.00011611,-0.00083919,0.00007367,0.00000716,-0.00006262,0.01144483,0.
 00142165,-0.00503760,0.00104967,-0.00011714,-0.00125612,-0.00083311,0.
 00148352,-0.00025264,0.00017428,0.00023707,-0.00041385,0.00001175,-0.0
 0000426,-0.00001227,0.00000094,-0.00000797,0.00000034,0.00000371,-0.00
 000046,0.00000337,-0.00000618,0.00000371,-0.00000067,0.00001686,-0.000
 02690,0.00001929,-0.00000559,0.00000103,-0.00000237,0.00000114,0.00000
 425,-0.00000376,0.00000140,0.00000350,0.00000060,0.00002515,0.00003186
 ,0.00001736,-0.00000217,-0.00000288,-0.00000838,-0.00000533,-0.0000034
 3,0.00000048,0.00000056,0.00000109,0.00000392,0.00017771,0.00001191,0.
 00015570,-0.00004205,-0.00002607,-0.00001708,0.00003312,0.00010148,0.0
 0004802,0.00000314,-0.00000010,-0.00000146,-0.00039455,0.00001046,0.00
 026746,0.00003638,0.00006046,-0.00017049,0.00015544,0.00007572,-0.0000
 6194,0.00009454,-0.00006217,-0.00008130,-0.08508217,0.00648083,0.03460
 810,0.01007403,-0.01296359,-0.02490844,-0.03238306,0.01519831,0.063041
 26,0.09649532,-0.00002966,-0.00005484,-0.00004989,-0.00006630,0.000018
 06,-0.00001365,-0.00020053,-0.00036257,0.00014906,-0.00012588,-0.00029
 269,-0.00020047,-0.00001763,0.00004485,-0.00000115,-0.00002621,0.00001
 509,-0.00000102,0.00003005,0.00000631,0.00000254,-0.00000658,0.0000097
 6,-0.00001007,-0.00003045,0.00002241,-0.00004398,0.00003384,0.00000124
 ,0.00000753,0.00018171,0.00031916,0.00012160,0.00067801,0.00021882,-0.
 00000732,0.00005303,0.00000885,-0.00001006,0.00002633,0.00003680,0.000
 02216,-0.00000289,0.00006600,0.00003967,0.00034525,0.00011981,0.000180
 79,-0.00004528,0.00001646,-0.00003386,0.00007193,-0.00036280,0.0001037
 9,-0.00017736,0.00009173,-0.00021742,-0.00157503,0.00097198,0.00017698
 ,0.00034473,-0.00046411,0.00005807,0.00044820,-0.00027227,-0.00029169,
 -0.00071945,0.00054643,-0.00001984,-0.00038770,-0.00017023,0.00105661,
 0.00142559,-0.00139069,0.00057365,-0.00070819,-0.00165035,0.00104212,-
 0.00006758,0.00004948,0.00002891,-0.00306800,0.00860082,0.03046503,-0.
 00043899,-0.00058712,0.00137197,0.00349339,-0.00193315,0.00033117,0.00
 012738,0.00031762,0.00015790,-0.00003068,-0.00000665,0.00001807,-0.000
 00224,0.00000708,0.00000787,0.00000440,0.00000710,-0.00000398,0.000005
 05,-0.00000150,0.00000106,-0.00000901,0.00000095,0.00000095,0.00000342
 ,0.00000163,0.00000120,0.00000052,-0.00000195,-0.00000193,-0.00000531,
 0.00000018,0.00000014,-0.00000321,-0.00003779,0.00000685,0.00000152,0.
 00000193,0.00000040,-0.00000138,0.00000296,-0.00000208,0.00000662,0.00
 001309,-0.00000263,0.00038611,0.00001798,0.00032531,-0.00006418,-0.000
 01335,-0.00002032,0.00012592,0.00008236,-0.00010652,-0.00012918,-0.000
 01991,-0.00002136,0.00091564,-0.00021143,-0.00134861,-0.00001300,-0.00
 014503,0.00052605,-0.00048244,-0.00019666,0.00028813,-0.00023927,0.000
 18082,0.00036307,0.00724026,-0.08594466,-0.01947532,-0.01006041,-0.022
 80414,-0.06266905,0.01462756,0.00737291,-0.02022147,-0.01184244,0.0977
 5323,0.00009366,-0.00005943,-0.00000249,0.00014195,-0.00004611,-0.0000
 2060,0.00038911,0.00011073,-0.00040184,0.00007425,-0.00012107,-0.00020
 570,0.00007866,0.00011014,0.00015211,-0.00001718,0.00002470,0.00001557
 ,-0.00004999,-0.00001143,-0.00000808,0.00000632,-0.00000855,0.00001711
 ,0.00004604,-0.00001897,0.00009028,-0.00000858,-0.00002154,-0.00000634
 ,-0.00049596,-0.00003106,0.00020732,-0.00099895,-0.00003963,0.00022866
 ,-0.00015640,0.00009134,0.00013928,-0.00019547,0.00004784,-0.00004449,
 -0.00014815,-0.00007123,-0.00009147,0.00080586,0.00054892,0.00021573,-
 0.00006611,-0.00001510,-0.00003038,0.00007670,-0.00019981,0.00011069,-
 0.00049986,-0.00037475,0.00022052,0.00234593,-0.00161827,-0.00157473,-
 0.00060220,0.00085949,0.00010909,-0.00053950,0.00035433,0.00102578,0.0
 0009694,0.00129881,0.00030357,-0.00032831,0.00033167,-0.00046038,0.003
 64899,-0.00209559,-0.00064907,0.00193052,0.00085916,-0.00170267,-0.000
 09614,-0.00011196,0.00009023,0.00872730,-0.00311139,-0.04978929,-0.002
 08574,0.00091315,-0.00060285,-0.00592578,0.00641467,-0.00180811,-0.000
 41699,-0.00065526,0.00066683,0.00004504,-0.00001400,-0.00013585,0.0000
 1304,-0.00000242,-0.00000537,-0.00001446,-0.00001909,0.00001228,-0.000
 01143,0.00000600,0.00000775,0.00004409,-0.00006066,0.00002668,-0.00001
 631,0.00000256,-0.00000948,-0.00000151,0.00000715,0.00000091,0.0000007
 2,0.00001496,-0.00000113,0.00008643,0.00010270,0.00004656,0.00000040,-
 0.00000851,-0.00001129,-0.00002480,-0.00000553,-0.00000150,0.00001045,
 -0.00000047,0.00000111,0.00036547,0.00006159,-0.00000356,-0.00009401,-
 0.00005979,-0.00000162,0.00020880,0.00004763,-0.00024945,-0.00017473,0
 .00000790,-0.00002304,-0.00166831,-0.00014338,0.00208222,-0.00002119,0
 .00040050,-0.00109000,0.00083764,0.00046458,-0.00038309,0.00033074,-0.
 00007798,-0.00057302,0.02947251,-0.01153751,-0.34348475,-0.01537372,-0
 .04527580,-0.04400701,0.04428150,-0.01460927,-0.02707576,-0.06412727,0
 .06734503,0.46868415\\-0.00000808,0.00001535,-0.00000546,-0.00002247,0
 .00001246,0.00001223,-0.00000377,0.00002718,0.00000651,0.00000694,0.00
 001120,-0.00000401,-0.00001317,-0.00001094,-0.00001762,0.00000100,-0.0
 0000428,-0.00000952,-0.00000135,-0.00000653,-0.00000756,0.00000155,-0.
 00000236,0.00000741,-0.00000604,0.00001318,0.00000559,0.00000705,-0.00
 000046,-0.00000182,0.00001309,0.00001367,-0.00000717,0.00002507,0.0000
 0324,0.00000478,0.00001558,-0.00000316,-0.00000417,-0.00000343,-0.0000
 0868,0.00000192,0.00000981,-0.00000270,0.00000102,-0.00000761,0.000004
 03,0.00000406,-0.00000341,-0.00000977,-0.00000454,0.00001274,0.0000010
 0,0.00000063,0.00001447,-0.00002007,0.00000188,-0.00005094,0.00000837,
 -0.00000658,0.00001065,-0.00000920,0.00000060,0.00000801,-0.00000431,-
 0.00000166,-0.00002153,-0.00000461,-0.00001142,0.00001150,-0.00000431,
 0.00000506,0.00001894,0.00000109,0.00001158,-0.00000095,-0.00000658,-0
 .00000484,0.00000088,-0.00000072,0.00000975,-0.00000368,-0.00001432,-0
 .00000520,0.00000188,0.00000447,-0.00000810,0.00000677,0.00000484,0.00
 000846,-0.00000070,0.00000008,-0.00000162,-0.00001354,-0.00000905,0.00
 000434,0.00000718,0.00000357,0.00000407,0.00000293,0.00000599,0.000001
 09,-0.00000064,0.00000224,-0.00000185,0.00000958,0.00000116,0.00000260
 ,-0.00000032,-0.00000044,-0.00000223,-0.00000180,0.00000172,-0.0000012
 9,0.00000077,-0.00000098,-0.00000128,-0.00000152,0.00000602,0.00000396
 ,-0.00000087,-0.00000070,-0.00000020,-0.00000215,-0.00000156,0.0000008
 3,-0.00000154,0.00000073,-0.00000017,-0.00001223,-0.00000484,0.0000172
 1,0.00000070,-0.00000455,-0.00000239,-0.00000357,-0.00000114,-0.000004
 97,0.00000710,-0.00001026,0.00000098,-0.00000370,-0.00000130,0.0000094
 7,-0.00000667,0.00000263,-0.00000935,0.00000699,-0.00000187,0.00000213
 ,-0.00000046,-0.00000222,0.00000152,-0.00000584,0.00000914,-0.00001282
 ,-0.00000195,0.00000097,-0.00000207,0.00000347,-0.00000263,-0.00000008
 ,-0.00000073,0.00000023,0.00001033\\\@


 THE TRULY SUCCESSFUL PERFORMANCE OF RESEARCHES IN
 INORGANIC CHEMISTRY IS POSSIBLE ONLY TO ONE WHO IS NOT
 ONLY A THEORETICAL CHEMIST, BUT ALSO AN ACCOMPLISHED
 ANALYST AND, MOREOVER, NOT MERELY A PRACTICALLY TRAINED,
 MECHANICAL WORKER, BUT A THINKING CREATIVE ARTIST.
   --  CLEMENS WINKLER, BER. 33, 1697(1900)
 Job cpu time:       1 days  0 hours  4 minutes 50.3 seconds.
 Elapsed time:       0 days  0 hours 47 minutes 24.3 seconds.
 File lengths (MBytes):  RWF=   2299 Int=      0 D2E=      0 Chk=     37 Scr=      1
 Normal termination of Gaussian 16 at Sat Jun 15 08:52:26 2019.
