 Entering Gaussian System, Link 0=g16
 Input=clay_new-glu_gluC6-BCDR-Na2_1Me2O-bisCF3-ts-m06_hf_d3-custom-pcm_thf.gjf
 Output=clay_new-glu_gluC6-BCDR-Na2_1Me2O-bisCF3-ts-m06_hf_d3-custom-pcm_thf.out
 Initial command:
 /home/ekwan/sw/g16/l1.exe "/scratch/users/ekwan/clay_new-glu_gluC6-BCDR-Na2_1Me2O-bisCF3-ts-m06_hf_d3-custom-pcm_thf/Gau-9892.inp" -scrdir="/scratch/users/ekwan/clay_new-glu_gluC6-BCDR-Na2_1Me2O-bisCF3-ts-m06_hf_d3-custom-pcm_thf/"
 Entering Link 1 = /home/ekwan/sw/g16/l1.exe PID=      9893.
  
 Copyright (c) 1988,1990,1992,1993,1995,1998,2003,2009,2016,
            Gaussian, Inc.  All Rights Reserved.
  
 This is part of the Gaussian(R) 16 program.  It is based on
 the Gaussian(R) 09 system (copyright 2009, Gaussian, Inc.),
 the Gaussian(R) 03 system (copyright 2003, Gaussian, Inc.),
 the Gaussian(R) 98 system (copyright 1998, Gaussian, Inc.),
 the Gaussian(R) 94 system (copyright 1995, Gaussian, Inc.),
 the Gaussian 92(TM) system (copyright 1992, Gaussian, Inc.),
 the Gaussian 90(TM) system (copyright 1990, Gaussian, Inc.),
 the Gaussian 88(TM) system (copyright 1988, Gaussian, Inc.),
 the Gaussian 86(TM) system (copyright 1986, Carnegie Mellon
 University), and the Gaussian 82(TM) system (copyright 1983,
 Carnegie Mellon University). Gaussian is a federally registered
 trademark of Gaussian, Inc.
  
 This software contains proprietary and confidential information,
 including trade secrets, belonging to Gaussian, Inc.
  
 This software is provided under written license and may be
 used, copied, transmitted, or stored only in accord with that
 written license.
  
 The following legend is applicable only to US Government
 contracts under FAR:
  
                    RESTRICTED RIGHTS LEGEND
  
 Use, reproduction and disclosure by the US Government is
 subject to restrictions as set forth in subparagraphs (a)
 and (c) of the Commercial Computer Software - Restricted
 Rights clause in FAR 52.227-19.
  
 Gaussian, Inc.
 340 Quinnipiac St., Bldg. 40, Wallingford CT 06492
  
  
 ---------------------------------------------------------------
 Warning -- This program may not be used in any manner that
 competes with the business of Gaussian, Inc. or will provide
 assistance to any competitor of Gaussian, Inc.  The licensee
 of this program is prohibited from giving any competitor of
 Gaussian, Inc. access to this program.  By using this program,
 the user acknowledges that Gaussian, Inc. is engaged in the
 business of creating and licensing software in the field of
 computational chemistry and represents and warrants to the
 licensee that it is not a competitor of Gaussian, Inc. and that
 it will not use this program in any manner prohibited above.
 ---------------------------------------------------------------
  

 Cite this work as:
 Gaussian 16, Revision A.03,
 M. J. Frisch, G. W. Trucks, H. B. Schlegel, G. E. Scuseria, 
 M. A. Robb, J. R. Cheeseman, G. Scalmani, V. Barone, 
 G. A. Petersson, H. Nakatsuji, X. Li, M. Caricato, A. V. Marenich, 
 J. Bloino, B. G. Janesko, R. Gomperts, B. Mennucci, H. P. Hratchian, 
 J. V. Ortiz, A. F. Izmaylov, J. L. Sonnenberg, D. Williams-Young, 
 F. Ding, F. Lipparini, F. Egidi, J. Goings, B. Peng, A. Petrone, 
 T. Henderson, D. Ranasinghe, V. G. Zakrzewski, J. Gao, N. Rega, 
 G. Zheng, W. Liang, M. Hada, M. Ehara, K. Toyota, R. Fukuda, 
 J. Hasegawa, M. Ishida, T. Nakajima, Y. Honda, O. Kitao, H. Nakai, 
 T. Vreven, K. Throssell, J. A. Montgomery, Jr., J. E. Peralta, 
 F. Ogliaro, M. J. Bearpark, J. J. Heyd, E. N. Brothers, K. N. Kudin, 
 V. N. Staroverov, T. A. Keith, R. Kobayashi, J. Normand, 
 K. Raghavachari, A. P. Rendell, J. C. Burant, S. S. Iyengar, 
 J. Tomasi, M. Cossi, J. M. Millam, M. Klene, C. Adamo, R. Cammi, 
 J. W. Ochterski, R. L. Martin, K. Morokuma, O. Farkas, 
 J. B. Foresman, and D. J. Fox, Gaussian, Inc., Wallingford CT, 2016.
 
 ******************************************
 Gaussian 16:  AS64L-G16RevA.03 25-Dec-2016
                16-Jun-2019 
 ******************************************
 %mem=48GB
 %nprocshared=32
 Will use up to   32 processors via shared memory.
 ----------------------------------------------------------------------
 #p opt=(calcfc,ts,noeigentest,maxstep=5) freq=noraman 6-31g(d) scrf=(s
 olvent=tetrahydrofuran,pcm) pop=none extrabasis empiricaldispersion=gd
 3 m06hf
 ----------------------------------------------------------------------
 1/5=1,8=5,10=4,11=1,18=20,26=3,38=1/1,3;
 2/9=110,12=2,17=6,18=5,40=1/2;
 3/5=1,6=6,7=1,10=1,11=2,25=1,30=1,70=2201,71=2,72=20,74=-52,124=31,140=1/1,2,3;
 4//1;
 5/5=2,38=5,53=20/2;
 8/6=4,10=90,11=11/1;
 11/6=1,8=1,9=11,15=111,16=1/1,2,10;
 10/6=1,13=1/2;
 7/10=1,18=20,25=1/1,2,3,16;
 1/5=1,8=5,10=4,11=1,18=20,26=3/3(2);
 2/9=110/2;
 99//99;
 2/9=110/2;
 3/5=7,6=1,7=1,11=2,25=1,30=1,70=2205,71=1,72=20,74=-52,82=7,124=31/1,2,3;
 4/5=5,16=3,69=1/1;
 5/5=2,38=5,53=20/2;
 7//1,2,3,16;
 1/5=1,8=5,11=1,18=20,26=3/3(-5);
 2/9=110/2;
 99/9=1/99;
 Leave Link    1 at Sun Jun 16 17:14:01 2019, MaxMem=  6442450944 cpu:               4.5 elap:               0.2
 (Enter /home/ekwan/sw/g16/l101.exe)
 -----
 title
 -----
 Symbolic Z-matrix:
 Charge =  0 Multiplicity = 1
 6                    -1.53093   1.43801   2.44865 
 6                    -1.9028    2.10147   1.12378 
 6                    -1.00797   3.32548   0.89499 
 6                     0.78317   2.40156   2.19384 
 6                    -0.03241   1.14105   2.49751 
 1                    -1.17327   3.72727  -0.10729 
 1                    -1.70613   1.41026   0.29771 
 1                    -1.77914   2.13613   3.25301 
 1                     0.59862   3.1261    2.99244 
 1                     0.19446   0.37357   1.75251 
 8                     0.35241   2.94985   0.94137 
 8                    -1.29674   4.27803   1.86531 
 8                    -3.24258   2.53126   1.11481 
 8                    -2.25963   0.2328    2.60316 
 8                     0.30971   0.67855   3.78854 
 6                     2.29127   2.12875   2.08107 
 1                     2.57773   1.63724   3.02019 
 1                     2.77441   3.12142   2.07088 
 8                     2.63556   1.39161   0.95818 
 6                    -4.15808   1.58455   0.58327 
 1                    -3.90408   1.35404  -0.45514 
 1                    -4.15527   0.6687    1.17364 
 1                    -5.141     2.04885   0.61416 
 6                    -2.8214    0.08163   3.90047 
 1                    -2.05559   0.2228    4.66314 
 1                    -3.62551   0.80694   4.04666 
 1                    -3.22177  -0.92549   3.95836 
 6                     0.63333  -0.70437   3.83651 
 1                    -0.20018  -1.30015   3.45893 
 1                     1.52953  -0.91536   3.24798 
 1                     0.814    -0.94635   4.88192 
 6                     3.55573  -1.65777  -1.4754 
 6                     3.0857   -0.28558  -0.99104 
 6                     1.7811   -0.39157  -0.23156 
 6                     2.0672   -2.6995    0.2761 
 6                     3.49443  -2.5934   -0.26336 
 1                     1.09117   0.42199  -0.17221 
 1                     3.79182   0.08032  -0.23784 
 1                     2.91371  -2.01909  -2.28213 
 1                     1.42934  -3.16957  -0.47299 
 1                     4.14002  -2.18599   0.51842 
 8                     1.49535  -1.39054   0.51765 
 8                    -0.44304   0.10844  -3.85476 
 8                     2.89807   0.69465  -1.97764 
 8                     4.89577  -1.54183  -1.89416 
 8                     3.89623  -3.89217  -0.6245 
 6                     1.9793   -3.46444   1.58346 
 1                     2.24233  -4.50714   1.38477 
 1                     0.95015  -3.41518   1.95387 
 8                     2.8743   -2.87538   2.49254 
 16                   -0.31961   0.00536  -2.40116 
 8                    -0.13515   1.30459  -1.70778 
 8                     0.69641  -0.99351  -1.94436 
 6                    -1.85785  -0.65618  -1.77978 
 6                    -3.03074  -0.45379  -2.48943 
 6                    -1.83797  -1.32522  -0.55865 
 6                    -4.2186   -0.93913  -1.94674 
 1                    -3.01526   0.06363  -3.43968 
 6                    -3.03592  -1.80102  -0.0507 
 1                    -0.90928  -1.47767  -0.02228 
 6                    -4.23425  -1.61749  -0.73594 
 1                    -5.16441  -1.9916   -0.32783 
 6                     4.09778   1.17618  -2.59011 
 1                     4.8773    1.30162  -1.83864 
 1                     4.43401   0.48328  -3.35716 
 1                     3.84678   2.13724  -3.03089 
 6                     5.22843  -2.35453  -3.01488 
 1                     5.01242  -3.40081  -2.80464 
 1                     4.66843  -2.03149  -3.89501 
 1                     6.29241  -2.21968  -3.18933 
 6                     5.05831  -4.34854   0.06122 
 1                     5.9093   -3.70923  -0.17495 
 1                     4.8859   -4.34904   1.13903 
 1                     5.24632  -5.36061  -0.28542 
 6                     2.87994  -3.5186    3.75596 
 1                     3.573    -2.97062   4.38747 
 1                     1.8823   -3.49928   4.20088 
 1                     3.21054  -4.55487   3.65462 
 6                    -0.61065   5.50805   1.67054 
 1                    -0.97525   6.19286   2.43013 
 1                     0.46605   5.37228   1.77873 
 1                    -0.82981   5.90798   0.67777 
 11                    1.72354   2.49073  -0.86235 
 8                     3.33503   4.04155  -1.16771 
 6                     3.49744   5.14056  -2.04678 
 1                     4.36566   4.98229  -2.69052 
 1                     2.59812   5.20674  -2.65321 
 1                     3.6283    6.06358  -1.47867 
 6                     4.44619   3.84187  -0.30257 
 1                     4.56887   4.70713   0.35264 
 1                     4.22516   2.94773   0.27921 
 1                     5.35582   3.70056  -0.89159 
 6                    -5.52557  -0.63737  -2.6323 
 9                    -6.06864   0.49021  -2.14471 
 9                    -6.41903  -1.61817  -2.44646 
 9                    -5.36667  -0.46639  -3.95007 
 6                    -3.06879  -2.55296   1.25366 
 9                    -1.89176  -2.52265   1.89025 
 9                    -3.38438  -3.84383   1.05839 
 9                    -4.00386  -2.04878   2.07337 
 
 Add virtual bond connecting atoms O52        and H37        Dist= 4.07D+00.
 Add virtual bond connecting atoms O53        and C34        Dist= 4.00D+00.
 Add virtual bond connecting atoms H37        and H10        Dist= 4.01D+00.
 Add virtual bond connecting atoms H37        and O19        Dist= 4.05D+00.
 Add virtual bond connecting atoms H38        and O19        Dist= 4.00D+00.
 ITRead=  0  0  0  0  0  0  0  0  0  0  0  0  0  0  0  0  0  0  0  0
 ITRead=  0  0  0  0  0  0  0  0  0  0  0  0  0  0  0  0  0  0  0  0
 ITRead=  0  0  0  0  0  0  0  0  0  0  0  0  0  0  0  0  0  0  0  0
 ITRead=  0  0  0  0  0  0  0  0  0  0  0  0  0  0  0  0  0  0  0  0
 ITRead=  0  0  0  0  0  0  0  0  0  0  0  0  0  0  0  0  0  0  0  0
 MicOpt= -1 -1 -1 -1 -1 -1 -1 -1 -1 -1 -1 -1 -1 -1 -1 -1 -1 -1 -1 -1
 MicOpt= -1 -1 -1 -1 -1 -1 -1 -1 -1 -1 -1 -1 -1 -1 -1 -1 -1 -1 -1 -1
 MicOpt= -1 -1 -1 -1 -1 -1 -1 -1 -1 -1 -1 -1 -1 -1 -1 -1 -1 -1 -1 -1
 MicOpt= -1 -1 -1 -1 -1 -1 -1 -1 -1 -1 -1 -1 -1 -1 -1 -1 -1 -1 -1 -1
 MicOpt= -1 -1 -1 -1 -1 -1 -1 -1 -1 -1 -1 -1 -1 -1 -1 -1 -1 -1 -1 -1
 NAtoms=    100 NQM=      100 NQMF=       0 NMMI=      0 NMMIF=      0
                NMic=       0 NMicF=      0.
                    Isotopes and Nuclear Properties:
 (Nuclear quadrupole moments (NQMom) in fm**2, nuclear magnetic moments (NMagM)
  in nuclear magnetons)

  Atom         1           2           3           4           5           6           7           8           9          10
 IAtWgt=          12          12          12          12          12           1           1           1           1           1
 AtmWgt=  12.0000000  12.0000000  12.0000000  12.0000000  12.0000000   1.0078250   1.0078250   1.0078250   1.0078250   1.0078250
 NucSpn=           0           0           0           0           0           1           1           1           1           1
 AtZEff=   0.0000000   0.0000000   0.0000000   0.0000000   0.0000000   0.0000000   0.0000000   0.0000000   0.0000000   0.0000000
 NQMom=    0.0000000   0.0000000   0.0000000   0.0000000   0.0000000   0.0000000   0.0000000   0.0000000   0.0000000   0.0000000
 NMagM=    0.0000000   0.0000000   0.0000000   0.0000000   0.0000000   2.7928460   2.7928460   2.7928460   2.7928460   2.7928460
 AtZNuc=   6.0000000   6.0000000   6.0000000   6.0000000   6.0000000   1.0000000   1.0000000   1.0000000   1.0000000   1.0000000

  Atom        11          12          13          14          15          16          17          18          19          20
 IAtWgt=          16          16          16          16          16          12           1           1          16          12
 AtmWgt=  15.9949146  15.9949146  15.9949146  15.9949146  15.9949146  12.0000000   1.0078250   1.0078250  15.9949146  12.0000000
 NucSpn=           0           0           0           0           0           0           1           1           0           0
 AtZEff=   0.0000000   0.0000000   0.0000000   0.0000000   0.0000000   0.0000000   0.0000000   0.0000000   0.0000000   0.0000000
 NQMom=    0.0000000   0.0000000   0.0000000   0.0000000   0.0000000   0.0000000   0.0000000   0.0000000   0.0000000   0.0000000
 NMagM=    0.0000000   0.0000000   0.0000000   0.0000000   0.0000000   0.0000000   2.7928460   2.7928460   0.0000000   0.0000000
 AtZNuc=   8.0000000   8.0000000   8.0000000   8.0000000   8.0000000   6.0000000   1.0000000   1.0000000   8.0000000   6.0000000

  Atom        21          22          23          24          25          26          27          28          29          30
 IAtWgt=           1           1           1          12           1           1           1          12           1           1
 AtmWgt=   1.0078250   1.0078250   1.0078250  12.0000000   1.0078250   1.0078250   1.0078250  12.0000000   1.0078250   1.0078250
 NucSpn=           1           1           1           0           1           1           1           0           1           1
 AtZEff=   0.0000000   0.0000000   0.0000000   0.0000000   0.0000000   0.0000000   0.0000000   0.0000000   0.0000000   0.0000000
 NQMom=    0.0000000   0.0000000   0.0000000   0.0000000   0.0000000   0.0000000   0.0000000   0.0000000   0.0000000   0.0000000
 NMagM=    2.7928460   2.7928460   2.7928460   0.0000000   2.7928460   2.7928460   2.7928460   0.0000000   2.7928460   2.7928460
 AtZNuc=   1.0000000   1.0000000   1.0000000   6.0000000   1.0000000   1.0000000   1.0000000   6.0000000   1.0000000   1.0000000

  Atom        31          32          33          34          35          36          37          38          39          40
 IAtWgt=           1          12          12          12          12          12           1           1           1           1
 AtmWgt=   1.0078250  12.0000000  12.0000000  12.0000000  12.0000000  12.0000000   1.0078250   1.0078250   1.0078250   1.0078250
 NucSpn=           1           0           0           0           0           0           1           1           1           1
 AtZEff=   0.0000000   0.0000000   0.0000000   0.0000000   0.0000000   0.0000000   0.0000000   0.0000000   0.0000000   0.0000000
 NQMom=    0.0000000   0.0000000   0.0000000   0.0000000   0.0000000   0.0000000   0.0000000   0.0000000   0.0000000   0.0000000
 NMagM=    2.7928460   0.0000000   0.0000000   0.0000000   0.0000000   0.0000000   2.7928460   2.7928460   2.7928460   2.7928460
 AtZNuc=   1.0000000   6.0000000   6.0000000   6.0000000   6.0000000   6.0000000   1.0000000   1.0000000   1.0000000   1.0000000

  Atom        41          42          43          44          45          46          47          48          49          50
 IAtWgt=           1          16          16          16          16          16          12           1           1          16
 AtmWgt=   1.0078250  15.9949146  15.9949146  15.9949146  15.9949146  15.9949146  12.0000000   1.0078250   1.0078250  15.9949146
 NucSpn=           1           0           0           0           0           0           0           1           1           0
 AtZEff=   0.0000000   0.0000000   0.0000000   0.0000000   0.0000000   0.0000000   0.0000000   0.0000000   0.0000000   0.0000000
 NQMom=    0.0000000   0.0000000   0.0000000   0.0000000   0.0000000   0.0000000   0.0000000   0.0000000   0.0000000   0.0000000
 NMagM=    2.7928460   0.0000000   0.0000000   0.0000000   0.0000000   0.0000000   0.0000000   2.7928460   2.7928460   0.0000000
 AtZNuc=   1.0000000   8.0000000   8.0000000   8.0000000   8.0000000   8.0000000   6.0000000   1.0000000   1.0000000   8.0000000

  Atom        51          52          53          54          55          56          57          58          59          60
 IAtWgt=          32          16          16          12          12          12          12           1          12           1
 AtmWgt=  31.9720718  15.9949146  15.9949146  12.0000000  12.0000000  12.0000000  12.0000000   1.0078250  12.0000000   1.0078250
 NucSpn=           0           0           0           0           0           0           0           1           0           1
 AtZEff=   0.0000000   0.0000000   0.0000000   0.0000000   0.0000000   0.0000000   0.0000000   0.0000000   0.0000000   0.0000000
 NQMom=    0.0000000   0.0000000   0.0000000   0.0000000   0.0000000   0.0000000   0.0000000   0.0000000   0.0000000   0.0000000
 NMagM=    0.0000000   0.0000000   0.0000000   0.0000000   0.0000000   0.0000000   0.0000000   2.7928460   0.0000000   2.7928460
 AtZNuc=  16.0000000   8.0000000   8.0000000   6.0000000   6.0000000   6.0000000   6.0000000   1.0000000   6.0000000   1.0000000

  Atom        61          62          63          64          65          66          67          68          69          70
 IAtWgt=          12           1          12           1           1           1          12           1           1           1
 AtmWgt=  12.0000000   1.0078250  12.0000000   1.0078250   1.0078250   1.0078250  12.0000000   1.0078250   1.0078250   1.0078250
 NucSpn=           0           1           0           1           1           1           0           1           1           1
 AtZEff=   0.0000000   0.0000000   0.0000000   0.0000000   0.0000000   0.0000000   0.0000000   0.0000000   0.0000000   0.0000000
 NQMom=    0.0000000   0.0000000   0.0000000   0.0000000   0.0000000   0.0000000   0.0000000   0.0000000   0.0000000   0.0000000
 NMagM=    0.0000000   2.7928460   0.0000000   2.7928460   2.7928460   2.7928460   0.0000000   2.7928460   2.7928460   2.7928460
 AtZNuc=   6.0000000   1.0000000   6.0000000   1.0000000   1.0000000   1.0000000   6.0000000   1.0000000   1.0000000   1.0000000

  Atom        71          72          73          74          75          76          77          78          79          80
 IAtWgt=          12           1           1           1          12           1           1           1          12           1
 AtmWgt=  12.0000000   1.0078250   1.0078250   1.0078250  12.0000000   1.0078250   1.0078250   1.0078250  12.0000000   1.0078250
 NucSpn=           0           1           1           1           0           1           1           1           0           1
 AtZEff=   0.0000000   0.0000000   0.0000000   0.0000000   0.0000000   0.0000000   0.0000000   0.0000000   0.0000000   0.0000000
 NQMom=    0.0000000   0.0000000   0.0000000   0.0000000   0.0000000   0.0000000   0.0000000   0.0000000   0.0000000   0.0000000
 NMagM=    0.0000000   2.7928460   2.7928460   2.7928460   0.0000000   2.7928460   2.7928460   2.7928460   0.0000000   2.7928460
 AtZNuc=   6.0000000   1.0000000   1.0000000   1.0000000   6.0000000   1.0000000   1.0000000   1.0000000   6.0000000   1.0000000

  Atom        81          82          83          84          85          86          87          88          89          90
 IAtWgt=           1           1          23          16          12           1           1           1          12           1
 AtmWgt=   1.0078250   1.0078250  22.9897697  15.9949146  12.0000000   1.0078250   1.0078250   1.0078250  12.0000000   1.0078250
 NucSpn=           1           1           3           0           0           1           1           1           0           1
 AtZEff=   0.0000000   0.0000000   0.0000000   0.0000000   0.0000000   0.0000000   0.0000000   0.0000000   0.0000000   0.0000000
 NQMom=    0.0000000   0.0000000  10.4000000   0.0000000   0.0000000   0.0000000   0.0000000   0.0000000   0.0000000   0.0000000
 NMagM=    2.7928460   2.7928460   2.2175200   0.0000000   0.0000000   2.7928460   2.7928460   2.7928460   0.0000000   2.7928460
 AtZNuc=   1.0000000   1.0000000  11.0000000   8.0000000   6.0000000   1.0000000   1.0000000   1.0000000   6.0000000   1.0000000

  Atom        91          92          93          94          95          96          97          98          99         100
 IAtWgt=           1           1          12          19          19          19          12          19          19          19
 AtmWgt=   1.0078250   1.0078250  12.0000000  18.9984033  18.9984033  18.9984033  12.0000000  18.9984033  18.9984033  18.9984033
 NucSpn=           1           1           0           1           1           1           0           1           1           1
 AtZEff=   0.0000000   0.0000000   0.0000000   0.0000000   0.0000000   0.0000000   0.0000000   0.0000000   0.0000000   0.0000000
 NQMom=    0.0000000   0.0000000   0.0000000   0.0000000   0.0000000   0.0000000   0.0000000   0.0000000   0.0000000   0.0000000
 NMagM=    2.7928460   2.7928460   0.0000000   2.6288670   2.6288670   2.6288670   0.0000000   2.6288670   2.6288670   2.6288670
 AtZNuc=   1.0000000   1.0000000   6.0000000   9.0000000   9.0000000   9.0000000   6.0000000   9.0000000   9.0000000   9.0000000
 Leave Link  101 at Sun Jun 16 17:14:02 2019, MaxMem=  6442450944 cpu:              18.0 elap:               0.7
 (Enter /home/ekwan/sw/g16/l103.exe)

 GradGradGradGradGradGradGradGradGradGradGradGradGradGradGradGradGradGrad
 Berny optimization.
 Initialization pass.
                           ----------------------------
                           !    Initial Parameters    !
                           ! (Angstroms and Degrees)  !
 --------------------------                            --------------------------
 ! Name  Definition              Value          Derivative Info.                !
 --------------------------------------------------------------------------------
 ! R1    R(1,2)                  1.5277         calculate D2E/DX2 analytically  !
 ! R2    R(1,5)                  1.5285         calculate D2E/DX2 analytically  !
 ! R3    R(1,8)                  1.0936         calculate D2E/DX2 analytically  !
 ! R4    R(1,14)                 1.4168         calculate D2E/DX2 analytically  !
 ! R5    R(2,3)                  1.5334         calculate D2E/DX2 analytically  !
 ! R6    R(2,7)                  1.0949         calculate D2E/DX2 analytically  !
 ! R7    R(2,13)                 1.4071         calculate D2E/DX2 analytically  !
 ! R8    R(3,6)                  1.0924         calculate D2E/DX2 analytically  !
 ! R9    R(3,11)                 1.412          calculate D2E/DX2 analytically  !
 ! R10   R(3,12)                 1.3901         calculate D2E/DX2 analytically  !
 ! R11   R(4,5)                  1.5318         calculate D2E/DX2 analytically  !
 ! R12   R(4,9)                  1.094          calculate D2E/DX2 analytically  !
 ! R13   R(4,11)                 1.4335         calculate D2E/DX2 analytically  !
 ! R14   R(4,16)                 1.5367         calculate D2E/DX2 analytically  !
 ! R15   R(5,10)                 1.0934         calculate D2E/DX2 analytically  !
 ! R16   R(5,15)                 1.4134         calculate D2E/DX2 analytically  !
 ! R17   R(10,37)                2.1239         calculate D2E/DX2 analytically  !
 ! R18   R(12,79)                1.4218         calculate D2E/DX2 analytically  !
 ! R19   R(13,20)                1.4202         calculate D2E/DX2 analytically  !
 ! R20   R(14,24)                1.4218         calculate D2E/DX2 analytically  !
 ! R21   R(15,28)                1.4211         calculate D2E/DX2 analytically  !
 ! R22   R(16,17)                1.098          calculate D2E/DX2 analytically  !
 ! R23   R(16,18)                1.104          calculate D2E/DX2 analytically  !
 ! R24   R(16,19)                1.3866         calculate D2E/DX2 analytically  !
 ! R25   R(19,37)                2.1455         calculate D2E/DX2 analytically  !
 ! R26   R(19,38)                2.1182         calculate D2E/DX2 analytically  !
 ! R27   R(20,21)                1.0936         calculate D2E/DX2 analytically  !
 ! R28   R(20,22)                1.0896         calculate D2E/DX2 analytically  !
 ! R29   R(20,23)                1.0875         calculate D2E/DX2 analytically  !
 ! R30   R(24,25)                1.09           calculate D2E/DX2 analytically  !
 ! R31   R(24,26)                1.0927         calculate D2E/DX2 analytically  !
 ! R32   R(24,27)                1.0853         calculate D2E/DX2 analytically  !
 ! R33   R(28,29)                1.0919         calculate D2E/DX2 analytically  !
 ! R34   R(28,30)                1.0927         calculate D2E/DX2 analytically  !
 ! R35   R(28,31)                1.0882         calculate D2E/DX2 analytically  !
 ! R36   R(32,33)                1.5292         calculate D2E/DX2 analytically  !
 ! R37   R(32,36)                1.5324         calculate D2E/DX2 analytically  !
 ! R38   R(32,39)                1.0925         calculate D2E/DX2 analytically  !
 ! R39   R(32,45)                1.4087         calculate D2E/DX2 analytically  !
 ! R40   R(33,34)                1.5133         calculate D2E/DX2 analytically  !
 ! R41   R(33,38)                1.0953         calculate D2E/DX2 analytically  !
 ! R42   R(33,44)                1.4034         calculate D2E/DX2 analytically  !
 ! R43   R(34,37)                1.0684         calculate D2E/DX2 analytically  !
 ! R44   R(34,42)                1.281          calculate D2E/DX2 analytically  !
 ! R45   R(34,53)                2.1148         calculate D2E/DX2 analytically  !
 ! R46   R(35,36)                1.5295         calculate D2E/DX2 analytically  !
 ! R47   R(35,40)                1.0904         calculate D2E/DX2 analytically  !
 ! R48   R(35,42)                1.4487         calculate D2E/DX2 analytically  !
 ! R49   R(35,47)                1.5172         calculate D2E/DX2 analytically  !
 ! R50   R(36,41)                1.0927         calculate D2E/DX2 analytically  !
 ! R51   R(36,46)                1.4067         calculate D2E/DX2 analytically  !
 ! R52   R(37,52)                2.1543         calculate D2E/DX2 analytically  !
 ! R53   R(37,83)                2.2707         calculate D2E/DX2 analytically  !
 ! R54   R(43,51)                1.4625         calculate D2E/DX2 analytically  !
 ! R55   R(44,63)                1.4305         calculate D2E/DX2 analytically  !
 ! R56   R(45,67)                1.4238         calculate D2E/DX2 analytically  !
 ! R57   R(46,71)                1.4244         calculate D2E/DX2 analytically  !
 ! R58   R(47,48)                1.0936         calculate D2E/DX2 analytically  !
 ! R59   R(47,49)                1.0949         calculate D2E/DX2 analytically  !
 ! R60   R(47,50)                1.4051         calculate D2E/DX2 analytically  !
 ! R61   R(50,75)                1.4177         calculate D2E/DX2 analytically  !
 ! R62   R(51,52)                1.4842         calculate D2E/DX2 analytically  !
 ! R63   R(51,53)                1.4962         calculate D2E/DX2 analytically  !
 ! R64   R(51,54)                1.786          calculate D2E/DX2 analytically  !
 ! R65   R(54,55)                1.3857         calculate D2E/DX2 analytically  !
 ! R66   R(54,56)                1.3925         calculate D2E/DX2 analytically  !
 ! R67   R(55,57)                1.3932         calculate D2E/DX2 analytically  !
 ! R68   R(55,58)                1.0821         calculate D2E/DX2 analytically  !
 ! R69   R(56,59)                1.3855         calculate D2E/DX2 analytically  !
 ! R70   R(56,60)                1.0832         calculate D2E/DX2 analytically  !
 ! R71   R(57,61)                1.388          calculate D2E/DX2 analytically  !
 ! R72   R(57,93)                1.5064         calculate D2E/DX2 analytically  !
 ! R73   R(59,61)                1.3926         calculate D2E/DX2 analytically  !
 ! R74   R(59,97)                1.5059         calculate D2E/DX2 analytically  !
 ! R75   R(61,62)                1.0825         calculate D2E/DX2 analytically  !
 ! R76   R(63,64)                1.09           calculate D2E/DX2 analytically  !
 ! R77   R(63,65)                1.087          calculate D2E/DX2 analytically  !
 ! R78   R(63,66)                1.0867         calculate D2E/DX2 analytically  !
 ! R79   R(67,68)                1.0888         calculate D2E/DX2 analytically  !
 ! R80   R(67,69)                1.0921         calculate D2E/DX2 analytically  !
 ! R81   R(67,70)                1.0866         calculate D2E/DX2 analytically  !
 ! R82   R(71,72)                1.0903         calculate D2E/DX2 analytically  !
 ! R83   R(71,73)                1.0915         calculate D2E/DX2 analytically  !
 ! R84   R(71,74)                1.0862         calculate D2E/DX2 analytically  !
 ! R85   R(75,76)                1.086          calculate D2E/DX2 analytically  !
 ! R86   R(75,77)                1.0925         calculate D2E/DX2 analytically  !
 ! R87   R(75,78)                1.0924         calculate D2E/DX2 analytically  !
 ! R88   R(79,80)                1.0858         calculate D2E/DX2 analytically  !
 ! R89   R(79,81)                1.0906         calculate D2E/DX2 analytically  !
 ! R90   R(79,82)                1.0925         calculate D2E/DX2 analytically  !
 ! R91   R(83,84)                2.2572         calculate D2E/DX2 analytically  !
 ! R92   R(84,85)                1.4167         calculate D2E/DX2 analytically  !
 ! R93   R(84,89)                1.4223         calculate D2E/DX2 analytically  !
 ! R94   R(85,86)                1.0924         calculate D2E/DX2 analytically  !
 ! R95   R(85,87)                1.0867         calculate D2E/DX2 analytically  !
 ! R96   R(85,88)                1.0917         calculate D2E/DX2 analytically  !
 ! R97   R(89,90)                1.0923         calculate D2E/DX2 analytically  !
 ! R98   R(89,91)                1.0894         calculate D2E/DX2 analytically  !
 ! R99   R(89,92)                1.0929         calculate D2E/DX2 analytically  !
 ! R100  R(93,94)                1.3432         calculate D2E/DX2 analytically  !
 ! R101  R(93,95)                1.3397         calculate D2E/DX2 analytically  !
 ! R102  R(93,96)                1.3383         calculate D2E/DX2 analytically  !
 ! R103  R(97,98)                1.3385         calculate D2E/DX2 analytically  !
 ! R104  R(97,99)                1.3432         calculate D2E/DX2 analytically  !
 ! R105  R(97,100)               1.3418         calculate D2E/DX2 analytically  !
 ! A1    A(2,1,5)              110.5342         calculate D2E/DX2 analytically  !
 ! A2    A(2,1,8)              107.7811         calculate D2E/DX2 analytically  !
 ! A3    A(2,1,14)             109.8049         calculate D2E/DX2 analytically  !
 ! A4    A(5,1,8)              108.8467         calculate D2E/DX2 analytically  !
 ! A5    A(5,1,14)             109.6019         calculate D2E/DX2 analytically  !
 ! A6    A(8,1,14)             110.2476         calculate D2E/DX2 analytically  !
 ! A7    A(1,2,3)              109.5131         calculate D2E/DX2 analytically  !
 ! A8    A(1,2,7)              109.6584         calculate D2E/DX2 analytically  !
 ! A9    A(1,2,13)             111.7142         calculate D2E/DX2 analytically  !
 ! A10   A(3,2,7)              106.65           calculate D2E/DX2 analytically  !
 ! A11   A(3,2,13)             108.1129         calculate D2E/DX2 analytically  !
 ! A12   A(7,2,13)             111.042          calculate D2E/DX2 analytically  !
 ! A13   A(2,3,6)              110.0104         calculate D2E/DX2 analytically  !
 ! A14   A(2,3,11)             110.1799         calculate D2E/DX2 analytically  !
 ! A15   A(2,3,12)             108.7606         calculate D2E/DX2 analytically  !
 ! A16   A(6,3,11)             105.8886         calculate D2E/DX2 analytically  !
 ! A17   A(6,3,12)             110.915          calculate D2E/DX2 analytically  !
 ! A18   A(11,3,12)            111.0694         calculate D2E/DX2 analytically  !
 ! A19   A(5,4,9)              108.0885         calculate D2E/DX2 analytically  !
 ! A20   A(5,4,11)             109.146          calculate D2E/DX2 analytically  !
 ! A21   A(5,4,16)             113.0159         calculate D2E/DX2 analytically  !
 ! A22   A(9,4,11)             109.4996         calculate D2E/DX2 analytically  !
 ! A23   A(9,4,16)             109.6759         calculate D2E/DX2 analytically  !
 ! A24   A(11,4,16)            107.3787         calculate D2E/DX2 analytically  !
 ! A25   A(1,5,4)              110.8421         calculate D2E/DX2 analytically  !
 ! A26   A(1,5,10)             108.5433         calculate D2E/DX2 analytically  !
 ! A27   A(1,5,15)             109.2742         calculate D2E/DX2 analytically  !
 ! A28   A(4,5,10)             109.3941         calculate D2E/DX2 analytically  !
 ! A29   A(4,5,15)             108.7528         calculate D2E/DX2 analytically  !
 ! A30   A(10,5,15)            110.0274         calculate D2E/DX2 analytically  !
 ! A31   A(5,10,37)            133.5563         calculate D2E/DX2 analytically  !
 ! A32   A(3,11,4)             114.8318         calculate D2E/DX2 analytically  !
 ! A33   A(3,12,79)            113.3877         calculate D2E/DX2 analytically  !
 ! A34   A(2,13,20)            114.3671         calculate D2E/DX2 analytically  !
 ! A35   A(1,14,24)            113.152          calculate D2E/DX2 analytically  !
 ! A36   A(5,15,28)            113.8527         calculate D2E/DX2 analytically  !
 ! A37   A(4,16,17)            105.827          calculate D2E/DX2 analytically  !
 ! A38   A(4,16,18)            105.6954         calculate D2E/DX2 analytically  !
 ! A39   A(4,16,19)            113.42           calculate D2E/DX2 analytically  !
 ! A40   A(17,16,18)           107.2297         calculate D2E/DX2 analytically  !
 ! A41   A(17,16,19)           112.9465         calculate D2E/DX2 analytically  !
 ! A42   A(18,16,19)           111.2135         calculate D2E/DX2 analytically  !
 ! A43   A(16,19,37)           119.2204         calculate D2E/DX2 analytically  !
 ! A44   A(16,19,38)           157.1983         calculate D2E/DX2 analytically  !
 ! A45   A(37,19,38)            79.378          calculate D2E/DX2 analytically  !
 ! A46   A(13,20,21)           110.2529         calculate D2E/DX2 analytically  !
 ! A47   A(13,20,22)           110.8451         calculate D2E/DX2 analytically  !
 ! A48   A(13,20,23)           106.7027         calculate D2E/DX2 analytically  !
 ! A49   A(21,20,22)           109.6759         calculate D2E/DX2 analytically  !
 ! A50   A(21,20,23)           109.0806         calculate D2E/DX2 analytically  !
 ! A51   A(22,20,23)           110.2298         calculate D2E/DX2 analytically  !
 ! A52   A(14,24,25)           110.3086         calculate D2E/DX2 analytically  !
 ! A53   A(14,24,26)           110.0147         calculate D2E/DX2 analytically  !
 ! A54   A(14,24,27)           107.0432         calculate D2E/DX2 analytically  !
 ! A55   A(25,24,26)           109.721          calculate D2E/DX2 analytically  !
 ! A56   A(25,24,27)           110.0013         calculate D2E/DX2 analytically  !
 ! A57   A(26,24,27)           109.7145         calculate D2E/DX2 analytically  !
 ! A58   A(15,28,29)           110.2103         calculate D2E/DX2 analytically  !
 ! A59   A(15,28,30)           110.885          calculate D2E/DX2 analytically  !
 ! A60   A(15,28,31)           106.6572         calculate D2E/DX2 analytically  !
 ! A61   A(29,28,30)           109.5403         calculate D2E/DX2 analytically  !
 ! A62   A(29,28,31)           109.7314         calculate D2E/DX2 analytically  !
 ! A63   A(30,28,31)           109.7747         calculate D2E/DX2 analytically  !
 ! A64   A(33,32,36)           106.5628         calculate D2E/DX2 analytically  !
 ! A65   A(33,32,39)           110.4893         calculate D2E/DX2 analytically  !
 ! A66   A(33,32,45)           108.2208         calculate D2E/DX2 analytically  !
 ! A67   A(36,32,39)           111.0157         calculate D2E/DX2 analytically  !
 ! A68   A(36,32,45)           108.8701         calculate D2E/DX2 analytically  !
 ! A69   A(39,32,45)           111.5132         calculate D2E/DX2 analytically  !
 ! A70   A(32,33,34)           111.1671         calculate D2E/DX2 analytically  !
 ! A71   A(32,33,38)           108.627          calculate D2E/DX2 analytically  !
 ! A72   A(32,33,44)           116.436          calculate D2E/DX2 analytically  !
 ! A73   A(34,33,38)           103.5351         calculate D2E/DX2 analytically  !
 ! A74   A(34,33,44)           106.6477         calculate D2E/DX2 analytically  !
 ! A75   A(38,33,44)           109.6511         calculate D2E/DX2 analytically  !
 ! A76   A(33,34,37)           122.0908         calculate D2E/DX2 analytically  !
 ! A77   A(33,34,42)           122.7153         calculate D2E/DX2 analytically  !
 ! A78   A(33,34,53)            93.189          calculate D2E/DX2 analytically  !
 ! A79   A(37,34,42)           114.6653         calculate D2E/DX2 analytically  !
 ! A80   A(37,34,53)            86.0157         calculate D2E/DX2 analytically  !
 ! A81   A(42,34,53)            97.8922         calculate D2E/DX2 analytically  !
 ! A82   A(36,35,40)           109.4794         calculate D2E/DX2 analytically  !
 ! A83   A(36,35,42)           111.3751         calculate D2E/DX2 analytically  !
 ! A84   A(36,35,47)           113.1382         calculate D2E/DX2 analytically  !
 ! A85   A(40,35,42)           105.8522         calculate D2E/DX2 analytically  !
 ! A86   A(40,35,47)           109.9211         calculate D2E/DX2 analytically  !
 ! A87   A(42,35,47)           106.798          calculate D2E/DX2 analytically  !
 ! A88   A(32,36,35)           111.018          calculate D2E/DX2 analytically  !
 ! A89   A(32,36,41)           108.3374         calculate D2E/DX2 analytically  !
 ! A90   A(32,36,46)           110.4415         calculate D2E/DX2 analytically  !
 ! A91   A(35,36,41)           108.9566         calculate D2E/DX2 analytically  !
 ! A92   A(35,36,46)           107.0407         calculate D2E/DX2 analytically  !
 ! A93   A(41,36,46)           111.05           calculate D2E/DX2 analytically  !
 ! A94   A(10,37,19)            80.6048         calculate D2E/DX2 analytically  !
 ! A95   A(10,37,34)           107.7956         calculate D2E/DX2 analytically  !
 ! A96   A(10,37,52)           114.5169         calculate D2E/DX2 analytically  !
 ! A97   A(10,37,83)           114.4426         calculate D2E/DX2 analytically  !
 ! A98   A(19,37,34)            84.7536         calculate D2E/DX2 analytically  !
 ! A99   A(19,37,52)           126.8818         calculate D2E/DX2 analytically  !
 ! A100  A(19,37,83)            63.1224         calculate D2E/DX2 analytically  !
 ! A101  A(34,37,52)           129.7923         calculate D2E/DX2 analytically  !
 ! A102  A(34,37,83)           119.8056         calculate D2E/DX2 analytically  !
 ! A103  A(52,37,83)            64.4447         calculate D2E/DX2 analytically  !
 ! A104  A(19,38,33)           104.0733         calculate D2E/DX2 analytically  !
 ! A105  A(34,42,35)           121.269          calculate D2E/DX2 analytically  !
 ! A106  A(33,44,63)           115.0865         calculate D2E/DX2 analytically  !
 ! A107  A(32,45,67)           114.1584         calculate D2E/DX2 analytically  !
 ! A108  A(36,46,71)           113.9076         calculate D2E/DX2 analytically  !
 ! A109  A(35,47,48)           108.0727         calculate D2E/DX2 analytically  !
 ! A110  A(35,47,49)           108.8611         calculate D2E/DX2 analytically  !
 ! A111  A(35,47,50)           108.0119         calculate D2E/DX2 analytically  !
 ! A112  A(48,47,49)           109.2962         calculate D2E/DX2 analytically  !
 ! A113  A(48,47,50)           111.3502         calculate D2E/DX2 analytically  !
 ! A114  A(49,47,50)           111.1592         calculate D2E/DX2 analytically  !
 ! A115  A(47,50,75)           112.8849         calculate D2E/DX2 analytically  !
 ! A116  A(43,51,52)           114.4016         calculate D2E/DX2 analytically  !
 ! A117  A(43,51,53)           114.0678         calculate D2E/DX2 analytically  !
 ! A118  A(43,51,54)           107.4106         calculate D2E/DX2 analytically  !
 ! A119  A(52,51,53)           110.9394         calculate D2E/DX2 analytically  !
 ! A120  A(52,51,54)           105.5892         calculate D2E/DX2 analytically  !
 ! A121  A(53,51,54)           103.3767         calculate D2E/DX2 analytically  !
 ! A122  A(37,52,51)            92.5853         calculate D2E/DX2 analytically  !
 ! A123  A(34,53,51)           113.9241         calculate D2E/DX2 analytically  !
 ! A124  A(51,54,55)           119.7821         calculate D2E/DX2 analytically  !
 ! A125  A(51,54,56)           118.0827         calculate D2E/DX2 analytically  !
 ! A126  A(55,54,56)           122.0958         calculate D2E/DX2 analytically  !
 ! A127  A(54,55,57)           118.1173         calculate D2E/DX2 analytically  !
 ! A128  A(54,55,58)           120.4944         calculate D2E/DX2 analytically  !
 ! A129  A(57,55,58)           121.3877         calculate D2E/DX2 analytically  !
 ! A130  A(54,56,59)           118.3045         calculate D2E/DX2 analytically  !
 ! A131  A(54,56,60)           120.9343         calculate D2E/DX2 analytically  !
 ! A132  A(59,56,60)           120.7594         calculate D2E/DX2 analytically  !
 ! A133  A(55,57,61)           121.3103         calculate D2E/DX2 analytically  !
 ! A134  A(55,57,93)           119.5162         calculate D2E/DX2 analytically  !
 ! A135  A(61,57,93)           119.0211         calculate D2E/DX2 analytically  !
 ! A136  A(56,59,61)           121.2242         calculate D2E/DX2 analytically  !
 ! A137  A(56,59,97)           120.5242         calculate D2E/DX2 analytically  !
 ! A138  A(61,59,97)           118.2445         calculate D2E/DX2 analytically  !
 ! A139  A(57,61,59)           118.9452         calculate D2E/DX2 analytically  !
 ! A140  A(57,61,62)           120.4975         calculate D2E/DX2 analytically  !
 ! A141  A(59,61,62)           120.5559         calculate D2E/DX2 analytically  !
 ! A142  A(44,63,64)           110.0809         calculate D2E/DX2 analytically  !
 ! A143  A(44,63,65)           110.3031         calculate D2E/DX2 analytically  !
 ! A144  A(44,63,66)           106.1201         calculate D2E/DX2 analytically  !
 ! A145  A(64,63,65)           109.7947         calculate D2E/DX2 analytically  !
 ! A146  A(64,63,66)           110.0619         calculate D2E/DX2 analytically  !
 ! A147  A(65,63,66)           110.4242         calculate D2E/DX2 analytically  !
 ! A148  A(45,67,68)           110.4971         calculate D2E/DX2 analytically  !
 ! A149  A(45,67,69)           110.2262         calculate D2E/DX2 analytically  !
 ! A150  A(45,67,70)           106.5179         calculate D2E/DX2 analytically  !
 ! A151  A(68,67,69)           109.7637         calculate D2E/DX2 analytically  !
 ! A152  A(68,67,70)           110.152          calculate D2E/DX2 analytically  !
 ! A153  A(69,67,70)           109.6342         calculate D2E/DX2 analytically  !
 ! A154  A(46,71,72)           110.1597         calculate D2E/DX2 analytically  !
 ! A155  A(46,71,73)           110.2828         calculate D2E/DX2 analytically  !
 ! A156  A(46,71,74)           106.6252         calculate D2E/DX2 analytically  !
 ! A157  A(72,71,73)           109.7216         calculate D2E/DX2 analytically  !
 ! A158  A(72,71,74)           110.0065         calculate D2E/DX2 analytically  !
 ! A159  A(73,71,74)           110.0019         calculate D2E/DX2 analytically  !
 ! A160  A(50,75,76)           106.9666         calculate D2E/DX2 analytically  !
 ! A161  A(50,75,77)           110.5646         calculate D2E/DX2 analytically  !
 ! A162  A(50,75,78)           110.42           calculate D2E/DX2 analytically  !
 ! A163  A(76,75,77)           109.695          calculate D2E/DX2 analytically  !
 ! A164  A(76,75,78)           109.8435         calculate D2E/DX2 analytically  !
 ! A165  A(77,75,78)           109.3229         calculate D2E/DX2 analytically  !
 ! A166  A(12,79,80)           106.7236         calculate D2E/DX2 analytically  !
 ! A167  A(12,79,81)           110.799          calculate D2E/DX2 analytically  !
 ! A168  A(12,79,82)           110.1431         calculate D2E/DX2 analytically  !
 ! A169  A(80,79,81)           109.9157         calculate D2E/DX2 analytically  !
 ! A170  A(80,79,82)           109.7236         calculate D2E/DX2 analytically  !
 ! A171  A(81,79,82)           109.498          calculate D2E/DX2 analytically  !
 ! A172  A(37,83,84)           149.9839         calculate D2E/DX2 analytically  !
 ! A173  A(83,84,85)           134.3289         calculate D2E/DX2 analytically  !
 ! A174  A(83,84,89)           112.2713         calculate D2E/DX2 analytically  !
 ! A175  A(85,84,89)           113.3767         calculate D2E/DX2 analytically  !
 ! A176  A(84,85,86)           110.1446         calculate D2E/DX2 analytically  !
 ! A177  A(84,85,87)           107.3759         calculate D2E/DX2 analytically  !
 ! A178  A(84,85,88)           110.2872         calculate D2E/DX2 analytically  !
 ! A179  A(86,85,87)           109.7383         calculate D2E/DX2 analytically  !
 ! A180  A(86,85,88)           109.506          calculate D2E/DX2 analytically  !
 ! A181  A(87,85,88)           109.7619         calculate D2E/DX2 analytically  !
 ! A182  A(84,89,90)           109.9628         calculate D2E/DX2 analytically  !
 ! A183  A(84,89,91)           106.3529         calculate D2E/DX2 analytically  !
 ! A184  A(84,89,92)           109.9116         calculate D2E/DX2 analytically  !
 ! A185  A(90,89,91)           110.6477         calculate D2E/DX2 analytically  !
 ! A186  A(90,89,92)           109.4054         calculate D2E/DX2 analytically  !
 ! A187  A(91,89,92)           110.5226         calculate D2E/DX2 analytically  !
 ! A188  A(57,93,94)           110.7168         calculate D2E/DX2 analytically  !
 ! A189  A(57,93,95)           111.6439         calculate D2E/DX2 analytically  !
 ! A190  A(57,93,96)           111.7591         calculate D2E/DX2 analytically  !
 ! A191  A(94,93,95)           107.1331         calculate D2E/DX2 analytically  !
 ! A192  A(94,93,96)           107.3498         calculate D2E/DX2 analytically  !
 ! A193  A(95,93,96)           108.0179         calculate D2E/DX2 analytically  !
 ! A194  A(59,97,98)           112.4233         calculate D2E/DX2 analytically  !
 ! A195  A(59,97,99)           111.0441         calculate D2E/DX2 analytically  !
 ! A196  A(59,97,100)          110.8988         calculate D2E/DX2 analytically  !
 ! A197  A(98,97,99)           107.3089         calculate D2E/DX2 analytically  !
 ! A198  A(98,97,100)          108.2854         calculate D2E/DX2 analytically  !
 ! A199  A(99,97,100)          106.6298         calculate D2E/DX2 analytically  !
 ! D1    D(5,1,2,3)            -53.1431         calculate D2E/DX2 analytically  !
 ! D2    D(5,1,2,7)             63.5616         calculate D2E/DX2 analytically  !
 ! D3    D(5,1,2,13)          -172.8888         calculate D2E/DX2 analytically  !
 ! D4    D(8,1,2,3)             65.698          calculate D2E/DX2 analytically  !
 ! D5    D(8,1,2,7)           -177.5973         calculate D2E/DX2 analytically  !
 ! D6    D(8,1,2,13)           -54.0477         calculate D2E/DX2 analytically  !
 ! D7    D(14,1,2,3)          -174.1843         calculate D2E/DX2 analytically  !
 ! D8    D(14,1,2,7)           -57.4796         calculate D2E/DX2 analytically  !
 ! D9    D(14,1,2,13)           66.07           calculate D2E/DX2 analytically  !
 ! D10   D(2,1,5,4)             53.1785         calculate D2E/DX2 analytically  !
 ! D11   D(2,1,5,10)           -66.9854         calculate D2E/DX2 analytically  !
 ! D12   D(2,1,5,15)           173.0166         calculate D2E/DX2 analytically  !
 ! D13   D(8,1,5,4)            -65.0135         calculate D2E/DX2 analytically  !
 ! D14   D(8,1,5,10)           174.8226         calculate D2E/DX2 analytically  !
 ! D15   D(8,1,5,15)            54.8246         calculate D2E/DX2 analytically  !
 ! D16   D(14,1,5,4)           174.3402         calculate D2E/DX2 analytically  !
 ! D17   D(14,1,5,10)           54.1763         calculate D2E/DX2 analytically  !
 ! D18   D(14,1,5,15)          -65.8217         calculate D2E/DX2 analytically  !
 ! D19   D(2,1,14,24)         -134.6644         calculate D2E/DX2 analytically  !
 ! D20   D(5,1,14,24)          103.7347         calculate D2E/DX2 analytically  !
 ! D21   D(8,1,14,24)          -16.0576         calculate D2E/DX2 analytically  !
 ! D22   D(1,2,3,6)            172.4505         calculate D2E/DX2 analytically  !
 ! D23   D(1,2,3,11)            56.0746         calculate D2E/DX2 analytically  !
 ! D24   D(1,2,3,12)           -65.886          calculate D2E/DX2 analytically  !
 ! D25   D(7,2,3,6)             53.8623         calculate D2E/DX2 analytically  !
 ! D26   D(7,2,3,11)           -62.5135         calculate D2E/DX2 analytically  !
 ! D27   D(7,2,3,12)           175.5259         calculate D2E/DX2 analytically  !
 ! D28   D(13,2,3,6)           -65.6182         calculate D2E/DX2 analytically  !
 ! D29   D(13,2,3,11)          178.006          calculate D2E/DX2 analytically  !
 ! D30   D(13,2,3,12)           56.0454         calculate D2E/DX2 analytically  !
 ! D31   D(1,2,13,20)          -92.6652         calculate D2E/DX2 analytically  !
 ! D32   D(3,2,13,20)          146.7679         calculate D2E/DX2 analytically  !
 ! D33   D(7,2,13,20)           30.0988         calculate D2E/DX2 analytically  !
 ! D34   D(2,3,11,4)           -61.5968         calculate D2E/DX2 analytically  !
 ! D35   D(6,3,11,4)           179.4781         calculate D2E/DX2 analytically  !
 ! D36   D(12,3,11,4)           58.9865         calculate D2E/DX2 analytically  !
 ! D37   D(2,3,12,79)         -174.3955         calculate D2E/DX2 analytically  !
 ! D38   D(6,3,12,79)          -53.2852         calculate D2E/DX2 analytically  !
 ! D39   D(11,3,12,79)          64.1861         calculate D2E/DX2 analytically  !
 ! D40   D(9,4,5,1)             64.5896         calculate D2E/DX2 analytically  !
 ! D41   D(9,4,5,10)          -175.7549         calculate D2E/DX2 analytically  !
 ! D42   D(9,4,5,15)           -55.5598         calculate D2E/DX2 analytically  !
 ! D43   D(11,4,5,1)           -54.4303         calculate D2E/DX2 analytically  !
 ! D44   D(11,4,5,10)           65.2251         calculate D2E/DX2 analytically  !
 ! D45   D(11,4,5,15)         -174.5797         calculate D2E/DX2 analytically  !
 ! D46   D(16,4,5,1)          -173.8369         calculate D2E/DX2 analytically  !
 ! D47   D(16,4,5,10)          -54.1815         calculate D2E/DX2 analytically  !
 ! D48   D(16,4,5,15)           66.0137         calculate D2E/DX2 analytically  !
 ! D49   D(5,4,11,3)            60.262          calculate D2E/DX2 analytically  !
 ! D50   D(9,4,11,3)           -57.8764         calculate D2E/DX2 analytically  !
 ! D51   D(16,4,11,3)         -176.8953         calculate D2E/DX2 analytically  !
 ! D52   D(5,4,16,17)          -55.1766         calculate D2E/DX2 analytically  !
 ! D53   D(5,4,16,18)         -168.7209         calculate D2E/DX2 analytically  !
 ! D54   D(5,4,16,19)           69.1844         calculate D2E/DX2 analytically  !
 ! D55   D(9,4,16,17)           65.4977         calculate D2E/DX2 analytically  !
 ! D56   D(9,4,16,18)          -48.0466         calculate D2E/DX2 analytically  !
 ! D57   D(9,4,16,19)         -170.1413         calculate D2E/DX2 analytically  !
 ! D58   D(11,4,16,17)        -175.5968         calculate D2E/DX2 analytically  !
 ! D59   D(11,4,16,18)          70.8589         calculate D2E/DX2 analytically  !
 ! D60   D(11,4,16,19)         -51.2358         calculate D2E/DX2 analytically  !
 ! D61   D(1,5,10,37)          103.5855         calculate D2E/DX2 analytically  !
 ! D62   D(4,5,10,37)          -17.4748         calculate D2E/DX2 analytically  !
 ! D63   D(15,5,10,37)        -136.8868         calculate D2E/DX2 analytically  !
 ! D64   D(1,5,15,28)          108.9208         calculate D2E/DX2 analytically  !
 ! D65   D(4,5,15,28)         -129.963          calculate D2E/DX2 analytically  !
 ! D66   D(10,5,15,28)         -10.1608         calculate D2E/DX2 analytically  !
 ! D67   D(5,10,37,19)          54.5808         calculate D2E/DX2 analytically  !
 ! D68   D(5,10,37,34)         135.9278         calculate D2E/DX2 analytically  !
 ! D69   D(5,10,37,52)         -71.7997         calculate D2E/DX2 analytically  !
 ! D70   D(5,10,37,83)          -0.0706         calculate D2E/DX2 analytically  !
 ! D71   D(3,12,79,80)         175.3184         calculate D2E/DX2 analytically  !
 ! D72   D(3,12,79,81)         -65.0379         calculate D2E/DX2 analytically  !
 ! D73   D(3,12,79,82)          56.2695         calculate D2E/DX2 analytically  !
 ! D74   D(2,13,20,21)         -60.3855         calculate D2E/DX2 analytically  !
 ! D75   D(2,13,20,22)          61.2503         calculate D2E/DX2 analytically  !
 ! D76   D(2,13,20,23)        -178.7128         calculate D2E/DX2 analytically  !
 ! D77   D(1,14,24,25)         -51.9339         calculate D2E/DX2 analytically  !
 ! D78   D(1,14,24,26)          69.2469         calculate D2E/DX2 analytically  !
 ! D79   D(1,14,24,27)        -171.5981         calculate D2E/DX2 analytically  !
 ! D80   D(5,15,28,29)         -57.4502         calculate D2E/DX2 analytically  !
 ! D81   D(5,15,28,30)          64.0125         calculate D2E/DX2 analytically  !
 ! D82   D(5,15,28,31)        -176.5063         calculate D2E/DX2 analytically  !
 ! D83   D(4,16,19,37)         -12.5984         calculate D2E/DX2 analytically  !
 ! D84   D(4,16,19,38)        -154.3691         calculate D2E/DX2 analytically  !
 ! D85   D(17,16,19,37)        107.809          calculate D2E/DX2 analytically  !
 ! D86   D(17,16,19,38)        -33.9618         calculate D2E/DX2 analytically  !
 ! D87   D(18,16,19,37)       -131.5694         calculate D2E/DX2 analytically  !
 ! D88   D(18,16,19,38)         86.6599         calculate D2E/DX2 analytically  !
 ! D89   D(16,19,37,10)        -29.8428         calculate D2E/DX2 analytically  !
 ! D90   D(16,19,37,34)       -138.8856         calculate D2E/DX2 analytically  !
 ! D91   D(16,19,37,52)         83.8408         calculate D2E/DX2 analytically  !
 ! D92   D(16,19,37,83)         93.8035         calculate D2E/DX2 analytically  !
 ! D93   D(38,19,37,10)        136.0347         calculate D2E/DX2 analytically  !
 ! D94   D(38,19,37,34)         26.9919         calculate D2E/DX2 analytically  !
 ! D95   D(38,19,37,52)       -110.2817         calculate D2E/DX2 analytically  !
 ! D96   D(38,19,37,83)       -100.319          calculate D2E/DX2 analytically  !
 ! D97   D(16,19,38,33)        158.6836         calculate D2E/DX2 analytically  !
 ! D98   D(37,19,38,33)         12.015          calculate D2E/DX2 analytically  !
 ! D99   D(36,32,33,34)        -49.7823         calculate D2E/DX2 analytically  !
 ! D100  D(36,32,33,38)         63.5062         calculate D2E/DX2 analytically  !
 ! D101  D(36,32,33,44)       -172.1675         calculate D2E/DX2 analytically  !
 ! D102  D(39,32,33,34)         70.918          calculate D2E/DX2 analytically  !
 ! D103  D(39,32,33,38)       -175.7935         calculate D2E/DX2 analytically  !
 ! D104  D(39,32,33,44)        -51.4671         calculate D2E/DX2 analytically  !
 ! D105  D(45,32,33,34)       -166.7276         calculate D2E/DX2 analytically  !
 ! D106  D(45,32,33,38)        -53.4391         calculate D2E/DX2 analytically  !
 ! D107  D(45,32,33,44)         70.8873         calculate D2E/DX2 analytically  !
 ! D108  D(33,32,36,35)         60.6515         calculate D2E/DX2 analytically  !
 ! D109  D(33,32,36,41)        -58.9503         calculate D2E/DX2 analytically  !
 ! D110  D(33,32,36,46)        179.2223         calculate D2E/DX2 analytically  !
 ! D111  D(39,32,36,35)        -59.7106         calculate D2E/DX2 analytically  !
 ! D112  D(39,32,36,41)       -179.3124         calculate D2E/DX2 analytically  !
 ! D113  D(39,32,36,46)         58.8602         calculate D2E/DX2 analytically  !
 ! D114  D(45,32,36,35)        177.1642         calculate D2E/DX2 analytically  !
 ! D115  D(45,32,36,41)         57.5624         calculate D2E/DX2 analytically  !
 ! D116  D(45,32,36,46)        -64.265          calculate D2E/DX2 analytically  !
 ! D117  D(33,32,45,67)       -144.4769         calculate D2E/DX2 analytically  !
 ! D118  D(36,32,45,67)        100.0762         calculate D2E/DX2 analytically  !
 ! D119  D(39,32,45,67)        -22.7506         calculate D2E/DX2 analytically  !
 ! D120  D(32,33,34,37)       -153.5862         calculate D2E/DX2 analytically  !
 ! D121  D(32,33,34,42)         35.2009         calculate D2E/DX2 analytically  !
 ! D122  D(32,33,34,53)        -66.2918         calculate D2E/DX2 analytically  !
 ! D123  D(38,33,34,37)         89.9577         calculate D2E/DX2 analytically  !
 ! D124  D(38,33,34,42)        -81.2552         calculate D2E/DX2 analytically  !
 ! D125  D(38,33,34,53)        177.2522         calculate D2E/DX2 analytically  !
 ! D126  D(44,33,34,37)        -25.7012         calculate D2E/DX2 analytically  !
 ! D127  D(44,33,34,42)        163.0859         calculate D2E/DX2 analytically  !
 ! D128  D(44,33,34,53)         61.5933         calculate D2E/DX2 analytically  !
 ! D129  D(32,33,38,19)       -153.7589         calculate D2E/DX2 analytically  !
 ! D130  D(34,33,38,19)        -35.5248         calculate D2E/DX2 analytically  !
 ! D131  D(44,33,38,19)         77.9817         calculate D2E/DX2 analytically  !
 ! D132  D(32,33,44,63)        -69.7948         calculate D2E/DX2 analytically  !
 ! D133  D(34,33,44,63)        165.4851         calculate D2E/DX2 analytically  !
 ! D134  D(38,33,44,63)         54.0059         calculate D2E/DX2 analytically  !
 ! D135  D(33,34,37,10)       -144.6584         calculate D2E/DX2 analytically  !
 ! D136  D(33,34,37,19)        -66.2913         calculate D2E/DX2 analytically  !
 ! D137  D(33,34,37,52)         68.7726         calculate D2E/DX2 analytically  !
 ! D138  D(33,34,37,83)        -11.4468         calculate D2E/DX2 analytically  !
 ! D139  D(42,34,37,10)         27.2108         calculate D2E/DX2 analytically  !
 ! D140  D(42,34,37,19)        105.5779         calculate D2E/DX2 analytically  !
 ! D141  D(42,34,37,52)       -119.3583         calculate D2E/DX2 analytically  !
 ! D142  D(42,34,37,83)        160.4224         calculate D2E/DX2 analytically  !
 ! D143  D(53,34,37,10)        124.0727         calculate D2E/DX2 analytically  !
 ! D144  D(53,34,37,19)       -157.5602         calculate D2E/DX2 analytically  !
 ! D145  D(53,34,37,52)        -22.4963         calculate D2E/DX2 analytically  !
 ! D146  D(53,34,37,83)       -102.7157         calculate D2E/DX2 analytically  !
 ! D147  D(33,34,42,35)        -26.9204         calculate D2E/DX2 analytically  !
 ! D148  D(37,34,42,35)        161.2673         calculate D2E/DX2 analytically  !
 ! D149  D(53,34,42,35)         72.0427         calculate D2E/DX2 analytically  !
 ! D150  D(33,34,53,51)       -113.4276         calculate D2E/DX2 analytically  !
 ! D151  D(37,34,53,51)          8.5437         calculate D2E/DX2 analytically  !
 ! D152  D(42,34,53,51)        122.9166         calculate D2E/DX2 analytically  !
 ! D153  D(40,35,36,32)         64.6804         calculate D2E/DX2 analytically  !
 ! D154  D(40,35,36,41)       -176.0884         calculate D2E/DX2 analytically  !
 ! D155  D(40,35,36,46)        -55.9229         calculate D2E/DX2 analytically  !
 ! D156  D(42,35,36,32)        -52.0366         calculate D2E/DX2 analytically  !
 ! D157  D(42,35,36,41)         67.1946         calculate D2E/DX2 analytically  !
 ! D158  D(42,35,36,46)       -172.6399         calculate D2E/DX2 analytically  !
 ! D159  D(47,35,36,32)       -172.3511         calculate D2E/DX2 analytically  !
 ! D160  D(47,35,36,41)        -53.1198         calculate D2E/DX2 analytically  !
 ! D161  D(47,35,36,46)         67.0456         calculate D2E/DX2 analytically  !
 ! D162  D(36,35,42,34)         34.2742         calculate D2E/DX2 analytically  !
 ! D163  D(40,35,42,34)        -84.6332         calculate D2E/DX2 analytically  !
 ! D164  D(47,35,42,34)        158.2566         calculate D2E/DX2 analytically  !
 ! D165  D(36,35,47,48)        -66.8068         calculate D2E/DX2 analytically  !
 ! D166  D(36,35,47,49)        174.586          calculate D2E/DX2 analytically  !
 ! D167  D(36,35,47,50)         53.7772         calculate D2E/DX2 analytically  !
 ! D168  D(40,35,47,48)         55.9168         calculate D2E/DX2 analytically  !
 ! D169  D(40,35,47,49)        -62.6904         calculate D2E/DX2 analytically  !
 ! D170  D(40,35,47,50)        176.5008         calculate D2E/DX2 analytically  !
 ! D171  D(42,35,47,48)        170.3037         calculate D2E/DX2 analytically  !
 ! D172  D(42,35,47,49)         51.6965         calculate D2E/DX2 analytically  !
 ! D173  D(42,35,47,50)        -69.1123         calculate D2E/DX2 analytically  !
 ! D174  D(32,36,46,71)        118.0046         calculate D2E/DX2 analytically  !
 ! D175  D(35,36,46,71)       -121.0259         calculate D2E/DX2 analytically  !
 ! D176  D(41,36,46,71)         -2.208          calculate D2E/DX2 analytically  !
 ! D177  D(10,37,52,51)       -111.4392         calculate D2E/DX2 analytically  !
 ! D178  D(19,37,52,51)        151.7898         calculate D2E/DX2 analytically  !
 ! D179  D(34,37,52,51)         33.3522         calculate D2E/DX2 analytically  !
 ! D180  D(83,37,52,51)        141.9408         calculate D2E/DX2 analytically  !
 ! D181  D(10,37,83,84)        100.2942         calculate D2E/DX2 analytically  !
 ! D182  D(19,37,83,84)         35.8504         calculate D2E/DX2 analytically  !
 ! D183  D(34,37,83,84)        -30.0405         calculate D2E/DX2 analytically  !
 ! D184  D(52,37,83,84)       -152.973          calculate D2E/DX2 analytically  !
 ! D185  D(33,44,63,64)        -40.6371         calculate D2E/DX2 analytically  !
 ! D186  D(33,44,63,65)         80.6755         calculate D2E/DX2 analytically  !
 ! D187  D(33,44,63,66)       -159.7048         calculate D2E/DX2 analytically  !
 ! D188  D(32,45,67,68)        -56.758          calculate D2E/DX2 analytically  !
 ! D189  D(32,45,67,69)         64.7391         calculate D2E/DX2 analytically  !
 ! D190  D(32,45,67,70)       -176.3941         calculate D2E/DX2 analytically  !
 ! D191  D(36,46,71,72)        -62.0298         calculate D2E/DX2 analytically  !
 ! D192  D(36,46,71,73)         59.2298         calculate D2E/DX2 analytically  !
 ! D193  D(36,46,71,74)        178.6311         calculate D2E/DX2 analytically  !
 ! D194  D(35,47,50,75)       -179.7247         calculate D2E/DX2 analytically  !
 ! D195  D(48,47,50,75)        -61.2125         calculate D2E/DX2 analytically  !
 ! D196  D(49,47,50,75)         60.9111         calculate D2E/DX2 analytically  !
 ! D197  D(47,50,75,76)       -178.1542         calculate D2E/DX2 analytically  !
 ! D198  D(47,50,75,77)        -58.7615         calculate D2E/DX2 analytically  !
 ! D199  D(47,50,75,78)         62.3552         calculate D2E/DX2 analytically  !
 ! D200  D(43,51,52,37)       -147.4417         calculate D2E/DX2 analytically  !
 ! D201  D(53,51,52,37)        -16.6677         calculate D2E/DX2 analytically  !
 ! D202  D(54,51,52,37)         94.6741         calculate D2E/DX2 analytically  !
 ! D203  D(43,51,53,34)        142.5772         calculate D2E/DX2 analytically  !
 ! D204  D(52,51,53,34)         11.6296         calculate D2E/DX2 analytically  !
 ! D205  D(54,51,53,34)       -101.1235         calculate D2E/DX2 analytically  !
 ! D206  D(43,51,54,55)        -26.7743         calculate D2E/DX2 analytically  !
 ! D207  D(43,51,54,56)        155.4601         calculate D2E/DX2 analytically  !
 ! D208  D(52,51,54,55)         95.7049         calculate D2E/DX2 analytically  !
 ! D209  D(52,51,54,56)        -82.0607         calculate D2E/DX2 analytically  !
 ! D210  D(53,51,54,55)       -147.6974         calculate D2E/DX2 analytically  !
 ! D211  D(53,51,54,56)         34.537          calculate D2E/DX2 analytically  !
 ! D212  D(51,54,55,57)       -177.5075         calculate D2E/DX2 analytically  !
 ! D213  D(51,54,55,58)          2.7626         calculate D2E/DX2 analytically  !
 ! D214  D(56,54,55,57)          0.1654         calculate D2E/DX2 analytically  !
 ! D215  D(56,54,55,58)       -179.5645         calculate D2E/DX2 analytically  !
 ! D216  D(51,54,56,59)        177.8691         calculate D2E/DX2 analytically  !
 ! D217  D(51,54,56,60)         -2.6238         calculate D2E/DX2 analytically  !
 ! D218  D(55,54,56,59)          0.1584         calculate D2E/DX2 analytically  !
 ! D219  D(55,54,56,60)        179.6655         calculate D2E/DX2 analytically  !
 ! D220  D(54,55,57,61)         -0.5572         calculate D2E/DX2 analytically  !
 ! D221  D(54,55,57,93)        174.9119         calculate D2E/DX2 analytically  !
 ! D222  D(58,55,57,61)        179.1701         calculate D2E/DX2 analytically  !
 ! D223  D(58,55,57,93)         -5.3608         calculate D2E/DX2 analytically  !
 ! D224  D(54,56,59,61)         -0.1036         calculate D2E/DX2 analytically  !
 ! D225  D(54,56,59,97)        178.9106         calculate D2E/DX2 analytically  !
 ! D226  D(60,56,59,61)       -179.6116         calculate D2E/DX2 analytically  !
 ! D227  D(60,56,59,97)         -0.5974         calculate D2E/DX2 analytically  !
 ! D228  D(55,57,61,59)          0.6129         calculate D2E/DX2 analytically  !
 ! D229  D(55,57,61,62)       -179.8157         calculate D2E/DX2 analytically  !
 ! D230  D(93,57,61,59)       -174.8781         calculate D2E/DX2 analytically  !
 ! D231  D(93,57,61,62)          4.6934         calculate D2E/DX2 analytically  !
 ! D232  D(55,57,93,94)        -91.3661         calculate D2E/DX2 analytically  !
 ! D233  D(55,57,93,95)        149.3639         calculate D2E/DX2 analytically  !
 ! D234  D(55,57,93,96)         28.2532         calculate D2E/DX2 analytically  !
 ! D235  D(61,57,93,94)         84.2071         calculate D2E/DX2 analytically  !
 ! D236  D(61,57,93,95)        -35.0628         calculate D2E/DX2 analytically  !
 ! D237  D(61,57,93,96)       -156.1735         calculate D2E/DX2 analytically  !
 ! D238  D(56,59,61,57)         -0.2737         calculate D2E/DX2 analytically  !
 ! D239  D(56,59,61,62)       -179.8449         calculate D2E/DX2 analytically  !
 ! D240  D(97,59,61,57)       -179.3098         calculate D2E/DX2 analytically  !
 ! D241  D(97,59,61,62)          1.119          calculate D2E/DX2 analytically  !
 ! D242  D(56,59,97,98)          8.5188         calculate D2E/DX2 analytically  !
 ! D243  D(56,59,97,99)       -111.7213         calculate D2E/DX2 analytically  !
 ! D244  D(56,59,97,100)       129.9101         calculate D2E/DX2 analytically  !
 ! D245  D(61,59,97,98)       -172.4381         calculate D2E/DX2 analytically  !
 ! D246  D(61,59,97,99)         67.3218         calculate D2E/DX2 analytically  !
 ! D247  D(61,59,97,100)       -51.0469         calculate D2E/DX2 analytically  !
 ! D248  D(37,83,84,85)        154.2289         calculate D2E/DX2 analytically  !
 ! D249  D(37,83,84,89)        -23.8568         calculate D2E/DX2 analytically  !
 ! D250  D(83,84,85,86)       -117.1973         calculate D2E/DX2 analytically  !
 ! D251  D(83,84,85,87)          2.2563         calculate D2E/DX2 analytically  !
 ! D252  D(83,84,85,88)        121.8195         calculate D2E/DX2 analytically  !
 ! D253  D(89,84,85,86)         60.8728         calculate D2E/DX2 analytically  !
 ! D254  D(89,84,85,87)       -179.6735         calculate D2E/DX2 analytically  !
 ! D255  D(89,84,85,88)        -60.1103         calculate D2E/DX2 analytically  !
 ! D256  D(83,84,89,90)       -118.4151         calculate D2E/DX2 analytically  !
 ! D257  D(83,84,89,91)          1.4236         calculate D2E/DX2 analytically  !
 ! D258  D(83,84,89,92)        121.0849         calculate D2E/DX2 analytically  !
 ! D259  D(85,84,89,90)         63.0765         calculate D2E/DX2 analytically  !
 ! D260  D(85,84,89,91)       -177.0847         calculate D2E/DX2 analytically  !
 ! D261  D(85,84,89,92)        -57.4235         calculate D2E/DX2 analytically  !
 --------------------------------------------------------------------------------
 Trust Radius=5.00D-02 FncErr=1.00D-07 GrdErr=1.00D-06 EigMax=2.50D+02 EigMin=1.00D-04
 Number of steps in this run=    575 maximum allowed number of steps=    600.
 Search for a saddle point of order  1.
 GradGradGradGradGradGradGradGradGradGradGradGradGradGradGradGradGradGrad

 Leave Link  103 at Sun Jun 16 17:14:02 2019, MaxMem=  6442450944 cpu:               4.4 elap:               0.2
 (Enter /home/ekwan/sw/g16/l202.exe)
 Stoichiometry    C30H47F6NaO15S
 Framework group  C1[X(C30H47F6NaO15S)]
 Deg. of freedom   294
 Full point group                 C1      NOp   1
 Largest Abelian subgroup         C1      NOp   1
 Largest concise Abelian subgroup C1      NOp   1
                         Standard orientation:                         
 ---------------------------------------------------------------------
 Center     Atomic      Atomic             Coordinates (Angstroms)
 Number     Number       Type             X           Y           Z
 ---------------------------------------------------------------------
      1          6           0       -1.530933    1.438012    2.448647
      2          6           0       -1.902802    2.101474    1.123784
      3          6           0       -1.007968    3.325477    0.894989
      4          6           0        0.783168    2.401560    2.193841
      5          6           0       -0.032406    1.141045    2.497512
      6          1           0       -1.173272    3.727265   -0.107288
      7          1           0       -1.706126    1.410258    0.297708
      8          1           0       -1.779143    2.136135    3.253007
      9          1           0        0.598624    3.126105    2.992436
     10          1           0        0.194462    0.373574    1.752510
     11          8           0        0.352406    2.949850    0.941373
     12          8           0       -1.296737    4.278026    1.865309
     13          8           0       -3.242580    2.531263    1.114807
     14          8           0       -2.259625    0.232800    2.603162
     15          8           0        0.309705    0.678551    3.788537
     16          6           0        2.291269    2.128753    2.081065
     17          1           0        2.577729    1.637238    3.020193
     18          1           0        2.774413    3.121417    2.070882
     19          8           0        2.635563    1.391612    0.958175
     20          6           0       -4.158085    1.584549    0.583270
     21          1           0       -3.904077    1.354039   -0.455137
     22          1           0       -4.155274    0.668697    1.173644
     23          1           0       -5.140998    2.048846    0.614163
     24          6           0       -2.821399    0.081627    3.900466
     25          1           0       -2.055589    0.222798    4.663143
     26          1           0       -3.625513    0.806935    4.046658
     27          1           0       -3.221770   -0.925493    3.958357
     28          6           0        0.633333   -0.704366    3.836506
     29          1           0       -0.200183   -1.300154    3.458932
     30          1           0        1.529528   -0.915356    3.247980
     31          1           0        0.814001   -0.946348    4.881920
     32          6           0        3.555726   -1.657774   -1.475395
     33          6           0        3.085705   -0.285578   -0.991043
     34          6           0        1.781095   -0.391574   -0.231555
     35          6           0        2.067196   -2.699504    0.276102
     36          6           0        3.494430   -2.593400   -0.263358
     37          1           0        1.091167    0.421991   -0.172212
     38          1           0        3.791820    0.080317   -0.237843
     39          1           0        2.913709   -2.019091   -2.282129
     40          1           0        1.429344   -3.169574   -0.472993
     41          1           0        4.140020   -2.185986    0.518421
     42          8           0        1.495350   -1.390538    0.517649
     43          8           0       -0.443038    0.108441   -3.854763
     44          8           0        2.898065    0.694653   -1.977640
     45          8           0        4.895773   -1.541831   -1.894163
     46          8           0        3.896231   -3.892172   -0.624500
     47          6           0        1.979304   -3.464442    1.583457
     48          1           0        2.242331   -4.507139    1.384767
     49          1           0        0.950147   -3.415177    1.953871
     50          8           0        2.874296   -2.875380    2.492535
     51         16           0       -0.319605    0.005356   -2.401157
     52          8           0       -0.135152    1.304591   -1.707780
     53          8           0        0.696413   -0.993514   -1.944359
     54          6           0       -1.857851   -0.656184   -1.779775
     55          6           0       -3.030736   -0.453789   -2.489433
     56          6           0       -1.837974   -1.325218   -0.558649
     57          6           0       -4.218598   -0.939126   -1.946736
     58          1           0       -3.015260    0.063629   -3.439675
     59          6           0       -3.035922   -1.801020   -0.050700
     60          1           0       -0.909278   -1.477667   -0.022283
     61          6           0       -4.234248   -1.617491   -0.735943
     62          1           0       -5.164411   -1.991597   -0.327832
     63          6           0        4.097776    1.176175   -2.590109
     64          1           0        4.877298    1.301622   -1.838641
     65          1           0        4.434006    0.483283   -3.357155
     66          1           0        3.846779    2.137238   -3.030889
     67          6           0        5.228427   -2.354533   -3.014880
     68          1           0        5.012423   -3.400808   -2.804642
     69          1           0        4.668432   -2.031487   -3.895012
     70          1           0        6.292408   -2.219679   -3.189332
     71          6           0        5.058306   -4.348540    0.061223
     72          1           0        5.909303   -3.709233   -0.174949
     73          1           0        4.885904   -4.349035    1.139028
     74          1           0        5.246318   -5.360614   -0.285423
     75          6           0        2.879936   -3.518598    3.755960
     76          1           0        3.572995   -2.970620    4.387467
     77          1           0        1.882302   -3.499283    4.200884
     78          1           0        3.210539   -4.554872    3.654619
     79          6           0       -0.610649    5.508052    1.670535
     80          1           0       -0.975253    6.192859    2.430131
     81          1           0        0.466049    5.372275    1.778734
     82          1           0       -0.829811    5.907981    0.677765
     83         11           0        1.723536    2.490734   -0.862347
     84          8           0        3.335025    4.041547   -1.167712
     85          6           0        3.497443    5.140564   -2.046781
     86          1           0        4.365664    4.982285   -2.690520
     87          1           0        2.598124    5.206742   -2.653208
     88          1           0        3.628302    6.063576   -1.478665
     89          6           0        4.446187    3.841868   -0.302571
     90          1           0        4.568871    4.707125    0.352639
     91          1           0        4.225156    2.947725    0.279214
     92          1           0        5.355821    3.700559   -0.891588
     93          6           0       -5.525570   -0.637369   -2.632302
     94          9           0       -6.068642    0.490207   -2.144710
     95          9           0       -6.419028   -1.618168   -2.446458
     96          9           0       -5.366672   -0.466389   -3.950069
     97          6           0       -3.068785   -2.552955    1.253657
     98          9           0       -1.891764   -2.522645    1.890247
     99          9           0       -3.384377   -3.843829    1.058391
    100          9           0       -4.003858   -2.048779    2.073369
 ---------------------------------------------------------------------
 Rotational constants (GHZ):           0.0604130           0.0423167           0.0387465
 Leave Link  202 at Sun Jun 16 17:14:03 2019, MaxMem=  6442450944 cpu:               5.0 elap:               0.2
 (Enter /home/ekwan/sw/g16/l301.exe)
 Standard basis: 6-31G(d) (6D, 7F)
 Centers:      19     53     43     52
 SP 1 1.00
     Exponent=  8.4500000000D-02 Coefficients=  1.0000000000D+00  1.0000000000D+00
 ****
 Ernie: Thresh=  0.10000D-02 Tol=  0.10000D-05 Strict=F.
 There are   913 symmetry adapted cartesian basis functions of A   symmetry.
 There are   913 symmetry adapted basis functions of A   symmetry.
   913 basis functions,  1736 primitive gaussians,   913 cartesian basis functions
   214 alpha electrons      214 beta electrons
       nuclear repulsion energy      9833.0053593322 Hartrees.
 IExCor= 4033 DFT=T Ex+Corr=M06HF ExCW=0 ScaHFX=  1.000000
 ScaDFX=  1.000000  1.000000  1.000000  1.000000 ScalE2=  1.000000  1.000000
 IRadAn=      5 IRanWt=     -1 IRanGd=            0 ICorTp=0 IEmpDi=131
 NAtoms=  100 NActive=  100 NUniq=  100 SFac= 1.00D+00 NAtFMM=   60 NAOKFM=T Big=T
 Integral buffers will be    131072 words long.
 Raffenetti 2 integral format.
 Two-electron integral symmetry is turned on.
 R6Disp:  Grimme-D3 Dispersion energy=       -0.0249466342 Hartrees.
 Nuclear repulsion after empirical dispersion term =     9832.9804126980 Hartrees.
 Force inversion solution in PCM.
 ------------------------------------------------------------------------------
 Polarizable Continuum Model (PCM)
 =================================
 Model                : PCM.
 Atomic radii         : UFF (Universal Force Field).
 Polarization charges : Total charges.
 Charge compensation  : None.
 Solution method      : Matrix inversion.
 Cavity type          : Scaled VdW (van der Waals Surface) (Alpha=1.100).
 Cavity algorithm     : GePol (No added spheres)
                        Default sphere list used, NSphG=  100.
                        Lebedev-Laikov grids with approx.  5.0 points / Ang**2.
                        Smoothing algorithm: York/Karplus (Gamma=1.0000).
                        Polarization charges: spherical gaussians, with
                                              point-specific exponents (IZeta= 3).
                        Self-potential: point-specific (ISelfS= 7).
                        Self-field    : sphere-specific E.n sum rule (ISelfD= 2).
 1st derivatives      : Analytical E(r).r(x)/FMM algorithm (CHGder, D1EAlg=3).
                        Cavity 1st derivative terms included.
 2nd derivatives      : Analytical E(r).r(xy)/FMM algorithm (CHGder, D2EAlg=3).
                        Cavity 2nd derivative terms included.
[...]
 09145,0.00015596,0.00000379,0.00008962,-0.00004418,-0.00003529,-0.0000
 8167,0.00003679,-0.00000367,0.00007907,-0.00013663,0.00003664,-0.00004
 543,0.00014871,-0.00006701,0.00342561,0.00103885,-0.00123086,-0.000906
 02,-0.00093120,-0.00002047,-0.00154283,0.00029859,-0.00008076,-0.00084
 206,0.00071156,0.00199502,-0.00030775,-0.00076030,0.00052206,0.0032657
 9,-0.00209640,0.00276305,0.00009271,0.00076731,0.00103502,0.00008479,-
 0.00009922,-0.00014620,-0.01352235,-0.03852557,0.00077334,0.00042016,-
 0.00069801,-0.00071587,-0.00231580,0.00024393,0.00083375,0.00065187,-0
 .00094708,-0.00043566,0.00011419,0.00005039,-0.00008045,-0.00002190,-0
 .00000630,-0.00000050,-0.00001912,0.00000161,0.00001700,-0.00000033,-0
 .00000873,0.00000573,0.00002119,-0.00005892,-0.00006354,-0.00000176,0.
 00001197,0.00000255,0.00000142,0.00000179,0.00000475,-0.00000879,0.000
 00567,0.00001014,0.00004963,-0.00003286,0.00003532,-0.00000252,0.00000
 450,-0.00000657,-0.00000254,-0.00000744,-0.00000863,-0.00001752,0.0000
 1325,0.00000241,0.00002722,-0.00007136,0.00008303,0.00000636,0.0000064
 8,-0.00000839,0.00000304,-0.00002301,-0.00000306,-0.00002293,0.0000235
 4,0.00000002,0.00008326,0.00017058,-0.00003133,-0.00000543,-0.00003490
 ,-0.00001045,-0.00002094,-0.00001211,0.00000627,-0.00001058,-0.0000183
 1,0.00001682,0.00019553,0.00015811,-0.00001693,-0.00005612,-0.00003948
 ,0.00000919,0.00001472,0.00003228,-0.00002591,-0.00000791,-0.00000140,
 0.00000613,0.00000114,0.00000378,-0.00000353,-0.00000217,-0.00000704,-
 0.00000060,0.00003137,0.00000053,0.00001503,-0.00000188,-0.00000708,-0
 .00000244,0.00002541,0.00000540,-0.00000427,-0.00000995,-0.00000298,0.
 00000885,-0.00225510,0.00004338,-0.00100283,0.00067399,-0.00041124,0.0
 0011051,0.00076233,0.00030395,0.00020551,0.00051428,-0.00012473,0.0007
 2867,-0.05148240,-0.30177883,-0.00836876,-0.03530812,-0.01661383,-0.02
 019781,0.08042963,0.41309354,0.00025062,0.00036831,-0.00022320,-0.0000
 0906,-0.00007117,-0.00024912,-0.00000900,-0.00002906,0.00000844,-0.000
 04590,0.00008561,-0.00008040,-0.00000348,-0.00001897,-0.00010779,-0.00
 000942,-0.00002882,0.00001126,-0.00001693,-0.00004718,0.00001269,-0.00
 004662,-0.00007530,0.00003007,-0.00000435,-0.00000155,0.00001111,-0.00
 000199,0.00002727,-0.00001267,0.00002695,-0.00000916,0.00010323,0.0000
 1258,0.00002617,0.00004590,0.00002450,0.00005734,0.00019927,-0.0001722
 6,-0.00064315,0.00016273,-0.00005903,-0.00021077,0.00010164,0.00004897
 ,-0.00004287,-0.00007136,0.00001049,0.00000361,0.00002160,-0.00001804,
 0.00000911,0.00001899,0.00001247,0.00009187,0.00015788,0.00001338,0.00
 005423,-0.00028564,0.00000814,-0.00013773,0.00008842,-0.00001916,0.000
 08507,-0.00009588,-0.00001269,0.00001529,0.00005525,0.00003814,0.00044
 488,0.00001059,-0.00005538,-0.00010855,0.00000157,0.00001355,-0.000092
 98,0.00000573,-0.00003084,-0.00006649,0.00038948,0.00019866,0.00026314
 ,0.00004008,-0.00000260,-0.00002331,0.00007604,-0.00005219,-0.00003385
 ,-0.00001949,-0.00003851,-0.00003048,-0.00002378,-0.00004975,0.0000171
 6,-0.00001123,-0.00000071,0.00001411,0.00002689,-0.00033721,-0.0001024
 6,-0.00053424,-0.00008629,0.00009197,-0.00007546,-0.00000486,0.0000023
 5,0.00000085,-0.00001076,-0.00000007,-0.00000477,0.00001776,-0.0000040
 9,-0.00002410,-0.00000972,0.00001296,0.00001637,-0.00000392,0.00001266
 ,0.00000028,0.00001032,0.00000037,-0.00000242,0.00010466,-0.00015589,0
 .00021779,0.00051652,0.00028257,-0.00058945,0.00008083,0.00002072,0.00
 000757,0.00004152,-0.00001472,0.00000596,0.00003529,-0.00003611,0.0000
 2607,0.00012529,0.00002494,-0.00009534,-0.00002093,0.00000318,0.000016
 87,0.00002916,-0.00003939,0.00002981,-0.00006480,-0.00000807,0.0000737
 0,-0.00185705,-0.00075822,0.00036617,0.00047837,0.00056477,0.00013573,
 0.00086576,-0.00006803,0.00020157,-0.00002806,-0.00069976,-0.00175707,
 0.00078588,0.00061689,-0.00047696,-0.00235993,0.00067889,-0.00044184,0
 .00024766,-0.00083177,0.00027059,-0.00000679,0.00003316,0.00010486,0.0
 0809868,0.03060362,0.00668119,0.00012888,0.00064824,0.00014919,0.00067
 296,0.00030890,-0.00089365,-0.00006921,0.00018671,0.00003886,-0.000040
 62,-0.00002461,0.00002440,0.00001142,0.00000272,0.00000151,0.00000444,
 0.00000107,-0.00000424,-0.00000164,0.00000136,-0.00000275,-0.00001022,
 0.00000850,0.00000329,-0.00000152,-0.00000079,-0.00000323,-0.00000105,
 -0.00000393,0.00000350,0.00000537,-0.00000002,-0.00000153,-0.00002340,
 0.00001103,-0.00002614,0.00000258,0.,0.00000246,0.00000469,-0.00000121
 ,0.00000713,0.00000224,-0.00000154,0.00000065,0.00004977,0.00000238,-0
 .00004007,-0.00000546,-0.00000348,0.00000469,-0.00001278,-0.00000031,0
 .00001379,-0.00000607,0.00000302,0.00000510,-0.00000468,0.00000352,-0.
 00000224,0.00000004,0.00000462,0.00000108,0.00000133,0.00000060,-0.000
 00166,0.00000165,-0.00000328,0.00000322,-0.00007096,-0.00007891,-0.000
 06596,0.00001862,0.00001094,0.00001654,-0.00000485,-0.00000648,-0.0000
 0131,0.00000022,-0.00000018,-0.00000071,0.00000141,-0.00000366,0.00000
 148,0.00000129,0.00000291,0.00000204,-0.00001370,0.00000134,-0.0000147
 3,0.00000235,0.00000446,0.00000194,-0.00000266,-0.00000284,-0.00000205
 ,0.00000176,-0.00000057,0.00000099,0.00115169,-0.00032814,0.00047557,-
 0.00035861,0.00028802,-0.00002647,-0.00037120,-0.00004908,-0.00010531,
 -0.00026559,0.00010694,-0.00031419,-0.00342275,-0.00890445,-0.08023046
 ,-0.02431762,-0.03089510,-0.00068376,0.01251258,0.05649211,0.08356267,
 -0.00005790,-0.00015563,-0.00011024,-0.00029872,0.00017189,0.00012424,
 -0.00009432,0.00007419,0.00001001,0.00005268,0.00002702,-0.00004471,-0
 .00009074,0.00020922,0.00005016,0.00000675,0.00000231,0.00000004,0.000
 00844,0.00003336,-0.00003243,-0.00003875,-0.00004954,0.00001521,-0.000
 00867,-0.00002943,-0.00000393,0.00006399,-0.00000567,-0.00003790,0.000
 08229,-0.00008918,0.00000346,0.00003757,-0.00007415,-0.00003626,0.0004
 8173,0.00024080,-0.00008532,0.00038520,-0.00082469,-0.00044332,0.00006
 307,-0.00036843,-0.00005009,-0.00002553,0.00005350,0.00008538,0.000012
 75,0.00000063,-0.00001593,-0.00000595,-0.00003878,-0.00001702,-0.00007
 116,-0.00019258,-0.00014277,-0.00018936,-0.00078327,0.00048372,0.00001
 482,0.00019897,-0.00014055,-0.00020775,-0.00029842,-0.00003365,0.00001
 477,0.00005450,-0.00007065,-0.00030126,-0.00111451,0.00012864,0.000117
 47,0.00022167,-0.00002891,-0.00003110,-0.00018107,-0.00016237,-0.00110
 072,-0.00067099,-0.00160702,0.00026754,0.00046711,0.00009659,-0.000017
 60,0.00003624,0.00021858,-0.00002454,-0.00002420,-0.00002323,-0.000083
 00,-0.00006396,-0.00006817,0.00005585,0.00000115,-0.00004706,0.0000198
 1,0.00004074,-0.00005721,0.00035769,0.00046463,0.00010828,0.00011401,-
 0.00005502,-0.00003436,0.00010473,-0.00007037,-0.00002140,-0.00000031,
 0.00001511,-0.00001254,-0.00000867,0.00000617,0.00003193,0.00000434,-0
 .00000724,-0.00001158,0.00002590,-0.00002417,-0.00004312,-0.00001463,0
 .00000604,0.00000222,-0.00029853,-0.00020778,0.00013912,-0.00032804,-0
 .00020377,0.00058021,-0.00011133,-0.00008440,0.00006350,-0.00011217,0.
 00001044,0.00007920,-0.00011931,0.00007083,0.00000990,0.00041835,0.000
 07442,-0.00003561,-0.00007041,0.00000946,0.00001744,0.00006469,-0.0001
 2549,0.00015038,-0.00024591,-0.00000549,-0.00017042,0.00125153,0.00072
 331,-0.00053649,-0.00033139,-0.00053800,-0.00008286,-0.00055597,-0.000
 09023,0.00007794,-0.00009474,-0.00073772,-0.00036911,0.00037201,-0.000
 05423,0.00037540,0.00083843,-0.00085318,0.00171762,0.00058953,-0.00125
 616,0.00049533,0.00008509,0.00013869,0.00002158,-0.00634806,0.00767765
 ,0.01629365,0.00049948,0.00082826,-0.00024897,-0.00204982,-0.00096033,
 -0.00095829,0.00090202,0.00084649,0.00081369,0.00007805,0.00004247,-0.
 00004520,-0.00001368,-0.00000156,-0.00000147,-0.00001119,0.00000131,0.
 00000675,-0.00000228,-0.00000900,0.00000693,0.00002104,-0.00002904,-0.
 00004847,0.00000445,0.00000168,0.00000255,0.00000417,0.00000473,0.0000
 0540,-0.00001168,0.00000189,0.00000721,0.00008138,-0.00003135,0.000032
 57,-0.00001368,-0.00000382,-0.00000184,0.00000427,-0.00000327,-0.00000
 410,-0.00000625,0.00001026,-0.00000107,0.00005692,-0.00007698,0.000111
 43,-0.00001836,-0.00000167,-0.00001796,0.00000284,0.00001122,0.0000145
 7,-0.00000361,0.00002125,-0.00000569,-0.00000250,0.00001753,-0.0000015
 3,-0.00000026,-0.00000762,-0.00000367,0.00000454,0.00000154,0.00000220
 ,-0.00000233,-0.00000114,0.00000219,0.00005308,0.00012323,0.00001481,-
 0.00001284,-0.00003351,0.00000238,0.00000216,0.00002220,-0.00001233,-0
 .00000103,-0.00000170,0.00000227,0.00000037,0.00000228,0.00000130,-0.0
 0000240,-0.00000567,-0.00000128,0.00000748,0.00000758,0.00000599,-0.00
 000116,-0.00000694,-0.00000113,0.00001233,0.00000618,-0.00000010,-0.00
 000161,-0.00000087,0.00000227,-0.00113697,0.00014364,-0.00001932,0.000
 34980,-0.00025112,-0.00005825,0.00035994,0.00009786,0.00000767,0.00025
 513,-0.00007275,0.00020672,-0.18103425,0.05066970,0.10993711,-0.074787
 75,0.02255565,0.01794240,0.00850940,0.01878630,0.00778135,0.25328034,0
 .00054249,0.00079902,-0.00060385,0.00011404,-0.00000801,-0.00006978,0.
 00023854,0.00021991,0.00003307,-0.00008714,0.00016253,0.00001167,0.000
 15680,-0.00027516,0.00006926,-0.00002984,-0.00006031,0.00001336,0.0000
 2959,0.00003747,-0.00001610,-0.00016093,-0.00018285,0.00005721,0.00000
 417,-0.00000781,-0.00000419,0.00000833,0.00000959,0.00001520,-0.000164
 62,-0.00006961,-0.00000885,-0.00009592,-0.00023330,-0.00001493,-0.0004
 0560,-0.00055185,0.00003895,-0.00144338,-0.00173309,-0.00026309,-0.000
 24405,0.00024716,-0.00008732,0.00010523,-0.00009176,-0.00002282,-0.000
 00496,0.00000850,-0.00000424,-0.00004929,-0.00000835,0.00001279,-0.000
 10260,0.00006802,0.00006848,0.00020519,0.00096310,-0.00045562,-0.00001
 162,-0.00014057,0.00015116,-0.00014791,0.00046914,-0.00011679,0.000047
 80,-0.00020766,0.00011137,-0.00060774,0.00068564,-0.00065038,-0.000223
 47,-0.00060267,-0.00003563,0.00016807,-0.00023699,0.00000337,-0.000600
 75,-0.00150111,-0.00049773,0.00002403,-0.00028381,0.00001889,0.0000424
 0,-0.00006219,-0.00004777,-0.00001630,0.00001479,0.00000360,0.00000547
 ,0.00002993,-0.00001178,0.00001373,-0.00003002,0.00000575,0.00001072,-
 0.00001042,-0.00001117,0.00005499,-0.00016063,0.00013883,0.00002460,-0
 .00014515,0.00001321,-0.00001175,0.00000604,0.00000868,0.00002961,-0.0
 0001114,-0.00001526,-0.00000087,-0.00000528,-0.00000006,0.00000241,-0.
 00000510,-0.00000080,-0.00001302,-0.00000084,0.00002011,0.00000643,0.0
 0000018,0.00000032,-0.00001307,0.00022969,-0.00010377,-0.00014848,0.00
 000441,0.00018698,-0.00003145,0.00002178,0.00000655,-0.00000313,0.0000
 2734,-0.00000025,0.00000871,0.00003242,-0.00000439,-0.00014075,-0.0000
 4864,0.00000262,0.00000406,0.00000901,-0.00000951,0.00000019,0.0000049
 5,-0.00003451,0.00008359,0.00006418,0.00003627,0.00070813,-0.00011588,
 -0.00026158,-0.00022256,-0.00002689,0.00007045,-0.00028775,0.00013938,
 -0.00005475,0.00057038,-0.00097808,0.00038671,-0.00072084,-0.00022753,
 0.00023165,0.00075534,0.00072128,-0.00055284,-0.00005351,0.00016599,-0
 .00070131,-0.00002953,0.00003333,-0.00001587,-0.00576070,0.01081211,0.
 00885099,-0.00015278,0.00023076,0.00020782,0.00020851,-0.00030868,0.00
 120092,-0.00020954,-0.00023626,0.00007375,0.00001531,0.00000308,-0.000
 01427,-0.00000257,-0.00000195,-0.00000003,-0.00000305,0.00000057,0.000
 00427,0.00000099,-0.00000020,-0.00000104,0.00000060,-0.00001103,-0.000
 00608,-0.00000202,0.00000377,0.00000033,-0.00000087,-0.00000086,-0.000
 00035,0.00000070,0.00000122,0.00000113,-0.00001028,-0.00000131,0.00000
 266,0.00000396,0.00000289,-0.00000211,-0.00000305,-0.00000144,-0.00000
 209,-0.00000385,0.00000114,0.00000127,-0.00001743,0.00000119,-0.000004
 87,0.00001127,0.00000262,0.00000344,0.00000143,-0.00001426,-0.00000828
 ,-0.00000615,0.00000092,0.00000212,0.00005856,0.00011387,-0.00001862,-
 0.00000426,-0.00002032,-0.00000561,-0.00001691,-0.00001017,0.00000307,
 -0.00000681,-0.00001441,0.00001149,0.00007020,0.00000798,-0.00004743,-
 0.00002219,-0.00000497,0.00000739,0.00000602,0.00000729,-0.00000899,-0
 .00000373,-0.00000008,0.00000239,0.00000071,0.00000030,-0.00000218,0.0
 0000025,-0.00000092,0.00000046,0.00001135,-0.00000206,0.00000336,0.000
 00011,-0.00000003,-0.00000060,0.00000874,-0.00000061,-0.00000310,-0.00
 000448,-0.00000151,0.00000430,-0.00035827,-0.00007678,-0.00033143,0.00
 008079,0.00000853,0.00007530,0.00013766,0.00007278,0.00005892,0.000070
 48,-0.00000007,0.00013532,0.05006472,-0.09820710,-0.04830374,0.0170835
 1,0.00717245,-0.00115864,0.03531812,-0.05272482,-0.04790303,-0.0944572
 5,0.13604427,0.00064246,0.00087117,-0.00043012,-0.00004601,-0.00014143
 ,-0.00043178,0.00011735,-0.00002679,0.00002539,-0.00013650,0.00018041,
 -0.00010366,0.00011213,-0.00024063,-0.00015829,-0.00003253,-0.00007106
 ,0.00002283,0.00000289,-0.00006774,0.00003408,-0.00010854,-0.00009860,
 0.00008691,0.00000133,0.00001152,0.00001845,-0.00003673,0.00004372,0.0
 0000983,-0.00003382,0.00001435,0.00015703,-0.00002531,-0.00000289,0.00
 008736,-0.00004173,0.00003111,0.00037308,-0.00061801,-0.00061211,0.000
 67748,-0.00026302,0.00003501,0.00017528,0.00012118,-0.00012686,-0.0001
 5259,0.00000830,0.00000744,0.00003853,-0.00004234,0.00003010,0.0000408
 4,0.00002379,0.00025425,0.00032955,0.00004320,0.00032391,-0.00057942,-
 0.00000844,-0.00023482,0.00019011,0.00005475,0.00005717,-0.00030055,-0
 .00001116,0.00000041,0.00009352,0.00007651,0.00196858,-0.00234604,-0.0
 0037940,-0.00104857,0.00007707,0.00001938,-0.00056735,0.00010773,-0.00
 128317,-0.00259859,-0.00012514,0.00010848,-0.00008690,0.00001847,0.000
 05616,-0.00006729,-0.00007874,-0.00005918,-0.00002190,-0.00000777,0.00
 001479,0.00001525,0.00000975,-0.00009201,0.00002120,0.00001551,-0.0000
 1104,0.00000256,0.00006513,-0.00065986,-0.00043840,-0.00079879,-0.0001
 7108,0.00015781,-0.00006919,-0.00006539,0.00004314,0.00000916,-0.00001
 194,-0.00000960,-0.00001242,0.00003136,-0.00001104,-0.00005197,-0.0000
 1385,0.00002270,0.00002835,-0.00001785,0.00003370,0.00002576,0.0000206
 4,-0.00000356,-0.00000403,0.00031633,-0.00007329,0.00021136,0.00087028
 ,0.00038216,-0.00121714,0.00017272,0.00007477,-0.00002111,0.00011463,-
 0.00002515,-0.00003736,0.00010768,-0.00008426,0.00002488,-0.00006820,-
 0.00001204,-0.00011462,0.00001213,-0.00000119,0.00001440,-0.00000440,0
 .00001440,-0.00001839,0.00005642,0.00000551,0.00018476,-0.00357438,-0.
 00116206,0.00094183,0.00098327,0.00121617,0.00032104,0.00154775,-0.000
 08575,0.00021172,0.00086021,0.00241889,-0.00077256,0.00078381,0.000537
 03,-0.00078540,-0.00376111,0.00071858,-0.00501215,-0.00003843,0.000240
 53,0.00041214,-0.00003600,-0.00011030,0.00003950,0.03772051,-0.0123388
 2,-0.02960496,-0.00002751,-0.00073401,-0.00021418,0.00157914,0.0009378
 3,-0.00018274,-0.00026239,-0.00035363,-0.00105694,-0.00009558,-0.00005
 604,0.00005773,0.00002338,0.00000445,0.00000204,0.00001264,0.00000103,
 -0.00000926,-0.00000086,0.00000668,-0.00000780,-0.00002392,0.00002791,
 0.00003214,-0.00000373,-0.00000238,-0.00000504,-0.00000345,-0.00000693
 ,0.00000099,0.00001274,-0.00000150,-0.00000617,-0.00007176,0.00002950,
 -0.00004885,0.00001043,0.00000212,0.00000353,0.00000320,-0.00000011,0.
 00001052,0.00000644,-0.00000752,0.00000190,0.00002937,0.00004111,-0.00
 010422,0.00000642,-0.00000292,0.00001495,-0.00001660,-0.00001117,0.000
 00718,-0.00000776,-0.00000618,0.00001038,0.00001294,0.00003126,-0.0000
 0791,-0.00000145,0.00000445,0.00000130,-0.00000472,-0.00000270,-0.0000
 0271,0.00000103,-0.00000930,0.00000784,-0.00012063,-0.00017715,-0.0001
 2447,0.00002796,0.00003084,0.00002457,-0.00000652,-0.00001805,0.000002
 13,0.00000007,0.00000054,-0.00000148,0.00000200,-0.00000621,0.00000099
 ,0.00000319,0.00000665,0.00000343,-0.00002097,-0.00000170,-0.00002338,
 0.00000418,0.00000978,0.00000310,-0.00000694,-0.00000742,-0.00000400,0
 .00000229,-0.00000080,0.00000166,0.00219519,-0.00054888,0.00074869,-0.
 00067759,0.00052680,-0.00001379,-0.00072512,-0.00014265,-0.00015625,-0
 .00047026,0.00017112,-0.00057588,0.10506800,-0.04645951,-0.19127300,-0
 .00006228,0.00234055,0.02093653,0.01254303,-0.03511270,-0.00645165,-0.
 15228263,0.09013227,0.21655345\\-0.00000030,0.00000283,-0.00000223,0.0
 0000068,0.00000172,-0.00000235,0.00000032,0.00000111,-0.00000325,0.000
 00060,0.00000126,-0.00000203,-0.00000031,0.00000235,-0.00000055,0.0000
 0136,0.00000033,-0.00000396,0.00000043,0.00000033,-0.00000238,-0.00000
 046,0.00000331,-0.00000261,-0.00000025,0.00000272,-0.00000245,-0.00000
 061,0.00000151,-0.00000038,0.00000038,0.00000070,-0.00000265,0.0000007
 6,0.00000173,-0.00000459,0.00000034,0.00000158,-0.00000361,-0.00000080
 ,0.00000261,-0.00000085,-0.00000085,0.00000341,-0.00000109,-0.00000059
 ,0.00000028,-0.00000133,-0.00000062,0.00000165,-0.00000044,0.00000054,
 0.00000120,-0.00000158,0.00000141,-0.00000088,-0.00000075,0.00000073,0
 .00000214,-0.00000340,0.00000046,0.00000042,-0.00000301,-0.00000014,0.
 00000133,-0.00000208,0.00000031,0.00000207,-0.00000382,-0.00000133,0.0
 0000459,-0.00000130,-0.00000182,0.00000460,-0.00000120,-0.00000121,0.0
 0000454,-0.00000221,-0.00000165,0.00000432,-0.00000054,-0.00000153,0.0
 0000339,0.00000033,-0.00000165,0.00000308,0.00000084,-0.00000136,0.000
 00252,0.00000112,-0.00000198,0.00000385,0.00000153,-0.00000008,-0.0000
 0293,0.00000236,-0.00000045,-0.00000147,0.00000143,-0.00000028,-0.0000
 0045,0.00000160,-0.00000085,-0.00000041,0.00000286,-0.00000090,-0.0000
 0099,0.00000343,0.00000041,-0.00000105,0.00000019,-0.00000039,-0.00000
 195,0.00000167,0.00000020,-0.00000286,0.00000295,-0.00000078,-0.000000
 95,0.00000331,-0.00000074,-0.00000103,0.00000338,-0.00000077,0.0000006
 7,0.00000092,0.00000130,-0.00000315,-0.00000095,0.00000120,-0.00000336
 ,0.00000027,0.00000058,-0.00000366,0.00000263,-0.00000096,-0.00000185,
 0.00000458,-0.00000127,0.00000097,0.00000390,-0.00000188,0.00000039,0.
 00000474,-0.00000202,0.00000124,0.00000336,-0.00000197,0.00000107,0.00
 000306,0.00000172,-0.00000213,0.00000053,0.00000123,-0.00000133,-0.000
 00112,0.00000089,-0.00000228,0.00000057,-0.00000007,-0.00000056,-0.000
 00041,0.00000098,-0.00000159,-0.00000127,0.00000007,0.00000023,0.00000
 042,0.00000090,0.00000002,-0.00000035,0.00000132,-0.00000222,-0.000000
 94,-0.00000065,0.00000077,0.00000095,-0.00000024,0.00000020,0.00000084
 ,-0.00000080,0.00000093,-0.00000040,-0.00000012,0.00000138,-0.00000035
 ,0.00000138,-0.00000338,0.00000102,0.00000107,-0.00000315,0.00000041,0
 .00000152,-0.00000471,0.00000082,0.00000178,-0.00000394,-0.00000067,0.
 00000086,-0.00000354,0.00000427,-0.00000016,-0.00000463,0.00000483,0.0
 0000076,-0.00000502,0.00000335,0.00000031,-0.00000489,0.00000423,-0.00
 000097,-0.00000142,0.00000519,-0.00000126,-0.00000225,0.00000552,-0.00
 000164,-0.00000090,0.00000585,-0.00000156,-0.00000192,0.00000656,-0.00
 000282,0.00000298,0.00000460,-0.00000243,0.00000242,0.00000375,-0.0000
 0238,0.00000295,0.00000351,-0.00000258,0.00000196,0.00000508,0.0000019
 7,0.00000142,-0.00000533,0.00000096,0.00000261,-0.00000577,0.00000066,
 0.00000137,-0.00000473,0.00000157,0.00000085,-0.00000570,0.00000059,-0
 .00000102,-0.00000285,0.00000174,-0.00000271,-0.00000168,0.00000238,-0
 .00000324,-0.00000358,0.00000261,-0.00000379,-0.00000311,0.00000277,-0
 .00000314,-0.00000361,0.00000276,-0.00000250,-0.00000419,0.00000119,-0
 .00000260,-0.00000162,0.00000145,-0.00000140,-0.00000272,0.00000084,0.
 00000094,-0.00000078,0.00000192,-0.00000268,-0.00000168,0.00000022,-0.
 00000093,-0.00000151,0.00000120,-0.00000007,-0.00000257,0.00000075,0.0
 0000011,-0.00000114,0.00000149,-0.00000192,-0.00000173,-0.00000056,0.0
 0000146,0.00000055,-0.00000173,0.00000206,0.00000135,-0.00000152,0.000
 00227,0.00000205,-0.00000160,0.00000410,0.00000070\\\@


 THERE'S NOTHING SO GREAT AS THE GREAT OUTDOORS.

                                       -- ZIGGY
 Job cpu time:       8 days 15 hours  1 minutes 57.1 seconds.
 Elapsed time:       0 days  6 hours 37 minutes 33.3 seconds.
 File lengths (MBytes):  RWF=   9941 Int=      0 D2E=      0 Chk=     87 Scr=      1
 Normal termination of Gaussian 16 at Mon Jun 17 06:41:27 2019.
