 Entering Gaussian System, Link 0=g16
 Input=clay_new-glu_gluC6-BCDR-Na2_1Me2O-bisCF3-ts-b3lyp_d3bj-custom-pcm_thf.gjf
 Output=clay_new-glu_gluC6-BCDR-Na2_1Me2O-bisCF3-ts-b3lyp_d3bj-custom-pcm_thf.out
 Initial command:
 /home/ekwan/sw/g16/l1.exe "/scratch/users/ekwan/clay_new-glu_gluC6-BCDR-Na2_1Me2O-bisCF3-ts-b3lyp_d3bj-custom-pcm_thf/Gau-39701.inp" -scrdir="/scratch/users/ekwan/clay_new-glu_gluC6-BCDR-Na2_1Me2O-bisCF3-ts-b3lyp_d3bj-custom-pcm_thf/"
 Entering Link 1 = /home/ekwan/sw/g16/l1.exe PID=     39702.
  
 Copyright (c) 1988,1990,1992,1993,1995,1998,2003,2009,2016,
            Gaussian, Inc.  All Rights Reserved.
  
 This is part of the Gaussian(R) 16 program.  It is based on
 the Gaussian(R) 09 system (copyright 2009, Gaussian, Inc.),
 the Gaussian(R) 03 system (copyright 2003, Gaussian, Inc.),
 the Gaussian(R) 98 system (copyright 1998, Gaussian, Inc.),
 the Gaussian(R) 94 system (copyright 1995, Gaussian, Inc.),
 the Gaussian 92(TM) system (copyright 1992, Gaussian, Inc.),
 the Gaussian 90(TM) system (copyright 1990, Gaussian, Inc.),
 the Gaussian 88(TM) system (copyright 1988, Gaussian, Inc.),
 the Gaussian 86(TM) system (copyright 1986, Carnegie Mellon
 University), and the Gaussian 82(TM) system (copyright 1983,
 Carnegie Mellon University). Gaussian is a federally registered
 trademark of Gaussian, Inc.
  
 This software contains proprietary and confidential information,
 including trade secrets, belonging to Gaussian, Inc.
  
 This software is provided under written license and may be
 used, copied, transmitted, or stored only in accord with that
 written license.
  
 The following legend is applicable only to US Government
 contracts under FAR:
  
                    RESTRICTED RIGHTS LEGEND
  
 Use, reproduction and disclosure by the US Government is
 subject to restrictions as set forth in subparagraphs (a)
 and (c) of the Commercial Computer Software - Restricted
 Rights clause in FAR 52.227-19.
  
 Gaussian, Inc.
 340 Quinnipiac St., Bldg. 40, Wallingford CT 06492
  
  
 ---------------------------------------------------------------
 Warning -- This program may not be used in any manner that
 competes with the business of Gaussian, Inc. or will provide
 assistance to any competitor of Gaussian, Inc.  The licensee
 of this program is prohibited from giving any competitor of
 Gaussian, Inc. access to this program.  By using this program,
 the user acknowledges that Gaussian, Inc. is engaged in the
 business of creating and licensing software in the field of
 computational chemistry and represents and warrants to the
 licensee that it is not a competitor of Gaussian, Inc. and that
 it will not use this program in any manner prohibited above.
 ---------------------------------------------------------------
  

 Cite this work as:
 Gaussian 16, Revision A.03,
 M. J. Frisch, G. W. Trucks, H. B. Schlegel, G. E. Scuseria, 
 M. A. Robb, J. R. Cheeseman, G. Scalmani, V. Barone, 
 G. A. Petersson, H. Nakatsuji, X. Li, M. Caricato, A. V. Marenich, 
 J. Bloino, B. G. Janesko, R. Gomperts, B. Mennucci, H. P. Hratchian, 
 J. V. Ortiz, A. F. Izmaylov, J. L. Sonnenberg, D. Williams-Young, 
 F. Ding, F. Lipparini, F. Egidi, J. Goings, B. Peng, A. Petrone, 
 T. Henderson, D. Ranasinghe, V. G. Zakrzewski, J. Gao, N. Rega, 
 G. Zheng, W. Liang, M. Hada, M. Ehara, K. Toyota, R. Fukuda, 
 J. Hasegawa, M. Ishida, T. Nakajima, Y. Honda, O. Kitao, H. Nakai, 
 T. Vreven, K. Throssell, J. A. Montgomery, Jr., J. E. Peralta, 
 F. Ogliaro, M. J. Bearpark, J. J. Heyd, E. N. Brothers, K. N. Kudin, 
 V. N. Staroverov, T. A. Keith, R. Kobayashi, J. Normand, 
 K. Raghavachari, A. P. Rendell, J. C. Burant, S. S. Iyengar, 
 J. Tomasi, M. Cossi, J. M. Millam, M. Klene, C. Adamo, R. Cammi, 
 J. W. Ochterski, R. L. Martin, K. Morokuma, O. Farkas, 
 J. B. Foresman, and D. J. Fox, Gaussian, Inc., Wallingford CT, 2016.
 
 ******************************************
 Gaussian 16:  AS64L-G16RevA.03 25-Dec-2016
                16-Jun-2019 
 ******************************************
 %mem=48GB
 %nprocshared=32
 Will use up to   32 processors via shared memory.
 ----------------------------------------------------------------------
 #p opt=(ts,noeigentest,calcfc,maxstep=5) freq=noraman b3lyp 6-31g* pop
 =none extrabasis scrf=(solvent=tetrahydrofuran,pcm) empiricaldispersio
 n=gd3bj
 ----------------------------------------------------------------------
 1/5=1,8=5,10=4,11=1,18=20,26=3,38=1/1,3;
 2/9=110,12=2,17=6,18=5,40=1/2;
 3/5=1,6=6,7=1,10=1,11=2,25=1,30=1,70=2201,71=2,72=20,74=-5,124=41,140=1/1,2,3;
 4//1;
 5/5=2,38=5,53=20/2;
 8/6=4,10=90,11=11/1;
 11/6=1,8=1,9=11,15=111,16=1/1,2,10;
 10/6=1,13=1/2;
 7/10=1,18=20,25=1/1,2,3,16;
 1/5=1,8=5,10=4,11=1,18=20,26=3/3(2);
 2/9=110/2;
 99//99;
 2/9=110/2;
 3/5=7,6=1,7=1,11=2,25=1,30=1,70=2205,71=1,72=20,74=-5,82=7,124=41/1,2,3;
 4/5=5,16=3,69=1/1;
 5/5=2,38=5,53=20/2;
 7//1,2,3,16;
 1/5=1,8=5,11=1,18=20,26=3/3(-5);
 2/9=110/2;
 99/9=1/99;
 Leave Link    1 at Sun Jun 16 11:40:36 2019, MaxMem=  6442450944 cpu:               3.6 elap:               0.1
 (Enter /home/ekwan/sw/g16/l101.exe)
 -----
 title
 -----
 Symbolic Z-matrix:
 Charge =  0 Multiplicity = 1
 6                    -1.83857   1.42802   2.23779 
 6                    -2.16176   2.26544   0.99906 
 6                    -1.33286   3.55215   0.99089 
 6                     0.4449    2.53154   2.26356 
 6                    -0.32897   1.21097   2.35308 
 1                    -1.45413   4.08016   0.03521 
 1                    -1.87006   1.70125   0.10485 
 1                    -2.1978    1.9656    3.1246 
 1                     0.18328   3.14332   3.13645 
 1                    -0.02771   0.55824   1.5276 
 8                     0.05246   3.24288   1.06258 
 8                    -1.74654   4.36254   2.05291 
 8                    -3.53556   2.61594   0.94317 
 8                    -2.51702   0.17973   2.11814 
 8                    -0.03819   0.58293   3.60005 
 6                     1.97063   2.36383   2.2013 
 1                     2.25571   1.85959   3.14656 
 1                     2.38257   3.39531   2.28104 
 8                     2.42668   1.71459   1.07207 
 6                    -4.31001   1.77202   0.10316 
 1                    -3.96158   1.81654  -0.93864 
 1                    -4.27984   0.7323    0.44172 
 1                    -5.33798   2.1411    0.14502 
 6                    -3.0621   -0.3064    3.33659 
 1                    -2.28051  -0.48933   4.08134 
 1                    -3.79292   0.40264   3.75168 
 1                    -3.56902  -1.24327   3.10053 
 6                     0.74963  -0.59531   3.48061 
 1                     0.21239  -1.37078   2.92252 
 1                     1.70495  -0.40124   2.98145 
 1                     0.93983  -0.95069   4.49702 
 6                     3.89759  -1.44661  -1.33462 
 6                     3.23843  -0.15378  -0.84532 
 6                     1.88864  -0.41121  -0.25203 
 6                     2.30878  -2.75006   0.13792 
 6                     3.7727   -2.49211  -0.21916 
 1                     1.20841   0.4036   -0.08949 
 1                     3.80601   0.23227   0.01821 
 1                     3.38893  -1.79686  -2.24085 
 1                     1.79377  -3.19624  -0.71738 
 1                     4.2967   -2.11728   0.66636 
 8                     1.59374  -1.48562   0.38964 
 8                    -0.51978   0.22144  -3.89015 
 8                     3.11275   0.87509  -1.8038 
 8                     5.26594  -1.18562  -1.59064 
 8                     4.31745  -3.7316   -0.63659 
 6                     2.08839  -3.60603   1.36419 
 1                     2.45005  -4.6206    1.14214 
 1                     1.01009  -3.66608   1.57311 
 8                     2.78592  -3.03396   2.44941 
 16                   -0.28322   0.05321  -2.44063 
 8                    -0.19051   1.33436  -1.67352 
 8                     0.87607  -0.8655   -2.12345 
 6                    -1.7217   -0.79663  -1.76798 
 6                    -2.97238  -0.60492  -2.34933 
 6                    -1.56475  -1.60685  -0.64805 
 6                    -4.08022  -1.24093  -1.78897 
 1                    -3.07583   0.02083  -3.22782 
 6                    -2.67963  -2.24421  -0.10882 
 1                    -0.5895   -1.74332  -0.2011 
 6                    -3.9411   -2.0657   -0.67196 
 1                    -4.80565  -2.5621   -0.24859 
 6                     4.29899   1.65955  -1.98598 
 1                     4.70355   1.9687   -1.01584 
 1                     5.05737   1.10234  -2.53918 
 1                     3.99227   2.54378  -2.5467 
 6                     5.77869  -1.84697  -2.74496 
 1                     5.67707  -2.93338  -2.65948 
 1                     5.26526  -1.50478  -3.65391 
 1                     6.83606  -1.58072  -2.80884 
 6                     5.40435  -4.18229   0.17017 
 1                     6.25099  -3.48795   0.10977 
 1                     5.09963  -4.29091   1.21871 
 1                     5.70205  -5.15539  -0.22562 
 6                     2.5737   -3.74222   3.66122 
 1                     3.14467  -3.22575   4.43504 
 1                     1.50958  -3.74644   3.93658 
 1                     2.9235   -4.78155   3.58203 
 6                    -1.14491   5.65279   2.04549 
 1                    -1.61307   6.22244   2.85047 
 1                    -0.06441   5.59301   2.21952 
 1                    -1.32443   6.16123   1.08735 
 11                    1.44922   2.69549  -0.75191 
 8                     2.74182   4.52999  -1.12573 
 6                     2.68079   5.58515  -2.07388 
 1                     3.61484   5.64843  -2.64905 
 1                     1.85236   5.36441  -2.75046 
 1                     2.50095   6.54886  -1.57809 
 6                     3.78994   4.69351  -0.17488 
 1                     3.64432   5.61181   0.40973 
 1                     3.75278   3.82092   0.48055 
 1                     4.7653    4.73981  -0.67881 
 6                    -5.45014  -0.97999  -2.35232 
 9                    -6.03493   0.08675  -1.7514 
 9                    -6.27734  -2.03079  -2.17151 
 9                    -5.40873  -0.71098  -3.67301 
 6                    -2.49161  -3.19615   1.03893 
 9                    -1.49121  -2.80648   1.86451 
 9                    -2.16915  -4.43641   0.60459 
 9                    -3.6103   -3.31902   1.78647 
 
 Add virtual bond connecting atoms H37        and H10        Dist= 3.86D+00.
 Add virtual bond connecting atoms H37        and O19        Dist= 4.03D+00.
 Add virtual bond connecting atoms O52        and H37        Dist= 4.36D+00.
 Add virtual bond connecting atoms O52        and Na83       Dist= 4.39D+00.
 Add virtual bond connecting atoms O53        and C34        Dist= 4.11D+00.
 Add virtual bond connecting atoms H60        and O42        Dist= 4.30D+00.
 ITRead=  0  0  0  0  0  0  0  0  0  0  0  0  0  0  0  0  0  0  0  0
 ITRead=  0  0  0  0  0  0  0  0  0  0  0  0  0  0  0  0  0  0  0  0
 ITRead=  0  0  0  0  0  0  0  0  0  0  0  0  0  0  0  0  0  0  0  0
 ITRead=  0  0  0  0  0  0  0  0  0  0  0  0  0  0  0  0  0  0  0  0
 ITRead=  0  0  0  0  0  0  0  0  0  0  0  0  0  0  0  0  0  0  0  0
 MicOpt= -1 -1 -1 -1 -1 -1 -1 -1 -1 -1 -1 -1 -1 -1 -1 -1 -1 -1 -1 -1
 MicOpt= -1 -1 -1 -1 -1 -1 -1 -1 -1 -1 -1 -1 -1 -1 -1 -1 -1 -1 -1 -1
 MicOpt= -1 -1 -1 -1 -1 -1 -1 -1 -1 -1 -1 -1 -1 -1 -1 -1 -1 -1 -1 -1
 MicOpt= -1 -1 -1 -1 -1 -1 -1 -1 -1 -1 -1 -1 -1 -1 -1 -1 -1 -1 -1 -1
 MicOpt= -1 -1 -1 -1 -1 -1 -1 -1 -1 -1 -1 -1 -1 -1 -1 -1 -1 -1 -1 -1
 NAtoms=    100 NQM=      100 NQMF=       0 NMMI=      0 NMMIF=      0
                NMic=       0 NMicF=      0.
                    Isotopes and Nuclear Properties:
 (Nuclear quadrupole moments (NQMom) in fm**2, nuclear magnetic moments (NMagM)
  in nuclear magnetons)

  Atom         1           2           3           4           5           6           7           8           9          10
 IAtWgt=          12          12          12          12          12           1           1           1           1           1
 AtmWgt=  12.0000000  12.0000000  12.0000000  12.0000000  12.0000000   1.0078250   1.0078250   1.0078250   1.0078250   1.0078250
 NucSpn=           0           0           0           0           0           1           1           1           1           1
 AtZEff=   0.0000000   0.0000000   0.0000000   0.0000000   0.0000000   0.0000000   0.0000000   0.0000000   0.0000000   0.0000000
 NQMom=    0.0000000   0.0000000   0.0000000   0.0000000   0.0000000   0.0000000   0.0000000   0.0000000   0.0000000   0.0000000
 NMagM=    0.0000000   0.0000000   0.0000000   0.0000000   0.0000000   2.7928460   2.7928460   2.7928460   2.7928460   2.7928460
 AtZNuc=   6.0000000   6.0000000   6.0000000   6.0000000   6.0000000   1.0000000   1.0000000   1.0000000   1.0000000   1.0000000

  Atom        11          12          13          14          15          16          17          18          19          20
 IAtWgt=          16          16          16          16          16          12           1           1          16          12
 AtmWgt=  15.9949146  15.9949146  15.9949146  15.9949146  15.9949146  12.0000000   1.0078250   1.0078250  15.9949146  12.0000000
 NucSpn=           0           0           0           0           0           0           1           1           0           0
 AtZEff=   0.0000000   0.0000000   0.0000000   0.0000000   0.0000000   0.0000000   0.0000000   0.0000000   0.0000000   0.0000000
 NQMom=    0.0000000   0.0000000   0.0000000   0.0000000   0.0000000   0.0000000   0.0000000   0.0000000   0.0000000   0.0000000
 NMagM=    0.0000000   0.0000000   0.0000000   0.0000000   0.0000000   0.0000000   2.7928460   2.7928460   0.0000000   0.0000000
 AtZNuc=   8.0000000   8.0000000   8.0000000   8.0000000   8.0000000   6.0000000   1.0000000   1.0000000   8.0000000   6.0000000

  Atom        21          22          23          24          25          26          27          28          29          30
 IAtWgt=           1           1           1          12           1           1           1          12           1           1
 AtmWgt=   1.0078250   1.0078250   1.0078250  12.0000000   1.0078250   1.0078250   1.0078250  12.0000000   1.0078250   1.0078250
 NucSpn=           1           1           1           0           1           1           1           0           1           1
 AtZEff=   0.0000000   0.0000000   0.0000000   0.0000000   0.0000000   0.0000000   0.0000000   0.0000000   0.0000000   0.0000000
 NQMom=    0.0000000   0.0000000   0.0000000   0.0000000   0.0000000   0.0000000   0.0000000   0.0000000   0.0000000   0.0000000
 NMagM=    2.7928460   2.7928460   2.7928460   0.0000000   2.7928460   2.7928460   2.7928460   0.0000000   2.7928460   2.7928460
 AtZNuc=   1.0000000   1.0000000   1.0000000   6.0000000   1.0000000   1.0000000   1.0000000   6.0000000   1.0000000   1.0000000

  Atom        31          32          33          34          35          36          37          38          39          40
 IAtWgt=           1          12          12          12          12          12           1           1           1           1
 AtmWgt=   1.0078250  12.0000000  12.0000000  12.0000000  12.0000000  12.0000000   1.0078250   1.0078250   1.0078250   1.0078250
 NucSpn=           1           0           0           0           0           0           1           1           1           1
 AtZEff=   0.0000000   0.0000000   0.0000000   0.0000000   0.0000000   0.0000000   0.0000000   0.0000000   0.0000000   0.0000000
 NQMom=    0.0000000   0.0000000   0.0000000   0.0000000   0.0000000   0.0000000   0.0000000   0.0000000   0.0000000   0.0000000
 NMagM=    2.7928460   0.0000000   0.0000000   0.0000000   0.0000000   0.0000000   2.7928460   2.7928460   2.7928460   2.7928460
 AtZNuc=   1.0000000   6.0000000   6.0000000   6.0000000   6.0000000   6.0000000   1.0000000   1.0000000   1.0000000   1.0000000

  Atom        41          42          43          44          45          46          47          48          49          50
 IAtWgt=           1          16          16          16          16          16          12           1           1          16
 AtmWgt=   1.0078250  15.9949146  15.9949146  15.9949146  15.9949146  15.9949146  12.0000000   1.0078250   1.0078250  15.9949146
 NucSpn=           1           0           0           0           0           0           0           1           1           0
 AtZEff=   0.0000000   0.0000000   0.0000000   0.0000000   0.0000000   0.0000000   0.0000000   0.0000000   0.0000000   0.0000000
 NQMom=    0.0000000   0.0000000   0.0000000   0.0000000   0.0000000   0.0000000   0.0000000   0.0000000   0.0000000   0.0000000
 NMagM=    2.7928460   0.0000000   0.0000000   0.0000000   0.0000000   0.0000000   0.0000000   2.7928460   2.7928460   0.0000000
 AtZNuc=   1.0000000   8.0000000   8.0000000   8.0000000   8.0000000   8.0000000   6.0000000   1.0000000   1.0000000   8.0000000

  Atom        51          52          53          54          55          56          57          58          59          60
 IAtWgt=          32          16          16          12          12          12          12           1          12           1
 AtmWgt=  31.9720718  15.9949146  15.9949146  12.0000000  12.0000000  12.0000000  12.0000000   1.0078250  12.0000000   1.0078250
 NucSpn=           0           0           0           0           0           0           0           1           0           1
 AtZEff=   0.0000000   0.0000000   0.0000000   0.0000000   0.0000000   0.0000000   0.0000000   0.0000000   0.0000000   0.0000000
 NQMom=    0.0000000   0.0000000   0.0000000   0.0000000   0.0000000   0.0000000   0.0000000   0.0000000   0.0000000   0.0000000
 NMagM=    0.0000000   0.0000000   0.0000000   0.0000000   0.0000000   0.0000000   0.0000000   2.7928460   0.0000000   2.7928460
 AtZNuc=  16.0000000   8.0000000   8.0000000   6.0000000   6.0000000   6.0000000   6.0000000   1.0000000   6.0000000   1.0000000

  Atom        61          62          63          64          65          66          67          68          69          70
 IAtWgt=          12           1          12           1           1           1          12           1           1           1
 AtmWgt=  12.0000000   1.0078250  12.0000000   1.0078250   1.0078250   1.0078250  12.0000000   1.0078250   1.0078250   1.0078250
 NucSpn=           0           1           0           1           1           1           0           1           1           1
 AtZEff=   0.0000000   0.0000000   0.0000000   0.0000000   0.0000000   0.0000000   0.0000000   0.0000000   0.0000000   0.0000000
 NQMom=    0.0000000   0.0000000   0.0000000   0.0000000   0.0000000   0.0000000   0.0000000   0.0000000   0.0000000   0.0000000
 NMagM=    0.0000000   2.7928460   0.0000000   2.7928460   2.7928460   2.7928460   0.0000000   2.7928460   2.7928460   2.7928460
 AtZNuc=   6.0000000   1.0000000   6.0000000   1.0000000   1.0000000   1.0000000   6.0000000   1.0000000   1.0000000   1.0000000

  Atom        71          72          73          74          75          76          77          78          79          80
 IAtWgt=          12           1           1           1          12           1           1           1          12           1
 AtmWgt=  12.0000000   1.0078250   1.0078250   1.0078250  12.0000000   1.0078250   1.0078250   1.0078250  12.0000000   1.0078250
 NucSpn=           0           1           1           1           0           1           1           1           0           1
 AtZEff=   0.0000000   0.0000000   0.0000000   0.0000000   0.0000000   0.0000000   0.0000000   0.0000000   0.0000000   0.0000000
 NQMom=    0.0000000   0.0000000   0.0000000   0.0000000   0.0000000   0.0000000   0.0000000   0.0000000   0.0000000   0.0000000
 NMagM=    0.0000000   2.7928460   2.7928460   2.7928460   0.0000000   2.7928460   2.7928460   2.7928460   0.0000000   2.7928460
 AtZNuc=   6.0000000   1.0000000   1.0000000   1.0000000   6.0000000   1.0000000   1.0000000   1.0000000   6.0000000   1.0000000

  Atom        81          82          83          84          85          86          87          88          89          90
 IAtWgt=           1           1          23          16          12           1           1           1          12           1
 AtmWgt=   1.0078250   1.0078250  22.9897697  15.9949146  12.0000000   1.0078250   1.0078250   1.0078250  12.0000000   1.0078250
 NucSpn=           1           1           3           0           0           1           1           1           0           1
 AtZEff=   0.0000000   0.0000000   0.0000000   0.0000000   0.0000000   0.0000000   0.0000000   0.0000000   0.0000000   0.0000000
 NQMom=    0.0000000   0.0000000  10.4000000   0.0000000   0.0000000   0.0000000   0.0000000   0.0000000   0.0000000   0.0000000
 NMagM=    2.7928460   2.7928460   2.2175200   0.0000000   0.0000000   2.7928460   2.7928460   2.7928460   0.0000000   2.7928460
 AtZNuc=   1.0000000   1.0000000  11.0000000   8.0000000   6.0000000   1.0000000   1.0000000   1.0000000   6.0000000   1.0000000

  Atom        91          92          93          94          95          96          97          98          99         100
 IAtWgt=           1           1          12          19          19          19          12          19          19          19
 AtmWgt=   1.0078250   1.0078250  12.0000000  18.9984033  18.9984033  18.9984033  12.0000000  18.9984033  18.9984033  18.9984033
 NucSpn=           1           1           0           1           1           1           0           1           1           1
 AtZEff=   0.0000000   0.0000000   0.0000000   0.0000000   0.0000000   0.0000000   0.0000000   0.0000000   0.0000000   0.0000000
 NQMom=    0.0000000   0.0000000   0.0000000   0.0000000   0.0000000   0.0000000   0.0000000   0.0000000   0.0000000   0.0000000
 NMagM=    2.7928460   2.7928460   0.0000000   2.6288670   2.6288670   2.6288670   0.0000000   2.6288670   2.6288670   2.6288670
 AtZNuc=   1.0000000   1.0000000   6.0000000   9.0000000   9.0000000   9.0000000   6.0000000   9.0000000   9.0000000   9.0000000
 Leave Link  101 at Sun Jun 16 11:40:37 2019, MaxMem=  6442450944 cpu:              18.1 elap:               0.8
 (Enter /home/ekwan/sw/g16/l103.exe)

 GradGradGradGradGradGradGradGradGradGradGradGradGradGradGradGradGradGrad
 Berny optimization.
 Initialization pass.
                           ----------------------------
                           !    Initial Parameters    !
                           ! (Angstroms and Degrees)  !
 --------------------------                            --------------------------
 ! Name  Definition              Value          Derivative Info.                !
 --------------------------------------------------------------------------------
 ! R1    R(1,2)                  1.5298         calculate D2E/DX2 analytically  !
 ! R2    R(1,5)                  1.5295         calculate D2E/DX2 analytically  !
 ! R3    R(1,8)                  1.0975         calculate D2E/DX2 analytically  !
 ! R4    R(1,14)                 1.4258         calculate D2E/DX2 analytically  !
 ! R5    R(2,3)                  1.5306         calculate D2E/DX2 analytically  !
 ! R6    R(2,7)                  1.0968         calculate D2E/DX2 analytically  !
 ! R7    R(2,13)                 1.4189         calculate D2E/DX2 analytically  !
 ! R8    R(3,6)                  1.0986         calculate D2E/DX2 analytically  !
 ! R9    R(3,11)                 1.4212         calculate D2E/DX2 analytically  !
 ! R10   R(3,12)                 1.3985         calculate D2E/DX2 analytically  !
 ! R11   R(4,5)                  1.5332         calculate D2E/DX2 analytically  !
 ! R12   R(4,9)                  1.0976         calculate D2E/DX2 analytically  !
 ! R13   R(4,11)                 1.45           calculate D2E/DX2 analytically  !
 ! R14   R(4,16)                 1.5362         calculate D2E/DX2 analytically  !
 ! R15   R(5,10)                 1.0946         calculate D2E/DX2 analytically  !
 ! R16   R(5,15)                 1.4262         calculate D2E/DX2 analytically  !
 ! R17   R(10,37)                2.0413         calculate D2E/DX2 analytically  !
 ! R18   R(12,79)                1.4236         calculate D2E/DX2 analytically  !
 ! R19   R(13,20)                1.4204         calculate D2E/DX2 analytically  !
 ! R20   R(14,24)                1.4206         calculate D2E/DX2 analytically  !
 ! R21   R(15,28)                1.4224         calculate D2E/DX2 analytically  !
 ! R22   R(16,17)                1.1086         calculate D2E/DX2 analytically  !
 ! R23   R(16,18)                1.1136         calculate D2E/DX2 analytically  !
 ! R24   R(16,19)                1.3801         calculate D2E/DX2 analytically  !
 ! R25   R(19,37)                2.1336         calculate D2E/DX2 analytically  !
 ! R26   R(19,83)                2.2901         calculate D2E/DX2 analytically  !
 ! R27   R(20,21)                1.0994         calculate D2E/DX2 analytically  !
 ! R28   R(20,22)                1.0939         calculate D2E/DX2 analytically  !
 ! R29   R(20,23)                1.093          calculate D2E/DX2 analytically  !
 ! R30   R(24,25)                1.095          calculate D2E/DX2 analytically  !
 ! R31   R(24,26)                1.0996         calculate D2E/DX2 analytically  !
 ! R32   R(24,27)                1.0911         calculate D2E/DX2 analytically  !
 ! R33   R(28,29)                1.0961         calculate D2E/DX2 analytically  !
 ! R34   R(28,30)                1.0952         calculate D2E/DX2 analytically  !
 ! R35   R(28,31)                1.0934         calculate D2E/DX2 analytically  !
 ! R36   R(32,33)                1.5314         calculate D2E/DX2 analytically  !
 ! R37   R(32,36)                1.5339         calculate D2E/DX2 analytically  !
 ! R38   R(32,39)                1.0967         calculate D2E/DX2 analytically  !
 ! R39   R(32,45)                1.4164         calculate D2E/DX2 analytically  !
 ! R40   R(33,34)                1.4967         calculate D2E/DX2 analytically  !
 ! R41   R(33,38)                1.1031         calculate D2E/DX2 analytically  !
 ! R42   R(33,44)                1.4117         calculate D2E/DX2 analytically  !
 ! R43   R(34,37)                1.0738         calculate D2E/DX2 analytically  !
 ! R44   R(34,42)                1.2857         calculate D2E/DX2 analytically  !
 ! R45   R(34,53)                2.1758         calculate D2E/DX2 analytically  !
 ! R46   R(35,36)                1.5288         calculate D2E/DX2 analytically  !
 ! R47   R(35,40)                1.0935         calculate D2E/DX2 analytically  !
 ! R48   R(35,42)                1.4743         calculate D2E/DX2 analytically  !
 ! R49   R(35,47)                1.5116         calculate D2E/DX2 analytically  !
 ! R50   R(36,41)                1.0951         calculate D2E/DX2 analytically  !
 ! R51   R(36,46)                1.4168         calculate D2E/DX2 analytically  !
 ! R52   R(37,52)                2.3092         calculate D2E/DX2 analytically  !
 ! R53   R(42,60)                2.2764         calculate D2E/DX2 analytically  !
 ! R54   R(43,51)                1.4783         calculate D2E/DX2 analytically  !
 ! R55   R(44,63)                1.4338         calculate D2E/DX2 analytically  !
 ! R56   R(45,67)                1.4257         calculate D2E/DX2 analytically  !
 ! R57   R(46,71)                1.4267         calculate D2E/DX2 analytically  !
 ! R58   R(47,48)                1.0998         calculate D2E/DX2 analytically  !
 ! R59   R(47,49)                1.1            calculate D2E/DX2 analytically  !
 ! R60   R(47,50)                1.4112         calculate D2E/DX2 analytically  !
 ! R61   R(50,75)                1.4196         calculate D2E/DX2 analytically  !
 ! R62   R(51,52)                1.4961         calculate D2E/DX2 analytically  !
 ! R63   R(51,53)                1.5128         calculate D2E/DX2 analytically  !
 ! R64   R(51,54)                1.8011         calculate D2E/DX2 analytically  !
 ! R65   R(52,83)                2.3218         calculate D2E/DX2 analytically  !
 ! R66   R(54,55)                1.3925         calculate D2E/DX2 analytically  !
 ! R67   R(54,56)                1.3912         calculate D2E/DX2 analytically  !
 ! R68   R(55,57)                1.3949         calculate D2E/DX2 analytically  !
 ! R69   R(55,58)                1.0835         calculate D2E/DX2 analytically  !
 ! R70   R(56,59)                1.3928         calculate D2E/DX2 analytically  !
 ! R71   R(56,60)                1.0814         calculate D2E/DX2 analytically  !
 ! R72   R(57,61)                1.3955         calculate D2E/DX2 analytically  !
 ! R73   R(57,93)                1.504          calculate D2E/DX2 analytically  !
 ! R74   R(59,61)                1.3929         calculate D2E/DX2 analytically  !
 ! R75   R(59,97)                1.503          calculate D2E/DX2 analytically  !
 ! R76   R(61,62)                1.0831         calculate D2E/DX2 analytically  !
 ! R77   R(63,64)                1.0956         calculate D2E/DX2 analytically  !
 ! R78   R(63,65)                1.0916         calculate D2E/DX2 analytically  !
 ! R79   R(63,66)                1.091          calculate D2E/DX2 analytically  !
 ! R80   R(67,68)                1.0945         calculate D2E/DX2 analytically  !
 ! R81   R(67,69)                1.0986         calculate D2E/DX2 analytically  !
 ! R82   R(67,70)                1.0923         calculate D2E/DX2 analytically  !
 ! R83   R(71,72)                1.0966         calculate D2E/DX2 analytically  !
 ! R84   R(71,73)                1.0973         calculate D2E/DX2 analytically  !
 ! R85   R(71,74)                1.0919         calculate D2E/DX2 analytically  !
 ! R86   R(75,76)                1.0916         calculate D2E/DX2 analytically  !
 ! R87   R(75,77)                1.0992         calculate D2E/DX2 analytically  !
 ! R88   R(75,78)                1.0995         calculate D2E/DX2 analytically  !
 ! R89   R(79,80)                1.0916         calculate D2E/DX2 analytically  !
 ! R90   R(79,81)                1.0961         calculate D2E/DX2 analytically  !
 ! R91   R(79,82)                1.0994         calculate D2E/DX2 analytically  !
 ! R92   R(83,84)                2.2751         calculate D2E/DX2 analytically  !
 ! R93   R(84,85)                1.4199         calculate D2E/DX2 analytically  !
 ! R94   R(84,89)                1.4246         calculate D2E/DX2 analytically  !
 ! R95   R(85,86)                1.0988         calculate D2E/DX2 analytically  !
 ! R96   R(85,87)                1.0921         calculate D2E/DX2 analytically  !
 ! R97   R(85,88)                1.0986         calculate D2E/DX2 analytically  !
 ! R98   R(89,90)                1.0983         calculate D2E/DX2 analytically  !
 ! R99   R(89,91)                1.092          calculate D2E/DX2 analytically  !
 ! R100  R(89,92)                1.0988         calculate D2E/DX2 analytically  !
 ! R101  R(93,94)                1.3568         calculate D2E/DX2 analytically  !
 ! R102  R(93,95)                1.3495         calculate D2E/DX2 analytically  !
 ! R103  R(93,96)                1.3484         calculate D2E/DX2 analytically  !
 ! R104  R(97,98)                1.3543         calculate D2E/DX2 analytically  !
 ! R105  R(97,99)                1.3531         calculate D2E/DX2 analytically  !
 ! R106  R(97,100)               1.3511         calculate D2E/DX2 analytically  !
 ! A1    A(2,1,5)              110.319          calculate D2E/DX2 analytically  !
 ! A2    A(2,1,8)              108.4824         calculate D2E/DX2 analytically  !
 ! A3    A(2,1,14)             108.1069         calculate D2E/DX2 analytically  !
 ! A4    A(5,1,8)              109.3702         calculate D2E/DX2 analytically  !
 ! A5    A(5,1,14)             110.5944         calculate D2E/DX2 analytically  !
 ! A6    A(8,1,14)             109.932          calculate D2E/DX2 analytically  !
 ! A7    A(1,2,3)              110.4934         calculate D2E/DX2 analytically  !
 ! A8    A(1,2,7)              108.808          calculate D2E/DX2 analytically  !
 ! A9    A(1,2,13)             111.8189         calculate D2E/DX2 analytically  !
 ! A10   A(3,2,7)              106.5022         calculate D2E/DX2 analytically  !
 ! A11   A(3,2,13)             108.449          calculate D2E/DX2 analytically  !
 ! A12   A(7,2,13)             110.6367         calculate D2E/DX2 analytically  !
 ! A13   A(2,3,6)              110.4208         calculate D2E/DX2 analytically  !
 ! A14   A(2,3,11)             110.1611         calculate D2E/DX2 analytically  !
 ! A15   A(2,3,12)             108.8383         calculate D2E/DX2 analytically  !
 ! A16   A(6,3,11)             104.8369         calculate D2E/DX2 analytically  !
 ! A17   A(6,3,12)             110.455          calculate D2E/DX2 analytically  !
 ! A18   A(11,3,12)            112.0938         calculate D2E/DX2 analytically  !
 ! A19   A(5,4,9)              108.261          calculate D2E/DX2 analytically  !
 ! A20   A(5,4,11)             109.5298         calculate D2E/DX2 analytically  !
 ! A21   A(5,4,16)             114.1814         calculate D2E/DX2 analytically  !
 ! A22   A(9,4,11)             108.7094         calculate D2E/DX2 analytically  !
 ! A23   A(9,4,16)             109.2581         calculate D2E/DX2 analytically  !
 ! A24   A(11,4,16)            106.7866         calculate D2E/DX2 analytically  !
 ! A25   A(1,5,4)              111.8109         calculate D2E/DX2 analytically  !
 ! A26   A(1,5,10)             107.4225         calculate D2E/DX2 analytically  !
 ! A27   A(1,5,15)             109.247          calculate D2E/DX2 analytically  !
 ! A28   A(4,5,10)             109.3088         calculate D2E/DX2 analytically  !
 ! A29   A(4,5,15)             109.1128         calculate D2E/DX2 analytically  !
 ! A30   A(10,5,15)            109.9168         calculate D2E/DX2 analytically  !
 ! A31   A(5,10,37)            144.0205         calculate D2E/DX2 analytically  !
 ! A32   A(3,11,4)             114.3529         calculate D2E/DX2 analytically  !
 ! A33   A(3,12,79)            113.3419         calculate D2E/DX2 analytically  !
 ! A34   A(2,13,20)            113.8549         calculate D2E/DX2 analytically  !
 ! A35   A(1,14,24)            114.2182         calculate D2E/DX2 analytically  !
 ! A36   A(5,15,28)            113.8463         calculate D2E/DX2 analytically  !
 ! A37   A(4,16,17)            105.6939         calculate D2E/DX2 analytically  !
 ! A38   A(4,16,18)            105.271          calculate D2E/DX2 analytically  !
 ! A39   A(4,16,19)            114.3759         calculate D2E/DX2 analytically  !
 ! A40   A(17,16,18)           105.3742         calculate D2E/DX2 analytically  !
 ! A41   A(17,16,19)           113.4981         calculate D2E/DX2 analytically  !
 ! A42   A(18,16,19)           111.8456         calculate D2E/DX2 analytically  !
 ! A43   A(16,19,37)           123.0821         calculate D2E/DX2 analytically  !
 ! A44   A(16,19,83)           108.0082         calculate D2E/DX2 analytically  !
 ! A45   A(37,19,83)            65.5348         calculate D2E/DX2 analytically  !
 ! A46   A(13,20,21)           111.3175         calculate D2E/DX2 analytically  !
 ! A47   A(13,20,22)           111.5093         calculate D2E/DX2 analytically  !
 ! A48   A(13,20,23)           106.8283         calculate D2E/DX2 analytically  !
 ! A49   A(21,20,22)           108.8471         calculate D2E/DX2 analytically  !
 ! A50   A(21,20,23)           108.7032         calculate D2E/DX2 analytically  !
 ! A51   A(22,20,23)           109.5746         calculate D2E/DX2 analytically  !
 ! A52   A(14,24,25)           111.5096         calculate D2E/DX2 analytically  !
 ! A53   A(14,24,26)           110.9861         calculate D2E/DX2 analytically  !
 ! A54   A(14,24,27)           106.6508         calculate D2E/DX2 analytically  !
 ! A55   A(25,24,26)           108.9883         calculate D2E/DX2 analytically  !
 ! A56   A(25,24,27)           109.5927         calculate D2E/DX2 analytically  !
 ! A57   A(26,24,27)           109.0606         calculate D2E/DX2 analytically  !
 ! A58   A(15,28,29)           110.9364         calculate D2E/DX2 analytically  !
 ! A59   A(15,28,30)           112.001          calculate D2E/DX2 analytically  !
 ! A60   A(15,28,31)           106.709          calculate D2E/DX2 analytically  !
 ! A61   A(29,28,30)           108.7141         calculate D2E/DX2 analytically  !
 ! A62   A(29,28,31)           109.1848         calculate D2E/DX2 analytically  !
 ! A63   A(30,28,31)           109.24           calculate D2E/DX2 analytically  !
 ! A64   A(33,32,36)           107.9394         calculate D2E/DX2 analytically  !
 ! A65   A(33,32,39)           109.5117         calculate D2E/DX2 analytically  !
 ! A66   A(33,32,45)           108.5436         calculate D2E/DX2 analytically  !
 ! A67   A(36,32,39)           110.2107         calculate D2E/DX2 analytically  !
 ! A68   A(36,32,45)           109.6153         calculate D2E/DX2 analytically  !
 ! A69   A(39,32,45)           110.9516         calculate D2E/DX2 analytically  !
 ! A70   A(32,33,34)           111.6916         calculate D2E/DX2 analytically  !
 ! A71   A(32,33,38)           108.9098         calculate D2E/DX2 analytically  !
 ! A72   A(32,33,44)           115.8895         calculate D2E/DX2 analytically  !
 ! A73   A(34,33,38)           102.3511         calculate D2E/DX2 analytically  !
 ! A74   A(34,33,44)           108.3119         calculate D2E/DX2 analytically  !
 ! A75   A(38,33,44)           108.7979         calculate D2E/DX2 analytically  !
 ! A76   A(33,34,37)           120.0514         calculate D2E/DX2 analytically  !
 ! A77   A(33,34,42)           123.2583         calculate D2E/DX2 analytically  !
 ! A78   A(33,34,53)            96.5844         calculate D2E/DX2 analytically  !
 ! A79   A(37,34,42)           114.409          calculate D2E/DX2 analytically  !
 ! A80   A(37,34,53)            89.6459         calculate D2E/DX2 analytically  !
 ! A81   A(42,34,53)            98.5136         calculate D2E/DX2 analytically  !
 ! A82   A(36,35,40)           109.7024         calculate D2E/DX2 analytically  !
 ! A83   A(36,35,42)           111.0761         calculate D2E/DX2 analytically  !
 ! A84   A(36,35,47)           115.128          calculate D2E/DX2 analytically  !
 ! A85   A(40,35,42)           104.7778         calculate D2E/DX2 analytically  !
 ! A86   A(40,35,47)           109.5596         calculate D2E/DX2 analytically  !
 ! A87   A(42,35,47)           106.0475         calculate D2E/DX2 analytically  !
 ! A88   A(32,36,35)           111.2736         calculate D2E/DX2 analytically  !
 ! A89   A(32,36,41)           108.4073         calculate D2E/DX2 analytically  !
 ! A90   A(32,36,46)           110.5322         calculate D2E/DX2 analytically  !
 ! A91   A(35,36,41)           109.0921         calculate D2E/DX2 analytically  !
 ! A92   A(35,36,46)           106.8212         calculate D2E/DX2 analytically  !
 ! A93   A(41,36,46)           110.7146         calculate D2E/DX2 analytically  !
 ! A94   A(10,37,19)            82.4113         calculate D2E/DX2 analytically  !
 ! A95   A(10,37,34)           124.1253         calculate D2E/DX2 analytically  !
 ! A96   A(10,37,52)            98.3968         calculate D2E/DX2 analytically  !
 ! A97   A(19,37,34)           100.7749         calculate D2E/DX2 analytically  !
 ! A98   A(19,37,52)           118.1446         calculate D2E/DX2 analytically  !
 ! A99   A(34,37,52)           125.858          calculate D2E/DX2 analytically  !
 ! A100  A(34,42,35)           121.3489         calculate D2E/DX2 analytically  !
 ! A101  A(34,42,60)           100.6653         calculate D2E/DX2 analytically  !
 ! A102  A(35,42,60)           108.8905         calculate D2E/DX2 analytically  !
 ! A103  A(33,44,63)           114.2902         calculate D2E/DX2 analytically  !
 ! A104  A(32,45,67)           114.0996         calculate D2E/DX2 analytically  !
 ! A105  A(36,46,71)           113.7466         calculate D2E/DX2 analytically  !
 ! A106  A(35,47,48)           108.0985         calculate D2E/DX2 analytically  !
 ! A107  A(35,47,49)           109.1421         calculate D2E/DX2 analytically  !
 ! A108  A(35,47,50)           108.7977         calculate D2E/DX2 analytically  !
 ! A109  A(48,47,49)           108.0806         calculate D2E/DX2 analytically  !
 ! A110  A(48,47,50)           111.5121         calculate D2E/DX2 analytically  !
 ! A111  A(49,47,50)           111.1374         calculate D2E/DX2 analytically  !
 ! A112  A(47,50,75)           112.3532         calculate D2E/DX2 analytically  !
 ! A113  A(43,51,52)           114.5329         calculate D2E/DX2 analytically  !
 ! A114  A(43,51,53)           113.4102         calculate D2E/DX2 analytically  !
 ! A115  A(43,51,54)           106.983          calculate D2E/DX2 analytically  !
 ! A116  A(52,51,53)           111.4104         calculate D2E/DX2 analytically  !
 ! A117  A(52,51,54)           105.1919         calculate D2E/DX2 analytically  !
 ! A118  A(53,51,54)           104.3113         calculate D2E/DX2 analytically  !
 ! A119  A(37,52,51)            92.5276         calculate D2E/DX2 analytically  !
 ! A120  A(37,52,83)            62.3657         calculate D2E/DX2 analytically  !
 ! A121  A(51,52,83)           138.5287         calculate D2E/DX2 analytically  !
 ! A122  A(34,53,51)           114.2154         calculate D2E/DX2 analytically  !
 ! A123  A(51,54,55)           119.7669         calculate D2E/DX2 analytically  !
 ! A124  A(51,54,56)           119.0357         calculate D2E/DX2 analytically  !
 ! A125  A(55,54,56)           121.1725         calculate D2E/DX2 analytically  !
 ! A126  A(54,55,57)           118.8713         calculate D2E/DX2 analytically  !
 ! A127  A(54,55,58)           120.2493         calculate D2E/DX2 analytically  !
 ! A128  A(57,55,58)           120.8766         calculate D2E/DX2 analytically  !
 ! A129  A(54,56,59)           119.2009         calculate D2E/DX2 analytically  !
 ! A130  A(54,56,60)           120.5276         calculate D2E/DX2 analytically  !
 ! A131  A(59,56,60)           120.2713         calculate D2E/DX2 analytically  !
 ! A132  A(55,57,61)           120.7876         calculate D2E/DX2 analytically  !
 ! A133  A(55,57,93)           119.5908         calculate D2E/DX2 analytically  !
 ! A134  A(61,57,93)           119.549          calculate D2E/DX2 analytically  !
 ! A135  A(56,59,61)           120.646          calculate D2E/DX2 analytically  !
 ! A136  A(56,59,97)           119.0358         calculate D2E/DX2 analytically  !
 ! A137  A(61,59,97)           120.2115         calculate D2E/DX2 analytically  !
 ! A138  A(42,60,56)           163.3111         calculate D2E/DX2 analytically  !
 ! A139  A(57,61,59)           119.317          calculate D2E/DX2 analytically  !
 ! A140  A(57,61,62)           120.2774         calculate D2E/DX2 analytically  !
 ! A141  A(59,61,62)           120.4056         calculate D2E/DX2 analytically  !
 ! A142  A(44,63,64)           110.3258         calculate D2E/DX2 analytically  !
 ! A143  A(44,63,65)           111.0935         calculate D2E/DX2 analytically  !
 ! A144  A(44,63,66)           106.0298         calculate D2E/DX2 analytically  !
 ! A145  A(64,63,65)           109.6472         calculate D2E/DX2 analytically  !
 ! A146  A(64,63,66)           109.2802         calculate D2E/DX2 analytically  !
 ! A147  A(65,63,66)           110.3991         calculate D2E/DX2 analytically  !
 ! A148  A(45,67,68)           111.3345         calculate D2E/DX2 analytically  !
 ! A149  A(45,67,69)           110.9348         calculate D2E/DX2 analytically  !
 ! A150  A(45,67,70)           106.4053         calculate D2E/DX2 analytically  !
 ! A151  A(68,67,69)           109.2937         calculate D2E/DX2 analytically  !
 ! A152  A(68,67,70)           109.6588         calculate D2E/DX2 analytically  !
 ! A153  A(69,67,70)           109.1539         calculate D2E/DX2 analytically  !
 ! A154  A(46,71,72)           110.9172         calculate D2E/DX2 analytically  !
 ! A155  A(46,71,73)           111.104          calculate D2E/DX2 analytically  !
 ! A156  A(46,71,74)           106.5162         calculate D2E/DX2 analytically  !
 ! A157  A(72,71,73)           109.2507         calculate D2E/DX2 analytically  !
 ! A158  A(72,71,74)           109.5007         calculate D2E/DX2 analytically  !
 ! A159  A(73,71,74)           109.5042         calculate D2E/DX2 analytically  !
 ! A160  A(50,75,76)           106.9115         calculate D2E/DX2 analytically  !
 ! A161  A(50,75,77)           111.1308         calculate D2E/DX2 analytically  !
 ! A162  A(50,75,78)           111.2592         calculate D2E/DX2 analytically  !
 ! A163  A(76,75,77)           109.3058         calculate D2E/DX2 analytically  !
 ! A164  A(76,75,78)           109.3843         calculate D2E/DX2 analytically  !
 ! A165  A(77,75,78)           108.8093         calculate D2E/DX2 analytically  !
 ! A166  A(12,79,80)           106.7297         calculate D2E/DX2 analytically  !
 ! A167  A(12,79,81)           111.4904         calculate D2E/DX2 analytically  !
 ! A168  A(12,79,82)           110.7731         calculate D2E/DX2 analytically  !
 ! A169  A(80,79,81)           109.5205         calculate D2E/DX2 analytically  !
 ! A170  A(80,79,82)           109.3469         calculate D2E/DX2 analytically  !
 ! A171  A(81,79,82)           108.9389         calculate D2E/DX2 analytically  !
 ! A172  A(19,83,52)           111.4987         calculate D2E/DX2 analytically  !
 ! A173  A(19,83,84)           103.5179         calculate D2E/DX2 analytically  !
 ! A174  A(52,83,84)           143.9733         calculate D2E/DX2 analytically  !
 ! A175  A(83,84,85)           133.1979         calculate D2E/DX2 analytically  !
 ! A176  A(83,84,89)           113.6344         calculate D2E/DX2 analytically  !
 ! A177  A(85,84,89)           113.0814         calculate D2E/DX2 analytically  !
 ! A178  A(84,85,86)           110.8432         calculate D2E/DX2 analytically  !
 ! A179  A(84,85,87)           107.2227         calculate D2E/DX2 analytically  !
 ! A180  A(84,85,88)           110.9508         calculate D2E/DX2 analytically  !
 ! A181  A(86,85,87)           109.4016         calculate D2E/DX2 analytically  !
 ! A182  A(86,85,88)           108.9583         calculate D2E/DX2 analytically  !
 ! A183  A(87,85,88)           109.4329         calculate D2E/DX2 analytically  !
 ! A184  A(84,89,90)           110.7137         calculate D2E/DX2 analytically  !
 ! A185  A(84,89,91)           106.4911         calculate D2E/DX2 analytically  !
 ! A186  A(84,89,92)           110.5976         calculate D2E/DX2 analytically  !
 ! A187  A(90,89,91)           110.1289         calculate D2E/DX2 analytically  !
 ! A188  A(90,89,92)           109.0615         calculate D2E/DX2 analytically  !
 ! A189  A(91,89,92)           109.8253         calculate D2E/DX2 analytically  !
 ! A190  A(57,93,94)           111.2892         calculate D2E/DX2 analytically  !
 ! A191  A(57,93,95)           111.9026         calculate D2E/DX2 analytically  !
 ! A192  A(57,93,96)           111.9307         calculate D2E/DX2 analytically  !
 ! A193  A(94,93,95)           106.7769         calculate D2E/DX2 analytically  !
 ! A194  A(94,93,96)           106.8682         calculate D2E/DX2 analytically  !
 ! A195  A(95,93,96)           107.7818         calculate D2E/DX2 analytically  !
 ! A196  A(59,97,98)           112.0665         calculate D2E/DX2 analytically  !
 ! A197  A(59,97,99)           111.4221         calculate D2E/DX2 analytically  !
 ! A198  A(59,97,100)          112.1203         calculate D2E/DX2 analytically  !
 ! A199  A(98,97,99)           106.4612         calculate D2E/DX2 analytically  !
 ! A200  A(98,97,100)          107.488          calculate D2E/DX2 analytically  !
 ! A201  A(99,97,100)          106.9523         calculate D2E/DX2 analytically  !
 ! D1    D(5,1,2,3)            -52.3658         calculate D2E/DX2 analytically  !
 ! D2    D(5,1,2,7)             64.2267         calculate D2E/DX2 analytically  !
 ! D3    D(5,1,2,13)          -173.2661         calculate D2E/DX2 analytically  !
 ! D4    D(8,1,2,3)             67.4149         calculate D2E/DX2 analytically  !
 ! D5    D(8,1,2,7)           -175.9926         calculate D2E/DX2 analytically  !
 ! D6    D(8,1,2,13)           -53.4854         calculate D2E/DX2 analytically  !
 ! D7    D(14,1,2,3)          -173.4109         calculate D2E/DX2 analytically  !
 ! D8    D(14,1,2,7)           -56.8183         calculate D2E/DX2 analytically  !
 ! D9    D(14,1,2,13)           65.6889         calculate D2E/DX2 analytically  !
 ! D10   D(2,1,5,4)             51.5703         calculate D2E/DX2 analytically  !
 ! D11   D(2,1,5,10)           -68.3546         calculate D2E/DX2 analytically  !
 ! D12   D(2,1,5,15)           172.4531         calculate D2E/DX2 analytically  !
 ! D13   D(8,1,5,4)            -67.6727         calculate D2E/DX2 analytically  !
 ! D14   D(8,1,5,10)           172.4024         calculate D2E/DX2 analytically  !
 ! D15   D(8,1,5,15)            53.2102         calculate D2E/DX2 analytically  !
 ! D16   D(14,1,5,4)           171.12           calculate D2E/DX2 analytically  !
 ! D17   D(14,1,5,10)           51.1952         calculate D2E/DX2 analytically  !
 ! D18   D(14,1,5,15)          -67.9971         calculate D2E/DX2 analytically  !
 ! D19   D(2,1,14,24)         -140.9638         calculate D2E/DX2 analytically  !
 ! D20   D(5,1,14,24)           98.1624         calculate D2E/DX2 analytically  !
 ! D21   D(8,1,14,24)          -22.7116         calculate D2E/DX2 analytically  !
 ! D22   D(1,2,3,6)            171.7295         calculate D2E/DX2 analytically  !
 ! D23   D(1,2,3,11)            56.4033         calculate D2E/DX2 analytically  !
 ! D24   D(1,2,3,12)           -66.8688         calculate D2E/DX2 analytically  !
 ! D25   D(7,2,3,6)             53.7152         calculate D2E/DX2 analytically  !
 ! D26   D(7,2,3,11)           -61.611          calculate D2E/DX2 analytically  !
 ! D27   D(7,2,3,12)           175.1169         calculate D2E/DX2 analytically  !
 ! D28   D(13,2,3,6)           -65.3845         calculate D2E/DX2 analytically  !
 ! D29   D(13,2,3,11)          179.2893         calculate D2E/DX2 analytically  !
 ! D30   D(13,2,3,12)           56.0172         calculate D2E/DX2 analytically  !
 ! D31   D(1,2,13,20)          -98.0231         calculate D2E/DX2 analytically  !
 ! D32   D(3,2,13,20)          139.8966         calculate D2E/DX2 analytically  !
 ! D33   D(7,2,13,20)           23.4341         calculate D2E/DX2 analytically  !
 ! D34   D(2,3,11,4)           -61.1701         calculate D2E/DX2 analytically  !
 ! D35   D(6,3,11,4)          -179.9709         calculate D2E/DX2 analytically  !
 ! D36   D(12,3,11,4)           60.1806         calculate D2E/DX2 analytically  !
 ! D37   D(2,3,12,79)         -173.184          calculate D2E/DX2 analytically  !
 ! D38   D(6,3,12,79)          -51.8032         calculate D2E/DX2 analytically  !
 ! D39   D(11,3,12,79)          64.7077         calculate D2E/DX2 analytically  !
 ! D40   D(9,4,5,1)             65.127          calculate D2E/DX2 analytically  !
 ! D41   D(9,4,5,10)          -176.061          calculate D2E/DX2 analytically  !
 ! D42   D(9,4,5,15)           -55.8337         calculate D2E/DX2 analytically  !
 ! D43   D(11,4,5,1)           -53.2609         calculate D2E/DX2 analytically  !
 ! D44   D(11,4,5,10)           65.5512         calculate D2E/DX2 analytically  !
 ! D45   D(11,4,5,15)         -174.2216         calculate D2E/DX2 analytically  !
 ! D46   D(16,4,5,1)          -172.9428         calculate D2E/DX2 analytically  !
 ! D47   D(16,4,5,10)          -54.1308         calculate D2E/DX2 analytically  !
 ! D48   D(16,4,5,15)           66.0964         calculate D2E/DX2 analytically  !
 ! D49   D(5,4,11,3)            59.2148         calculate D2E/DX2 analytically  !
 ! D50   D(9,4,11,3)           -58.8941         calculate D2E/DX2 analytically  !
 ! D51   D(16,4,11,3)         -176.6617         calculate D2E/DX2 analytically  !
 ! D52   D(5,4,16,17)          -61.2415         calculate D2E/DX2 analytically  !
 ! D53   D(5,4,16,18)         -172.4756         calculate D2E/DX2 analytically  !
 ! D54   D(5,4,16,19)           64.35           calculate D2E/DX2 analytically  !
 ! D55   D(9,4,16,17)           60.1394         calculate D2E/DX2 analytically  !
 ! D56   D(9,4,16,18)          -51.0948         calculate D2E/DX2 analytically  !
 ! D57   D(9,4,16,19)         -174.2691         calculate D2E/DX2 analytically  !
 ! D58   D(11,4,16,17)         177.5457         calculate D2E/DX2 analytically  !
 ! D59   D(11,4,16,18)          66.3116         calculate D2E/DX2 analytically  !
 ! D60   D(11,4,16,19)         -56.8628         calculate D2E/DX2 analytically  !
 ! D61   D(1,5,10,37)          123.1384         calculate D2E/DX2 analytically  !
 ! D62   D(4,5,10,37)            1.6337         calculate D2E/DX2 analytically  !
 ! D63   D(15,5,10,37)        -118.0996         calculate D2E/DX2 analytically  !
 ! D64   D(1,5,15,28)          127.4126         calculate D2E/DX2 analytically  !
 ! D65   D(4,5,15,28)         -110.0742         calculate D2E/DX2 analytically  !
 ! D66   D(10,5,15,28)           9.7784         calculate D2E/DX2 analytically  !
 ! D67   D(5,10,37,19)          28.2591         calculate D2E/DX2 analytically  !
 ! D68   D(5,10,37,34)         126.1649         calculate D2E/DX2 analytically  !
 ! D69   D(5,10,37,52)         -89.2156         calculate D2E/DX2 analytically  !
 ! D70   D(3,12,79,80)         174.4625         calculate D2E/DX2 analytically  !
 ! D71   D(3,12,79,81)         -65.9782         calculate D2E/DX2 analytically  !
 ! D72   D(3,12,79,82)          55.5157         calculate D2E/DX2 analytically  !
 ! D73   D(2,13,20,21)         -61.5005         calculate D2E/DX2 analytically  !
 ! D74   D(2,13,20,22)          60.27           calculate D2E/DX2 analytically  !
 ! D75   D(2,13,20,23)         179.9676         calculate D2E/DX2 analytically  !
 ! D76   D(1,14,24,25)         -61.8058         calculate D2E/DX2 analytically  !
 ! D77   D(1,14,24,26)          59.913          calculate D2E/DX2 analytically  !
 ! D78   D(1,14,24,27)         178.5853         calculate D2E/DX2 analytically  !
 ! D79   D(5,15,28,29)         -63.7346         calculate D2E/DX2 analytically  !
 ! D80   D(5,15,28,30)          57.9398         calculate D2E/DX2 analytically  !
 ! D81   D(5,15,28,31)         177.4359         calculate D2E/DX2 analytically  !
 ! D82   D(4,16,19,37)         -22.8618         calculate D2E/DX2 analytically  !
 ! D83   D(4,16,19,83)          49.202          calculate D2E/DX2 analytically  !
 ! D84   D(17,16,19,37)         98.5258         calculate D2E/DX2 analytically  !
 ! D85   D(17,16,19,83)        170.5897         calculate D2E/DX2 analytically  !
 ! D86   D(18,16,19,37)       -142.412          calculate D2E/DX2 analytically  !
 ! D87   D(18,16,19,83)        -70.3481         calculate D2E/DX2 analytically  !
 ! D88   D(16,19,37,10)        -12.1821         calculate D2E/DX2 analytically  !
 ! D89   D(16,19,37,34)       -135.6016         calculate D2E/DX2 analytically  !
 ! D90   D(16,19,37,52)         83.3155         calculate D2E/DX2 analytically  !
 ! D91   D(83,19,37,10)       -108.4373         calculate D2E/DX2 analytically  !
 ! D92   D(83,19,37,34)        128.1431         calculate D2E/DX2 analytically  !
 ! D93   D(83,19,37,52)        -12.9398         calculate D2E/DX2 analytically  !
 ! D94   D(16,19,83,52)       -106.6749         calculate D2E/DX2 analytically  !
 ! D95   D(16,19,83,84)         81.9552         calculate D2E/DX2 analytically  !
 ! D96   D(37,19,83,52)         12.1847         calculate D2E/DX2 analytically  !
 ! D97   D(37,19,83,84)       -159.1852         calculate D2E/DX2 analytically  !
 ! D98   D(36,32,33,34)        -47.8925         calculate D2E/DX2 analytically  !
 ! D99   D(36,32,33,38)         64.4166         calculate D2E/DX2 analytically  !
 ! D100  D(36,32,33,44)       -172.5671         calculate D2E/DX2 analytically  !
 ! D101  D(39,32,33,34)         72.1057         calculate D2E/DX2 analytically  !
 ! D102  D(39,32,33,38)       -175.5852         calculate D2E/DX2 analytically  !
 ! D103  D(39,32,33,44)        -52.5689         calculate D2E/DX2 analytically  !
 ! D104  D(45,32,33,34)       -166.6289         calculate D2E/DX2 analytically  !
 ! D105  D(45,32,33,38)        -54.3198         calculate D2E/DX2 analytically  !
 ! D106  D(45,32,33,44)         68.6964         calculate D2E/DX2 analytically  !
 ! D107  D(33,32,36,35)         59.0384         calculate D2E/DX2 analytically  !
 ! D108  D(33,32,36,41)        -60.9291         calculate D2E/DX2 analytically  !
 ! D109  D(33,32,36,46)        177.5564         calculate D2E/DX2 analytically  !
 ! D110  D(39,32,36,35)        -60.5185         calculate D2E/DX2 analytically  !
 ! D111  D(39,32,36,41)        179.514          calculate D2E/DX2 analytically  !
 ! D112  D(39,32,36,46)         57.9995         calculate D2E/DX2 analytically  !
 ! D113  D(45,32,36,35)        177.0891         calculate D2E/DX2 analytically  !
 ! D114  D(45,32,36,41)         57.1216         calculate D2E/DX2 analytically  !
 ! D115  D(45,32,36,46)        -64.3929         calculate D2E/DX2 analytically  !
 ! D116  D(33,32,45,67)       -141.2769         calculate D2E/DX2 analytically  !
 ! D117  D(36,32,45,67)        101.0491         calculate D2E/DX2 analytically  !
 ! D118  D(39,32,45,67)        -20.9011         calculate D2E/DX2 analytically  !
 ! D119  D(32,33,34,37)       -164.8999         calculate D2E/DX2 analytically  !
 ! D120  D(32,33,34,42)         33.2262         calculate D2E/DX2 analytically  !
 ! D121  D(32,33,34,53)        -71.4834         calculate D2E/DX2 analytically  !
 ! D122  D(38,33,34,37)         78.7316         calculate D2E/DX2 analytically  !
 ! D123  D(38,33,34,42)        -83.1423         calculate D2E/DX2 analytically  !
 ! D124  D(38,33,34,53)        172.1481         calculate D2E/DX2 analytically  !
 ! D125  D(44,33,34,37)        -36.0985         calculate D2E/DX2 analytically  !
 ! D126  D(44,33,34,42)        162.0276         calculate D2E/DX2 analytically  !
 ! D127  D(44,33,34,53)         57.318          calculate D2E/DX2 analytically  !
 ! D128  D(32,33,44,63)        -81.9778         calculate D2E/DX2 analytically  !
 ! D129  D(34,33,44,63)        151.6248         calculate D2E/DX2 analytically  !
 ! D130  D(38,33,44,63)         41.0972         calculate D2E/DX2 analytically  !
 ! D131  D(33,34,37,10)       -142.1977         calculate D2E/DX2 analytically  !
 ! D132  D(33,34,37,19)        -54.1131         calculate D2E/DX2 analytically  !
 ! D133  D(33,34,37,52)         82.773          calculate D2E/DX2 analytically  !
 ! D134  D(42,34,37,10)         21.2024         calculate D2E/DX2 analytically  !
 ! D135  D(42,34,37,19)        109.287          calculate D2E/DX2 analytically  !
 ! D136  D(42,34,37,52)       -113.8269         calculate D2E/DX2 analytically  !
 ! D137  D(53,34,37,10)        120.3961         calculate D2E/DX2 analytically  !
 ! D138  D(53,34,37,19)       -151.5193         calculate D2E/DX2 analytically  !
 ! D139  D(53,34,37,52)        -14.6332         calculate D2E/DX2 analytically  !
 ! D140  D(33,34,42,35)        -25.8133         calculate D2E/DX2 analytically  !
 ! D141  D(33,34,42,60)       -145.8458         calculate D2E/DX2 analytically  !
 ! D142  D(37,34,42,35)        171.3874         calculate D2E/DX2 analytically  !
 ! D143  D(37,34,42,60)         51.3549         calculate D2E/DX2 analytically  !
 ! D144  D(53,34,42,35)         77.8862         calculate D2E/DX2 analytically  !
 ! D145  D(53,34,42,60)        -42.1463         calculate D2E/DX2 analytically  !
 ! D146  D(33,34,53,51)       -120.2557         calculate D2E/DX2 analytically  !
 ! D147  D(37,34,53,51)         -0.0306         calculate D2E/DX2 analytically  !
 ! D148  D(42,34,53,51)        114.6107         calculate D2E/DX2 analytically  !
 ! D149  D(40,35,36,32)         64.7203         calculate D2E/DX2 analytically  !
 ! D150  D(40,35,36,41)       -175.7187         calculate D2E/DX2 analytically  !
 ! D151  D(40,35,36,46)        -56.0045         calculate D2E/DX2 analytically  !
 ! D152  D(42,35,36,32)        -50.6435         calculate D2E/DX2 analytically  !
 ! D153  D(42,35,36,41)         68.9175         calculate D2E/DX2 analytically  !
 ! D154  D(42,35,36,46)       -171.3683         calculate D2E/DX2 analytically  !
 ! D155  D(47,35,36,32)       -171.1729         calculate D2E/DX2 analytically  !
 ! D156  D(47,35,36,41)        -51.6119         calculate D2E/DX2 analytically  !
 ! D157  D(47,35,36,46)         68.1023         calculate D2E/DX2 analytically  !
 ! D158  D(36,35,42,34)         33.5272         calculate D2E/DX2 analytically  !
 ! D159  D(36,35,42,60)        149.4717         calculate D2E/DX2 analytically  !
 ! D160  D(40,35,42,34)        -84.8536         calculate D2E/DX2 analytically  !
 ! D161  D(40,35,42,60)         31.0908         calculate D2E/DX2 analytically  !
 ! D162  D(47,35,42,34)        159.2873         calculate D2E/DX2 analytically  !
 ! D163  D(47,35,42,60)        -84.7682         calculate D2E/DX2 analytically  !
 ! D164  D(36,35,47,48)        -66.8499         calculate D2E/DX2 analytically  !
 ! D165  D(36,35,47,49)        175.8235         calculate D2E/DX2 analytically  !
 ! D166  D(36,35,47,50)         54.3995         calculate D2E/DX2 analytically  !
 ! D167  D(40,35,47,48)         57.332          calculate D2E/DX2 analytically  !
 ! D168  D(40,35,47,49)        -59.9945         calculate D2E/DX2 analytically  !
 ! D169  D(40,35,47,50)        178.5815         calculate D2E/DX2 analytically  !
 ! D170  D(42,35,47,48)        169.9053         calculate D2E/DX2 analytically  !
 ! D171  D(42,35,47,49)         52.5788         calculate D2E/DX2 analytically  !
 ! D172  D(42,35,47,50)        -68.8452         calculate D2E/DX2 analytically  !
 ! D173  D(32,36,46,71)        119.5904         calculate D2E/DX2 analytically  !
 ! D174  D(35,36,46,71)       -119.2128         calculate D2E/DX2 analytically  !
 ! D175  D(41,36,46,71)         -0.5502         calculate D2E/DX2 analytically  !
 ! D176  D(10,37,52,51)       -115.6027         calculate D2E/DX2 analytically  !
 ! D177  D(10,37,52,83)         98.9626         calculate D2E/DX2 analytically  !
 ! D178  D(19,37,52,51)        158.5507         calculate D2E/DX2 analytically  !
 ! D179  D(19,37,52,83)         13.116          calculate D2E/DX2 analytically  !
 ! D180  D(34,37,52,51)         28.1414         calculate D2E/DX2 analytically  !
 ! D181  D(34,37,52,83)       -117.2933         calculate D2E/DX2 analytically  !
 ! D182  D(34,42,60,56)          1.2315         calculate D2E/DX2 analytically  !
 ! D183  D(35,42,60,56)       -127.3754         calculate D2E/DX2 analytically  !
 ! D184  D(33,44,63,64)        -48.0569         calculate D2E/DX2 analytically  !
 ! D185  D(33,44,63,65)         73.759          calculate D2E/DX2 analytically  !
 ! D186  D(33,44,63,66)       -166.2721         calculate D2E/DX2 analytically  !
 ! D187  D(32,45,67,68)        -59.208          calculate D2E/DX2 analytically  !
 ! D188  D(32,45,67,69)         62.744          calculate D2E/DX2 analytically  !
 ! D189  D(32,45,67,70)       -178.6465         calculate D2E/DX2 analytically  !
 ! D190  D(36,46,71,72)        -63.2666         calculate D2E/DX2 analytically  !
 ! D191  D(36,46,71,73)         58.4589         calculate D2E/DX2 analytically  !
 ! D192  D(36,46,71,74)        177.65           calculate D2E/DX2 analytically  !
 ! D193  D(35,47,50,75)        176.9399         calculate D2E/DX2 analytically  !
 ! D194  D(48,47,50,75)        -63.9238         calculate D2E/DX2 analytically  !
 ! D195  D(49,47,50,75)         56.743          calculate D2E/DX2 analytically  !
 ! D196  D(47,50,75,76)       -179.7282         calculate D2E/DX2 analytically  !
 ! D197  D(47,50,75,77)        -60.5209         calculate D2E/DX2 analytically  !
 ! D198  D(47,50,75,78)         60.8965         calculate D2E/DX2 analytically  !
 ! D199  D(43,51,52,37)       -151.2896         calculate D2E/DX2 analytically  !
 ! D200  D(43,51,52,83)       -101.9159         calculate D2E/DX2 analytically  !
 ! D201  D(53,51,52,37)        -20.8929         calculate D2E/DX2 analytically  !
 ! D202  D(53,51,52,83)         28.4808         calculate D2E/DX2 analytically  !
 ! D203  D(54,51,52,37)         91.54           calculate D2E/DX2 analytically  !
 ! D204  D(54,51,52,83)        140.9137         calculate D2E/DX2 analytically  !
 ! D205  D(43,51,53,34)        150.8769         calculate D2E/DX2 analytically  !
 ! D206  D(52,51,53,34)         19.8995         calculate D2E/DX2 analytically  !
 ! D207  D(54,51,53,34)        -93.0874         calculate D2E/DX2 analytically  !
 ! D208  D(43,51,54,55)        -30.7086         calculate D2E/DX2 analytically  !
 ! D209  D(43,51,54,56)        151.0811         calculate D2E/DX2 analytically  !
 ! D210  D(52,51,54,55)         91.4863         calculate D2E/DX2 analytically  !
 ! D211  D(52,51,54,56)        -86.724          calculate D2E/DX2 analytically  !
 ! D212  D(53,51,54,55)       -151.1491         calculate D2E/DX2 analytically  !
 ! D213  D(53,51,54,56)         30.6406         calculate D2E/DX2 analytically  !
 ! D214  D(37,52,83,19)        -11.5577         calculate D2E/DX2 analytically  !
 ! D215  D(37,52,83,84)        154.0797         calculate D2E/DX2 analytically  !
 ! D216  D(51,52,83,19)        -70.4133         calculate D2E/DX2 analytically  !
 ! D217  D(51,52,83,84)         95.2241         calculate D2E/DX2 analytically  !
 ! D218  D(51,54,55,57)       -178.1107         calculate D2E/DX2 analytically  !
 ! D219  D(51,54,55,58)          2.4889         calculate D2E/DX2 analytically  !
 ! D220  D(56,54,55,57)          0.0604         calculate D2E/DX2 analytically  !
 ! D221  D(56,54,55,58)       -179.3399         calculate D2E/DX2 analytically  !
 ! D222  D(51,54,56,59)        178.7131         calculate D2E/DX2 analytically  !
 ! D223  D(51,54,56,60)         -1.416          calculate D2E/DX2 analytically  !
 ! D224  D(55,54,56,59)          0.5289         calculate D2E/DX2 analytically  !
 ! D225  D(55,54,56,60)       -179.6003         calculate D2E/DX2 analytically  !
 ! D226  D(54,55,57,61)         -0.5609         calculate D2E/DX2 analytically  !
 ! D227  D(54,55,57,93)        176.3264         calculate D2E/DX2 analytically  !
 ! D228  D(58,55,57,61)        178.8356         calculate D2E/DX2 analytically  !
 ! D229  D(58,55,57,93)         -4.2771         calculate D2E/DX2 analytically  !
 ! D230  D(54,56,59,61)         -0.6294         calculate D2E/DX2 analytically  !
 ! D231  D(54,56,59,97)        175.623          calculate D2E/DX2 analytically  !
 ! D232  D(60,56,59,61)        179.4994         calculate D2E/DX2 analytically  !
 ! D233  D(60,56,59,97)         -4.2482         calculate D2E/DX2 analytically  !
 ! D234  D(54,56,60,42)         17.916          calculate D2E/DX2 analytically  !
 ! D235  D(59,56,60,42)       -162.2145         calculate D2E/DX2 analytically  !
 ! D236  D(55,57,61,59)          0.4623         calculate D2E/DX2 analytically  !
 ! D237  D(55,57,61,62)       -179.4854         calculate D2E/DX2 analytically  !
 ! D238  D(93,57,61,59)       -176.4262         calculate D2E/DX2 analytically  !
 ! D239  D(93,57,61,62)          3.626          calculate D2E/DX2 analytically  !
 ! D240  D(55,57,93,94)        -88.7596         calculate D2E/DX2 analytically  !
 ! D241  D(55,57,93,95)        151.8635         calculate D2E/DX2 analytically  !
 ! D242  D(55,57,93,96)         30.7522         calculate D2E/DX2 analytically  !
 ! D243  D(61,57,93,94)         88.1665         calculate D2E/DX2 analytically  !
 ! D244  D(61,57,93,95)        -31.2103         calculate D2E/DX2 analytically  !
 ! D245  D(61,57,93,96)       -152.3216         calculate D2E/DX2 analytically  !
 ! D246  D(56,59,61,57)          0.141          calculate D2E/DX2 analytically  !
 ! D247  D(56,59,61,62)       -179.9113         calculate D2E/DX2 analytically  !
 ! D248  D(97,59,61,57)       -176.0674         calculate D2E/DX2 analytically  !
 ! D249  D(97,59,61,62)          3.8803         calculate D2E/DX2 analytically  !
 ! D250  D(56,59,97,98)         34.3126         calculate D2E/DX2 analytically  !
 ! D251  D(56,59,97,99)        -84.8638         calculate D2E/DX2 analytically  !
 ! D252  D(56,59,97,100)       155.2965         calculate D2E/DX2 analytically  !
 ! D253  D(61,59,97,98)       -149.4183         calculate D2E/DX2 analytically  !
 ! D254  D(61,59,97,99)         91.4053         calculate D2E/DX2 analytically  !
 ! D255  D(61,59,97,100)       -28.4344         calculate D2E/DX2 analytically  !
 ! D256  D(19,83,84,85)       -178.3306         calculate D2E/DX2 analytically  !
 ! D257  D(19,83,84,89)         -2.0206         calculate D2E/DX2 analytically  !
 ! D258  D(52,83,84,85)         15.4011         calculate D2E/DX2 analytically  !
 ! D259  D(52,83,84,89)       -168.289          calculate D2E/DX2 analytically  !
 ! D260  D(83,84,85,86)       -123.0829         calculate D2E/DX2 analytically  !
 ! D261  D(83,84,85,87)         -3.7321         calculate D2E/DX2 analytically  !
 ! D262  D(83,84,85,88)        115.7181         calculate D2E/DX2 analytically  !
 ! D263  D(89,84,85,86)         60.5918         calculate D2E/DX2 analytically  !
 ! D264  D(89,84,85,87)        179.9426         calculate D2E/DX2 analytically  !
 ! D265  D(89,84,85,88)        -60.6072         calculate D2E/DX2 analytically  !
 ! D266  D(83,84,89,90)       -115.5517         calculate D2E/DX2 analytically  !
 ! D267  D(83,84,89,91)          4.1606         calculate D2E/DX2 analytically  !
 ! D268  D(83,84,89,92)        123.4433         calculate D2E/DX2 analytically  !
 ! D269  D(85,84,89,90)         61.5249         calculate D2E/DX2 analytically  !
 ! D270  D(85,84,89,91)       -178.7628         calculate D2E/DX2 analytically  !
 ! D271  D(85,84,89,92)        -59.48           calculate D2E/DX2 analytically  !
 --------------------------------------------------------------------------------
 Trust Radius=5.00D-02 FncErr=1.00D-07 GrdErr=1.00D-06 EigMax=2.50D+02 EigMin=1.00D-04
 Number of steps in this run=    588 maximum allowed number of steps=    600.
 Search for a saddle point of order  1.
 GradGradGradGradGradGradGradGradGradGradGradGradGradGradGradGradGradGrad

 Leave Link  103 at Sun Jun 16 11:40:37 2019, MaxMem=  6442450944 cpu:               3.9 elap:               0.2
 (Enter /home/ekwan/sw/g16/l202.exe)
 Stoichiometry    C30H47F6NaO15S
 Framework group  C1[X(C30H47F6NaO15S)]
 Deg. of freedom   294
 Full point group                 C1      NOp   1
 Largest Abelian subgroup         C1      NOp   1
 Largest concise Abelian subgroup C1      NOp   1
                         Standard orientation:                         
 ---------------------------------------------------------------------
 Center     Atomic      Atomic             Coordinates (Angstroms)
 Number     Number       Type             X           Y           Z
 ---------------------------------------------------------------------
      1          6           0       -1.838565    1.428015    2.237786
      2          6           0       -2.161758    2.265439    0.999058
      3          6           0       -1.332861    3.552152    0.990891
      4          6           0        0.444898    2.531543    2.263561
      5          6           0       -0.328971    1.210969    2.353076
      6          1           0       -1.454125    4.080157    0.035211
      7          1           0       -1.870064    1.701245    0.104845
      8          1           0       -2.197795    1.965599    3.124597
      9          1           0        0.183284    3.143323    3.136454
     10          1           0       -0.027711    0.558236    1.527603
     11          8           0        0.052458    3.242880    1.062580
     12          8           0       -1.746538    4.362545    2.052911
     13          8           0       -3.535557    2.615939    0.943167
     14          8           0       -2.517023    0.179729    2.118143
     15          8           0       -0.038192    0.582931    3.600053
     16          6           0        1.970628    2.363826    2.201301
     17          1           0        2.255705    1.859593    3.146558
     18          1           0        2.382573    3.395308    2.281043
     19          8           0        2.426676    1.714586    1.072070
     20          6           0       -4.310005    1.772015    0.103158
     21          1           0       -3.961584    1.816539   -0.938640
     22          1           0       -4.279844    0.732303    0.441721
     23          1           0       -5.337982    2.141100    0.145017
     24          6           0       -3.062102   -0.306395    3.336591
     25          1           0       -2.280512   -0.489328    4.081343
     26          1           0       -3.792921    0.402636    3.751679
     27          1           0       -3.569017   -1.243268    3.100530
     28          6           0        0.749626   -0.595309    3.480605
     29          1           0        0.212388   -1.370781    2.922516
     30          1           0        1.704951   -0.401239    2.981451
     31          1           0        0.939827   -0.950686    4.497020
     32          6           0        3.897586   -1.446612   -1.334616
     33          6           0        3.238426   -0.153779   -0.845321
     34          6           0        1.888644   -0.411211   -0.252033
     35          6           0        2.308779   -2.750063    0.137916
     36          6           0        3.772700   -2.492112   -0.219162
     37          1           0        1.208413    0.403599   -0.089491
     38          1           0        3.806006    0.232266    0.018213
     39          1           0        3.388930   -1.796861   -2.240849
     40          1           0        1.793772   -3.196244   -0.717384
     41          1           0        4.296702   -2.117276    0.666355
     42          8           0        1.593737   -1.485617    0.389644
     43          8           0       -0.519782    0.221435   -3.890146
     44          8           0        3.112751    0.875086   -1.803796
     45          8           0        5.265938   -1.185622   -1.590643
     46          8           0        4.317448   -3.731599   -0.636588
     47          6           0        2.088388   -3.606029    1.364191
     48          1           0        2.450050   -4.620599    1.142138
     49          1           0        1.010086   -3.666082    1.573111
     50          8           0        2.785915   -3.033965    2.449409
     51         16           0       -0.283222    0.053208   -2.440625
     52          8           0       -0.190509    1.334364   -1.673517
     53          8           0        0.876068   -0.865503   -2.123455
     54          6           0       -1.721696   -0.796626   -1.767978
     55          6           0       -2.972384   -0.604920   -2.349332
     56          6           0       -1.564745   -1.606850   -0.648052
     57          6           0       -4.080222   -1.240928   -1.788972
     58          1           0       -3.075833    0.020834   -3.227820
     59          6           0       -2.679628   -2.244211   -0.108816
     60          1           0       -0.589497   -1.743324   -0.201104
     61          6           0       -3.941097   -2.065701   -0.671957
     62          1           0       -4.805646   -2.562099   -0.248592
     63          6           0        4.298990    1.659550   -1.985984
     64          1           0        4.703548    1.968699   -1.015836
     65          1           0        5.057366    1.102336   -2.539182
     66          1           0        3.992271    2.543782   -2.546695
     67          6           0        5.778687   -1.846973   -2.744959
     68          1           0        5.677067   -2.933380   -2.659475
     69          1           0        5.265258   -1.504781   -3.653911
     70          1           0        6.836061   -1.580715   -2.808844
     71          6           0        5.404349   -4.182294    0.170171
     72          1           0        6.250992   -3.487954    0.109767
     73          1           0        5.099631   -4.290905    1.218705
     74          1           0        5.702054   -5.155388   -0.225615
     75          6           0        2.573696   -3.742222    3.661218
     76          1           0        3.144668   -3.225749    4.435042
     77          1           0        1.509578   -3.746443    3.936579
     78          1           0        2.923495   -4.781547    3.582028
     79          6           0       -1.144912    5.652786    2.045486
     80          1           0       -1.613071    6.222440    2.850474
     81          1           0       -0.064414    5.593010    2.219518
     82          1           0       -1.324430    6.161228    1.087351
     83         11           0        1.449221    2.695491   -0.751911
     84          8           0        2.741821    4.529993   -1.125734
     85          6           0        2.680787    5.585145   -2.073883
     86          1           0        3.614839    5.648427   -2.649047
     87          1           0        1.852358    5.364409   -2.750456
     88          1           0        2.500946    6.548856   -1.578091
     89          6           0        3.789944    4.693510   -0.174877
     90          1           0        3.644315    5.611808    0.409732
     91          1           0        3.752776    3.820921    0.480550
     92          1           0        4.765297    4.739807   -0.678807
     93          6           0       -5.450141   -0.979985   -2.352323
     94          9           0       -6.034934    0.086747   -1.751398
     95          9           0       -6.277344   -2.030789   -2.171506
     96          9           0       -5.408725   -0.710983   -3.673011
     97          6           0       -2.491612   -3.196152    1.038933
     98          9           0       -1.491211   -2.806483    1.864508
     99          9           0       -2.169148   -4.436405    0.604588
    100          9           0       -3.610296   -3.319023    1.786471
 ---------------------------------------------------------------------
 Rotational constants (GHZ):           0.0577789           0.0443067           0.0367989
 Leave Link  202 at Sun Jun 16 11:40:37 2019, MaxMem=  6442450944 cpu:               4.8 elap:               0.2
 (Enter /home/ekwan/sw/g16/l301.exe)
 Standard basis: 6-31G(d) (6D, 7F)
 Centers:      19     53     43     52
 SP 1 1.00
     Exponent=  8.4500000000D-02 Coefficients=  1.0000000000D+00  1.0000000000D+00
 ****
 Ernie: Thresh=  0.10000D-02 Tol=  0.10000D-05 Strict=F.
 There are   913 symmetry adapted cartesian basis functions of A   symmetry.
 There are   913 symmetry adapted basis functions of A   symmetry.
   913 basis functions,  1736 primitive gaussians,   913 cartesian basis functions
   214 alpha electrons      214 beta electrons
       nuclear repulsion energy      9736.5939979295 Hartrees.
 IExCor=  402 DFT=T Ex+Corr=B3LYP ExCW=0 ScaHFX=  0.200000
 ScaDFX=  0.800000  0.720000  1.000000  0.810000 ScalE2=  1.000000  1.000000
 IRadAn=      5 IRanWt=     -1 IRanGd=            0 ICorTp=0 IEmpDi=141
 NAtoms=  100 NActive=  100 NUniq=  100 SFac= 1.00D+00 NAtFMM=   60 NAOKFM=T Big=T
 Integral buffers will be    131072 words long.
 Raffenetti 2 integral format.
 Two-electron integral symmetry is turned on.
 R6Disp:  Grimme-D3(BJ) Dispersion energy=       -0.2352708437 Hartrees.
 Nuclear repulsion after empirical dispersion term =     9736.3587270857 Hartrees.
 Force inversion solution in PCM.
 ------------------------------------------------------------------------------
 Polarizable Continuum Model (PCM)
[...]
 05182,-0.00012958,0.00006331,0.00007165,-0.00011381,0.00016755,0.00001
 095,0.00014534,0.00001119,-0.00003854,-0.00015717,0.00005169,-0.000003
 66,0.00013990,-0.00037810,-0.00007774,-0.00003217,0.00019089,-0.000041
 56,0.00336482,0.00126489,-0.00147645,-0.00087740,-0.00102727,0.0000082
 2,-0.00154794,0.00021541,-0.00000940,-0.00015522,0.00084445,0.00186483
 ,0.00046063,-0.00079720,0.00049207,0.00309882,0.00025767,0.00025574,0.
 00014054,0.00047812,0.00271535,0.00007712,-0.00015723,-0.00017641,0.01
 439280,-0.04330361,-0.00261937,0.00019836,-0.00066921,-0.00083259,-0.0
 0375176,-0.00218653,0.00014026,0.00029403,-0.00074846,-0.00086084,0.00
 010497,0.00007514,-0.00003286,-0.00001033,-0.00000729,-0.00000599,-0.0
 0002730,-0.00000474,0.00001287,-0.00000133,-0.00001067,0.00000488,0.00
 002991,-0.00005554,-0.00007208,-0.00000464,0.00001730,0.00000536,-0.00
 000014,0.00000112,0.00000736,-0.00000923,0.00000461,0.00001041,0.00004
 537,-0.00003351,0.00004532,-0.00000133,0.00000778,-0.00000758,-0.00000
 146,-0.00000973,-0.00001168,-0.00002348,0.00001416,0.00000260,0.000050
 66,-0.00009811,0.00008213,0.00001069,0.00001247,-0.00000414,-0.0000053
 9,-0.00004804,0.00000037,-0.00004870,0.00004314,-0.00000271,0.00006035
 ,0.00015278,-0.00000989,0.00000049,-0.00002829,-0.00001343,-0.00002056
 ,-0.00001233,0.00000316,-0.00000756,-0.00002104,0.00001507,0.00017212,
 0.00018968,-0.00001980,-0.00004303,-0.00005189,0.00000780,0.00001071,0
 .00003288,-0.00002813,-0.00001094,-0.00000370,0.00000631,0.00000041,0.
 00000175,-0.00000450,0.00000049,-0.00000784,-0.00000078,0.00003291,0.0
 0001042,0.00001410,-0.00000107,-0.00000805,-0.00000134,0.00001887,0.00
 000951,0.00000178,-0.00001107,-0.00000616,0.00000769,-0.00293861,0.000
 23479,-0.00084679,0.00081798,-0.00046630,0.00001425,0.00089069,0.00034
 205,0.00019892,0.00076301,-0.00026197,0.00091411,0.04220908,-0.2380319
 3,-0.03401463,-0.02090741,-0.03811435,-0.03937523,-0.06535969,0.328542
 30,0.00020505,0.00034453,-0.00001353,-0.00009322,-0.00000334,-0.000161
 71,-0.00000668,0.00001049,0.00000869,-0.00002447,0.00010212,-0.0000629
 3,-0.00002475,0.00011434,-0.00017952,-0.00000504,-0.00003103,0.0000108
 1,0.00000366,-0.00001732,0.00000391,-0.00002446,-0.00005124,-0.0000028
 4,-0.00000909,-0.00000783,0.00000814,0.00000165,0.00000661,-0.00002039
 ,0.00002311,-0.00005839,0.00009141,0.00000516,-0.00002131,0.00002509,0
 .00013114,0.00006589,0.00017065,-0.00001559,-0.00062559,0.00013138,0.0
 0003283,-0.00037753,0.00008509,0.00006466,-0.00002080,-0.00009258,0.00
 001323,0.00000151,0.00003344,-0.00002387,-0.00000094,0.00002499,-0.000
 04939,0.00003437,0.00013478,-0.00005137,-0.00009546,-0.00016346,-0.000
 01448,-0.00005108,0.00007878,0.00000543,0.00000250,-0.00008124,-0.0000
 0678,0.00002118,0.00001923,0.00023614,0.00051421,0.00001721,-0.0000115
 9,-0.00001171,0.00007017,-0.00002726,-0.00019788,-0.00000961,-0.000320
 94,0.00012062,0.00024822,0.00006992,0.00056365,0.00029375,0.00017072,-
 0.00015050,-0.00004505,-0.00009183,-0.00010076,-0.00007337,-0.00003705
 ,-0.00004989,-0.00005628,-0.00003974,0.00000396,-0.00002890,0.00000865
 ,0.00000644,0.00000371,-0.00020441,-0.00002057,-0.00038538,-0.00007908
 ,0.00000756,-0.00015612,0.00001339,-0.00001362,0.00001998,0.00000466,-
 0.00001290,-0.00001791,0.00001186,-0.00000258,-0.00001215,-0.00000670,
 0.00000384,0.00001590,-0.00001217,0.00000005,0.00002543,0.00001981,0.0
 0000522,-0.00000093,0.00008114,-0.00008765,0.00018260,0.00026196,0.000
 19592,-0.00025306,0.00003520,0.00001192,0.00002250,0.00001436,0.000000
 18,0.00002666,0.00001762,-0.00000976,0.00003126,0.00029622,0.00004660,
 -0.00010373,-0.00007585,0.00001694,0.00002188,0.00016794,-0.00009899,-
 0.00002474,-0.00010439,0.00000942,0.00007697,-0.00106794,-0.00060836,0
 .00025568,0.00025922,0.00039444,0.00010388,0.00055594,0.00002798,0.000
 14488,-0.00013542,-0.00070524,-0.00044746,-0.00018996,0.00040183,-0.00
 040502,-0.00099298,-0.00000276,0.00011386,0.00042457,-0.00050471,-0.00
 081740,-0.00002305,0.00002665,0.00008442,-0.00481090,0.01936462,0.0090
 8743,0.00002110,0.00034390,-0.00001208,0.00121425,0.00056263,0.0004352
 7,-0.00026717,0.00026177,0.00006141,-0.00001994,-0.00002062,0.00000192
 ,0.00000664,0.00000372,0.00000493,0.00000273,0.00000167,-0.00000136,-0
 .00000081,-0.00000101,-0.00000181,-0.00000537,-0.00000477,-0.00001265,
 -0.00000243,0.00000249,-0.00000264,0.00000078,-0.00000403,0.00000568,0
 .00000396,0.00000190,0.00000091,-0.00001430,0.00000685,-0.00002760,0.0
 0000301,0.00000172,0.00000261,0.00000513,-0.00000473,0.00000876,-0.000
 00242,0.00000146,0.00000184,0.00012365,-0.00000864,-0.00003978,-0.0000
 1341,-0.00000437,0.00000320,-0.00004335,-0.00001577,0.00002903,-0.0000
 2203,0.00001382,0.00000705,0.00000335,0.00002148,-0.00000461,-0.000000
 62,0.00000037,-0.00000040,-0.00000026,-0.00000005,-0.00000082,0.000000
 46,-0.00000547,0.00000588,-0.00003226,-0.00005430,-0.00006496,0.000010
 12,0.00000680,0.00001791,-0.00000315,-0.00000130,-0.00000651,-0.000000
 52,-0.00000097,0.00000045,0.00000300,-0.00000160,0.00000200,0.00000005
 ,0.00000200,0.00000219,-0.00001051,-0.00000081,-0.00001416,0.00000124,
 0.00000412,0.00000190,0.00000143,-0.00000246,-0.00000132,0.00000100,-0
 .00000022,0.00000208,0.00095061,-0.00026393,0.00017130,-0.00027365,0.0
 0019692,0.00003138,-0.00027443,-0.00005300,-0.00003181,-0.00023517,0.0
 0010299,-0.00018440,0.00889026,-0.03354051,-0.07941045,-0.01301590,-0.
 04830522,-0.01897006,-0.02433388,0.09625080,0.10483345,-0.00015616,-0.
 00013270,-0.00002672,-0.00004059,0.00008514,0.00006636,-0.00013319,0.0
 0009903,0.00000841,0.00005827,0.00005636,-0.00004656,-0.00012432,0.000
 31463,-0.00004143,0.00001545,0.00000407,0.00000156,-0.00000092,0.00002
 075,-0.00001978,0.00001669,-0.00003461,-0.00002827,-0.00000374,-0.0000
 3578,-0.00001196,0.00003920,-0.00001246,-0.00006141,0.00008087,-0.0001
 1378,0.00003127,0.00004084,-0.00007466,-0.00004720,0.00012722,-0.00002
 860,-0.00005691,0.00063730,0.00019238,-0.00041518,0.00029248,-0.000582
 13,-0.00006227,-0.00005782,0.00007145,0.00012550,0.00002219,0.00000736
 ,-0.00001775,0.00000086,-0.00006683,-0.00003003,-0.00002321,-0.0002012
 4,-0.00013356,-0.00004838,-0.00006704,0.00007771,0.00002384,0.00006913
 ,-0.00007159,-0.00002967,0.00000646,0.00008660,0.00002805,-0.00002902,
 -0.00000225,-0.00094566,-0.00105180,0.00054405,0.00014166,0.00029105,0
 .00015139,0.00011655,0.00017891,0.00002671,0.00009488,-0.00060009,-0.0
 0079992,0.00006090,0.00095550,0.00046102,0.00012064,-0.00016640,0.0000
 5829,-0.00007516,-0.00011166,-0.00009702,-0.00008082,-0.00009890,-0.00
 012156,0.00007780,0.00002713,-0.00007242,-0.00002098,0.00005943,-0.000
 04188,0.00029389,0.00062882,-0.00013067,0.00009716,-0.00000878,-0.0001
 1997,0.00016165,-0.00009905,0.00000641,-0.00000140,0.00003736,0.000000
 56,-0.00000160,0.00001037,0.00003539,0.00000266,0.00000018,-0.00000586
 ,0.00001555,-0.00000766,-0.00003106,-0.00001652,0.00000151,-0.00000317
 ,-0.00028023,-0.00043685,0.00024101,-0.00020548,-0.00023191,0.00055758
 ,-0.00011354,-0.00012755,0.00006953,-0.00016058,-0.00001510,0.00010130
 ,-0.00016846,0.00007882,0.00000591,0.00086751,0.00024655,0.00010311,-0
 .00018206,0.00001794,0.00003999,0.00004431,-0.00038468,0.00011447,-0.0
 0039939,-0.00002788,-0.00037438,0.00095230,0.00074007,-0.00050847,-0.0
 0023286,-0.00052476,-0.00007821,-0.00036153,-0.00013792,0.00013376,-0.
 00058406,-0.00031547,-0.00029638,0.00038370,0.00009238,0.00006606,0.00
 167433,-0.00114062,0.00236633,0.00117383,-0.00076595,0.00064288,0.0001
 5953,0.00010345,0.00000325,-0.00933327,-0.00252889,0.01275464,0.000533
 22,0.00058629,-0.00044316,-0.00340407,0.00008955,-0.00304369,0.0021670
 2,0.00095737,0.00012782,0.00009062,0.00007006,-0.00001147,-0.00000897,
 -0.00000213,-0.00000747,-0.00001691,-0.00000098,0.00000453,-0.00000560
 ,-0.00001383,0.00000796,0.00003580,-0.00003779,-0.00007542,0.00000647,
 0.00000579,0.00000327,0.00000218,0.00000507,0.00001158,-0.00001651,0.0
 0000064,0.00001002,0.00011477,-0.00004008,0.00005725,-0.00002299,-0.00
 000809,-0.00000512,0.00000808,-0.00000539,-0.00000419,-0.00001093,0.00
 001459,-0.00000041,0.00010382,-0.00017000,0.00021421,-0.00003231,-0.00
 000328,-0.00003827,-0.00002035,0.00000304,0.00003107,-0.00001709,0.000
 05142,-0.00000755,-0.00000063,0.00003056,-0.00000117,0.00000154,-0.000
 00846,-0.00000490,0.00000185,0.00000038,0.00000296,-0.00000182,-0.0000
 0331,0.00000274,0.00003071,0.00014256,-0.00000756,-0.00000767,-0.00003
 985,0.00000557,-0.00000127,0.00002502,-0.00001751,-0.00000240,-0.00000
 220,0.00000319,-0.00000036,0.00000182,0.00000111,-0.00000033,-0.000008
 25,-0.00000155,0.00000806,0.00001141,0.00000337,0.00000042,-0.00000898
 ,-0.00000013,0.00001076,0.00000978,0.00000378,-0.00000184,-0.00000263,
 0.00000254,-0.00103005,-0.00012679,0.00015575,0.00032860,-0.00016488,-
 0.00008363,0.00033657,0.00018411,-0.00005478,0.00022664,-0.00003851,0.
 00008741,-0.18007063,-0.02537837,0.09233067,-0.07475440,-0.02047723,0.
 00295303,-0.02774820,0.02898623,0.03277402,0.28912768,0.00018187,0.000
 36178,0.00008177,-0.00010201,0.00003543,0.00003335,0.00005800,0.000157
 44,0.00006285,-0.00001214,0.00008530,0.00000190,0.00003344,0.00000831,
 0.00008752,-0.00001054,-0.00003113,0.00000397,0.00001868,0.00002872,-0
 .00001160,-0.00001298,-0.00003090,-0.00002265,-0.00000160,-0.00002194,
 -0.00001270,0.00002225,-0.00000256,-0.00001805,-0.00003949,-0.00007892
 ,-0.00002487,-0.00002172,-0.00015503,-0.00005002,0.00000886,-0.0001418
 6,-0.00006628,-0.00009644,-0.00037040,-0.00012352,-0.00012936,-0.00003
 321,-0.00007904,0.00002042,-0.00000844,0.00006217,0.00000250,0.0000076
 0,-0.00002107,-0.00002322,-0.00003997,-0.00001380,-0.00007612,-0.00007
 317,-0.00006747,-0.00000149,0.00013949,0.00004938,0.00000639,0.0000508
 0,-0.00003693,-0.00005666,-0.00002631,0.00005011,0.00003667,-0.0000451
 7,-0.00000927,0.00107463,0.00066847,-0.00049876,-0.00014010,-0.0002378
 4,-0.00010423,-0.00022262,-0.00047228,-0.00016014,-0.00106501,-0.00276
 799,-0.00076510,0.00011408,0.00004002,0.00008937,0.00002768,-0.0000274
 1,0.00002539,-0.00002361,-0.00000508,-0.00000644,-0.00002645,-0.000007
 90,-0.00004628,0.00006190,-0.00002674,-0.00001954,-0.00000256,0.000007
 78,-0.00003653,0.00027553,0.00015768,0.00025620,0.00011260,-0.00022007
 ,-0.00001377,0.00005230,-0.00002775,0.00000664,0.00002108,0.00002139,-
 0.00000706,-0.00001077,0.00000046,0.00002329,0.00000455,-0.00000490,-0
 .00000771,-0.00000390,-0.00000958,0.00000796,-0.00000299,0.00000131,0.
 00000058,-0.00021412,0.00007357,-0.00006209,-0.00038170,-0.00021045,0.
 00067599,-0.00009497,-0.00003955,0.00002500,-0.00007504,0.00002306,0.0
 0003560,-0.00006944,0.00007604,-0.00000274,0.00011212,0.00003425,0.000
 02424,-0.00006175,0.00001719,-0.00000200,0.00002012,-0.00017002,-0.000
 00410,-0.00004280,0.00006144,-0.00009116,0.00190942,0.00051455,-0.0007
 2146,-0.00053772,-0.00061107,-0.00006459,-0.00077175,0.00008796,-0.000
 03083,-0.00044351,-0.00155980,0.00030839,-0.00047707,-0.00034982,0.000
 42037,0.00224486,-0.00016831,0.00310600,-0.00007782,-0.00008980,-0.000
 10837,0.00001544,0.00003822,0.00001202,-0.02113661,0.00275908,0.018887
 78,0.00010597,0.00048767,-0.00006703,-0.00046992,-0.00063335,0.0006377
 0,0.00006767,-0.00046138,0.00088085,0.00005812,0.00004376,-0.00001578,
 -0.00000649,-0.00000403,-0.00000424,-0.00001380,-0.00000227,0.00000619
 ,-0.00000083,-0.00000596,0.00000319,0.00001769,-0.00002549,-0.00003569
 ,-0.00000038,0.00000695,0.00000315,0.00000008,0.00000195,0.00000319,-0
 .00000673,0.00000141,0.00000522,0.00003604,-0.00001941,0.00003113,-0.0
 0000428,0.00000124,-0.00000410,-0.00000072,-0.00000311,-0.00000690,-0.
 00000954,0.00000701,0.00000037,-0.00000331,-0.00005874,0.00007369,0.00
 000335,0.00000451,-0.00000751,0.00000740,-0.00001143,-0.00000308,-0.00
 001245,0.00001922,-0.00000383,0.00003056,0.00007771,-0.00000358,0.0000
 0026,-0.00001489,-0.00000726,-0.00001038,-0.00000646,0.00000191,-0.000
 00445,-0.00001096,0.00000732,0.00009014,0.00010796,-0.00000485,-0.0000
 2161,-0.00002868,0.00000161,0.00000470,0.00001768,-0.00001380,-0.00000
 498,-0.00000167,0.00000321,-0.00000030,0.00000120,-0.00000202,0.000000
 25,-0.00000470,-0.00000088,0.00001713,0.00000608,0.00000908,-0.0000005
 9,-0.00000508,-0.00000094,0.00000938,0.00000531,0.00000131,-0.00000528
 ,-0.00000299,0.00000340,-0.00126854,0.00012138,-0.00048469,0.00038119,
 -0.00020109,0.00001449,0.00041454,0.00014665,0.00008509,0.00027296,-0.
 00008399,0.00031850,-0.02221623,-0.07847771,0.02327409,-0.02045064,0.0
 0665698,0.00154723,0.04189479,-0.00564267,-0.03397946,0.02112993,0.080
 59941,0.00025493,0.00044153,0.00009965,-0.00011280,-0.00007293,-0.0002
 4837,0.00007360,-0.00008427,0.00000429,-0.00007654,0.00007375,-0.00004
 692,0.00005934,-0.00010681,-0.00018633,-0.00001575,-0.00003798,0.00001
 093,0.00000606,-0.00004220,0.00002174,-0.00002314,0.00001039,0.0000304
 2,-0.00000638,0.00001813,0.00002023,-0.00003073,0.00001979,0.00002558,
 -0.00001198,0.00002442,0.00009398,-0.00001338,0.00005183,0.00006856,0.
 00009774,0.00013462,0.00024649,-0.00055828,-0.00072399,0.00060770,-0.0
 0017075,-0.00002173,0.00015553,0.00010444,-0.00007116,-0.00018963,-0.0
 0000013,-0.00000450,0.00005160,-0.00002449,0.00004830,0.00004831,-0.00
 001624,0.00017365,0.00025014,-0.00004658,-0.00012810,-0.00021973,-0.00
 002431,-0.00010690,0.00012165,0.00002242,0.00000553,-0.00015374,-0.000
 02634,0.00004753,0.00002421,0.00186709,0.00144447,-0.00069029,-0.00015
 641,-0.00026050,-0.00002808,-0.00028434,-0.00060588,-0.00007427,-0.001
 18206,-0.00100137,-0.00003177,0.00006042,-0.00009404,-0.00005390,0.000
 01368,0.00000924,-0.00002174,-0.00003579,-0.00001168,0.00000252,0.0000
 2246,0.00001780,0.00003161,-0.00010400,0.00001197,0.00001527,0.0000204
 4,-0.00001602,0.00004461,-0.00050162,-0.00037661,-0.00052773,-0.000171
 50,0.00017023,-0.00007633,-0.00008041,0.00003761,0.00000688,-0.0000035
 5,-0.00004359,-0.00002072,0.00002094,-0.00000827,-0.00004181,-0.000009
 58,0.00000763,0.00002269,-0.00000719,0.00000983,0.00002487,0.00002396,
 0.00000272,0.00000042,0.00033535,0.00002490,0.00014018,0.00067377,0.00
 047513,-0.00111679,0.00013983,0.00008511,-0.00001811,0.00012004,-0.000
 00908,-0.00003613,0.00011964,-0.00008278,0.00002585,-0.00010193,-0.000
 02474,-0.00014373,0.00001776,-0.00000183,0.00001221,0.00007342,0.00001
 123,-0.00001818,0.00006613,-0.00000921,0.00023611,-0.00301427,-0.00126
 573,0.00081449,0.00076759,0.00113017,0.00026084,0.00129748,-0.00001595
 ,0.00012789,0.00196125,0.00152370,-0.00041377,0.00011250,0.00039186,-0
 .00052682,-0.00437360,0.00274910,-0.00557388,0.00018270,0.00048795,-0.
 00016069,-0.00003563,-0.00004520,-0.00002426,0.03656026,0.00971037,-0.
 01958457,-0.00017208,-0.00037674,0.00006313,0.00143058,0.00024298,-0.0
 0039494,-0.00007770,0.00052979,-0.00198353,-0.00009005,-0.00007512,0.0
 0001716,0.00001492,0.00000719,0.00001022,0.00001833,0.00000388,-0.0000
 0665,0.00000171,0.00000792,-0.00000704,-0.00002908,0.00002573,0.000039
 84,-0.00000392,-0.00000440,-0.00000533,-0.00000023,-0.00000634,-0.0000
 0149,0.00001377,0.00000030,-0.00000630,-0.00007508,0.00003035,-0.00006
 237,0.00001372,0.00000434,0.00000598,0.00000208,-0.00000106,0.00001265
 ,0.00000720,-0.00000817,0.00000235,0.00006199,0.00007676,-0.00013804,0
 .00000347,-0.00000257,0.00001967,-0.00003278,-0.00001222,0.00000579,-0
 .00001036,-0.00001435,0.00001061,-0.00000290,-0.00001003,-0.00000349,-
 0.00000197,0.00000822,0.00000357,0.00000114,0.00000079,-0.00000310,0.0
 0000225,-0.00000223,0.00000364,-0.00009318,-0.00017873,-0.00007939,0.0
 0002375,0.00003897,0.00001603,-0.00000478,-0.00002080,0.00000743,0.000
 00271,0.00000089,-0.00000228,0.00000348,-0.00000322,0.00000253,0.00000
 034,0.00000814,0.00000331,-0.00002263,-0.00000848,-0.00002079,0.000001
 64,0.00001092,0.00000247,-0.00000720,-0.00000980,-0.00000395,0.0000042
 2,0.00000224,-0.00000017,0.00205975,-0.00039719,0.00056285,-0.00067334
 ,0.00044467,0.00006813,-0.00065259,-0.00016566,-0.00010354,-0.00044789
 ,0.00016746,-0.00047485,0.08225676,0.02482183,-0.14946924,-0.01050246,
 -0.00179921,0.02215632,0.03323391,-0.02412057,-0.01490119,-0.14011303,
 -0.01329391,0.17123485\\-0.00000061,-0.00000023,0.00000019,-0.00000028
 ,-0.00000021,0.00000021,-0.00000007,-0.00000106,0.00000073,-0.00000105
 ,-0.00000170,0.00000169,-0.00000024,-0.00000063,-0.00000043,-0.0000001
 8,0.00000017,0.00000139,0.00000041,-0.00000023,0.00000028,-0.00000049,
 -0.00000169,-0.00000028,-0.00000061,-0.00000164,0.00000118,-0.00000003
 ,-0.00000006,0.00000077,-0.00000044,-0.00000008,0.00000032,-0.00000079
 ,-0.00000066,0.00000164,-0.00000047,-0.00000115,0.00000030,-0.00000117
 ,-0.00000152,-0.00000089,-0.00000071,-0.00000128,-0.00000022,0.0000002
 9,-0.00000058,0.00000078,-0.00000063,-0.00000130,0.00000145,-0.0000012
 8,-0.00000079,0.00000247,-0.00000070,-0.00000048,0.00000152,-0.0000005
 6,0.00000085,-0.00000064,0.00000033,0.00000043,-0.00000055,0.00000011,
 -0.00000063,-0.00000070,0.00000011,-0.00000025,-0.00000069,0.00000030,
 -0.00000145,-0.00000125,-0.00000133,-0.00000180,-0.00000143,-0.0000011
 2,-0.00000163,-0.00000099,-0.00000078,-0.00000168,-0.00000189,-0.00000
 084,-0.00000116,0.00000002,-0.00000101,-0.00000150,-0.00000135,-0.0000
 0054,-0.00000101,-0.00000009,-0.00000109,-0.00000187,-0.00000050,0.000
 00116,0.00000105,0.00000022,0.00000103,0.00000166,0.00000263,0.0000007
 4,-0.00000265,-0.00000304,0.00000085,0.00000028,-0.00000075,0.00000018
 ,0.00000032,-0.00000059,0.00000024,0.00000236,0.00000181,0.00000019,-0
 .00000009,0.00000025,0.00000097,0.00000103,-0.00000038,0.00000064,0.00
 000074,-0.00000136,0.00000007,-0.00000004,-0.00000015,-0.00000010,-0.0
 0000006,-0.00000095,0.00000141,0.00000147,0.00000052,0.00000088,0.0000
 0096,0.00000014,0.00000022,0.00000076,0.00000041,0.00000064,0.00000050
 ,-0.00000050,-0.00000099,-0.00000096,-0.00000111,0.00000010,-0.0000005
 7,-0.00000188,0.00000066,-0.00000053,-0.00000190,0.00000009,-0.0000008
 1,-0.00000033,-0.00000186,0.00000011,-0.00000158,0.00000056,0.00000240
 ,0.00000052,0.00000053,0.00000083,0.00000081,0.00000093,0.00000089,-0.
 00000051,0.00000106,0.00000135,-0.00000173,0.00000047,0.00000109,-0.00
 000222,-0.00000008,0.00000079,-0.00000092,0.00000093,0.00000143,-0.000
 00071,0.00000049,0.00000023,-0.00000211,-0.00000133,-0.00000014,-0.000
 00091,0.00000076,0.00000052,-0.00000280,0.00000007,0.00000017,-0.00000
 262,0.00000046,0.00000167,0.00000208,0.00000004,0.00000059,0.00000145,
 0.00000092,0.00000115,0.00000131,0.00000064,0.00000119,0.00000191,0.00
 000046,0.00000137,0.00000083,0.00000093,0.00000180,-0.00000020,0.00000
 112,0.00000205,0.00000042,0.00000109,0.00000167,0.00000069,0.00000001,
 0.00000023,-0.00000095,0.00000004,0.00000025,-0.00000024,0.00000003,-0
 .00000031,-0.00000113,0.00000021,0.00000060,-0.00000102,-0.00000141,-0
 .00000127,-0.00000190,-0.00000077,-0.00000165,-0.00000071,-0.00000070,
 -0.00000171,-0.00000154,-0.00000054,-0.00000170,-0.00000177,-0.0000000
 6,-0.00000102,0.00000235,-0.00000092,-0.00000120,0.00000235,-0.0000010
 6,-0.00000088,0.00000224,-0.00000046,-0.00000032,0.00000198,0.00000057
 ,0.00000040,0.00000112,0.00000119,0.00000154,0.00000455,-0.00000019,0.
 00000074,0.00000229,0.00000071,0.00000139,0.00000335,0.00000065,0.0000
 0153,0.00000276,0.00000023,0.00000123,0.00000365,0.00000048,-0.0000017
 0,0.00000465,-0.00000035,0.00000005,0.00000321,-0.00000148,0.00000164,
 -0.00000007,0.00000016,0.00000083,0.00000341,0.00000124,0.00000032,-0.
 00000178,0.00000074,0.00000082,-0.00000180,0.00000045,0.00000088,-0.00
 000295,0.00000089,0.00000179,-0.00000246,-0.00000057,-0.00000081,-0.00
 000194,-0.00000049,-0.00000059,-0.00000182,-0.00000013,-0.00000024,-0.
 00000281,-0.00000016,-0.00000061,-0.00000282\\\@


 TELEVISION IS CALLED A MEDIUM BECAUSE IT ISN'T
 RARE, AND IT ISN'T WELL DONE.
 Job cpu time:       5 days  7 hours  0 minutes 28.0 seconds.
 Elapsed time:       0 days  4 hours 35 minutes  8.6 seconds.
 File lengths (MBytes):  RWF=   9969 Int=      0 D2E=      0 Chk=     88 Scr=      1
 Normal termination of Gaussian 16 at Sun Jun 16 20:22:50 2019.
