 Entering Gaussian System, Link 0=g16
 Input=clay_new-glu_gluC6-BCDR-Na2_1Me2O-bisCF3-ts-m11-custom-pcm_thf.gjf
 Output=clay_new-glu_gluC6-BCDR-Na2_1Me2O-bisCF3-ts-m11-custom-pcm_thf.out
 Initial command:
 /home/ekwan/sw/g16/l1.exe "/scratch/users/ekwan/clay_new-glu_gluC6-BCDR-Na2_1Me2O-bisCF3-ts-m11-custom-pcm_thf/Gau-33557.inp" -scrdir="/scratch/users/ekwan/clay_new-glu_gluC6-BCDR-Na2_1Me2O-bisCF3-ts-m11-custom-pcm_thf/"
 Entering Link 1 = /home/ekwan/sw/g16/l1.exe PID=     33558.
  
 Copyright (c) 1988,1990,1992,1993,1995,1998,2003,2009,2016,
            Gaussian, Inc.  All Rights Reserved.
  
 This is part of the Gaussian(R) 16 program.  It is based on
 the Gaussian(R) 09 system (copyright 2009, Gaussian, Inc.),
 the Gaussian(R) 03 system (copyright 2003, Gaussian, Inc.),
 the Gaussian(R) 98 system (copyright 1998, Gaussian, Inc.),
 the Gaussian(R) 94 system (copyright 1995, Gaussian, Inc.),
 the Gaussian 92(TM) system (copyright 1992, Gaussian, Inc.),
 the Gaussian 90(TM) system (copyright 1990, Gaussian, Inc.),
 the Gaussian 88(TM) system (copyright 1988, Gaussian, Inc.),
 the Gaussian 86(TM) system (copyright 1986, Carnegie Mellon
 University), and the Gaussian 82(TM) system (copyright 1983,
 Carnegie Mellon University). Gaussian is a federally registered
 trademark of Gaussian, Inc.
  
 This software contains proprietary and confidential information,
 including trade secrets, belonging to Gaussian, Inc.
  
 This software is provided under written license and may be
 used, copied, transmitted, or stored only in accord with that
 written license.
  
 The following legend is applicable only to US Government
 contracts under FAR:
  
                    RESTRICTED RIGHTS LEGEND
  
 Use, reproduction and disclosure by the US Government is
 subject to restrictions as set forth in subparagraphs (a)
 and (c) of the Commercial Computer Software - Restricted
 Rights clause in FAR 52.227-19.
  
 Gaussian, Inc.
 340 Quinnipiac St., Bldg. 40, Wallingford CT 06492
  
  
 ---------------------------------------------------------------
 Warning -- This program may not be used in any manner that
 competes with the business of Gaussian, Inc. or will provide
 assistance to any competitor of Gaussian, Inc.  The licensee
 of this program is prohibited from giving any competitor of
 Gaussian, Inc. access to this program.  By using this program,
 the user acknowledges that Gaussian, Inc. is engaged in the
 business of creating and licensing software in the field of
 computational chemistry and represents and warrants to the
 licensee that it is not a competitor of Gaussian, Inc. and that
 it will not use this program in any manner prohibited above.
 ---------------------------------------------------------------
  

 Cite this work as:
 Gaussian 16, Revision A.03,
 M. J. Frisch, G. W. Trucks, H. B. Schlegel, G. E. Scuseria, 
 M. A. Robb, J. R. Cheeseman, G. Scalmani, V. Barone, 
 G. A. Petersson, H. Nakatsuji, X. Li, M. Caricato, A. V. Marenich, 
 J. Bloino, B. G. Janesko, R. Gomperts, B. Mennucci, H. P. Hratchian, 
 J. V. Ortiz, A. F. Izmaylov, J. L. Sonnenberg, D. Williams-Young, 
 F. Ding, F. Lipparini, F. Egidi, J. Goings, B. Peng, A. Petrone, 
 T. Henderson, D. Ranasinghe, V. G. Zakrzewski, J. Gao, N. Rega, 
 G. Zheng, W. Liang, M. Hada, M. Ehara, K. Toyota, R. Fukuda, 
 J. Hasegawa, M. Ishida, T. Nakajima, Y. Honda, O. Kitao, H. Nakai, 
 T. Vreven, K. Throssell, J. A. Montgomery, Jr., J. E. Peralta, 
 F. Ogliaro, M. J. Bearpark, J. J. Heyd, E. N. Brothers, K. N. Kudin, 
 V. N. Staroverov, T. A. Keith, R. Kobayashi, J. Normand, 
 K. Raghavachari, A. P. Rendell, J. C. Burant, S. S. Iyengar, 
 J. Tomasi, M. Cossi, J. M. Millam, M. Klene, C. Adamo, R. Cammi, 
 J. W. Ochterski, R. L. Martin, K. Morokuma, O. Farkas, 
 J. B. Foresman, and D. J. Fox, Gaussian, Inc., Wallingford CT, 2016.
 
 ******************************************
 Gaussian 16:  AS64L-G16RevA.03 25-Dec-2016
                16-Jun-2019 
 ******************************************
 %mem=48GB
 %nprocshared=32
 Will use up to   32 processors via shared memory.
 ----------------------------------------------------------------------
 #p opt=(calcfc,ts,noeigentest,maxstep=5) freq=noraman 6-31g(d) scrf=(s
 olvent=tetrahydrofuran,pcm) pop=none m11 extrabasis
 ----------------------------------------------------------------------
 1/5=1,8=5,10=4,11=1,18=20,26=3,38=1/1,3;
 2/9=110,12=2,17=6,18=5,40=1/2;
 3/5=1,6=6,7=1,10=1,11=2,25=1,30=1,70=2201,71=2,72=20,74=-64,140=1/1,2,3;
 4//1;
 5/5=2,38=5,53=20/2;
 8/6=4,10=90,11=11/1;
 11/6=1,8=1,9=11,15=111,16=1/1,2,10;
 10/6=1,13=1/2;
 7/10=1,18=20,25=1/1,2,3,16;
 1/5=1,8=5,10=4,11=1,18=20,26=3/3(2);
 2/9=110/2;
 99//99;
 2/9=110/2;
 3/5=7,6=1,7=1,11=2,25=1,30=1,70=2205,71=1,72=20,74=-64,82=7/1,2,3;
 4/5=5,16=3,69=1/1;
 5/5=2,38=5,53=20/2;
 7//1,2,3,16;
 1/5=1,8=5,11=1,18=20,26=3/3(-5);
 2/9=110/2;
 99/9=1/99;
 Leave Link    1 at Sun Jun 16 18:28:37 2019, MaxMem=  6442450944 cpu:               4.2 elap:               0.2
 (Enter /home/ekwan/sw/g16/l101.exe)
 -----
 title
 -----
 Symbolic Z-matrix:
 Charge =  0 Multiplicity = 1
 6                    -1.51776   1.60204   2.41374 
 6                    -1.93178   2.21725   1.07748 
 6                    -1.05942   3.43707   0.76863 
 6                     0.76786   2.5912    2.06366 
 6                    -0.01764   1.31926   2.39049 
 1                    -1.25538   3.80385  -0.25372 
 1                    -1.75065   1.47969   0.27465 
 1                    -1.74383   2.3229    3.22164 
 1                     0.55536   3.34715   2.84055 
 1                     0.16724   0.56804   1.6016 
 8                     0.31372   3.08725   0.7886 
 8                    -1.348     4.42438   1.71247 
 8                    -3.28054   2.63007   1.07831 
 8                    -2.2767    0.42049   2.59658 
 8                     0.39669   0.80642   3.64419 
 6                     2.28009   2.36353   1.95832 
 1                     2.60373   2.02694   2.96902 
 1                     2.72736   3.37991   1.81725 
 8                     2.63428   1.49432   0.94896 
 6                    -4.17866   1.6676    0.54974 
 1                    -3.91309   1.41664  -0.49283 
 1                    -4.1816    0.74823   1.1537 
 1                    -5.17794   2.12077   0.55758 
 6                    -2.36965  -0.03337   3.94076 
 1                    -1.5643   -0.74111   4.18519 
 1                    -2.31475   0.81428   4.64139 
 1                    -3.33759  -0.53541   4.0538 
 6                     1.13824  -0.39739   3.51714 
 1                     0.50431  -1.1985    3.09105 
 1                     2.0121   -0.25958   2.85978 
 1                     1.46704  -0.69081   4.5227 
 6                     3.54463  -1.8085   -1.38907 
 6                     3.07702  -0.42415  -0.9443 
 6                     1.74136  -0.48631  -0.26523 
 6                     1.90412  -2.80688   0.25873 
 6                     3.35781  -2.75129  -0.19857 
 1                     1.13457   0.40524  -0.17578 
 1                     3.74469  -0.06291  -0.13646 
 1                     2.95489  -2.14898  -2.25725 
 1                     1.2718   -3.23052  -0.53538 
 1                     3.97559  -2.37834   0.63505 
 8                     1.38119  -1.45834   0.48529 
 8                    -0.55257   0.10215  -3.89103 
 8                     2.99028   0.56319  -1.94239 
 8                     4.92186  -1.7422   -1.69972 
 8                     3.73042  -4.06754  -0.54343 
 6                     1.71363  -3.56292   1.55411 
 1                     1.94191  -4.62868   1.3724 
 1                     0.65878  -3.47911   1.87652 
 8                     2.58063  -3.00889   2.51453 
 16                   -0.35733   0.00329  -2.43655 
 8                    -0.11092   1.30093  -1.74528 
 8                     0.66452  -1.02532  -2.0247 
 6                    -1.88947  -0.62495  -1.74585 
 6                    -3.07063  -0.50424  -2.45971 
 6                    -1.85294  -1.2075   -0.48128 
 6                    -4.24547  -0.98406  -1.88307 
 1                    -3.07136  -0.04899  -3.45099 
 6                    -3.0314   -1.6986    0.05603 
 1                    -0.91632  -1.29473   0.07397 
 6                    -4.23532  -1.59263  -0.63623 
 1                    -5.15938  -1.97629  -0.20032 
 6                     4.25547   1.00633  -2.44055 
 1                     4.98016   1.0924   -1.6166 
 1                     4.6448    0.30986  -3.19463 
 1                     4.08907   1.99186  -2.89108 
 6                     5.29926  -2.54575  -2.81092 
 1                     5.03769  -3.6006   -2.64249 
 1                     4.80753  -2.19227  -3.73323 
 1                     6.38525  -2.447    -2.92153 
 6                     4.86188  -4.53767   0.18088 
 1                     5.74492  -3.91531  -0.03556 
 1                     4.66105  -4.5226    1.26539 
 1                     5.04772  -5.56724  -0.14471 
 6                     2.42992  -3.62141   3.78229 
 1                     3.12515  -3.12688   4.46983 
 1                     1.39822  -3.50061   4.15589 
 1                     2.66705  -4.69782   3.73065 
 6                    -0.64518   5.63529   1.47686 
 1                    -1.03209   6.37707   2.1839 
 1                     0.43683   5.504     1.63512 
 1                    -0.81583   5.9883    0.44558 
 11                    1.77482   2.50795  -0.96116 
 8                     3.5367    3.97271  -1.18125 
 6                     3.78555   5.0021   -2.12162 
 1                     4.61803   4.72213  -2.79022 
 1                     2.8748    5.14577  -2.71407 
 1                     4.04205   5.94428  -1.6097 
 6                     4.66261   3.72347  -0.34937 
 1                     4.88727   4.60994   0.26722 
 1                     4.4013    2.86671   0.28551 
 1                     5.54694   3.48713  -0.96678 
 6                    -5.55957  -0.75115  -2.5769 
 9                    -6.10231   0.42492  -2.18929 
 9                    -6.45459  -1.71543  -2.286 
 9                    -5.41673  -0.70305  -3.91459 
 6                    -3.04143  -2.39014   1.39103 
 9                    -1.85364  -2.31344   2.02262 
 9                    -3.33709  -3.70217   1.25296 
 9                    -3.98876  -1.86675   2.19671 
 
 Add virtual bond connecting atoms H37        and H10        Dist= 3.84D+00.
 Add virtual bond connecting atoms H37        and O19        Dist= 4.10D+00.
 Add virtual bond connecting atoms O52        and H37        Dist= 4.15D+00.
 Add virtual bond connecting atoms O53        and C34        Dist= 4.03D+00.
 Add virtual bond connecting atoms Na83       and O11        Dist= 4.44D+00.
 Add virtual bond connecting atoms Na83       and O19        Dist= 4.40D+00.
 Add virtual bond connecting atoms Na83       and H37        Dist= 4.41D+00.
 Add virtual bond connecting atoms Na83       and O52        Dist= 4.48D+00.
 Add virtual bond connecting atoms H91        and H18        Dist= 4.40D+00.
 ITRead=  0  0  0  0  0  0  0  0  0  0  0  0  0  0  0  0  0  0  0  0
 ITRead=  0  0  0  0  0  0  0  0  0  0  0  0  0  0  0  0  0  0  0  0
 ITRead=  0  0  0  0  0  0  0  0  0  0  0  0  0  0  0  0  0  0  0  0
 ITRead=  0  0  0  0  0  0  0  0  0  0  0  0  0  0  0  0  0  0  0  0
 ITRead=  0  0  0  0  0  0  0  0  0  0  0  0  0  0  0  0  0  0  0  0
 MicOpt= -1 -1 -1 -1 -1 -1 -1 -1 -1 -1 -1 -1 -1 -1 -1 -1 -1 -1 -1 -1
 MicOpt= -1 -1 -1 -1 -1 -1 -1 -1 -1 -1 -1 -1 -1 -1 -1 -1 -1 -1 -1 -1
 MicOpt= -1 -1 -1 -1 -1 -1 -1 -1 -1 -1 -1 -1 -1 -1 -1 -1 -1 -1 -1 -1
 MicOpt= -1 -1 -1 -1 -1 -1 -1 -1 -1 -1 -1 -1 -1 -1 -1 -1 -1 -1 -1 -1
 MicOpt= -1 -1 -1 -1 -1 -1 -1 -1 -1 -1 -1 -1 -1 -1 -1 -1 -1 -1 -1 -1
 NAtoms=    100 NQM=      100 NQMF=       0 NMMI=      0 NMMIF=      0
                NMic=       0 NMicF=      0.
                    Isotopes and Nuclear Properties:
 (Nuclear quadrupole moments (NQMom) in fm**2, nuclear magnetic moments (NMagM)
  in nuclear magnetons)

  Atom         1           2           3           4           5           6           7           8           9          10
 IAtWgt=          12          12          12          12          12           1           1           1           1           1
 AtmWgt=  12.0000000  12.0000000  12.0000000  12.0000000  12.0000000   1.0078250   1.0078250   1.0078250   1.0078250   1.0078250
 NucSpn=           0           0           0           0           0           1           1           1           1           1
 AtZEff=   0.0000000   0.0000000   0.0000000   0.0000000   0.0000000   0.0000000   0.0000000   0.0000000   0.0000000   0.0000000
 NQMom=    0.0000000   0.0000000   0.0000000   0.0000000   0.0000000   0.0000000   0.0000000   0.0000000   0.0000000   0.0000000
 NMagM=    0.0000000   0.0000000   0.0000000   0.0000000   0.0000000   2.7928460   2.7928460   2.7928460   2.7928460   2.7928460
 AtZNuc=   6.0000000   6.0000000   6.0000000   6.0000000   6.0000000   1.0000000   1.0000000   1.0000000   1.0000000   1.0000000

  Atom        11          12          13          14          15          16          17          18          19          20
 IAtWgt=          16          16          16          16          16          12           1           1          16          12
 AtmWgt=  15.9949146  15.9949146  15.9949146  15.9949146  15.9949146  12.0000000   1.0078250   1.0078250  15.9949146  12.0000000
 NucSpn=           0           0           0           0           0           0           1           1           0           0
 AtZEff=   0.0000000   0.0000000   0.0000000   0.0000000   0.0000000   0.0000000   0.0000000   0.0000000   0.0000000   0.0000000
 NQMom=    0.0000000   0.0000000   0.0000000   0.0000000   0.0000000   0.0000000   0.0000000   0.0000000   0.0000000   0.0000000
 NMagM=    0.0000000   0.0000000   0.0000000   0.0000000   0.0000000   0.0000000   2.7928460   2.7928460   0.0000000   0.0000000
 AtZNuc=   8.0000000   8.0000000   8.0000000   8.0000000   8.0000000   6.0000000   1.0000000   1.0000000   8.0000000   6.0000000

  Atom        21          22          23          24          25          26          27          28          29          30
 IAtWgt=           1           1           1          12           1           1           1          12           1           1
 AtmWgt=   1.0078250   1.0078250   1.0078250  12.0000000   1.0078250   1.0078250   1.0078250  12.0000000   1.0078250   1.0078250
 NucSpn=           1           1           1           0           1           1           1           0           1           1
 AtZEff=   0.0000000   0.0000000   0.0000000   0.0000000   0.0000000   0.0000000   0.0000000   0.0000000   0.0000000   0.0000000
 NQMom=    0.0000000   0.0000000   0.0000000   0.0000000   0.0000000   0.0000000   0.0000000   0.0000000   0.0000000   0.0000000
 NMagM=    2.7928460   2.7928460   2.7928460   0.0000000   2.7928460   2.7928460   2.7928460   0.0000000   2.7928460   2.7928460
 AtZNuc=   1.0000000   1.0000000   1.0000000   6.0000000   1.0000000   1.0000000   1.0000000   6.0000000   1.0000000   1.0000000

  Atom        31          32          33          34          35          36          37          38          39          40
 IAtWgt=           1          12          12          12          12          12           1           1           1           1
 AtmWgt=   1.0078250  12.0000000  12.0000000  12.0000000  12.0000000  12.0000000   1.0078250   1.0078250   1.0078250   1.0078250
 NucSpn=           1           0           0           0           0           0           1           1           1           1
 AtZEff=   0.0000000   0.0000000   0.0000000   0.0000000   0.0000000   0.0000000   0.0000000   0.0000000   0.0000000   0.0000000
 NQMom=    0.0000000   0.0000000   0.0000000   0.0000000   0.0000000   0.0000000   0.0000000   0.0000000   0.0000000   0.0000000
 NMagM=    2.7928460   0.0000000   0.0000000   0.0000000   0.0000000   0.0000000   2.7928460   2.7928460   2.7928460   2.7928460
 AtZNuc=   1.0000000   6.0000000   6.0000000   6.0000000   6.0000000   6.0000000   1.0000000   1.0000000   1.0000000   1.0000000

  Atom        41          42          43          44          45          46          47          48          49          50
 IAtWgt=           1          16          16          16          16          16          12           1           1          16
 AtmWgt=   1.0078250  15.9949146  15.9949146  15.9949146  15.9949146  15.9949146  12.0000000   1.0078250   1.0078250  15.9949146
 NucSpn=           1           0           0           0           0           0           0           1           1           0
 AtZEff=   0.0000000   0.0000000   0.0000000   0.0000000   0.0000000   0.0000000   0.0000000   0.0000000   0.0000000   0.0000000
 NQMom=    0.0000000   0.0000000   0.0000000   0.0000000   0.0000000   0.0000000   0.0000000   0.0000000   0.0000000   0.0000000
 NMagM=    2.7928460   0.0000000   0.0000000   0.0000000   0.0000000   0.0000000   0.0000000   2.7928460   2.7928460   0.0000000
 AtZNuc=   1.0000000   8.0000000   8.0000000   8.0000000   8.0000000   8.0000000   6.0000000   1.0000000   1.0000000   8.0000000

  Atom        51          52          53          54          55          56          57          58          59          60
 IAtWgt=          32          16          16          12          12          12          12           1          12           1
 AtmWgt=  31.9720718  15.9949146  15.9949146  12.0000000  12.0000000  12.0000000  12.0000000   1.0078250  12.0000000   1.0078250
 NucSpn=           0           0           0           0           0           0           0           1           0           1
 AtZEff=   0.0000000   0.0000000   0.0000000   0.0000000   0.0000000   0.0000000   0.0000000   0.0000000   0.0000000   0.0000000
 NQMom=    0.0000000   0.0000000   0.0000000   0.0000000   0.0000000   0.0000000   0.0000000   0.0000000   0.0000000   0.0000000
 NMagM=    0.0000000   0.0000000   0.0000000   0.0000000   0.0000000   0.0000000   0.0000000   2.7928460   0.0000000   2.7928460
 AtZNuc=  16.0000000   8.0000000   8.0000000   6.0000000   6.0000000   6.0000000   6.0000000   1.0000000   6.0000000   1.0000000

  Atom        61          62          63          64          65          66          67          68          69          70
 IAtWgt=          12           1          12           1           1           1          12           1           1           1
 AtmWgt=  12.0000000   1.0078250  12.0000000   1.0078250   1.0078250   1.0078250  12.0000000   1.0078250   1.0078250   1.0078250
 NucSpn=           0           1           0           1           1           1           0           1           1           1
 AtZEff=   0.0000000   0.0000000   0.0000000   0.0000000   0.0000000   0.0000000   0.0000000   0.0000000   0.0000000   0.0000000
 NQMom=    0.0000000   0.0000000   0.0000000   0.0000000   0.0000000   0.0000000   0.0000000   0.0000000   0.0000000   0.0000000
 NMagM=    0.0000000   2.7928460   0.0000000   2.7928460   2.7928460   2.7928460   0.0000000   2.7928460   2.7928460   2.7928460
 AtZNuc=   6.0000000   1.0000000   6.0000000   1.0000000   1.0000000   1.0000000   6.0000000   1.0000000   1.0000000   1.0000000

  Atom        71          72          73          74          75          76          77          78          79          80
 IAtWgt=          12           1           1           1          12           1           1           1          12           1
 AtmWgt=  12.0000000   1.0078250   1.0078250   1.0078250  12.0000000   1.0078250   1.0078250   1.0078250  12.0000000   1.0078250
 NucSpn=           0           1           1           1           0           1           1           1           0           1
 AtZEff=   0.0000000   0.0000000   0.0000000   0.0000000   0.0000000   0.0000000   0.0000000   0.0000000   0.0000000   0.0000000
 NQMom=    0.0000000   0.0000000   0.0000000   0.0000000   0.0000000   0.0000000   0.0000000   0.0000000   0.0000000   0.0000000
 NMagM=    0.0000000   2.7928460   2.7928460   2.7928460   0.0000000   2.7928460   2.7928460   2.7928460   0.0000000   2.7928460
 AtZNuc=   6.0000000   1.0000000   1.0000000   1.0000000   6.0000000   1.0000000   1.0000000   1.0000000   6.0000000   1.0000000

  Atom        81          82          83          84          85          86          87          88          89          90
 IAtWgt=           1           1          23          16          12           1           1           1          12           1
 AtmWgt=   1.0078250   1.0078250  22.9897697  15.9949146  12.0000000   1.0078250   1.0078250   1.0078250  12.0000000   1.0078250
 NucSpn=           1           1           3           0           0           1           1           1           0           1
 AtZEff=   0.0000000   0.0000000   0.0000000   0.0000000   0.0000000   0.0000000   0.0000000   0.0000000   0.0000000   0.0000000
 NQMom=    0.0000000   0.0000000  10.4000000   0.0000000   0.0000000   0.0000000   0.0000000   0.0000000   0.0000000   0.0000000
 NMagM=    2.7928460   2.7928460   2.2175200   0.0000000   0.0000000   2.7928460   2.7928460   2.7928460   0.0000000   2.7928460
 AtZNuc=   1.0000000   1.0000000  11.0000000   8.0000000   6.0000000   1.0000000   1.0000000   1.0000000   6.0000000   1.0000000

  Atom        91          92          93          94          95          96          97          98          99         100
 IAtWgt=           1           1          12          19          19          19          12          19          19          19
 AtmWgt=   1.0078250   1.0078250  12.0000000  18.9984033  18.9984033  18.9984033  12.0000000  18.9984033  18.9984033  18.9984033
 NucSpn=           1           1           0           1           1           1           0           1           1           1
 AtZEff=   0.0000000   0.0000000   0.0000000   0.0000000   0.0000000   0.0000000   0.0000000   0.0000000   0.0000000   0.0000000
 NQMom=    0.0000000   0.0000000   0.0000000   0.0000000   0.0000000   0.0000000   0.0000000   0.0000000   0.0000000   0.0000000
 NMagM=    2.7928460   2.7928460   0.0000000   2.6288670   2.6288670   2.6288670   0.0000000   2.6288670   2.6288670   2.6288670
 AtZNuc=   1.0000000   1.0000000   6.0000000   9.0000000   9.0000000   9.0000000   6.0000000   9.0000000   9.0000000   9.0000000
 Leave Link  101 at Sun Jun 16 18:28:37 2019, MaxMem=  6442450944 cpu:              17.9 elap:               0.7
 (Enter /home/ekwan/sw/g16/l103.exe)

 GradGradGradGradGradGradGradGradGradGradGradGradGradGradGradGradGradGrad
 Berny optimization.
 Initialization pass.
                           ----------------------------
                           !    Initial Parameters    !
                           ! (Angstroms and Degrees)  !
 --------------------------                            --------------------------
 ! Name  Definition              Value          Derivative Info.                !
 --------------------------------------------------------------------------------
 ! R1    R(1,2)                  1.5282         calculate D2E/DX2 analytically  !
 ! R2    R(1,5)                  1.5267         calculate D2E/DX2 analytically  !
 ! R3    R(1,8)                  1.1061         calculate D2E/DX2 analytically  !
 ! R4    R(1,14)                 1.4161         calculate D2E/DX2 analytically  !
 ! R5    R(2,3)                  1.5311         calculate D2E/DX2 analytically  !
 ! R6    R(2,7)                  1.1051         calculate D2E/DX2 analytically  !
 ! R7    R(2,13)                 1.4105         calculate D2E/DX2 analytically  !
 ! R8    R(3,6)                  1.1037         calculate D2E/DX2 analytically  !
 ! R9    R(3,11)                 1.4171         calculate D2E/DX2 analytically  !
 ! R10   R(3,12)                 1.396          calculate D2E/DX2 analytically  !
 ! R11   R(4,5)                  1.5302         calculate D2E/DX2 analytically  !
 ! R12   R(4,9)                  1.1046         calculate D2E/DX2 analytically  !
 ! R13   R(4,11)                 1.4416         calculate D2E/DX2 analytically  !
 ! R14   R(4,16)                 1.5329         calculate D2E/DX2 analytically  !
 ! R15   R(5,10)                 1.1049         calculate D2E/DX2 analytically  !
 ! R16   R(5,15)                 1.4165         calculate D2E/DX2 analytically  !
 ! R17   R(10,37)                2.0301         calculate D2E/DX2 analytically  !
 ! R18   R(11,83)                2.352          calculate D2E/DX2 analytically  !
 ! R19   R(12,79)                1.4198         calculate D2E/DX2 analytically  !
 ! R20   R(13,20)                1.4186         calculate D2E/DX2 analytically  !
 ! R21   R(14,24)                1.4218         calculate D2E/DX2 analytically  !
 ! R22   R(15,28)                1.4196         calculate D2E/DX2 analytically  !
 ! R23   R(16,17)                1.1134         calculate D2E/DX2 analytically  !
 ! R24   R(16,18)                1.1194         calculate D2E/DX2 analytically  !
 ! R25   R(16,19)                1.3783         calculate D2E/DX2 analytically  !
 ! R26   R(18,91)                2.3263         calculate D2E/DX2 analytically  !
 ! R27   R(19,37)                2.168          calculate D2E/DX2 analytically  !
 ! R28   R(19,83)                2.3269         calculate D2E/DX2 analytically  !
 ! R29   R(20,21)                1.1047         calculate D2E/DX2 analytically  !
 ! R30   R(20,22)                1.1            calculate D2E/DX2 analytically  !
 ! R31   R(20,23)                1.0973         calculate D2E/DX2 analytically  !
 ! R32   R(24,25)                1.0996         calculate D2E/DX2 analytically  !
 ! R33   R(24,26)                1.1011         calculate D2E/DX2 analytically  !
 ! R34   R(24,27)                1.0962         calculate D2E/DX2 analytically  !
 ! R35   R(28,29)                1.1069         calculate D2E/DX2 analytically  !
 ! R36   R(28,30)                1.1022         calculate D2E/DX2 analytically  !
 ! R37   R(28,31)                1.0979         calculate D2E/DX2 analytically  !
 ! R38   R(32,33)                1.5274         calculate D2E/DX2 analytically  !
 ! R39   R(32,36)                1.53           calculate D2E/DX2 analytically  !
 ! R40   R(32,39)                1.1034         calculate D2E/DX2 analytically  !
 ! R41   R(32,45)                1.4134         calculate D2E/DX2 analytically  !
 ! R42   R(33,34)                1.4997         calculate D2E/DX2 analytically  !
 ! R43   R(33,38)                1.1085         calculate D2E/DX2 analytically  !
 ! R44   R(33,44)                1.4066         calculate D2E/DX2 analytically  !
 ! R45   R(34,37)                1.0822         calculate D2E/DX2 analytically  !
 ! R46   R(34,42)                1.2798         calculate D2E/DX2 analytically  !
 ! R47   R(34,53)                2.1321         calculate D2E/DX2 analytically  !
 ! R48   R(35,36)                1.5249         calculate D2E/DX2 analytically  !
 ! R49   R(35,40)                1.1            calculate D2E/DX2 analytically  !
 ! R50   R(35,42)                1.464          calculate D2E/DX2 analytically  !
 ! R51   R(35,47)                1.5119         calculate D2E/DX2 analytically  !
 ! R52   R(36,41)                1.1026         calculate D2E/DX2 analytically  !
 ! R53   R(36,46)                1.4108         calculate D2E/DX2 analytically  !
 ! R54   R(37,52)                2.1947         calculate D2E/DX2 analytically  !
 ! R55   R(37,83)                2.3341         calculate D2E/DX2 analytically  !
 ! R56   R(43,51)                1.4709         calculate D2E/DX2 analytically  !
 ! R57   R(44,63)                1.4301         calculate D2E/DX2 analytically  !
 ! R58   R(45,67)                1.4223         calculate D2E/DX2 analytically  !
 ! R59   R(46,71)                1.4233         calculate D2E/DX2 analytically  !
 ! R60   R(47,48)                1.105          calculate D2E/DX2 analytically  !
 ! R61   R(47,49)                1.1062         calculate D2E/DX2 analytically  !
 ! R62   R(47,50)                1.4075         calculate D2E/DX2 analytically  !
 ! R63   R(50,75)                1.416          calculate D2E/DX2 analytically  !
 ! R64   R(51,52)                1.4908         calculate D2E/DX2 analytically  !
 ! R65   R(51,53)                1.5073         calculate D2E/DX2 analytically  !
 ! R66   R(51,54)                1.7942         calculate D2E/DX2 analytically  !
 ! R67   R(52,83)                2.3723         calculate D2E/DX2 analytically  !
 ! R68   R(54,55)                1.3854         calculate D2E/DX2 analytically  !
 ! R69   R(54,56)                1.3928         calculate D2E/DX2 analytically  !
 ! R70   R(55,57)                1.3939         calculate D2E/DX2 analytically  !
 ! R71   R(55,58)                1.0908         calculate D2E/DX2 analytically  !
 ! R72   R(56,59)                1.3852         calculate D2E/DX2 analytically  !
 ! R73   R(56,60)                1.0923         calculate D2E/DX2 analytically  !
 ! R74   R(57,61)                1.3875         calculate D2E/DX2 analytically  !
 ! R75   R(57,93)                1.5042         calculate D2E/DX2 analytically  !
 ! R76   R(59,61)                1.3928         calculate D2E/DX2 analytically  !
 ! R77   R(59,97)                1.5035         calculate D2E/DX2 analytically  !
 ! R78   R(61,62)                1.0914         calculate D2E/DX2 analytically  !
 ! R79   R(63,64)                1.1007         calculate D2E/DX2 analytically  !
 ! R80   R(63,65)                1.0979         calculate D2E/DX2 analytically  !
 ! R81   R(63,66)                1.0963         calculate D2E/DX2 analytically  !
 ! R82   R(67,68)                1.0998         calculate D2E/DX2 analytically  !
 ! R83   R(67,69)                1.1034         calculate D2E/DX2 analytically  !
 ! R84   R(67,70)                1.0961         calculate D2E/DX2 analytically  !
 ! R85   R(71,72)                1.1018         calculate D2E/DX2 analytically  !
 ! R86   R(71,73)                1.103          calculate D2E/DX2 analytically  !
 ! R87   R(71,74)                1.0957         calculate D2E/DX2 analytically  !
 ! R88   R(75,76)                1.0957         calculate D2E/DX2 analytically  !
 ! R89   R(75,77)                1.1039         calculate D2E/DX2 analytically  !
 ! R90   R(75,78)                1.1034         calculate D2E/DX2 analytically  !
 ! R91   R(79,80)                1.0954         calculate D2E/DX2 analytically  !
 ! R92   R(79,81)                1.1014         calculate D2E/DX2 analytically  !
 ! R93   R(79,82)                1.1033         calculate D2E/DX2 analytically  !
 ! R94   R(83,84)                2.3018         calculate D2E/DX2 analytically  !
 ! R95   R(84,85)                1.4163         calculate D2E/DX2 analytically  !
 ! R96   R(84,89)                1.4219         calculate D2E/DX2 analytically  !
 ! R97   R(85,86)                1.1038         calculate D2E/DX2 analytically  !
 ! R98   R(85,87)                1.0959         calculate D2E/DX2 analytically  !
 ! R99   R(85,88)                1.1025         calculate D2E/DX2 analytically  !
 ! R100  R(89,90)                1.1029         calculate D2E/DX2 analytically  !
 ! R101  R(89,91)                1.0979         calculate D2E/DX2 analytically  !
 ! R102  R(89,92)                1.1041         calculate D2E/DX2 analytically  !
 ! R103  R(93,94)                1.352          calculate D2E/DX2 analytically  !
 ! R104  R(93,95)                1.3474         calculate D2E/DX2 analytically  !
 ! R105  R(93,96)                1.3462         calculate D2E/DX2 analytically  !
 ! R106  R(97,98)                1.3475         calculate D2E/DX2 analytically  !
 ! R107  R(97,99)                1.352          calculate D2E/DX2 analytically  !
 ! R108  R(97,100)               1.3493         calculate D2E/DX2 analytically  !
 ! A1    A(2,1,5)              109.1136         calculate D2E/DX2 analytically  !
 ! A2    A(2,1,8)              108.7187         calculate D2E/DX2 analytically  !
 ! A3    A(2,1,14)             107.6724         calculate D2E/DX2 analytically  !
 ! A4    A(5,1,8)              109.4304         calculate D2E/DX2 analytically  !
 ! A5    A(5,1,14)             111.9634         calculate D2E/DX2 analytically  !
 ! A6    A(8,1,14)             109.8719         calculate D2E/DX2 analytically  !
 ! A7    A(1,2,3)              110.0433         calculate D2E/DX2 analytically  !
 ! A8    A(1,2,7)              108.7915         calculate D2E/DX2 analytically  !
 ! A9    A(1,2,13)             112.1084         calculate D2E/DX2 analytically  !
 ! A10   A(3,2,7)              106.9644         calculate D2E/DX2 analytically  !
 ! A11   A(3,2,13)             108.1654         calculate D2E/DX2 analytically  !
 ! A12   A(7,2,13)             110.6387         calculate D2E/DX2 analytically  !
 ! A13   A(2,3,6)              110.514          calculate D2E/DX2 analytically  !
 ! A14   A(2,3,11)             110.6442         calculate D2E/DX2 analytically  !
 ! A15   A(2,3,12)             108.0158         calculate D2E/DX2 analytically  !
 ! A16   A(6,3,11)             105.4935         calculate D2E/DX2 analytically  !
 ! A17   A(6,3,12)             110.7647         calculate D2E/DX2 analytically  !
 ! A18   A(11,3,12)            111.4291         calculate D2E/DX2 analytically  !
 ! A19   A(5,4,9)              108.656          calculate D2E/DX2 analytically  !
 ! A20   A(5,4,11)             108.2535         calculate D2E/DX2 analytically  !
 ! A21   A(5,4,16)             113.4294         calculate D2E/DX2 analytically  !
 ! A22   A(9,4,11)             109.0253         calculate D2E/DX2 analytically  !
 ! A23   A(9,4,16)             109.8618         calculate D2E/DX2 analytically  !
 ! A24   A(11,4,16)            107.5238         calculate D2E/DX2 analytically  !
 ! A25   A(1,5,4)              110.7119         calculate D2E/DX2 analytically  !
 ! A26   A(1,5,10)             107.5298         calculate D2E/DX2 analytically  !
 ! A27   A(1,5,15)             109.937          calculate D2E/DX2 analytically  !
 ! A28   A(4,5,10)             109.0713         calculate D2E/DX2 analytically  !
 ! A29   A(4,5,15)             109.8663         calculate D2E/DX2 analytically  !
 ! A30   A(10,5,15)            109.684          calculate D2E/DX2 analytically  !
 ! A31   A(5,10,37)            139.4065         calculate D2E/DX2 analytically  !
 ! A32   A(3,11,4)             113.7442         calculate D2E/DX2 analytically  !
 ! A33   A(3,11,83)            130.7104         calculate D2E/DX2 analytically  !
 ! A34   A(4,11,83)            112.1828         calculate D2E/DX2 analytically  !
 ! A35   A(3,12,79)            112.8714         calculate D2E/DX2 analytically  !
 ! A36   A(2,13,20)            113.9919         calculate D2E/DX2 analytically  !
 ! A37   A(1,14,24)            115.0519         calculate D2E/DX2 analytically  !
 ! A38   A(5,15,28)            112.3712         calculate D2E/DX2 analytically  !
 ! A39   A(4,16,17)            105.6217         calculate D2E/DX2 analytically  !
 ! A40   A(4,16,18)            105.5449         calculate D2E/DX2 analytically  !
 ! A41   A(4,16,19)            113.4219         calculate D2E/DX2 analytically  !
 ! A42   A(17,16,18)           105.8281         calculate D2E/DX2 analytically  !
 ! A43   A(17,16,19)           113.543          calculate D2E/DX2 analytically  !
 ! A44   A(18,16,19)           112.1878         calculate D2E/DX2 analytically  !
 ! A45   A(16,18,91)            99.7988         calculate D2E/DX2 analytically  !
 ! A46   A(16,19,37)           121.2614         calculate D2E/DX2 analytically  !
 ! A47   A(16,19,83)           103.3861         calculate D2E/DX2 analytically  !
 ! A48   A(13,20,21)           110.7054         calculate D2E/DX2 analytically  !
 ! A49   A(13,20,22)           111.3563         calculate D2E/DX2 analytically  !
 ! A50   A(13,20,23)           107.0797         calculate D2E/DX2 analytically  !
 ! A51   A(21,20,22)           109.2042         calculate D2E/DX2 analytically  !
 ! A52   A(21,20,23)           108.6321         calculate D2E/DX2 analytically  !
 ! A53   A(22,20,23)           109.8056         calculate D2E/DX2 analytically  !
 ! A54   A(14,24,25)           111.5754         calculate D2E/DX2 analytically  !
 ! A55   A(14,24,26)           110.6446         calculate D2E/DX2 analytically  !
 ! A56   A(14,24,27)           107.5422         calculate D2E/DX2 analytically  !
 ! A57   A(25,24,26)           108.5122         calculate D2E/DX2 analytically  !
 ! A58   A(25,24,27)           109.2076         calculate D2E/DX2 analytically  !
 ! A59   A(26,24,27)           109.3271         calculate D2E/DX2 analytically  !
 ! A60   A(15,28,29)           110.4282         calculate D2E/DX2 analytically  !
 ! A61   A(15,28,30)           111.193          calculate D2E/DX2 analytically  !
 ! A62   A(15,28,31)           107.524          calculate D2E/DX2 analytically  !
 ! A63   A(29,28,30)           108.3602         calculate D2E/DX2 analytically  !
 ! A64   A(29,28,31)           109.309          calculate D2E/DX2 analytically  !
 ! A65   A(30,28,31)           110.0137         calculate D2E/DX2 analytically  !
 ! A66   A(33,32,36)           107.129          calculate D2E/DX2 analytically  !
 ! A67   A(33,32,39)           110.1923         calculate D2E/DX2 analytically  !
 ! A68   A(33,32,45)           108.6513         calculate D2E/DX2 analytically  !
 ! A69   A(36,32,39)           110.9046         calculate D2E/DX2 analytically  !
 ! A70   A(36,32,45)           108.5964         calculate D2E/DX2 analytically  !
 ! A71   A(39,32,45)           111.2443         calculate D2E/DX2 analytically  !
 ! A72   A(32,33,34)           111.5283         calculate D2E/DX2 analytically  !
 ! A73   A(32,33,38)           108.8545         calculate D2E/DX2 analytically  !
 ! A74   A(32,33,44)           116.6445         calculate D2E/DX2 analytically  !
 ! A75   A(34,33,38)           102.706          calculate D2E/DX2 analytically  !
 ! A76   A(34,33,44)           107.1861         calculate D2E/DX2 analytically  !
 ! A77   A(38,33,44)           108.9953         calculate D2E/DX2 analytically  !
 ! A78   A(33,34,37)           120.1779         calculate D2E/DX2 analytically  !
 ! A79   A(33,34,42)           123.2087         calculate D2E/DX2 analytically  !
 ! A80   A(33,34,53)            94.97           calculate D2E/DX2 analytically  !
 ! A81   A(37,34,42)           114.8006         calculate D2E/DX2 analytically  !
 ! A82   A(37,34,53)            89.6151         calculate D2E/DX2 analytically  !
 ! A83   A(42,34,53)            98.6154         calculate D2E/DX2 analytically  !
 ! A84   A(36,35,40)           110.215          calculate D2E/DX2 analytically  !
 ! A85   A(36,35,42)           110.6905         calculate D2E/DX2 analytically  !
 ! A86   A(36,35,47)           113.2825         calculate D2E/DX2 analytically  !
 ! A87   A(40,35,42)           105.1387         calculate D2E/DX2 analytically  !
 ! A88   A(40,35,47)           110.7038         calculate D2E/DX2 analytically  !
 ! A89   A(42,35,47)           106.4405         calculate D2E/DX2 analytically  !
 ! A90   A(32,36,35)           111.8511         calculate D2E/DX2 analytically  !
 ! A91   A(32,36,41)           108.146          calculate D2E/DX2 analytically  !
 ! A92   A(32,36,46)           110.6377         calculate D2E/DX2 analytically  !
 ! A93   A(35,36,41)           108.6467         calculate D2E/DX2 analytically  !
 ! A94   A(35,36,46)           106.9217         calculate D2E/DX2 analytically  !
 ! A95   A(41,36,46)           110.6352         calculate D2E/DX2 analytically  !
 ! A96   A(10,37,19)            80.5098         calculate D2E/DX2 analytically  !
 ! A97   A(10,37,34)           113.9302         calculate D2E/DX2 analytically  !
 ! A98   A(10,37,52)           108.8422         calculate D2E/DX2 analytically  !
 ! A99   A(10,37,83)           110.6738         calculate D2E/DX2 analytically  !
 ! A100  A(19,37,34)            93.9486         calculate D2E/DX2 analytically  !
 ! A101  A(19,37,52)           123.9552         calculate D2E/DX2 analytically  !
 ! A102  A(34,37,52)           126.5358         calculate D2E/DX2 analytically  !
 ! A103  A(34,37,83)           124.0946         calculate D2E/DX2 analytically  !
 ! A104  A(34,42,35)           120.5532         calculate D2E/DX2 analytically  !
 ! A105  A(33,44,63)           114.2119         calculate D2E/DX2 analytically  !
 ! A106  A(32,45,67)           113.8145         calculate D2E/DX2 analytically  !
 ! A107  A(36,46,71)           113.1872         calculate D2E/DX2 analytically  !
 ! A108  A(35,47,48)           108.3842         calculate D2E/DX2 analytically  !
 ! A109  A(35,47,49)           109.3881         calculate D2E/DX2 analytically  !
 ! A110  A(35,47,50)           108.0712         calculate D2E/DX2 analytically  !
 ! A111  A(48,47,49)           108.5418         calculate D2E/DX2 analytically  !
 ! A112  A(48,47,50)           111.3839         calculate D2E/DX2 analytically  !
 ! A113  A(49,47,50)           111.0198         calculate D2E/DX2 analytically  !
 ! A114  A(47,50,75)           112.0297         calculate D2E/DX2 analytically  !
 ! A115  A(43,51,52)           114.9585         calculate D2E/DX2 analytically  !
 ! A116  A(43,51,53)           113.9578         calculate D2E/DX2 analytically  !
 ! A117  A(43,51,54)           106.9093         calculate D2E/DX2 analytically  !
 ! A118  A(52,51,53)           110.8096         calculate D2E/DX2 analytically  !
 ! A119  A(52,51,54)           105.5111         calculate D2E/DX2 analytically  !
 ! A120  A(53,51,54)           103.5793         calculate D2E/DX2 analytically  !
 ! A121  A(37,52,51)            94.0231         calculate D2E/DX2 analytically  !
 ! A122  A(51,52,83)           136.6801         calculate D2E/DX2 analytically  !
 ! A123  A(34,53,51)           113.2893         calculate D2E/DX2 analytically  !
 ! A124  A(51,54,55)           119.9456         calculate D2E/DX2 analytically  !
 ! A125  A(51,54,56)           118.2665         calculate D2E/DX2 analytically  !
 ! A126  A(55,54,56)           121.7799         calculate D2E/DX2 analytically  !
 ! A127  A(54,55,57)           118.3874         calculate D2E/DX2 analytically  !
 ! A128  A(54,55,58)           120.3446         calculate D2E/DX2 analytically  !
 ! A129  A(57,55,58)           121.267          calculate D2E/DX2 analytically  !
 ! A130  A(54,56,59)           118.5664         calculate D2E/DX2 analytically  !
 ! A131  A(54,56,60)           121.1593         calculate D2E/DX2 analytically  !
 ! A132  A(59,56,60)           120.266          calculate D2E/DX2 analytically  !
 ! A133  A(55,57,61)           121.1025         calculate D2E/DX2 analytically  !
 ! A134  A(55,57,93)           119.4866         calculate D2E/DX2 analytically  !
 ! A135  A(61,57,93)           119.2635         calculate D2E/DX2 analytically  !
 ! A136  A(56,59,61)           121.0396         calculate D2E/DX2 analytically  !
 ! A137  A(56,59,97)           120.876          calculate D2E/DX2 analytically  !
 ! A138  A(61,59,97)           118.0699         calculate D2E/DX2 analytically  !
 ! A139  A(57,61,59)           119.1007         calculate D2E/DX2 analytically  !
 ! A140  A(57,61,62)           120.4595         calculate D2E/DX2 analytically  !
 ! A141  A(59,61,62)           120.4382         calculate D2E/DX2 analytically  !
 ! A142  A(44,63,64)           110.2398         calculate D2E/DX2 analytically  !
 ! A143  A(44,63,65)           110.8801         calculate D2E/DX2 analytically  !
 ! A144  A(44,63,66)           106.7032         calculate D2E/DX2 analytically  !
 ! A145  A(64,63,65)           109.2871         calculate D2E/DX2 analytically  !
 ! A146  A(64,63,66)           109.7107         calculate D2E/DX2 analytically  !
 ! A147  A(65,63,66)           109.9887         calculate D2E/DX2 analytically  !
 ! A148  A(45,67,68)           111.0469         calculate D2E/DX2 analytically  !
 ! A149  A(45,67,69)           110.7217         calculate D2E/DX2 analytically  !
 ! A150  A(45,67,70)           106.9087         calculate D2E/DX2 analytically  !
 ! A151  A(68,67,69)           109.2263         calculate D2E/DX2 analytically  !
 ! A152  A(68,67,70)           109.7259         calculate D2E/DX2 analytically  !
 ! A153  A(69,67,70)           109.1689         calculate D2E/DX2 analytically  !
 ! A154  A(46,71,72)           110.5224         calculate D2E/DX2 analytically  !
 ! A155  A(46,71,73)           110.5534         calculate D2E/DX2 analytically  !
 ! A156  A(46,71,74)           107.096          calculate D2E/DX2 analytically  !
 ! A157  A(72,71,73)           109.3506         calculate D2E/DX2 analytically  !
 ! A158  A(72,71,74)           109.6618         calculate D2E/DX2 analytically  !
 ! A159  A(73,71,74)           109.6259         calculate D2E/DX2 analytically  !
 ! A160  A(50,75,76)           107.3987         calculate D2E/DX2 analytically  !
 ! A161  A(50,75,77)           110.8021         calculate D2E/DX2 analytically  !
 ! A162  A(50,75,78)           110.9286         calculate D2E/DX2 analytically  !
 ! A163  A(76,75,77)           109.3439         calculate D2E/DX2 analytically  !
 ! A164  A(76,75,78)           109.4683         calculate D2E/DX2 analytically  !
 ! A165  A(77,75,78)           108.8714         calculate D2E/DX2 analytically  !
 ! A166  A(12,79,80)           107.1937         calculate D2E/DX2 analytically  !
 ! A167  A(12,79,81)           111.1498         calculate D2E/DX2 analytically  !
 ! A168  A(12,79,82)           110.5752         calculate D2E/DX2 analytically  !
 ! A169  A(80,79,81)           109.5721         calculate D2E/DX2 analytically  !
 ! A170  A(80,79,82)           109.392          calculate D2E/DX2 analytically  !
 ! A171  A(81,79,82)           108.9292         calculate D2E/DX2 analytically  !
 ! A172  A(11,83,19)            74.101          calculate D2E/DX2 analytically  !
 ! A173  A(11,83,37)            78.5311         calculate D2E/DX2 analytically  !
 ! A174  A(11,83,52)            82.9585         calculate D2E/DX2 analytically  !
 ! A175  A(11,83,84)           112.9479         calculate D2E/DX2 analytically  !
 ! A176  A(19,83,52)           110.0773         calculate D2E/DX2 analytically  !
 ! A177  A(19,83,84)            94.1848         calculate D2E/DX2 analytically  !
 ! A178  A(37,83,84)           144.6275         calculate D2E/DX2 analytically  !
 ! A179  A(52,83,84)           154.2408         calculate D2E/DX2 analytically  !
 ! A180  A(83,84,85)           131.3381         calculate D2E/DX2 analytically  !
 ! A181  A(83,84,89)           116.0157         calculate D2E/DX2 analytically  !
 ! A182  A(85,84,89)           112.1308         calculate D2E/DX2 analytically  !
 ! A183  A(84,85,86)           110.5081         calculate D2E/DX2 analytically  !
 ! A184  A(84,85,87)           107.9503         calculate D2E/DX2 analytically  !
 ! A185  A(84,85,88)           110.7138         calculate D2E/DX2 analytically  !
 ! A186  A(86,85,87)           109.4238         calculate D2E/DX2 analytically  !
 ! A187  A(86,85,88)           108.8162         calculate D2E/DX2 analytically  !
 ! A188  A(87,85,88)           109.4088         calculate D2E/DX2 analytically  !
 ! A189  A(84,89,90)           110.3326         calculate D2E/DX2 analytically  !
 ! A190  A(84,89,91)           106.6567         calculate D2E/DX2 analytically  !
 ! A191  A(84,89,92)           110.1561         calculate D2E/DX2 analytically  !
 ! A192  A(90,89,91)           110.6342         calculate D2E/DX2 analytically  !
 ! A193  A(90,89,92)           108.7542         calculate D2E/DX2 analytically  !
 ! A194  A(91,89,92)           110.3006         calculate D2E/DX2 analytically  !
 ! A195  A(18,91,89)           112.3253         calculate D2E/DX2 analytically  !
 ! A196  A(57,93,94)           110.6808         calculate D2E/DX2 analytically  !
 ! A197  A(57,93,95)           111.7105         calculate D2E/DX2 analytically  !
 ! A198  A(57,93,96)           111.7896         calculate D2E/DX2 analytically  !
 ! A199  A(94,93,95)           107.0961         calculate D2E/DX2 analytically  !
 ! A200  A(94,93,96)           107.2416         calculate D2E/DX2 analytically  !
 ! A201  A(95,93,96)           108.0949         calculate D2E/DX2 analytically  !
 ! A202  A(59,97,98)           112.5898         calculate D2E/DX2 analytically  !
 ! A203  A(59,97,99)           110.9248         calculate D2E/DX2 analytically  !
 ! A204  A(59,97,100)          110.8831         calculate D2E/DX2 analytically  !
 ! A205  A(98,97,99)           107.2104         calculate D2E/DX2 analytically  !
 ! A206  A(98,97,100)          108.4782         calculate D2E/DX2 analytically  !
 ! A207  A(99,97,100)          106.4917         calculate D2E/DX2 analytically  !
 ! D1    D(5,1,2,3)            -53.5341         calculate D2E/DX2 analytically  !
 ! D2    D(5,1,2,7)             63.3516         calculate D2E/DX2 analytically  !
 ! D3    D(5,1,2,13)          -173.9585         calculate D2E/DX2 analytically  !
 ! D4    D(8,1,2,3)             65.7512         calculate D2E/DX2 analytically  !
 ! D5    D(8,1,2,7)           -177.3631         calculate D2E/DX2 analytically  !
 ! D6    D(8,1,2,13)           -54.6732         calculate D2E/DX2 analytically  !
 ! D7    D(14,1,2,3)          -175.26           calculate D2E/DX2 analytically  !
 ! D8    D(14,1,2,7)           -58.3743         calculate D2E/DX2 analytically  !
 ! D9    D(14,1,2,13)           64.3156         calculate D2E/DX2 analytically  !
 ! D10   D(2,1,5,4)             55.6957         calculate D2E/DX2 analytically  !
 ! D11   D(2,1,5,10)           -63.3668         calculate D2E/DX2 analytically  !
 ! D12   D(2,1,5,15)           177.2709         calculate D2E/DX2 analytically  !
 ! D13   D(8,1,5,4)            -63.1468         calculate D2E/DX2 analytically  !
 ! D14   D(8,1,5,10)           177.7906         calculate D2E/DX2 analytically  !
 ! D15   D(8,1,5,15)            58.4284         calculate D2E/DX2 analytically  !
 ! D16   D(14,1,5,4)           174.7859         calculate D2E/DX2 analytically  !
 ! D17   D(14,1,5,10)           55.7234         calculate D2E/DX2 analytically  !
 ! D18   D(14,1,5,15)          -63.6389         calculate D2E/DX2 analytically  !
 ! D19   D(2,1,14,24)         -159.5766         calculate D2E/DX2 analytically  !
 ! D20   D(5,1,14,24)           80.4866         calculate D2E/DX2 analytically  !
 ! D21   D(8,1,14,24)          -41.3277         calculate D2E/DX2 analytically  !
 ! D22   D(1,2,3,6)            172.2008         calculate D2E/DX2 analytically  !
 ! D23   D(1,2,3,11)            55.7292         calculate D2E/DX2 analytically  !
 ! D24   D(1,2,3,12)           -66.4845         calculate D2E/DX2 analytically  !
 ! D25   D(7,2,3,6)             54.1806         calculate D2E/DX2 analytically  !
 ! D26   D(7,2,3,11)           -62.2911         calculate D2E/DX2 analytically  !
 ! D27   D(7,2,3,12)           175.4953         calculate D2E/DX2 analytically  !
 ! D28   D(13,2,3,6)           -65.0241         calculate D2E/DX2 analytically  !
 ! D29   D(13,2,3,11)          178.5043         calculate D2E/DX2 analytically  !
 ! D30   D(13,2,3,12)           56.2906         calculate D2E/DX2 analytically  !
 ! D31   D(1,2,13,20)          -94.8226         calculate D2E/DX2 analytically  !
 ! D32   D(3,2,13,20)          143.669          calculate D2E/DX2 analytically  !
 ! D33   D(7,2,13,20)           26.8146         calculate D2E/DX2 analytically  !
 ! D34   D(2,3,11,4)           -61.0191         calculate D2E/DX2 analytically  !
 ! D35   D(2,3,11,83)           96.2987         calculate D2E/DX2 analytically  !
 ! D36   D(6,3,11,4)           179.4402         calculate D2E/DX2 analytically  !
 ! D37   D(6,3,11,83)          -23.242          calculate D2E/DX2 analytically  !
 ! D38   D(12,3,11,4)           59.174          calculate D2E/DX2 analytically  !
 ! D39   D(12,3,11,83)        -143.5082         calculate D2E/DX2 analytically  !
 ! D40   D(2,3,12,79)         -176.7338         calculate D2E/DX2 analytically  !
 ! D41   D(6,3,12,79)          -55.5748         calculate D2E/DX2 analytically  !
 ! D42   D(11,3,12,79)          61.5362         calculate D2E/DX2 analytically  !
 ! D43   D(9,4,5,1)             60.2603         calculate D2E/DX2 analytically  !
 ! D44   D(9,4,5,10)           178.3876         calculate D2E/DX2 analytically  !
 ! D45   D(9,4,5,15)           -61.3565         calculate D2E/DX2 analytically  !
 ! D46   D(11,4,5,1)           -58.0112         calculate D2E/DX2 analytically  !
 ! D47   D(11,4,5,10)           60.1161         calculate D2E/DX2 analytically  !
 ! D48   D(11,4,5,15)         -179.628          calculate D2E/DX2 analytically  !
 ! D49   D(16,4,5,1)          -177.2514         calculate D2E/DX2 analytically  !
 ! D50   D(16,4,5,10)          -59.1241         calculate D2E/DX2 analytically  !
 ! D51   D(16,4,5,15)           61.1318         calculate D2E/DX2 analytically  !
 ! D52   D(5,4,11,3)            61.4614         calculate D2E/DX2 analytically  !
 ! D53   D(5,4,11,83)         -100.1373         calculate D2E/DX2 analytically  !
 ! D54   D(9,4,11,3)           -56.5745         calculate D2E/DX2 analytically  !
 ! D55   D(9,4,11,83)          141.8268         calculate D2E/DX2 analytically  !
 ! D56   D(16,4,11,3)         -175.6364         calculate D2E/DX2 analytically  !
 ! D57   D(16,4,11,83)          22.7649         calculate D2E/DX2 analytically  !
 ! D58   D(5,4,16,17)          -62.8645         calculate D2E/DX2 analytically  !
 ! D59   D(5,4,16,18)         -174.6879         calculate D2E/DX2 analytically  !
 ! D60   D(5,4,16,19)           62.104          calculate D2E/DX2 analytically  !
 ! D61   D(9,4,16,17)           58.9535         calculate D2E/DX2 analytically  !
 ! D62   D(9,4,16,18)          -52.8699         calculate D2E/DX2 analytically  !
 ! D63   D(9,4,16,19)         -176.0779         calculate D2E/DX2 analytically  !
 ! D64   D(11,4,16,17)         177.478          calculate D2E/DX2 analytically  !
 ! D65   D(11,4,16,18)          65.6547         calculate D2E/DX2 analytically  !
 ! D66   D(11,4,16,19)         -57.5534         calculate D2E/DX2 analytically  !
 ! D67   D(1,5,10,37)          115.556          calculate D2E/DX2 analytically  !
 ! D68   D(4,5,10,37)           -4.5522         calculate D2E/DX2 analytically  !
 ! D69   D(15,5,10,37)        -124.9203         calculate D2E/DX2 analytically  !
 ! D70   D(1,5,15,28)          128.5638         calculate D2E/DX2 analytically  !
 ! D71   D(4,5,15,28)         -109.3574         calculate D2E/DX2 analytically  !
 ! D72   D(10,5,15,28)          10.5264         calculate D2E/DX2 analytically  !
 ! D73   D(5,10,37,19)          42.7864         calculate D2E/DX2 analytically  !
 ! D74   D(5,10,37,34)         132.9124         calculate D2E/DX2 analytically  !
 ! D75   D(5,10,37,52)         -79.9868         calculate D2E/DX2 analytically  !
 ! D76   D(5,10,37,83)         -12.4681         calculate D2E/DX2 analytically  !
 ! D77   D(3,11,83,19)        -154.0746         calculate D2E/DX2 analytically  !
 ! D78   D(3,11,83,37)         -97.0378         calculate D2E/DX2 analytically  !
 ! D79   D(3,11,83,52)         -40.8186         calculate D2E/DX2 analytically  !
 ! D80   D(3,11,83,84)         118.1149         calculate D2E/DX2 analytically  !
 ! D81   D(4,11,83,19)           3.5179         calculate D2E/DX2 analytically  !
 ! D82   D(4,11,83,37)          60.5547         calculate D2E/DX2 analytically  !
 ! D83   D(4,11,83,52)         116.7738         calculate D2E/DX2 analytically  !
 ! D84   D(4,11,83,84)         -84.2926         calculate D2E/DX2 analytically  !
 ! D85   D(3,12,79,80)         172.9016         calculate D2E/DX2 analytically  !
 ! D86   D(3,12,79,81)         -67.3826         calculate D2E/DX2 analytically  !
 ! D87   D(3,12,79,82)          53.7319         calculate D2E/DX2 analytically  !
 ! D88   D(2,13,20,21)         -58.9597         calculate D2E/DX2 analytically  !
 ! D89   D(2,13,20,22)          62.7334         calculate D2E/DX2 analytically  !
 ! D90   D(2,13,20,23)        -177.2178         calculate D2E/DX2 analytically  !
 ! D91   D(1,14,24,25)         -91.1888         calculate D2E/DX2 analytically  !
 ! D92   D(1,14,24,26)          29.7313         calculate D2E/DX2 analytically  !
 ! D93   D(1,14,24,27)         149.0732         calculate D2E/DX2 analytically  !
 ! D94   D(5,15,28,29)         -64.0626         calculate D2E/DX2 analytically  !
 ! D95   D(5,15,28,30)          56.2638         calculate D2E/DX2 analytically  !
 ! D96   D(5,15,28,31)         176.7523         calculate D2E/DX2 analytically  !
 ! D97   D(4,16,18,91)        -141.4318         calculate D2E/DX2 analytically  !
 ! D98   D(17,16,18,91)        106.8906         calculate D2E/DX2 analytically  !
 ! D99   D(19,16,18,91)        -17.4427         calculate D2E/DX2 analytically  !
 ! D100  D(4,16,19,37)          -7.0551         calculate D2E/DX2 analytically  !
 ! D101  D(4,16,19,83)          58.6311         calculate D2E/DX2 analytically  !
 ! D102  D(17,16,19,37)        113.5324         calculate D2E/DX2 analytically  !
 ! D103  D(17,16,19,83)        179.2186         calculate D2E/DX2 analytically  !
 ! D104  D(18,16,19,37)       -126.5331         calculate D2E/DX2 analytically  !
 ! D105  D(18,16,19,83)        -60.8469         calculate D2E/DX2 analytically  !
 ! D106  D(16,18,91,89)        152.9579         calculate D2E/DX2 analytically  !
 ! D107  D(16,19,37,10)        -30.2105         calculate D2E/DX2 analytically  !
 ! D108  D(16,19,37,34)       -143.8319         calculate D2E/DX2 analytically  !
 ! D109  D(16,19,37,52)         76.1808         calculate D2E/DX2 analytically  !
 ! D110  D(16,19,83,11)        -31.6663         calculate D2E/DX2 analytically  !
 ! D111  D(16,19,83,52)       -107.7903         calculate D2E/DX2 analytically  !
 ! D112  D(16,19,83,84)         81.0175         calculate D2E/DX2 analytically  !
 ! D113  D(36,32,33,34)        -48.0124         calculate D2E/DX2 analytically  !
 ! D114  D(36,32,33,38)         64.6042         calculate D2E/DX2 analytically  !
 ! D115  D(36,32,33,44)       -171.6061         calculate D2E/DX2 analytically  !
 ! D116  D(39,32,33,34)         72.7295         calculate D2E/DX2 analytically  !
 ! D117  D(39,32,33,38)       -174.654          calculate D2E/DX2 analytically  !
 ! D118  D(39,32,33,44)        -50.8642         calculate D2E/DX2 analytically  !
 ! D119  D(45,32,33,34)       -165.1562         calculate D2E/DX2 analytically  !
 ! D120  D(45,32,33,38)        -52.5396         calculate D2E/DX2 analytically  !
 ! D121  D(45,32,33,44)         71.2501         calculate D2E/DX2 analytically  !
 ! D122  D(33,32,36,35)         59.0814         calculate D2E/DX2 analytically  !
 ! D123  D(33,32,36,41)        -60.5182         calculate D2E/DX2 analytically  !
 ! D124  D(33,32,36,46)        178.1678         calculate D2E/DX2 analytically  !
 ! D125  D(39,32,36,35)        -61.2075         calculate D2E/DX2 analytically  !
 ! D126  D(39,32,36,41)        179.1929         calculate D2E/DX2 analytically  !
 ! D127  D(39,32,36,46)         57.879          calculate D2E/DX2 analytically  !
 ! D128  D(45,32,36,35)        176.2612         calculate D2E/DX2 analytically  !
 ! D129  D(45,32,36,41)         56.6616         calculate D2E/DX2 analytically  !
 ! D130  D(45,32,36,46)        -64.6524         calculate D2E/DX2 analytically  !
 ! D131  D(33,32,45,67)       -142.9351         calculate D2E/DX2 analytically  !
 ! D132  D(36,32,45,67)        100.8625         calculate D2E/DX2 analytically  !
 ! D133  D(39,32,45,67)        -21.4627         calculate D2E/DX2 analytically  !
 ! D134  D(32,33,34,37)       -160.4888         calculate D2E/DX2 analytically  !
 ! D135  D(32,33,34,42)         35.6507         calculate D2E/DX2 analytically  !
 ! D136  D(32,33,34,53)        -68.0377         calculate D2E/DX2 analytically  !
 ! D137  D(38,33,34,37)         83.0835         calculate D2E/DX2 analytically  !
 ! D138  D(38,33,34,42)        -80.7769         calculate D2E/DX2 analytically  !
 ! D139  D(38,33,34,53)        175.5346         calculate D2E/DX2 analytically  !
 ! D140  D(44,33,34,37)        -31.6873         calculate D2E/DX2 analytically  !
 ! D141  D(44,33,34,42)        164.4522         calculate D2E/DX2 analytically  !
 ! D142  D(44,33,34,53)         60.7638         calculate D2E/DX2 analytically  !
 ! D143  D(32,33,44,63)        -70.2582         calculate D2E/DX2 analytically  !
 ! D144  D(34,33,44,63)        163.9439         calculate D2E/DX2 analytically  !
 ! D145  D(38,33,44,63)         53.4593         calculate D2E/DX2 analytically  !
 ! D146  D(33,34,37,10)       -140.9466         calculate D2E/DX2 analytically  !
 ! D147  D(33,34,37,19)        -59.5841         calculate D2E/DX2 analytically  !
 ! D148  D(33,34,37,52)         78.829          calculate D2E/DX2 analytically  !
 ! D149  D(33,34,37,83)         -0.8779         calculate D2E/DX2 analytically  !
 ! D150  D(42,34,37,10)         24.2082         calculate D2E/DX2 analytically  !
 ! D151  D(42,34,37,19)        105.5707         calculate D2E/DX2 analytically  !
 ! D152  D(42,34,37,52)       -116.0162         calculate D2E/DX2 analytically  !
 ! D153  D(42,34,37,83)        164.2769         calculate D2E/DX2 analytically  !
 ! D154  D(53,34,37,10)        123.5266         calculate D2E/DX2 analytically  !
 ! D155  D(53,34,37,19)       -155.111          calculate D2E/DX2 analytically  !
 ! D156  D(53,34,37,52)        -16.6978         calculate D2E/DX2 analytically  !
 ! D157  D(53,34,37,83)        -96.4047         calculate D2E/DX2 analytically  !
 ! D158  D(33,34,42,35)        -29.2857         calculate D2E/DX2 analytically  !
 ! D159  D(37,34,42,35)        166.0645         calculate D2E/DX2 analytically  !
 ! D160  D(53,34,42,35)         72.4797         calculate D2E/DX2 analytically  !
 ! D161  D(33,34,53,51)       -117.1485         calculate D2E/DX2 analytically  !
 ! D162  D(37,34,53,51)          3.1172         calculate D2E/DX2 analytically  !
 ! D163  D(42,34,53,51)        118.1566         calculate D2E/DX2 analytically  !
 ! D164  D(40,35,36,32)         63.9255         calculate D2E/DX2 analytically  !
 ! D165  D(40,35,36,41)       -176.7697         calculate D2E/DX2 analytically  !
 ! D166  D(40,35,36,46)        -57.3347         calculate D2E/DX2 analytically  !
 ! D167  D(42,35,36,32)        -51.9589         calculate D2E/DX2 analytically  !
 ! D168  D(42,35,36,41)         67.3458         calculate D2E/DX2 analytically  !
 ! D169  D(42,35,36,46)       -173.2192         calculate D2E/DX2 analytically  !
 ! D170  D(47,35,36,32)       -171.4224         calculate D2E/DX2 analytically  !
 ! D171  D(47,35,36,41)        -52.1177         calculate D2E/DX2 analytically  !
 ! D172  D(47,35,36,46)         67.3173         calculate D2E/DX2 analytically  !
 ! D173  D(36,35,42,34)         36.0376         calculate D2E/DX2 analytically  !
 ! D174  D(40,35,42,34)        -82.9634         calculate D2E/DX2 analytically  !
 ! D175  D(47,35,42,34)        159.5402         calculate D2E/DX2 analytically  !
 ! D176  D(36,35,47,48)        -67.346          calculate D2E/DX2 analytically  !
 ! D177  D(36,35,47,49)        174.4765         calculate D2E/DX2 analytically  !
 ! D178  D(36,35,47,50)         53.4914         calculate D2E/DX2 analytically  !
 ! D179  D(40,35,47,48)         57.0409         calculate D2E/DX2 analytically  !
 ! D180  D(40,35,47,49)        -61.1366         calculate D2E/DX2 analytically  !
 ! D181  D(40,35,47,50)        177.8783         calculate D2E/DX2 analytically  !
 ! D182  D(42,35,47,48)        170.7825         calculate D2E/DX2 analytically  !
 ! D183  D(42,35,47,49)         52.605          calculate D2E/DX2 analytically  !
 ! D184  D(42,35,47,50)        -68.38           calculate D2E/DX2 analytically  !
 ! D185  D(32,36,46,71)        115.0062         calculate D2E/DX2 analytically  !
 ! D186  D(35,36,46,71)       -122.9679         calculate D2E/DX2 analytically  !
 ! D187  D(41,36,46,71)         -4.8245         calculate D2E/DX2 analytically  !
 ! D188  D(10,37,52,51)       -113.3614         calculate D2E/DX2 analytically  !
 ! D189  D(19,37,52,51)        155.5065         calculate D2E/DX2 analytically  !
 ! D190  D(34,37,52,51)         28.4757         calculate D2E/DX2 analytically  !
 ! D191  D(10,37,83,11)        -12.0023         calculate D2E/DX2 analytically  !
 ! D192  D(10,37,83,84)        101.6673         calculate D2E/DX2 analytically  !
 ! D193  D(34,37,83,11)       -153.1677         calculate D2E/DX2 analytically  !
 ! D194  D(34,37,83,84)        -39.4981         calculate D2E/DX2 analytically  !
 ! D195  D(33,44,63,64)        -39.6606         calculate D2E/DX2 analytically  !
 ! D196  D(33,44,63,65)         81.4998         calculate D2E/DX2 analytically  !
 ! D197  D(33,44,63,66)       -158.7351         calculate D2E/DX2 analytically  !
 ! D198  D(32,45,67,68)        -57.7654         calculate D2E/DX2 analytically  !
 ! D199  D(32,45,67,69)         63.7558         calculate D2E/DX2 analytically  !
 ! D200  D(32,45,67,70)       -177.4329         calculate D2E/DX2 analytically  !
 ! D201  D(36,46,71,72)        -61.9099         calculate D2E/DX2 analytically  !
 ! D202  D(36,46,71,73)         59.3023         calculate D2E/DX2 analytically  !
 ! D203  D(36,46,71,74)        178.6833         calculate D2E/DX2 analytically  !
 ! D204  D(35,47,50,75)        177.5222         calculate D2E/DX2 analytically  !
 ! D205  D(48,47,50,75)        -63.5278         calculate D2E/DX2 analytically  !
 ! D206  D(49,47,50,75)         57.5576         calculate D2E/DX2 analytically  !
 ! D207  D(47,50,75,76)       -179.242          calculate D2E/DX2 analytically  !
 ! D208  D(47,50,75,77)        -59.8771         calculate D2E/DX2 analytically  !
 ! D209  D(47,50,75,78)         61.1691         calculate D2E/DX2 analytically  !
 ! D210  D(43,51,52,37)       -149.635          calculate D2E/DX2 analytically  !
 ! D211  D(43,51,52,83)        -98.4293         calculate D2E/DX2 analytically  !
 ! D212  D(53,51,52,37)        -18.6368         calculate D2E/DX2 analytically  !
 ! D213  D(53,51,52,83)         32.5689         calculate D2E/DX2 analytically  !
 ! D214  D(54,51,52,37)         92.8414         calculate D2E/DX2 analytically  !
 ! D215  D(54,51,52,83)        144.0471         calculate D2E/DX2 analytically  !
 ! D216  D(43,51,53,34)        147.1982         calculate D2E/DX2 analytically  !
 ! D217  D(52,51,53,34)         15.6812         calculate D2E/DX2 analytically  !
 ! D218  D(54,51,53,34)        -97.0318         calculate D2E/DX2 analytically  !
 ! D219  D(43,51,54,55)        -21.0401         calculate D2E/DX2 analytically  !
 ! D220  D(43,51,54,56)        159.9678         calculate D2E/DX2 analytically  !
 ! D221  D(52,51,54,55)        101.7845         calculate D2E/DX2 analytically  !
 ! D222  D(52,51,54,56)        -77.2076         calculate D2E/DX2 analytically  !
 ! D223  D(53,51,54,55)       -141.707          calculate D2E/DX2 analytically  !
 ! D224  D(53,51,54,56)         39.3009         calculate D2E/DX2 analytically  !
 ! D225  D(51,52,83,11)       -143.2896         calculate D2E/DX2 analytically  !
 ! D226  D(51,52,83,19)        -73.1074         calculate D2E/DX2 analytically  !
 ! D227  D(51,52,83,84)         86.3199         calculate D2E/DX2 analytically  !
 ! D228  D(51,54,55,57)       -178.9752         calculate D2E/DX2 analytically  !
 ! D229  D(51,54,55,58)          1.3932         calculate D2E/DX2 analytically  !
 ! D230  D(56,54,55,57)         -0.0195         calculate D2E/DX2 analytically  !
 ! D231  D(56,54,55,58)       -179.6511         calculate D2E/DX2 analytically  !
 ! D232  D(51,54,56,59)       -179.7874         calculate D2E/DX2 analytically  !
 ! D233  D(51,54,56,60)         -0.8388         calculate D2E/DX2 analytically  !
 ! D234  D(55,54,56,59)          1.24           calculate D2E/DX2 analytically  !
 ! D235  D(55,54,56,60)       -179.8114         calculate D2E/DX2 analytically  !
 ! D236  D(54,55,57,61)         -1.2558         calculate D2E/DX2 analytically  !
 ! D237  D(54,55,57,93)        174.298          calculate D2E/DX2 analytically  !
 ! D238  D(58,55,57,61)        178.3722         calculate D2E/DX2 analytically  !
 ! D239  D(58,55,57,93)         -6.074          calculate D2E/DX2 analytically  !
 ! D240  D(54,56,59,61)         -1.2228         calculate D2E/DX2 analytically  !
 ! D241  D(54,56,59,97)        177.3622         calculate D2E/DX2 analytically  !
 ! D242  D(60,56,59,61)        179.8189         calculate D2E/DX2 analytically  !
 ! D243  D(60,56,59,97)         -1.5961         calculate D2E/DX2 analytically  !
 ! D244  D(55,57,61,59)          1.272          calculate D2E/DX2 analytically  !
 ! D245  D(55,57,61,62)       -179.194          calculate D2E/DX2 analytically  !
 ! D246  D(93,57,61,59)       -174.2915         calculate D2E/DX2 analytically  !
 ! D247  D(93,57,61,62)          5.2424         calculate D2E/DX2 analytically  !
 ! D248  D(55,57,93,94)        -88.8519         calculate D2E/DX2 analytically  !
 ! D249  D(55,57,93,95)        151.9051         calculate D2E/DX2 analytically  !
 ! D250  D(55,57,93,96)         30.6267         calculate D2E/DX2 analytically  !
 ! D251  D(61,57,93,94)         86.7843         calculate D2E/DX2 analytically  !
 ! D252  D(61,57,93,95)        -32.4586         calculate D2E/DX2 analytically  !
 ! D253  D(61,57,93,96)       -153.7371         calculate D2E/DX2 analytically  !
 ! D254  D(56,59,61,57)         -0.0043         calculate D2E/DX2 analytically  !
 ! D255  D(56,59,61,62)       -179.5384         calculate D2E/DX2 analytically  !
 ! D256  D(97,59,61,57)       -178.628          calculate D2E/DX2 analytically  !
 ! D257  D(97,59,61,62)          1.838          calculate D2E/DX2 analytically  !
 ! D258  D(56,59,97,98)          7.6104         calculate D2E/DX2 analytically  !
 ! D259  D(56,59,97,99)       -112.5337         calculate D2E/DX2 analytically  !
 ! D260  D(56,59,97,100)       129.3561         calculate D2E/DX2 analytically  !
 ! D261  D(61,59,97,98)       -173.7636         calculate D2E/DX2 analytically  !
 ! D262  D(61,59,97,99)         66.0923         calculate D2E/DX2 analytically  !
 ! D263  D(61,59,97,100)       -52.0179         calculate D2E/DX2 analytically  !
 ! D264  D(11,83,84,85)       -103.9399         calculate D2E/DX2 analytically  !
 ! D265  D(11,83,84,89)         85.0656         calculate D2E/DX2 analytically  !
 ! D266  D(19,83,84,85)       -178.4362         calculate D2E/DX2 analytically  !
 ! D267  D(19,83,84,89)         10.5694         calculate D2E/DX2 analytically  !
 ! D268  D(37,83,84,85)        153.1517         calculate D2E/DX2 analytically  !
 ! D269  D(37,83,84,89)        -17.8427         calculate D2E/DX2 analytically  !
 ! D270  D(52,83,84,85)         20.8886         calculate D2E/DX2 analytically  !
 ! D271  D(52,83,84,89)       -150.1058         calculate D2E/DX2 analytically  !
 ! D272  D(83,84,85,86)       -110.1621         calculate D2E/DX2 analytically  !
 ! D273  D(83,84,85,87)          9.4681         calculate D2E/DX2 analytically  !
 ! D274  D(83,84,85,88)        129.2008         calculate D2E/DX2 analytically  !
 ! D275  D(89,84,85,86)         61.1033         calculate D2E/DX2 analytically  !
 ! D276  D(89,84,85,87)       -179.2665         calculate D2E/DX2 analytically  !
 ! D277  D(89,84,85,88)        -59.5339         calculate D2E/DX2 analytically  !
 ! D278  D(83,84,89,90)       -123.2079         calculate D2E/DX2 analytically  !
 ! D279  D(83,84,89,91)         -2.9996         calculate D2E/DX2 analytically  !
 ! D280  D(83,84,89,92)        116.7088         calculate D2E/DX2 analytically  !
 ! D281  D(85,84,89,90)         64.0811         calculate D2E/DX2 analytically  !
 ! D282  D(85,84,89,91)       -175.7106         calculate D2E/DX2 analytically  !
 ! D283  D(85,84,89,92)        -56.0021         calculate D2E/DX2 analytically  !
 ! D284  D(84,89,91,18)        -67.991          calculate D2E/DX2 analytically  !
 ! D285  D(90,89,91,18)         52.023          calculate D2E/DX2 analytically  !
 ! D286  D(92,89,91,18)        172.394          calculate D2E/DX2 analytically  !
 --------------------------------------------------------------------------------
 Trust Radius=5.00D-02 FncErr=1.00D-07 GrdErr=1.00D-06 EigMax=2.50D+02 EigMin=1.00D-04
 Number of steps in this run=    600 maximum allowed number of steps=    600.
 Search for a saddle point of order  1.
 GradGradGradGradGradGradGradGradGradGradGradGradGradGradGradGradGradGrad

 Leave Link  103 at Sun Jun 16 18:28:38 2019, MaxMem=  6442450944 cpu:               4.2 elap:               0.2
 (Enter /home/ekwan/sw/g16/l202.exe)
 Stoichiometry    C30H47F6NaO15S
 Framework group  C1[X(C30H47F6NaO15S)]
 Deg. of freedom   294
 Full point group                 C1      NOp   1
 Largest Abelian subgroup         C1      NOp   1
 Largest concise Abelian subgroup C1      NOp   1
                         Standard orientation:                         
 ---------------------------------------------------------------------
 Center     Atomic      Atomic             Coordinates (Angstroms)
 Number     Number       Type             X           Y           Z
 ---------------------------------------------------------------------
      1          6           0       -1.517757    1.602040    2.413744
      2          6           0       -1.931783    2.217251    1.077478
      3          6           0       -1.059416    3.437065    0.768629
      4          6           0        0.767856    2.591199    2.063664
      5          6           0       -0.017635    1.319263    2.390491
      6          1           0       -1.255384    3.803847   -0.253724
      7          1           0       -1.750651    1.479691    0.274650
      8          1           0       -1.743827    2.322901    3.221636
      9          1           0        0.555363    3.347152    2.840545
     10          1           0        0.167235    0.568042    1.601597
     11          8           0        0.313721    3.087246    0.788597
     12          8           0       -1.347997    4.424378    1.712469
     13          8           0       -3.280537    2.630067    1.078305
     14          8           0       -2.276699    0.420492    2.596581
     15          8           0        0.396692    0.806421    3.644187
     16          6           0        2.280089    2.363531    1.958315
     17          1           0        2.603731    2.026943    2.969018
     18          1           0        2.727361    3.379913    1.817253
     19          8           0        2.634281    1.494320    0.948960
     20          6           0       -4.178663    1.667596    0.549740
     21          1           0       -3.913094    1.416637   -0.492828
     22          1           0       -4.181596    0.748234    1.153703
     23          1           0       -5.177940    2.120773    0.557584
     24          6           0       -2.369649   -0.033373    3.940758
     25          1           0       -1.564301   -0.741106    4.185192
     26          1           0       -2.314753    0.814278    4.641390
     27          1           0       -3.337590   -0.535412    4.053799
     28          6           0        1.138236   -0.397392    3.517137
     29          1           0        0.504309   -1.198503    3.091048
     30          1           0        2.012096   -0.259575    2.859776
     31          1           0        1.467036   -0.690811    4.522700
     32          6           0        3.544631   -1.808497   -1.389067
     33          6           0        3.077019   -0.424151   -0.944299
     34          6           0        1.741364   -0.486313   -0.265231
     35          6           0        1.904115   -2.806883    0.258729
     36          6           0        3.357807   -2.751286   -0.198573
     37          1           0        1.134568    0.405235   -0.175783
     38          1           0        3.744685   -0.062908   -0.136463
     39          1           0        2.954885   -2.148983   -2.257253
     40          1           0        1.271795   -3.230521   -0.535381
     41          1           0        3.975589   -2.378339    0.635049
     42          8           0        1.381193   -1.458335    0.485292
     43          8           0       -0.552571    0.102153   -3.891032
     44          8           0        2.990278    0.563194   -1.942387
     45          8           0        4.921858   -1.742197   -1.699718
     46          8           0        3.730416   -4.067542   -0.543425
     47          6           0        1.713634   -3.562916    1.554109
     48          1           0        1.941906   -4.628685    1.372404
     49          1           0        0.658783   -3.479107    1.876515
     50          8           0        2.580628   -3.008887    2.514533
     51         16           0       -0.357329    0.003286   -2.436545
     52          8           0       -0.110919    1.300927   -1.745283
     53          8           0        0.664515   -1.025316   -2.024701
     54          6           0       -1.889474   -0.624948   -1.745847
     55          6           0       -3.070627   -0.504241   -2.459714
     56          6           0       -1.852939   -1.207497   -0.481278
     57          6           0       -4.245472   -0.984055   -1.883073
     58          1           0       -3.071362   -0.048992   -3.450991
     59          6           0       -3.031396   -1.698595    0.056034
     60          1           0       -0.916317   -1.294729    0.073967
     61          6           0       -4.235321   -1.592634   -0.636231
     62          1           0       -5.159376   -1.976291   -0.200322
     63          6           0        4.255471    1.006331   -2.440548
     64          1           0        4.980163    1.092401   -1.616601
     65          1           0        4.644795    0.309860   -3.194630
     66          1           0        4.089068    1.991859   -2.891084
     67          6           0        5.299257   -2.545747   -2.810921
     68          1           0        5.037686   -3.600603   -2.642492
     69          1           0        4.807529   -2.192272   -3.733228
     70          1           0        6.385255   -2.446999   -2.921527
     71          6           0        4.861883   -4.537666    0.180881
     72          1           0        5.744920   -3.915305   -0.035560
     73          1           0        4.661051   -4.522596    1.265388
     74          1           0        5.047720   -5.567242   -0.144714
     75          6           0        2.429921   -3.621414    3.782286
     76          1           0        3.125147   -3.126883    4.469832
     77          1           0        1.398219   -3.500612    4.155893
     78          1           0        2.667054   -4.697815    3.730645
     79          6           0       -0.645179    5.635288    1.476863
     80          1           0       -1.032095    6.377072    2.183902
     81          1           0        0.436834    5.504003    1.635115
     82          1           0       -0.815830    5.988300    0.445584
     83         11           0        1.774822    2.507946   -0.961163
     84          8           0        3.536699    3.972714   -1.181247
     85          6           0        3.785551    5.002100   -2.121620
     86          1           0        4.618034    4.722131   -2.790216
     87          1           0        2.874799    5.145769   -2.714066
     88          1           0        4.042047    5.944279   -1.609698
     89          6           0        4.662611    3.723472   -0.349373
     90          1           0        4.887269    4.609937    0.267220
     91          1           0        4.401303    2.866711    0.285508
     92          1           0        5.546935    3.487131   -0.966779
     93          6           0       -5.559570   -0.751147   -2.576898
     94          9           0       -6.102314    0.424924   -2.189294
[...]
 007795,-0.00013554,0.00008676,0.00008095,-0.00010432,0.00017900,0.0000
 0376,0.00015935,-0.00002916,-0.00005283,-0.00012087,0.00005715,0.00000
 473,0.00010383,-0.00022800,0.00002654,-0.00004333,0.00017969,-0.000093
 55,0.00334374,0.00089310,-0.00131001,-0.00090108,-0.00083166,0.0000543
 3,-0.00145739,0.00037415,-0.00002324,-0.00091778,0.00081949,0.00192633
 ,-0.00027084,-0.00076885,0.00058021,0.00352133,-0.00191434,0.00257596,
 0.00011185,0.00083336,0.00105191,0.00010447,-0.00010042,-0.00015025,-0
 .01293122,-0.03906567,0.00451393,0.00052370,-0.00062050,-0.00069789,-0
 .00257110,0.00052602,0.00020093,0.00060888,-0.00084288,-0.00061521,0.0
 0013190,0.00004841,-0.00007013,-0.00001888,-0.00000523,-0.00000492,-0.
 00002216,0.00000581,0.00001773,-0.00000680,-0.00001059,0.00000685,0.00
 002201,-0.00006285,-0.00007184,-0.00000065,0.00001393,0.00000260,0.000
 00235,0.,0.00000592,-0.00000949,0.00000533,0.00000998,0.00005624,-0.00
 003453,0.00004547,-0.00000288,0.00000366,-0.00000673,-0.00000106,-0.00
 000962,-0.00001096,-0.00001905,0.00001485,0.00000253,0.00002439,-0.000
 09558,0.00010843,0.00000936,0.00000694,-0.00000797,0.00000128,-0.00003
 651,-0.00000126,-0.00003107,0.00004020,0.00000073,0.00009888,0.0001882
 9,-0.00004850,-0.00000431,-0.00003753,-0.00001016,-0.00002642,-0.00000
 941,0.00000538,-0.00001055,-0.00001835,0.00002557,0.00020128,0.0001608
 3,-0.00004784,-0.00005367,-0.00004511,0.00001824,0.00001455,0.00003103
 ,-0.00003136,-0.00000785,0.00000063,0.00000655,0.00000202,0.00000362,-
 0.00000236,-0.00000279,-0.00000873,-0.00000128,0.00003136,-0.00000176,
 0.00001247,-0.00000311,-0.00000840,-0.00000114,0.00003023,0.00000332,-
 0.00000254,-0.00001018,-0.00000160,0.00001203,-0.00229695,-0.00006550,
 -0.00102034,0.00067864,-0.00039489,0.00014420,0.00078699,0.00034582,0.
 00016937,0.00050543,-0.00005117,0.00074231,-0.03906839,-0.26350120,0.0
 0819602,-0.03963138,-0.02038332,-0.02075667,0.06743525,0.38165028,0.00
 025298,0.00041787,-0.00022462,0.00000619,-0.00009172,-0.00027367,-0.00
 001663,-0.00004991,0.00000400,-0.00006356,0.00007618,-0.00007944,-0.00
 001479,-0.00003084,-0.00015357,-0.00000618,-0.00002696,0.00001465,-0.0
 0001336,-0.00002005,0.00003445,-0.00005230,-0.00007787,0.00002305,-0.0
 0000186,0.00000463,0.00001190,-0.00001571,0.00003784,-0.00000482,0.000
 04009,0.00000190,0.00010459,0.00001524,0.00004796,0.00005143,0.0000261
 6,0.00009496,0.00020952,-0.00019617,-0.00066962,0.00022403,-0.00002753
 ,-0.00015966,0.00012107,0.00003894,-0.00005297,-0.00006906,0.00001097,
 0.00000626,0.00002598,-0.00001390,0.00001150,0.00001609,0.00000853,0.0
 0008023,0.00014846,0.00000496,0.00002266,-0.00026510,0.00000138,-0.000
 13054,0.00009906,-0.00001755,0.00011828,-0.00013821,-0.00001771,0.0000
 2501,0.00004754,0.00018121,0.00026473,-0.00004819,0.00007925,0.0000098
 6,0.00013674,-0.00006118,-0.00013861,0.00002250,-0.00015059,0.00008370
 ,0.00029549,0.00006696,0.00021619,0.00007896,0.00005164,-0.00008347,-0
 .00001792,-0.00004373,-0.00004000,-0.00002641,-0.00001412,-0.00001750,
 -0.00001191,-0.00005566,0.00002427,-0.00001315,0.00001264,0.00000813,0
 .00002858,-0.00034683,-0.00006806,-0.00049830,-0.00009232,0.00013795,-
 0.00009445,-0.00001178,0.00000059,0.00000382,-0.00002122,-0.00001321,-
 0.00001238,0.00001988,-0.00000853,-0.00002726,-0.00000519,0.00001199,0
 .00001731,-0.00000655,0.00000674,0.00000138,0.00001313,0.00000186,-0.0
 0000286,0.00016782,-0.00017976,0.00021300,0.00052279,0.00028123,-0.000
 62049,0.00008600,0.00001759,0.00000441,0.00004629,-0.00001824,0.000005
 25,0.00004013,-0.00004478,0.00002872,0.00016770,0.00001636,-0.00008990
 ,-0.00002998,0.00000630,0.00002053,0.00003396,-0.00005522,0.00002107,-
 0.00008176,-0.00001070,0.00007945,-0.00198102,-0.00074183,0.00044825,0
 .00051233,0.00055908,0.00010623,0.00089510,-0.00011962,0.00018448,0.00
 010264,-0.00082930,-0.00181977,0.00081699,0.00067004,-0.00057360,-0.00
 263419,0.00067799,-0.00038700,0.00021765,-0.00086330,0.00035257,-0.000
 01706,0.00004070,0.00011985,0.00821707,0.03207848,0.00366507,-0.000013
 40,0.00065400,0.00014262,0.00088809,0.00002294,-0.00052564,-0.00002193
 ,0.00005154,0.00011886,-0.00004870,-0.00002409,0.00002314,0.00001103,0
 .00000191,0.00000337,0.00000586,-0.00000034,-0.00000471,0.00000089,0.0
 0000189,-0.00000393,-0.00000975,0.00000985,0.00000631,-0.00000186,-0.0
 0000142,-0.00000365,-0.00000079,-0.00000345,0.00000346,0.00000555,-0.0
 0000027,-0.00000180,-0.00002485,0.00001144,-0.00003005,0.00000272,0.00
 000060,0.00000230,0.00000520,-0.00000135,0.00000829,0.00000228,-0.0000
 0178,0.00000054,0.00007102,-0.00000073,-0.00005109,-0.00000867,-0.0000
 0264,0.00000467,-0.00001672,0.00000063,0.00001250,-0.00000835,0.000004
 60,0.00000574,-0.00000780,-0.00000298,-0.00000027,0.00000012,0.0000063
 0,0.00000095,0.00000271,0.00000089,-0.00000193,0.00000191,-0.00000249,
 0.00000327,-0.00007836,-0.00008226,-0.00005385,0.00001819,0.00001187,0
 .00001451,-0.00000415,-0.00000524,-0.00000049,-0.00000057,-0.00000046,
 -0.00000041,0.00000121,-0.00000379,0.00000104,0.00000162,0.00000323,0.
 00000232,-0.00001461,0.00000191,-0.00001412,0.00000276,0.00000504,0.00
 000177,-0.00000309,-0.00000269,-0.00000258,0.00000155,-0.00000092,0.00
 000039,0.00125060,-0.00029044,0.00055804,-0.00038320,0.00030653,-0.000
 05159,-0.00041039,-0.00007313,-0.00010623,-0.00027509,0.00007519,-0.00
 034559,-0.00074215,0.00473046,-0.07468183,-0.02239893,-0.02914235,0.00
 163494,0.00687901,0.03714202,0.07519530,0.00002984,-0.00013190,-0.0000
 8547,-0.00037925,0.00019556,0.00014647,-0.00010785,0.00008818,0.000014
 54,0.00005466,0.00003468,-0.00006056,-0.00007699,0.00025281,0.00008712
 ,0.00000607,0.00000177,0.00000005,0.00000232,0.00001473,-0.00004730,-0
 .00002931,-0.00006147,-0.00000492,-0.00000898,-0.00003742,-0.00000588,
 0.00008089,0.00000446,-0.00004338,0.00009609,-0.00009692,0.00000853,0.
 00004217,-0.00008592,-0.00004116,0.00055557,0.00023962,-0.00009207,-0.
 00028241,-0.00084618,-0.00048304,0.00016852,-0.00034660,-0.00007399,-0
 .00002740,0.00009190,0.00010101,0.00001274,0.00000133,-0.00002340,-0.0
 0000836,-0.00005089,-0.00000994,-0.00007044,-0.00020029,-0.00012690,-0
 .00022880,-0.00073853,0.00040996,0.00002457,0.00019820,-0.00015227,-0.
 00007296,-0.00043433,0.00012636,0.00002062,0.00004132,-0.00005880,-0.0
 0123235,-0.00057559,-0.00001505,0.00043167,0.00023741,0.00026495,0.000
 18067,-0.00006267,0.00010519,-0.00052523,-0.00150833,-0.00211699,0.000
 08741,0.00054477,0.00019980,0.00005371,-0.00012764,0.00004131,-0.00003
 089,-0.00006072,-0.00004394,-0.00005665,-0.00005864,-0.00005718,0.0000
 7170,-0.00000072,-0.00005670,-0.00000310,0.00005486,-0.00005408,0.0003
 6196,0.00045888,-0.00005708,0.00009263,-0.00008208,-0.00010218,0.00012
 426,-0.00009119,-0.00000400,0.00001065,0.00003588,0.00000036,-0.000007
 05,0.00001137,0.00003683,-0.00000053,-0.00000718,-0.00000988,0.0000319
 0,-0.00000971,-0.00003414,-0.00001066,0.00000551,-0.00000122,-0.000296
 49,-0.00023116,0.00018837,-0.00030397,-0.00019198,0.00059302,-0.000130
 29,-0.00009342,0.00008001,-0.00014223,0.00001660,0.00009128,-0.0001481
 3,0.00008900,0.00001109,0.00066804,0.00011062,-0.00002059,-0.00012354,
 0.00002104,0.00002950,0.00014098,-0.00025669,0.00019661,-0.00034787,0.
 00000345,-0.00027243,0.00121900,0.00070387,-0.00059933,-0.00032788,-0.
 00051565,-0.00004868,-0.00048859,-0.00007076,0.00013380,-0.00005553,-0
 .00081154,-0.00035957,0.00039641,-0.00001085,0.00040782,0.00087963,-0.
 00060262,0.00180775,0.00065132,-0.00129089,0.00064397,0.00008709,0.000
 15627,0.00000780,-0.00691116,0.00783942,0.01661410,0.00042805,0.000817
 31,-0.00029858,-0.00227523,-0.00085753,-0.00109635,0.00102250,0.000906
 09,0.00107953,0.00009724,0.00004280,-0.00003988,-0.00001247,-0.0000001
 2,-0.00000449,-0.00001415,0.00000481,0.00000728,-0.00000718,-0.0000105
 3,0.00000851,0.00002396,-0.00003823,-0.00006239,0.00000613,0.00000375,
 0.00000258,0.00000457,0.00000306,0.00000728,-0.00001312,0.00000275,0.0
 0000782,0.00009764,-0.00003771,0.00004592,-0.00001694,-0.00000550,-0.0
 0000108,0.00000938,-0.00000678,-0.00000461,-0.00000746,0.00001266,-0.0
 0000083,0.00006526,-0.00011977,0.00016449,-0.00002511,-0.00000168,-0.0
 0002471,0.00000445,0.00001219,0.00001220,-0.00000546,0.00003767,-0.000
 00713,-0.00000081,0.00001836,-0.00000290,-0.00000011,-0.00000899,-0.00
 000342,0.00000422,0.00000266,0.00000224,-0.00000266,-0.00000085,0.0000
 0229,0.00005510,0.00012812,0.00000275,-0.00001295,-0.00003579,0.000005
 86,0.00000293,0.00002210,-0.00001516,-0.00000054,-0.00000100,0.0000020
 5,0.00000100,0.00000245,0.00000199,-0.00000322,-0.00000660,-0.00000162
 ,0.00000767,0.00000646,0.00000514,-0.00000196,-0.00000800,-0.00000064,
 0.00001427,0.00000513,0.00000125,-0.00000107,0.,0.00000305,-0.00120186
 ,0.00011447,-0.00003029,0.00036506,-0.00027344,-0.00004994,0.00038506,
 0.00011723,-0.00001620,0.00026027,-0.00005272,0.00020884,-0.15941718,0
 .04179123,0.09469297,-0.07594292,0.01983873,0.01492086,0.00751636,0.02
 300460,0.00867486,0.23444309,0.00047297,0.00091891,-0.00072384,0.00016
 664,-0.00001202,-0.00009082,0.00022967,0.00022088,0.00000723,-0.000106
 49,0.00016007,0.00001160,0.00012895,-0.00028857,0.00003939,-0.00002343
 ,-0.00005648,0.00001827,0.00002804,0.00003203,-0.00002322,-0.00017322,
 -0.00022930,0.00002466,0.00000639,-0.00000488,-0.00000400,0.00002075,0
 .00000825,0.00002103,-0.00016461,-0.00006934,0.00000327,-0.00009491,-0
 .00023832,0.00000957,-0.00045648,-0.00056680,0.00002729,-0.00217529,-0
 .00201916,-0.00018836,-0.00036735,0.00021820,-0.00004554,0.00010223,-0
 .00009584,-0.00002648,-0.00000729,0.00000844,-0.00000347,-0.00004656,-
 0.00000701,0.00001572,-0.00010476,0.00007923,0.00007721,0.00020412,0.0
 0100781,-0.00035493,-0.00000614,-0.00015777,0.00016460,-0.00029678,0.0
 0041897,0.00000291,0.00005388,-0.00018500,0.00010730,0.00140966,-0.000
 84866,-0.00068392,-0.00026516,0.00015313,-0.00011715,-0.00063578,-0.00
 028860,0.00000358,-0.00190374,-0.00122978,-0.00058040,0.00011978,-0.00
 035310,-0.00004409,0.00000104,0.00003555,-0.00001403,-0.00000963,0.000
 02546,0.00002234,-0.00000241,0.00003802,-0.00001210,0.00000681,-0.0000
 3050,0.00001021,0.00000724,-0.00001168,-0.00000692,0.00002038,-0.00016
 977,0.00012606,0.00002120,-0.00015507,0.00002799,-0.00001944,0.0000144
 7,0.00000502,0.00002910,-0.00001575,-0.00002301,0.00000077,-0.00000767
 ,-0.00000369,0.00000112,-0.00000103,0.00000104,-0.00001691,-0.00000122
 ,0.00002474,0.00000655,-0.00000110,0.00000122,-0.00001296,0.00022596,-
 0.00010298,-0.00010062,0.00003161,0.00011274,-0.00001827,0.00002933,-0
 .00000010,0.00000944,0.00002478,-0.00000744,0.00002179,0.00002696,-0.0
 0000451,-0.00021454,-0.00005196,-0.00001761,0.00001503,0.00000980,-0.0
 0001109,-0.00001112,0.00001934,-0.00004548,0.00012765,0.00006776,0.000
 07162,0.00051393,-0.00019239,-0.00022193,-0.00016489,0.00004329,0.0000
 8443,-0.00021366,0.00014156,-0.00004880,0.00063195,-0.00081852,0.00033
 672,-0.00059596,-0.00022066,0.00023749,0.00035613,0.00059669,-0.000822
 27,-0.00003940,0.00010821,-0.00062707,-0.00003038,0.00003963,-0.000013
 06,-0.00360634,0.00993154,0.00641413,-0.00011689,0.00023427,0.00019630
 ,0.00032502,-0.00037895,0.00101401,-0.00015935,-0.00025137,0.00001646,
 0.00000843,-0.00000039,-0.00000920,-0.00000076,-0.00000214,-0.00000024
 ,-0.00000211,0.00000069,0.00000373,0.00000051,0.00000016,-0.00000163,-
 0.00000150,-0.00000659,-0.00000078,-0.00000241,0.00000335,0.00000014,-
 0.00000090,-0.00000115,-0.00000087,0.00000170,0.00000060,0.00000037,-0
 .00001811,0.00000234,-0.00000146,0.00000559,0.00000324,-0.00000213,-0.
 00000440,-0.00000067,-0.00000218,-0.00000329,0.00000018,0.00000127,-0.
 00002528,0.00001309,-0.00001983,0.00001554,0.00000219,0.00000706,-0.00
 000017,-0.00001899,-0.00000561,-0.00000727,-0.00000067,0.00000319,0.00
 006318,0.00011554,-0.00002649,-0.00000345,-0.00001974,-0.00000517,-0.0
 0001897,-0.00000863,0.00000223,-0.00000629,-0.00001373,0.00001640,0.00
 006265,-0.00000101,-0.00005255,-0.00001866,-0.00000481,0.00000972,0.00
 000516,0.00000548,-0.00000915,-0.00000372,0.00000055,0.00000247,0.0000
 0085,0.00000008,-0.00000186,0.00000041,-0.00000101,0.00000037,0.000009
 85,-0.00000271,0.00000193,-0.00000008,0.00000017,-0.00000006,0.0000090
 9,-0.00000155,-0.00000260,-0.00000455,-0.00000117,0.00000503,-0.000266
 65,-0.00012043,-0.00029185,0.00005258,0.00003903,0.00007134,0.00010409
 ,0.00007038,0.00004474,0.00004715,0.00001807,0.00011345,0.04293726,-0.
 09065254,-0.04285975,0.01658911,0.00721319,0.00015682,0.03479032,-0.05
 605986,-0.04491679,-0.08719239,0.13351755,0.00063942,0.00097044,-0.000
 44216,-0.00002936,-0.00017796,-0.00045252,0.00010422,-0.00005720,0.000
 00641,-0.00015895,0.00015733,-0.00009705,0.00007442,-0.00024597,-0.000
 26960,-0.00002422,-0.00006559,0.00003022,0.00000571,-0.00002916,0.0000
 6056,-0.00012859,-0.00013181,0.00007710,0.00000421,0.00002287,0.000019
 95,-0.00005412,0.00004438,0.00002431,-0.00001402,0.00002640,0.00015899
 ,-0.00002101,0.00002677,0.00010070,-0.00000977,0.00012180,0.00037809,-
 0.00074426,-0.00055106,0.00068265,-0.00036349,0.00003536,0.00023460,0.
 00010511,-0.00015390,-0.00015145,0.00000846,0.00001029,0.00004730,-0.0
 0003398,0.00003643,0.00003312,0.00000944,0.00023173,0.00029767,0.00003
 262,0.00016036,-0.00049931,-0.00002053,-0.00020019,0.00018273,0.000083
 95,0.00020762,-0.00041034,-0.00002134,0.00002639,0.00006947,0.00284211
 ,-0.00057605,-0.00285226,-0.00019781,0.00022069,0.00012098,-0.00113477
 ,-0.00061996,0.00022382,-0.00331811,-0.00204935,-0.00050040,0.00010975
 ,-0.00020264,-0.00001773,0.00003151,-0.00000060,-0.00005684,-0.0000473
 3,-0.00000323,0.00000196,0.00001668,0.00002802,0.00001093,-0.00010513,
 0.00002927,0.00001578,0.00002012,-0.00001236,0.00006147,-0.00064651,-0
 .00036649,-0.00063064,-0.00016232,0.00022296,-0.00005798,-0.00008020,0
 .00004800,0.00000248,-0.00002920,-0.00003917,-0.00003207,0.00003204,-0
 .00001988,-0.00005679,-0.00000582,0.00001988,0.00002729,-0.00002384,0.
 00001557,0.00002014,0.00002145,-0.00000112,-0.00000267,0.00038800,-0.0
 0008850,0.00017876,0.00083220,0.00033620,-0.00121170,0.00018033,0.0000
 7267,-0.00003155,0.00013082,-0.00003043,-0.00004103,0.00012431,-0.0000
 9901,0.00002781,-0.00012564,-0.00002941,-0.00012410,0.00002134,-0.0000
 0141,0.00001446,-0.00000470,0.00002264,-0.00003427,0.00008121,0.000003
 83,0.00023290,-0.00354562,-0.00101870,0.00102684,0.00098567,0.00113346
 ,0.00024381,0.00147175,-0.00015587,0.00015434,0.00082844,0.00251568,-0
 .00085101,0.00074019,0.00055774,-0.00088811,-0.00383398,0.00007066,-0.
 00510994,-0.00006753,0.00025558,0.00038007,-0.00003610,-0.00013382,0.0
 0005017,0.03837294,-0.01234848,-0.03072111,-0.00008970,-0.00078095,-0.
 00013753,0.00167220,0.00073725,0.00020480,0.00001511,-0.00049923,-0.00
 066937,-0.00011118,-0.00005318,0.00005002,0.00002146,0.00000224,0.0000
 0611,0.00001514,-0.00000246,-0.00000942,0.00000476,0.00000766,-0.00000
 983,-0.00002402,0.00003209,0.00004034,-0.00000503,-0.00000381,-0.00000
 546,-0.00000327,-0.00000541,0.00000025,0.00001334,-0.00000204,-0.00000
 641,-0.00007917,0.00003181,-0.00005893,0.00001206,0.00000379,0.0000026
 9,0.00000131,0.00000115,0.00001179,0.00000650,-0.00000849,0.00000178,0
 .00004878,0.00005401,-0.00013472,0.00000774,-0.00000163,0.00001761,-0.
 00002270,-0.00001338,0.00000715,-0.00001137,-0.00000999,0.00001190,0.0
 0000947,0.00002216,-0.00000714,-0.00000115,0.00000701,0.00000092,-0.00
 000274,-0.00000197,-0.00000334,0.00000163,-0.00000795,0.00000947,-0.00
 012476,-0.00017526,-0.00009711,0.00002627,0.00003107,0.00002060,-0.000
 00569,-0.00001521,0.00000354,-0.00000142,-0.00000008,-0.00000073,0.000
 00151,-0.00000628,0.00000014,0.00000387,0.00000705,0.00000387,-0.00002
 154,-0.00000049,-0.00002171,0.00000488,0.00001059,0.00000268,-0.000007
 38,-0.00000655,-0.00000502,0.00000143,-0.00000166,0.00000086,0.0022941
 8,-0.00047206,0.00083205,-0.00070334,0.00054804,-0.00005133,-0.0007626
 0,-0.00017309,-0.00014786,-0.00047478,0.00011569,-0.00060657,0.0877248
 5,-0.03897472,-0.17233313,0.00159063,0.00248016,0.02078366,0.01104963,
 -0.03449964,-0.00338195,-0.13538504,0.08340209,0.19602011\\0.00000088,
 0.00000108,0.00000117,0.00000052,0.00000117,0.00000055,0.00000116,0.00
 000044,0.00000103,0.00000188,-0.00000075,-0.00000035,0.00000094,0.0000
 0030,0.00000070,0.00000146,0.00000097,0.00000049,0.00000074,0.00000103
 ,0.00000049,0.00000169,0.00000049,0.00000024,0.00000178,0.00000006,0.0
 0000068,0.00000030,-0.00000021,-0.00000015,0.00000133,0.00000018,0.000
 00076,0.00000225,0.00000100,0.00000107,0.00000145,0.00000183,0.0000010
 4,0.00000046,0.00000078,0.00000061,0.00000087,-0.00000006,-0.00000009,
 0.00000030,-0.00000159,0.00000037,0.00000133,-0.00000113,-0.00000006,0
 .00000186,-0.00000083,-0.00000002,0.00000164,-0.00000012,-0.00000136,0
 .00000078,0.00000164,0.00000099,0.00000034,0.00000204,0.00000120,0.000
 00045,0.00000250,0.00000093,0.00000087,0.00000248,0.00000134,0.0000006
 0,0.00000140,0.00000039,0.00000046,0.00000040,0.00000040,0.00000114,0.
 00000069,0.00000057,0.00000044,0.00000138,0.00000073,0.00000004,-0.000
 00065,-0.00000026,-0.00000035,-0.00000020,-0.00000002,0.00000066,-0.00
 000086,-0.00000038,0.00000056,-0.00000082,0.00000004,-0.00000089,-0.00
 000070,-0.00000115,-0.00000020,-0.00000053,-0.00000089,-0.00000074,-0.
 00000075,0.00000034,-0.00000079,-0.00000011,-0.00000048,-0.00000124,-0
 .00000149,-0.00000021,-0.00000009,0.00000027,0.00000028,-0.00000006,-0
 .00000146,-0.00000037,-0.00000150,-0.00000085,-0.00000067,-0.00000182,
 -0.00000026,-0.00000066,-0.00000121,-0.00000153,-0.00000109,-0.0000006
 3,-0.00000055,-0.00000054,-0.00000081,0.00000109,0.00000013,-0.0000009
 3,-0.00000112,-0.00000037,-0.00000154,-0.00000178,-0.00000083,-0.00000
 213,-0.00000106,-0.00000098,-0.00000059,-0.00000067,-0.00000067,-0.000
 00200,-0.00000038,-0.00000063,-0.00000152,-0.00000019,-0.00000018,-0.0
 0000116,-0.00000107,-0.00000125,-0.00000031,0.00000118,0.00000080,0.00
 000004,-0.00000053,-0.00000008,-0.00000130,0.00000054,-0.00000020,-0.0
 0000024,0.00000149,0.00000022,-0.00000132,0.00000192,-0.00000003,-0.00
 000132,0.00000116,0.00000033,-0.00000033,0.00000254,0.00000191,-0.0000
 0067,0.00000201,0.00000102,-0.00000082,0.00000134,0.00000050,-0.000000
 29,0.00000064,0.00000036,-0.00000052,0.00000217,0.00000002,-0.00000130
 ,0.00000250,0.00000116,0.00000036,-0.00000079,-0.00000052,-0.00000001,
 -0.00000177,-0.00000067,-0.00000041,-0.00000134,-0.00000065,0.00000019
 ,-0.00000124,-0.00000052,-0.00000146,-0.00000167,-0.00000103,-0.000002
 15,-0.00000166,-0.00000121,-0.00000175,-0.00000126,-0.00000125,-0.0000
 0194,-0.00000214,-0.00000136,-0.00000186,-0.00000185,-0.00000136,-0.00
 000174,-0.00000208,-0.00000135,-0.00000185,-0.00000182,-0.00000108,-0.
 00000251,-0.00000189,-0.00000143,-0.00000142,-0.00000156,-0.00000051,-
 0.00000036,-0.00000125,-0.00000057,-0.00000040,-0.00000080,-0.00000064
 ,-0.00000147,-0.00000120,-0.00000087,0.00000283,0.00000041,0.00000085,
 0.00000304,0.00000043,0.00000095,0.00000231,-0.00000004,0.00000063,0.0
 0000243,0.00000061,0.00000088,0.00000173,-0.00000043,-0.00000135,0.000
 00148,-0.00000105,0.00000030,0.00000116,-0.00000149,0.00000002,0.00000
 163,-0.00000127,-0.00000028,0.00000150,-0.00000061,0.00000014,0.000002
 16,-0.00000099,0.00000007,0.00000148,-0.00000227,0.,0.00000200,-0.0000
 0182,-0.00000022,0.00000055,-0.00000077,-0.00000016,0.00000139,-0.0000
 0215,-0.00000104,-0.00000101,0.00000292,0.00000106,-0.00000001,0.00000
 342,0.00000105,-0.00000169,0.00000276,0.00000115,-0.00000115,0.0000028
 3,0.00000070,-0.00000124,0.00000130,0.00000048,-0.00000067,0.00000069,
 0.00000010,-0.00000140,0.00000157,0.00000031,-0.00000031,0.00000186,0.
 00000054\\\@


 A MAN IS NEVER SO BRILLIANT AS WHEN HE TAKES THE WORDS RIGHT OUT
 OF YOUR MOUTH. -- ARNOT SHEPPARD, JR.
 Job cpu time:       8 days  6 hours  6 minutes 47.4 seconds.
 Elapsed time:       0 days  6 hours 34 minutes 28.9 seconds.
 File lengths (MBytes):  RWF=   9915 Int=      0 D2E=      0 Chk=     86 Scr=      1
 Normal termination of Gaussian 16 at Mon Jun 17 07:19:58 2019.
