 Entering Gaussian System, Link 0=g16
 Input=clay_new-glu_gluC6-BCDR-Na2_1Me2O-bisCF3-ts-b971-custom-pcm_thf.gjf
 Output=clay_new-glu_gluC6-BCDR-Na2_1Me2O-bisCF3-ts-b971-custom-pcm_thf.out
 Initial command:
 /home/ekwan/sw/g16/l1.exe "/scratch/users/ekwan/clay_new-glu_gluC6-BCDR-Na2_1Me2O-bisCF3-ts-b971-custom-pcm_thf/Gau-52893.inp" -scrdir="/scratch/users/ekwan/clay_new-glu_gluC6-BCDR-Na2_1Me2O-bisCF3-ts-b971-custom-pcm_thf/"
 Entering Link 1 = /home/ekwan/sw/g16/l1.exe PID=     52894.
  
 Copyright (c) 1988,1990,1992,1993,1995,1998,2003,2009,2016,
            Gaussian, Inc.  All Rights Reserved.
  
 This is part of the Gaussian(R) 16 program.  It is based on
 the Gaussian(R) 09 system (copyright 2009, Gaussian, Inc.),
 the Gaussian(R) 03 system (copyright 2003, Gaussian, Inc.),
 the Gaussian(R) 98 system (copyright 1998, Gaussian, Inc.),
 the Gaussian(R) 94 system (copyright 1995, Gaussian, Inc.),
 the Gaussian 92(TM) system (copyright 1992, Gaussian, Inc.),
 the Gaussian 90(TM) system (copyright 1990, Gaussian, Inc.),
 the Gaussian 88(TM) system (copyright 1988, Gaussian, Inc.),
 the Gaussian 86(TM) system (copyright 1986, Carnegie Mellon
 University), and the Gaussian 82(TM) system (copyright 1983,
 Carnegie Mellon University). Gaussian is a federally registered
 trademark of Gaussian, Inc.
  
 This software contains proprietary and confidential information,
 including trade secrets, belonging to Gaussian, Inc.
  
 This software is provided under written license and may be
 used, copied, transmitted, or stored only in accord with that
 written license.
  
 The following legend is applicable only to US Government
 contracts under FAR:
  
                    RESTRICTED RIGHTS LEGEND
  
 Use, reproduction and disclosure by the US Government is
 subject to restrictions as set forth in subparagraphs (a)
 and (c) of the Commercial Computer Software - Restricted
 Rights clause in FAR 52.227-19.
  
 Gaussian, Inc.
 340 Quinnipiac St., Bldg. 40, Wallingford CT 06492
  
  
 ---------------------------------------------------------------
 Warning -- This program may not be used in any manner that
 competes with the business of Gaussian, Inc. or will provide
 assistance to any competitor of Gaussian, Inc.  The licensee
 of this program is prohibited from giving any competitor of
 Gaussian, Inc. access to this program.  By using this program,
 the user acknowledges that Gaussian, Inc. is engaged in the
 business of creating and licensing software in the field of
 computational chemistry and represents and warrants to the
 licensee that it is not a competitor of Gaussian, Inc. and that
 it will not use this program in any manner prohibited above.
 ---------------------------------------------------------------
  

 Cite this work as:
 Gaussian 16, Revision A.03,
 M. J. Frisch, G. W. Trucks, H. B. Schlegel, G. E. Scuseria, 
 M. A. Robb, J. R. Cheeseman, G. Scalmani, V. Barone, 
 G. A. Petersson, H. Nakatsuji, X. Li, M. Caricato, A. V. Marenich, 
 J. Bloino, B. G. Janesko, R. Gomperts, B. Mennucci, H. P. Hratchian, 
 J. V. Ortiz, A. F. Izmaylov, J. L. Sonnenberg, D. Williams-Young, 
 F. Ding, F. Lipparini, F. Egidi, J. Goings, B. Peng, A. Petrone, 
 T. Henderson, D. Ranasinghe, V. G. Zakrzewski, J. Gao, N. Rega, 
 G. Zheng, W. Liang, M. Hada, M. Ehara, K. Toyota, R. Fukuda, 
 J. Hasegawa, M. Ishida, T. Nakajima, Y. Honda, O. Kitao, H. Nakai, 
 T. Vreven, K. Throssell, J. A. Montgomery, Jr., J. E. Peralta, 
 F. Ogliaro, M. J. Bearpark, J. J. Heyd, E. N. Brothers, K. N. Kudin, 
 V. N. Staroverov, T. A. Keith, R. Kobayashi, J. Normand, 
 K. Raghavachari, A. P. Rendell, J. C. Burant, S. S. Iyengar, 
 J. Tomasi, M. Cossi, J. M. Millam, M. Klene, C. Adamo, R. Cammi, 
 J. W. Ochterski, R. L. Martin, K. Morokuma, O. Farkas, 
 J. B. Foresman, and D. J. Fox, Gaussian, Inc., Wallingford CT, 2016.
 
 ******************************************
 Gaussian 16:  AS64L-G16RevA.03 25-Dec-2016
                16-Jun-2019 
 ******************************************
 %mem=48GB
 %nprocshared=32
 Will use up to   32 processors via shared memory.
 ----------------------------------------------------------------------
 #p opt=(ts,calcfc,noeigentest,maxstep=5) freq=noraman pop=none extraba
 sis 6-31g* scrf=(pcm,solvent=tetrahydrofuran) b971
 ----------------------------------------------------------------------
 1/5=1,8=5,10=4,11=1,18=20,26=3,38=1/1,3;
 2/9=110,12=2,17=6,18=5,40=1/2;
 3/5=1,6=6,7=1,10=1,11=2,25=1,30=1,70=2201,71=2,72=20,74=-20,140=1/1,2,3;
 4//1;
 5/5=2,38=5,53=20/2;
 8/6=4,10=90,11=11/1;
 11/6=1,8=1,9=11,15=111,16=1/1,2,10;
 10/6=1,13=1/2;
 7/10=1,18=20,25=1/1,2,3,16;
 1/5=1,8=5,10=4,11=1,18=20,26=3/3(2);
 2/9=110/2;
 99//99;
 2/9=110/2;
 3/5=7,6=1,7=1,11=2,25=1,30=1,70=2205,71=1,72=20,74=-20,82=7/1,2,3;
 4/5=5,16=3,69=1/1;
 5/5=2,38=5,53=20/2;
 7//1,2,3,16;
 1/5=1,8=5,11=1,18=20,26=3/3(-5);
 2/9=110/2;
 99/9=1/99;
 Leave Link    1 at Sun Jun 16 11:40:30 2019, MaxMem=  6442450944 cpu:               4.7 elap:               0.2
 (Enter /home/ekwan/sw/g16/l101.exe)
 -----
 title
 -----
 Symbolic Z-matrix:
 Charge =  0 Multiplicity = 1
 6                    -2.16046   1.21782   2.37969 
 6                    -2.54901   2.08449   1.17148 
 6                    -1.85049   3.45378   1.26085 
 6                     0.02772   2.53833   2.48373 
 6                    -0.63067   1.14523   2.52521 
 1                    -2.01769   4.03007   0.33692 
 1                    -2.17908   1.60171   0.25329 
 1                    -2.58359   1.67679   3.2848 
 1                    -0.26252   3.08471   3.39435 
 1                    -0.23829   0.54375   1.69208 
 8                    -0.44066   3.27552   1.32649 
 8                    -2.35695   4.14581   2.36494 
 8                    -3.95029   2.29028   1.09211 
 8                    -2.69322  -0.0946    2.20224 
 8                    -0.31019   0.5307    3.77248 
 6                     1.57174   2.49054   2.38872 
 1                     1.90428   1.93952   3.29553 
 1                     1.90895   3.54379   2.54178 
 8                     2.0612    1.96039   1.21326 
 6                    -4.60997   1.43626   0.16803 
 1                    -4.23244   1.58292  -0.85694 
 1                    -4.49585   0.37922   0.43923 
 1                    -5.67113   1.70643   0.19304 
 6                    -3.38956  -0.60114   3.33109 
 1                    -2.74884  -0.62749   4.22356 
 1                    -4.28655  -0.00139   3.55233 
 1                    -3.69372  -1.62088   3.07535 
 6                     0.35726  -0.71767   3.66168 
 1                    -0.24078  -1.44398   3.09242 
 1                     1.34446  -0.61696   3.18641 
 1                     0.49341  -1.09047   4.68332 
 6                     4.27235  -0.95443  -1.20987 
 6                     3.42854   0.22683  -0.69481 
 6                     2.1132   -0.24212  -0.13727 
 6                     2.89463  -2.50073   0.25607 
 6                     4.31282  -2.02577  -0.10322 
 1                     1.30641   0.45977   0.01493 
 1                     3.92022   0.656     0.19845 
 1                     3.80065  -1.36537  -2.11407 
 1                     2.47568  -3.06152  -0.5876 
 1                     4.78671  -1.59351   0.7885 
 8                     1.96127  -1.37244   0.44847 
 8                    -0.31797   0.14695  -3.91776 
 8                     3.19806   1.24523  -1.63897 
 8                     5.58179  -0.49576  -1.4883 
 8                     5.0158   -3.17592  -0.53822 
 6                     2.8001   -3.34509   1.51635 
 1                     3.33263  -4.29237   1.32969 
 1                     1.74017  -3.58198   1.71055 
 8                     3.37054  -2.63087   2.58958 
 16                   -0.11969  -0.03078  -2.46469 
 8                    -0.23442   1.23155  -1.67282 
 8                     1.12333  -0.8013   -2.11293 
 6                    -1.49057  -1.06482  -1.87924 
 6                    -2.74676  -0.94414  -2.47732 
 6                    -1.28924  -1.9257   -0.79733 
 6                    -3.81577  -1.69442  -1.97236 
 1                    -2.8856   -0.28271  -3.32786 
 6                    -2.36483  -2.67188  -0.30814 
 1                    -0.30824  -2.01076  -0.34155 
 6                    -3.63229  -2.55996  -0.88947 
 1                    -4.46596  -3.14045  -0.50576 
 6                     4.1609    2.30614  -1.59176 
 1                     4.15062   2.78679  -0.60327 
 1                     5.16572   1.93461  -1.81815 
 1                     3.84934   3.02729  -2.35258 
 6                     6.12979  -0.99738  -2.70508 
 1                     6.19178  -2.09314  -2.69551 
 1                     5.53197  -0.67512  -3.57053 
 1                     7.13617  -0.57573  -2.78688 
 6                     6.23983  -3.40712   0.15614 
 1                     6.94477  -2.57867   0.00462 
 1                     6.06613  -3.54315   1.23379 
 1                     6.66239  -4.32605  -0.26069 
 6                     3.28803  -3.34068   3.81543 
 1                     3.75616  -2.71264   4.57856 
 1                     2.24043  -3.5335    4.09632 
 1                     3.82155  -4.30278   3.7579 
 6                    -1.9396    5.50512   2.42789 
 1                    -2.46934   5.95723   3.27113 
 1                    -0.85662   5.58873   2.59066 
 1                    -2.20568   6.04024   1.50283 
 11                    0.98844   2.87962  -0.57034 
 8                     1.66603   4.87221  -1.57853 
 6                     1.5388    5.18504  -2.9598 
 1                     2.51803   5.15502  -3.46222 
 1                     0.8806    4.43234  -3.40375 
 1                     1.09726   6.18359  -3.09666 
 6                     2.51179   5.78417  -0.88994 
 1                     2.11422   6.80856  -0.9481 
 1                     2.54583   5.46667   0.15674 
 1                     3.52977   5.77027  -1.30895 
 6                    -5.19548  -1.51321  -2.56397 
 9                    -5.85257  -0.4858   -1.97459 
 9                    -5.95987  -2.61107  -2.40275 
 9                    -5.14204  -1.23905  -3.8816 
 6                    -2.14952  -3.65788   0.81696 
 9                    -1.05692  -3.35805   1.55466 
 9                    -1.97336  -4.91188   0.3488 
 9                    -3.20709  -3.69956   1.65506 
 
 Add virtual bond connecting atoms H37        and O19        Dist= 3.90D+00.
 Add virtual bond connecting atoms O52        and H37        Dist= 4.56D+00.
 Add virtual bond connecting atoms O52        and Na83       Dist= 4.40D+00.
 Add virtual bond connecting atoms O53        and C34        Dist= 4.31D+00.
 Add virtual bond connecting atoms O84        and Na83       Dist= 4.41D+00.
 ITRead=  0  0  0  0  0  0  0  0  0  0  0  0  0  0  0  0  0  0  0  0
 ITRead=  0  0  0  0  0  0  0  0  0  0  0  0  0  0  0  0  0  0  0  0
 ITRead=  0  0  0  0  0  0  0  0  0  0  0  0  0  0  0  0  0  0  0  0
 ITRead=  0  0  0  0  0  0  0  0  0  0  0  0  0  0  0  0  0  0  0  0
 ITRead=  0  0  0  0  0  0  0  0  0  0  0  0  0  0  0  0  0  0  0  0
 MicOpt= -1 -1 -1 -1 -1 -1 -1 -1 -1 -1 -1 -1 -1 -1 -1 -1 -1 -1 -1 -1
 MicOpt= -1 -1 -1 -1 -1 -1 -1 -1 -1 -1 -1 -1 -1 -1 -1 -1 -1 -1 -1 -1
 MicOpt= -1 -1 -1 -1 -1 -1 -1 -1 -1 -1 -1 -1 -1 -1 -1 -1 -1 -1 -1 -1
 MicOpt= -1 -1 -1 -1 -1 -1 -1 -1 -1 -1 -1 -1 -1 -1 -1 -1 -1 -1 -1 -1
 MicOpt= -1 -1 -1 -1 -1 -1 -1 -1 -1 -1 -1 -1 -1 -1 -1 -1 -1 -1 -1 -1
 NAtoms=    100 NQM=      100 NQMF=       0 NMMI=      0 NMMIF=      0
                NMic=       0 NMicF=      0.
                    Isotopes and Nuclear Properties:
 (Nuclear quadrupole moments (NQMom) in fm**2, nuclear magnetic moments (NMagM)
  in nuclear magnetons)

  Atom         1           2           3           4           5           6           7           8           9          10
 IAtWgt=          12          12          12          12          12           1           1           1           1           1
 AtmWgt=  12.0000000  12.0000000  12.0000000  12.0000000  12.0000000   1.0078250   1.0078250   1.0078250   1.0078250   1.0078250
 NucSpn=           0           0           0           0           0           1           1           1           1           1
 AtZEff=   0.0000000   0.0000000   0.0000000   0.0000000   0.0000000   0.0000000   0.0000000   0.0000000   0.0000000   0.0000000
 NQMom=    0.0000000   0.0000000   0.0000000   0.0000000   0.0000000   0.0000000   0.0000000   0.0000000   0.0000000   0.0000000
 NMagM=    0.0000000   0.0000000   0.0000000   0.0000000   0.0000000   2.7928460   2.7928460   2.7928460   2.7928460   2.7928460
 AtZNuc=   6.0000000   6.0000000   6.0000000   6.0000000   6.0000000   1.0000000   1.0000000   1.0000000   1.0000000   1.0000000

  Atom        11          12          13          14          15          16          17          18          19          20
 IAtWgt=          16          16          16          16          16          12           1           1          16          12
 AtmWgt=  15.9949146  15.9949146  15.9949146  15.9949146  15.9949146  12.0000000   1.0078250   1.0078250  15.9949146  12.0000000
 NucSpn=           0           0           0           0           0           0           1           1           0           0
 AtZEff=   0.0000000   0.0000000   0.0000000   0.0000000   0.0000000   0.0000000   0.0000000   0.0000000   0.0000000   0.0000000
 NQMom=    0.0000000   0.0000000   0.0000000   0.0000000   0.0000000   0.0000000   0.0000000   0.0000000   0.0000000   0.0000000
 NMagM=    0.0000000   0.0000000   0.0000000   0.0000000   0.0000000   0.0000000   2.7928460   2.7928460   0.0000000   0.0000000
 AtZNuc=   8.0000000   8.0000000   8.0000000   8.0000000   8.0000000   6.0000000   1.0000000   1.0000000   8.0000000   6.0000000

  Atom        21          22          23          24          25          26          27          28          29          30
 IAtWgt=           1           1           1          12           1           1           1          12           1           1
 AtmWgt=   1.0078250   1.0078250   1.0078250  12.0000000   1.0078250   1.0078250   1.0078250  12.0000000   1.0078250   1.0078250
 NucSpn=           1           1           1           0           1           1           1           0           1           1
 AtZEff=   0.0000000   0.0000000   0.0000000   0.0000000   0.0000000   0.0000000   0.0000000   0.0000000   0.0000000   0.0000000
 NQMom=    0.0000000   0.0000000   0.0000000   0.0000000   0.0000000   0.0000000   0.0000000   0.0000000   0.0000000   0.0000000
 NMagM=    2.7928460   2.7928460   2.7928460   0.0000000   2.7928460   2.7928460   2.7928460   0.0000000   2.7928460   2.7928460
 AtZNuc=   1.0000000   1.0000000   1.0000000   6.0000000   1.0000000   1.0000000   1.0000000   6.0000000   1.0000000   1.0000000

  Atom        31          32          33          34          35          36          37          38          39          40
 IAtWgt=           1          12          12          12          12          12           1           1           1           1
 AtmWgt=   1.0078250  12.0000000  12.0000000  12.0000000  12.0000000  12.0000000   1.0078250   1.0078250   1.0078250   1.0078250
 NucSpn=           1           0           0           0           0           0           1           1           1           1
 AtZEff=   0.0000000   0.0000000   0.0000000   0.0000000   0.0000000   0.0000000   0.0000000   0.0000000   0.0000000   0.0000000
 NQMom=    0.0000000   0.0000000   0.0000000   0.0000000   0.0000000   0.0000000   0.0000000   0.0000000   0.0000000   0.0000000
 NMagM=    2.7928460   0.0000000   0.0000000   0.0000000   0.0000000   0.0000000   2.7928460   2.7928460   2.7928460   2.7928460
 AtZNuc=   1.0000000   6.0000000   6.0000000   6.0000000   6.0000000   6.0000000   1.0000000   1.0000000   1.0000000   1.0000000

  Atom        41          42          43          44          45          46          47          48          49          50
 IAtWgt=           1          16          16          16          16          16          12           1           1          16
 AtmWgt=   1.0078250  15.9949146  15.9949146  15.9949146  15.9949146  15.9949146  12.0000000   1.0078250   1.0078250  15.9949146
 NucSpn=           1           0           0           0           0           0           0           1           1           0
 AtZEff=   0.0000000   0.0000000   0.0000000   0.0000000   0.0000000   0.0000000   0.0000000   0.0000000   0.0000000   0.0000000
 NQMom=    0.0000000   0.0000000   0.0000000   0.0000000   0.0000000   0.0000000   0.0000000   0.0000000   0.0000000   0.0000000
 NMagM=    2.7928460   0.0000000   0.0000000   0.0000000   0.0000000   0.0000000   0.0000000   2.7928460   2.7928460   0.0000000
 AtZNuc=   1.0000000   8.0000000   8.0000000   8.0000000   8.0000000   8.0000000   6.0000000   1.0000000   1.0000000   8.0000000

  Atom        51          52          53          54          55          56          57          58          59          60
 IAtWgt=          32          16          16          12          12          12          12           1          12           1
 AtmWgt=  31.9720718  15.9949146  15.9949146  12.0000000  12.0000000  12.0000000  12.0000000   1.0078250  12.0000000   1.0078250
 NucSpn=           0           0           0           0           0           0           0           1           0           1
 AtZEff=   0.0000000   0.0000000   0.0000000   0.0000000   0.0000000   0.0000000   0.0000000   0.0000000   0.0000000   0.0000000
 NQMom=    0.0000000   0.0000000   0.0000000   0.0000000   0.0000000   0.0000000   0.0000000   0.0000000   0.0000000   0.0000000
 NMagM=    0.0000000   0.0000000   0.0000000   0.0000000   0.0000000   0.0000000   0.0000000   2.7928460   0.0000000   2.7928460
 AtZNuc=  16.0000000   8.0000000   8.0000000   6.0000000   6.0000000   6.0000000   6.0000000   1.0000000   6.0000000   1.0000000

  Atom        61          62          63          64          65          66          67          68          69          70
 IAtWgt=          12           1          12           1           1           1          12           1           1           1
 AtmWgt=  12.0000000   1.0078250  12.0000000   1.0078250   1.0078250   1.0078250  12.0000000   1.0078250   1.0078250   1.0078250
 NucSpn=           0           1           0           1           1           1           0           1           1           1
 AtZEff=   0.0000000   0.0000000   0.0000000   0.0000000   0.0000000   0.0000000   0.0000000   0.0000000   0.0000000   0.0000000
 NQMom=    0.0000000   0.0000000   0.0000000   0.0000000   0.0000000   0.0000000   0.0000000   0.0000000   0.0000000   0.0000000
 NMagM=    0.0000000   2.7928460   0.0000000   2.7928460   2.7928460   2.7928460   0.0000000   2.7928460   2.7928460   2.7928460
 AtZNuc=   6.0000000   1.0000000   6.0000000   1.0000000   1.0000000   1.0000000   6.0000000   1.0000000   1.0000000   1.0000000

  Atom        71          72          73          74          75          76          77          78          79          80
 IAtWgt=          12           1           1           1          12           1           1           1          12           1
 AtmWgt=  12.0000000   1.0078250   1.0078250   1.0078250  12.0000000   1.0078250   1.0078250   1.0078250  12.0000000   1.0078250
 NucSpn=           0           1           1           1           0           1           1           1           0           1
 AtZEff=   0.0000000   0.0000000   0.0000000   0.0000000   0.0000000   0.0000000   0.0000000   0.0000000   0.0000000   0.0000000
 NQMom=    0.0000000   0.0000000   0.0000000   0.0000000   0.0000000   0.0000000   0.0000000   0.0000000   0.0000000   0.0000000
 NMagM=    0.0000000   2.7928460   2.7928460   2.7928460   0.0000000   2.7928460   2.7928460   2.7928460   0.0000000   2.7928460
 AtZNuc=   6.0000000   1.0000000   1.0000000   1.0000000   6.0000000   1.0000000   1.0000000   1.0000000   6.0000000   1.0000000

  Atom        81          82          83          84          85          86          87          88          89          90
 IAtWgt=           1           1          23          16          12           1           1           1          12           1
 AtmWgt=   1.0078250   1.0078250  22.9897697  15.9949146  12.0000000   1.0078250   1.0078250   1.0078250  12.0000000   1.0078250
 NucSpn=           1           1           3           0           0           1           1           1           0           1
 AtZEff=   0.0000000   0.0000000   0.0000000   0.0000000   0.0000000   0.0000000   0.0000000   0.0000000   0.0000000   0.0000000
 NQMom=    0.0000000   0.0000000  10.4000000   0.0000000   0.0000000   0.0000000   0.0000000   0.0000000   0.0000000   0.0000000
 NMagM=    2.7928460   2.7928460   2.2175200   0.0000000   0.0000000   2.7928460   2.7928460   2.7928460   0.0000000   2.7928460
 AtZNuc=   1.0000000   1.0000000  11.0000000   8.0000000   6.0000000   1.0000000   1.0000000   1.0000000   6.0000000   1.0000000

  Atom        91          92          93          94          95          96          97          98          99         100
 IAtWgt=           1           1          12          19          19          19          12          19          19          19
 AtmWgt=   1.0078250   1.0078250  12.0000000  18.9984033  18.9984033  18.9984033  12.0000000  18.9984033  18.9984033  18.9984033
 NucSpn=           1           1           0           1           1           1           0           1           1           1
 AtZEff=   0.0000000   0.0000000   0.0000000   0.0000000   0.0000000   0.0000000   0.0000000   0.0000000   0.0000000   0.0000000
 NQMom=    0.0000000   0.0000000   0.0000000   0.0000000   0.0000000   0.0000000   0.0000000   0.0000000   0.0000000   0.0000000
 NMagM=    2.7928460   2.7928460   0.0000000   2.6288670   2.6288670   2.6288670   0.0000000   2.6288670   2.6288670   2.6288670
 AtZNuc=   1.0000000   1.0000000   6.0000000   9.0000000   9.0000000   9.0000000   6.0000000   9.0000000   9.0000000   9.0000000
 Leave Link  101 at Sun Jun 16 11:40:31 2019, MaxMem=  6442450944 cpu:              19.0 elap:               0.7
 (Enter /home/ekwan/sw/g16/l103.exe)

 GradGradGradGradGradGradGradGradGradGradGradGradGradGradGradGradGradGrad
 Berny optimization.
 Initialization pass.
                           ----------------------------
                           !    Initial Parameters    !
                           ! (Angstroms and Degrees)  !
 --------------------------                            --------------------------
 ! Name  Definition              Value          Derivative Info.                !
 --------------------------------------------------------------------------------
 ! R1    R(1,2)                  1.5368         calculate D2E/DX2 analytically  !
 ! R2    R(1,5)                  1.5384         calculate D2E/DX2 analytically  !
 ! R3    R(1,8)                  1.0995         calculate D2E/DX2 analytically  !
 ! R4    R(1,14)                 1.4275         calculate D2E/DX2 analytically  !
 ! R5    R(2,3)                  1.5398         calculate D2E/DX2 analytically  !
 ! R6    R(2,7)                  1.1014         calculate D2E/DX2 analytically  !
 ! R7    R(2,13)                 1.4185         calculate D2E/DX2 analytically  !
 ! R8    R(3,6)                  1.1017         calculate D2E/DX2 analytically  !
 ! R9    R(3,11)                 1.4226         calculate D2E/DX2 analytically  !
 ! R10   R(3,12)                 1.398          calculate D2E/DX2 analytically  !
 ! R11   R(4,5)                  1.5414         calculate D2E/DX2 analytically  !
 ! R12   R(4,9)                  1.1009         calculate D2E/DX2 analytically  !
 ! R13   R(4,11)                 1.4498         calculate D2E/DX2 analytically  !
 ! R14   R(4,16)                 1.5477         calculate D2E/DX2 analytically  !
 ! R15   R(5,10)                 1.0999         calculate D2E/DX2 analytically  !
 ! R16   R(5,15)                 1.4269         calculate D2E/DX2 analytically  !
 ! R17   R(12,79)                1.4233         calculate D2E/DX2 analytically  !
 ! R18   R(13,20)                1.4207         calculate D2E/DX2 analytically  !
 ! R19   R(14,24)                1.4198         calculate D2E/DX2 analytically  !
 ! R20   R(15,28)                1.4199         calculate D2E/DX2 analytically  !
 ! R21   R(16,17)                1.112          calculate D2E/DX2 analytically  !
 ! R22   R(16,18)                1.1165         calculate D2E/DX2 analytically  !
 ! R23   R(16,19)                1.3792         calculate D2E/DX2 analytically  !
 ! R24   R(19,37)                2.0634         calculate D2E/DX2 analytically  !
 ! R25   R(19,83)                2.2753         calculate D2E/DX2 analytically  !
 ! R26   R(20,21)                1.1021         calculate D2E/DX2 analytically  !
 ! R27   R(20,22)                1.0972         calculate D2E/DX2 analytically  !
 ! R28   R(20,23)                1.0953         calculate D2E/DX2 analytically  !
 ! R29   R(24,25)                1.099          calculate D2E/DX2 analytically  !
 ! R30   R(24,26)                1.1015         calculate D2E/DX2 analytically  !
 ! R31   R(24,27)                1.0944         calculate D2E/DX2 analytically  !
 ! R32   R(28,29)                1.0996         calculate D2E/DX2 analytically  !
 ! R33   R(28,30)                1.1003         calculate D2E/DX2 analytically  !
 ! R34   R(28,31)                1.096          calculate D2E/DX2 analytically  !
 ! R35   R(32,33)                1.5404         calculate D2E/DX2 analytically  !
 ! R36   R(32,36)                1.5408         calculate D2E/DX2 analytically  !
 ! R37   R(32,39)                1.0995         calculate D2E/DX2 analytically  !
 ! R38   R(32,45)                1.4151         calculate D2E/DX2 analytically  !
 ! R39   R(33,34)                1.5036         calculate D2E/DX2 analytically  !
 ! R40   R(33,38)                1.1063         calculate D2E/DX2 analytically  !
 ! R41   R(33,44)                1.4077         calculate D2E/DX2 analytically  !
 ! R42   R(34,37)                1.0802         calculate D2E/DX2 analytically  !
 ! R43   R(34,42)                1.2821         calculate D2E/DX2 analytically  !
 ! R44   R(34,53)                2.2794         calculate D2E/DX2 analytically  !
 ! R45   R(35,36)                1.5382         calculate D2E/DX2 analytically  !
 ! R46   R(35,40)                1.0963         calculate D2E/DX2 analytically  !
 ! R47   R(35,42)                1.4769         calculate D2E/DX2 analytically  !
 ! R48   R(35,47)                1.5199         calculate D2E/DX2 analytically  !
 ! R49   R(36,41)                1.0984         calculate D2E/DX2 analytically  !
 ! R50   R(36,46)                1.4164         calculate D2E/DX2 analytically  !
 ! R51   R(37,52)                2.4121         calculate D2E/DX2 analytically  !
 ! R52   R(43,51)                1.4773         calculate D2E/DX2 analytically  !
 ! R53   R(44,63)                1.4335         calculate D2E/DX2 analytically  !
 ! R54   R(45,67)                1.4256         calculate D2E/DX2 analytically  !
 ! R55   R(46,71)                1.4261         calculate D2E/DX2 analytically  !
 ! R56   R(47,48)                1.1026         calculate D2E/DX2 analytically  !
 ! R57   R(47,49)                1.1033         calculate D2E/DX2 analytically  !
 ! R58   R(47,50)                1.4097         calculate D2E/DX2 analytically  !
 ! R59   R(50,75)                1.4189         calculate D2E/DX2 analytically  !
 ! R60   R(51,52)                1.4946         calculate D2E/DX2 analytically  !
 ! R61   R(51,53)                1.5042         calculate D2E/DX2 analytically  !
 ! R62   R(51,54)                1.8142         calculate D2E/DX2 analytically  !
 ! R63   R(52,83)                2.3296         calculate D2E/DX2 analytically  !
 ! R64   R(54,55)                1.3965         calculate D2E/DX2 analytically  !
 ! R65   R(54,56)                1.3972         calculate D2E/DX2 analytically  !
 ! R66   R(55,57)                1.4002         calculate D2E/DX2 analytically  !
 ! R67   R(55,58)                1.0864         calculate D2E/DX2 analytically  !
 ! R68   R(56,59)                1.3975         calculate D2E/DX2 analytically  !
 ! R69   R(56,60)                1.085          calculate D2E/DX2 analytically  !
 ! R70   R(57,61)                1.3984         calculate D2E/DX2 analytically  !
 ! R71   R(57,93)                1.5121         calculate D2E/DX2 analytically  !
 ! R72   R(59,61)                1.3989         calculate D2E/DX2 analytically  !
 ! R73   R(59,97)                1.5114         calculate D2E/DX2 analytically  !
 ! R74   R(61,62)                1.0859         calculate D2E/DX2 analytically  !
 ! R75   R(63,64)                1.0992         calculate D2E/DX2 analytically  !
 ! R76   R(63,65)                1.095          calculate D2E/DX2 analytically  !
 ! R77   R(63,66)                1.0936         calculate D2E/DX2 analytically  !
 ! R78   R(67,68)                1.0976         calculate D2E/DX2 analytically  !
 ! R79   R(67,69)                1.1001         calculate D2E/DX2 analytically  !
 ! R80   R(67,70)                1.0942         calculate D2E/DX2 analytically  !
 ! R81   R(71,72)                1.0983         calculate D2E/DX2 analytically  !
 ! R82   R(71,73)                1.1            calculate D2E/DX2 analytically  !
 ! R83   R(71,74)                1.0939         calculate D2E/DX2 analytically  !
 ! R84   R(75,76)                1.0936         calculate D2E/DX2 analytically  !
 ! R85   R(75,77)                1.1016         calculate D2E/DX2 analytically  !
 ! R86   R(75,78)                1.1016         calculate D2E/DX2 analytically  !
 ! R87   R(79,80)                1.0937         calculate D2E/DX2 analytically  !
 ! R88   R(79,81)                1.0983         calculate D2E/DX2 analytically  !
 ! R89   R(79,82)                1.1013         calculate D2E/DX2 analytically  !
 ! R90   R(83,84)                2.3337         calculate D2E/DX2 analytically  !
 ! R91   R(84,85)                1.422          calculate D2E/DX2 analytically  !
 ! R92   R(84,89)                1.4217         calculate D2E/DX2 analytically  !
 ! R93   R(85,86)                1.101          calculate D2E/DX2 analytically  !
 ! R94   R(85,87)                1.094          calculate D2E/DX2 analytically  !
 ! R95   R(85,88)                1.1004         calculate D2E/DX2 analytically  !
 ! R96   R(89,90)                1.1004         calculate D2E/DX2 analytically  !
 ! R97   R(89,91)                1.0943         calculate D2E/DX2 analytically  !
 ! R98   R(89,92)                1.1009         calculate D2E/DX2 analytically  !
 ! R99   R(93,94)                1.3545         calculate D2E/DX2 analytically  !
 ! R100  R(93,95)                1.3474         calculate D2E/DX2 analytically  !
 ! R101  R(93,96)                1.3469         calculate D2E/DX2 analytically  !
 ! R102  R(97,98)                1.352          calculate D2E/DX2 analytically  !
 ! R103  R(97,99)                1.3501         calculate D2E/DX2 analytically  !
 ! R104  R(97,100)               1.35           calculate D2E/DX2 analytically  !
 ! A1    A(2,1,5)              110.6331         calculate D2E/DX2 analytically  !
 ! A2    A(2,1,8)              108.3289         calculate D2E/DX2 analytically  !
 ! A3    A(2,1,14)             109.0495         calculate D2E/DX2 analytically  !
 ! A4    A(5,1,8)              108.9355         calculate D2E/DX2 analytically  !
 ! A5    A(5,1,14)             109.8469         calculate D2E/DX2 analytically  !
 ! A6    A(8,1,14)             110.028          calculate D2E/DX2 analytically  !
 ! A7    A(1,2,3)              109.9482         calculate D2E/DX2 analytically  !
 ! A8    A(1,2,7)              108.8624         calculate D2E/DX2 analytically  !
 ! A9    A(1,2,13)             112.0582         calculate D2E/DX2 analytically  !
 ! A10   A(3,2,7)              106.6086         calculate D2E/DX2 analytically  !
 ! A11   A(3,2,13)             108.8063         calculate D2E/DX2 analytically  !
 ! A12   A(7,2,13)             110.4109         calculate D2E/DX2 analytically  !
 ! A13   A(2,3,6)              110.3435         calculate D2E/DX2 analytically  !
 ! A14   A(2,3,11)             109.9277         calculate D2E/DX2 analytically  !
 ! A15   A(2,3,12)             108.7658         calculate D2E/DX2 analytically  !
 ! A16   A(6,3,11)             104.7533         calculate D2E/DX2 analytically  !
 ! A17   A(6,3,12)             110.39           calculate D2E/DX2 analytically  !
 ! A18   A(11,3,12)            112.6203         calculate D2E/DX2 analytically  !
 ! A19   A(5,4,9)              108.2814         calculate D2E/DX2 analytically  !
 ! A20   A(5,4,11)             110.0617         calculate D2E/DX2 analytically  !
 ! A21   A(5,4,16)             113.5701         calculate D2E/DX2 analytically  !
 ! A22   A(9,4,11)             108.8264         calculate D2E/DX2 analytically  !
 ! A23   A(9,4,16)             109.2153         calculate D2E/DX2 analytically  !
 ! A24   A(11,4,16)            106.7974         calculate D2E/DX2 analytically  !
 ! A25   A(1,5,4)              112.3063         calculate D2E/DX2 analytically  !
 ! A26   A(1,5,10)             107.9919         calculate D2E/DX2 analytically  !
 ! A27   A(1,5,15)             109.0471         calculate D2E/DX2 analytically  !
 ! A28   A(4,5,10)             108.7517         calculate D2E/DX2 analytically  !
 ! A29   A(4,5,15)             108.4709         calculate D2E/DX2 analytically  !
 ! A30   A(10,5,15)            110.2709         calculate D2E/DX2 analytically  !
 ! A31   A(3,11,4)             114.8791         calculate D2E/DX2 analytically  !
 ! A32   A(3,12,79)            113.669          calculate D2E/DX2 analytically  !
 ! A33   A(2,13,20)            114.0704         calculate D2E/DX2 analytically  !
 ! A34   A(1,14,24)            114.3444         calculate D2E/DX2 analytically  !
 ! A35   A(5,15,28)            114.5824         calculate D2E/DX2 analytically  !
 ! A36   A(4,16,17)            105.2825         calculate D2E/DX2 analytically  !
 ! A37   A(4,16,18)            105.2941         calculate D2E/DX2 analytically  !
 ! A38   A(4,16,19)            114.7224         calculate D2E/DX2 analytically  !
 ! A39   A(17,16,18)           105.3879         calculate D2E/DX2 analytically  !
 ! A40   A(17,16,19)           113.4784         calculate D2E/DX2 analytically  !
 ! A41   A(18,16,19)           111.8557         calculate D2E/DX2 analytically  !
 ! A42   A(16,19,37)           130.1414         calculate D2E/DX2 analytically  !
 ! A43   A(16,19,83)           110.2104         calculate D2E/DX2 analytically  !
 ! A44   A(37,19,83)            70.4942         calculate D2E/DX2 analytically  !
 ! A45   A(13,20,21)           111.4608         calculate D2E/DX2 analytically  !
 ! A46   A(13,20,22)           111.7185         calculate D2E/DX2 analytically  !
 ! A47   A(13,20,23)           106.6624         calculate D2E/DX2 analytically  !
 ! A48   A(21,20,22)           108.811          calculate D2E/DX2 analytically  !
 ! A49   A(21,20,23)           108.6805         calculate D2E/DX2 analytically  !
 ! A50   A(22,20,23)           109.4352         calculate D2E/DX2 analytically  !
 ! A51   A(14,24,25)           111.6108         calculate D2E/DX2 analytically  !
 ! A52   A(14,24,26)           111.398          calculate D2E/DX2 analytically  !
 ! A53   A(14,24,27)           106.4357         calculate D2E/DX2 analytically  !
 ! A54   A(25,24,26)           108.9491         calculate D2E/DX2 analytically  !
 ! A55   A(25,24,27)           109.2353         calculate D2E/DX2 analytically  !
 ! A56   A(26,24,27)           109.1448         calculate D2E/DX2 analytically  !
 ! A57   A(15,28,29)           111.4349         calculate D2E/DX2 analytically  !
 ! A58   A(15,28,30)           112.0236         calculate D2E/DX2 analytically  !
 ! A59   A(15,28,31)           106.5401         calculate D2E/DX2 analytically  !
 ! A60   A(29,28,30)           108.9538         calculate D2E/DX2 analytically  !
 ! A61   A(29,28,31)           108.9923         calculate D2E/DX2 analytically  !
 ! A62   A(30,28,31)           108.8036         calculate D2E/DX2 analytically  !
 ! A63   A(33,32,36)           107.9056         calculate D2E/DX2 analytically  !
 ! A64   A(33,32,39)           109.0617         calculate D2E/DX2 analytically  !
 ! A65   A(33,32,45)           108.9125         calculate D2E/DX2 analytically  !
 ! A66   A(36,32,39)           110.0012         calculate D2E/DX2 analytically  !
 ! A67   A(36,32,45)           110.0219         calculate D2E/DX2 analytically  !
 ! A68   A(39,32,45)           110.8732         calculate D2E/DX2 analytically  !
 ! A69   A(32,33,34)           111.3469         calculate D2E/DX2 analytically  !
 ! A70   A(32,33,38)           108.9066         calculate D2E/DX2 analytically  !
 ! A71   A(32,33,44)           114.848          calculate D2E/DX2 analytically  !
 ! A72   A(34,33,38)           102.1447         calculate D2E/DX2 analytically  !
 ! A73   A(34,33,44)           109.3354         calculate D2E/DX2 analytically  !
 ! A74   A(38,33,44)           109.4918         calculate D2E/DX2 analytically  !
 ! A75   A(33,34,37)           120.197          calculate D2E/DX2 analytically  !
 ! A76   A(33,34,42)           123.2317         calculate D2E/DX2 analytically  !
 ! A77   A(33,34,53)            97.7592         calculate D2E/DX2 analytically  !
 ! A78   A(37,34,42)           114.8342         calculate D2E/DX2 analytically  !
 ! A79   A(37,34,53)            87.5454         calculate D2E/DX2 analytically  !
 ! A80   A(42,34,53)            97.3678         calculate D2E/DX2 analytically  !
 ! A81   A(36,35,40)           109.302          calculate D2E/DX2 analytically  !
 ! A82   A(36,35,42)           112.1613         calculate D2E/DX2 analytically  !
 ! A83   A(36,35,47)           114.9963         calculate D2E/DX2 analytically  !
 ! A84   A(40,35,42)           104.4507         calculate D2E/DX2 analytically  !
 ! A85   A(40,35,47)           109.2793         calculate D2E/DX2 analytically  !
 ! A86   A(42,35,47)           106.0858         calculate D2E/DX2 analytically  !
 ! A87   A(32,36,35)           110.9929         calculate D2E/DX2 analytically  !
 ! A88   A(32,36,41)           108.7093         calculate D2E/DX2 analytically  !
 ! A89   A(32,36,46)           110.9199         calculate D2E/DX2 analytically  !
 ! A90   A(35,36,41)           109.2482         calculate D2E/DX2 analytically  !
 ! A91   A(35,36,46)           106.1766         calculate D2E/DX2 analytically  !
 ! A92   A(41,36,46)           110.7774         calculate D2E/DX2 analytically  !
 ! A93   A(19,37,34)           106.3313         calculate D2E/DX2 analytically  !
 ! A94   A(19,37,52)           114.0373         calculate D2E/DX2 analytically  !
 ! A95   A(34,37,52)           125.9051         calculate D2E/DX2 analytically  !
 ! A96   A(34,42,35)           122.6231         calculate D2E/DX2 analytically  !
 ! A97   A(33,44,63)           113.7883         calculate D2E/DX2 analytically  !
 ! A98   A(32,45,67)           114.1781         calculate D2E/DX2 analytically  !
 ! A99   A(36,46,71)           114.0848         calculate D2E/DX2 analytically  !
 ! A100  A(35,47,48)           107.87           calculate D2E/DX2 analytically  !
 ! A101  A(35,47,49)           108.9641         calculate D2E/DX2 analytically  !
 ! A102  A(35,47,50)           108.9436         calculate D2E/DX2 analytically  !
 ! A103  A(48,47,49)           108.0177         calculate D2E/DX2 analytically  !
 ! A104  A(48,47,50)           111.6356         calculate D2E/DX2 analytically  !
 ! A105  A(49,47,50)           111.3164         calculate D2E/DX2 analytically  !
 ! A106  A(47,50,75)           112.3798         calculate D2E/DX2 analytically  !
 ! A107  A(43,51,52)           114.1574         calculate D2E/DX2 analytically  !
 ! A108  A(43,51,53)           113.7392         calculate D2E/DX2 analytically  !
 ! A109  A(43,51,54)           106.5332         calculate D2E/DX2 analytically  !
 ! A110  A(52,51,53)           111.8505         calculate D2E/DX2 analytically  !
 ! A111  A(52,51,54)           104.6208         calculate D2E/DX2 analytically  !
 ! A112  A(53,51,54)           104.8925         calculate D2E/DX2 analytically  !
 ! A113  A(37,52,51)            92.9493         calculate D2E/DX2 analytically  !
 ! A114  A(37,52,83)            63.8903         calculate D2E/DX2 analytically  !
 ! A115  A(51,52,83)           143.899          calculate D2E/DX2 analytically  !
 ! A116  A(34,53,51)           115.8426         calculate D2E/DX2 analytically  !
 ! A117  A(51,54,55)           119.4886         calculate D2E/DX2 analytically  !
 ! A118  A(51,54,56)           119.4844         calculate D2E/DX2 analytically  !
 ! A119  A(55,54,56)           120.9627         calculate D2E/DX2 analytically  !
 ! A120  A(54,55,57)           119.0771         calculate D2E/DX2 analytically  !
 ! A121  A(54,55,58)           120.1898         calculate D2E/DX2 analytically  !
 ! A122  A(57,55,58)           120.7308         calculate D2E/DX2 analytically  !
 ! A123  A(54,56,59)           119.2839         calculate D2E/DX2 analytically  !
 ! A124  A(54,56,60)           120.2548         calculate D2E/DX2 analytically  !
 ! A125  A(59,56,60)           120.4611         calculate D2E/DX2 analytically  !
 ! A126  A(55,57,61)           120.7131         calculate D2E/DX2 analytically  !
 ! A127  A(55,57,93)           119.426          calculate D2E/DX2 analytically  !
 ! A128  A(61,57,93)           119.7936         calculate D2E/DX2 analytically  !
 ! A129  A(56,59,61)           120.6074         calculate D2E/DX2 analytically  !
 ! A130  A(56,59,97)           119.951          calculate D2E/DX2 analytically  !
 ! A131  A(61,59,97)           119.3804         calculate D2E/DX2 analytically  !
 ! A132  A(57,61,59)           119.3543         calculate D2E/DX2 analytically  !
 ! A133  A(57,61,62)           120.2501         calculate D2E/DX2 analytically  !
 ! A134  A(59,61,62)           120.3955         calculate D2E/DX2 analytically  !
 ! A135  A(44,63,64)           110.3012         calculate D2E/DX2 analytically  !
 ! A136  A(44,63,65)           111.0057         calculate D2E/DX2 analytically  !
 ! A137  A(44,63,66)           105.8885         calculate D2E/DX2 analytically  !
 ! A138  A(64,63,65)           110.0528         calculate D2E/DX2 analytically  !
 ! A139  A(64,63,66)           109.5487         calculate D2E/DX2 analytically  !
 ! A140  A(65,63,66)           109.9596         calculate D2E/DX2 analytically  !
 ! A141  A(45,67,68)           111.4409         calculate D2E/DX2 analytically  !
 ! A142  A(45,67,69)           111.068          calculate D2E/DX2 analytically  !
 ! A143  A(45,67,70)           106.365          calculate D2E/DX2 analytically  !
 ! A144  A(68,67,69)           109.2689         calculate D2E/DX2 analytically  !
 ! A145  A(68,67,70)           109.4774         calculate D2E/DX2 analytically  !
 ! A146  A(69,67,70)           109.1544         calculate D2E/DX2 analytically  !
 ! A147  A(46,71,72)           111.1885         calculate D2E/DX2 analytically  !
 ! A148  A(46,71,73)           111.193          calculate D2E/DX2 analytically  !
 ! A149  A(46,71,74)           106.391          calculate D2E/DX2 analytically  !
 ! A150  A(72,71,73)           109.2561         calculate D2E/DX2 analytically  !
 ! A151  A(72,71,74)           109.459          calculate D2E/DX2 analytically  !
 ! A152  A(73,71,74)           109.2935         calculate D2E/DX2 analytically  !
 ! A153  A(50,75,76)           106.8992         calculate D2E/DX2 analytically  !
 ! A154  A(50,75,77)           111.2935         calculate D2E/DX2 analytically  !
 ! A155  A(50,75,78)           111.3216         calculate D2E/DX2 analytically  !
 ! A156  A(76,75,77)           109.2488         calculate D2E/DX2 analytically  !
 ! A157  A(76,75,78)           109.3101         calculate D2E/DX2 analytically  !
 ! A158  A(77,75,78)           108.7238         calculate D2E/DX2 analytically  !
 ! A159  A(12,79,80)           106.6709         calculate D2E/DX2 analytically  !
 ! A160  A(12,79,81)           111.6158         calculate D2E/DX2 analytically  !
 ! A161  A(12,79,82)           110.8574         calculate D2E/DX2 analytically  !
 ! A162  A(80,79,81)           109.3829         calculate D2E/DX2 analytically  !
 ! A163  A(80,79,82)           109.2527         calculate D2E/DX2 analytically  !
 ! A164  A(81,79,82)           109.0089         calculate D2E/DX2 analytically  !
 ! A165  A(19,83,52)           109.43           calculate D2E/DX2 analytically  !
 ! A166  A(19,83,84)           123.142          calculate D2E/DX2 analytically  !
 ! A167  A(52,83,84)           123.5054         calculate D2E/DX2 analytically  !
 ! A168  A(83,84,85)           125.5578         calculate D2E/DX2 analytically  !
 ! A169  A(83,84,89)           120.7439         calculate D2E/DX2 analytically  !
 ! A170  A(85,84,89)           112.4949         calculate D2E/DX2 analytically  !
 ! A171  A(84,85,86)           110.9587         calculate D2E/DX2 analytically  !
 ! A172  A(84,85,87)           107.2567         calculate D2E/DX2 analytically  !
 ! A173  A(84,85,88)           110.8767         calculate D2E/DX2 analytically  !
 ! A174  A(86,85,87)           109.3395         calculate D2E/DX2 analytically  !
 ! A175  A(86,85,88)           108.9577         calculate D2E/DX2 analytically  !
 ! A176  A(87,85,88)           109.4187         calculate D2E/DX2 analytically  !
 ! A177  A(84,89,90)           110.8932         calculate D2E/DX2 analytically  !
 ! A178  A(84,89,91)           107.1973         calculate D2E/DX2 analytically  !
 ! A179  A(84,89,92)           110.9554         calculate D2E/DX2 analytically  !
 ! A180  A(90,89,91)           109.384          calculate D2E/DX2 analytically  !
 ! A181  A(90,89,92)           109.0097         calculate D2E/DX2 analytically  !
 ! A182  A(91,89,92)           109.3664         calculate D2E/DX2 analytically  !
 ! A183  A(57,93,94)           111.303          calculate D2E/DX2 analytically  !
 ! A184  A(57,93,95)           111.9112         calculate D2E/DX2 analytically  !
 ! A185  A(57,93,96)           111.7732         calculate D2E/DX2 analytically  !
 ! A186  A(94,93,95)           106.9029         calculate D2E/DX2 analytically  !
 ! A187  A(94,93,96)           106.8891         calculate D2E/DX2 analytically  !
 ! A188  A(95,93,96)           107.7824         calculate D2E/DX2 analytically  !
 ! A189  A(59,97,98)           112.1244         calculate D2E/DX2 analytically  !
 ! A190  A(59,97,99)           111.4935         calculate D2E/DX2 analytically  !
 ! A191  A(59,97,100)          111.7565         calculate D2E/DX2 analytically  !
 ! A192  A(98,97,99)           106.8428         calculate D2E/DX2 analytically  !
 ! A193  A(98,97,100)          107.5291         calculate D2E/DX2 analytically  !
 ! A194  A(99,97,100)          106.7867         calculate D2E/DX2 analytically  !
 ! D1    D(5,1,2,3)            -52.5543         calculate D2E/DX2 analytically  !
 ! D2    D(5,1,2,7)             63.8902         calculate D2E/DX2 analytically  !
 ! D3    D(5,1,2,13)          -173.6923         calculate D2E/DX2 analytically  !
 ! D4    D(8,1,2,3)             66.7872         calculate D2E/DX2 analytically  !
 ! D5    D(8,1,2,7)           -176.7683         calculate D2E/DX2 analytically  !
 ! D6    D(8,1,2,13)           -54.3508         calculate D2E/DX2 analytically  !
 ! D7    D(14,1,2,3)          -173.4723         calculate D2E/DX2 analytically  !
 ! D8    D(14,1,2,7)           -57.0278         calculate D2E/DX2 analytically  !
 ! D9    D(14,1,2,13)           65.3897         calculate D2E/DX2 analytically  !
 ! D10   D(2,1,5,4)             49.9959         calculate D2E/DX2 analytically  !
 ! D11   D(2,1,5,10)           -69.9097         calculate D2E/DX2 analytically  !
 ! D12   D(2,1,5,15)           170.2559         calculate D2E/DX2 analytically  !
 ! D13   D(8,1,5,4)            -68.979          calculate D2E/DX2 analytically  !
 ! D14   D(8,1,5,10)           171.1155         calculate D2E/DX2 analytically  !
 ! D15   D(8,1,5,15)            51.281          calculate D2E/DX2 analytically  !
 ! D16   D(14,1,5,4)           170.4393         calculate D2E/DX2 analytically  !
 ! D17   D(14,1,5,10)           50.5337         calculate D2E/DX2 analytically  !
 ! D18   D(14,1,5,15)          -69.3007         calculate D2E/DX2 analytically  !
 ! D19   D(2,1,14,24)         -131.2414         calculate D2E/DX2 analytically  !
 ! D20   D(5,1,14,24)          107.3611         calculate D2E/DX2 analytically  !
 ! D21   D(8,1,14,24)          -12.5579         calculate D2E/DX2 analytically  !
 ! D22   D(1,2,3,6)            172.6239         calculate D2E/DX2 analytically  !
 ! D23   D(1,2,3,11)            57.5796         calculate D2E/DX2 analytically  !
 ! D24   D(1,2,3,12)           -66.1495         calculate D2E/DX2 analytically  !
 ! D25   D(7,2,3,6)             54.7736         calculate D2E/DX2 analytically  !
 ! D26   D(7,2,3,11)           -60.2707         calculate D2E/DX2 analytically  !
 ! D27   D(7,2,3,12)           176.0002         calculate D2E/DX2 analytically  !
 ! D28   D(13,2,3,6)           -64.3068         calculate D2E/DX2 analytically  !
 ! D29   D(13,2,3,11)         -179.3511         calculate D2E/DX2 analytically  !
 ! D30   D(13,2,3,12)           56.9198         calculate D2E/DX2 analytically  !
 ! D31   D(1,2,13,20)          -99.2881         calculate D2E/DX2 analytically  !
 ! D32   D(3,2,13,20)          138.9176         calculate D2E/DX2 analytically  !
 ! D33   D(7,2,13,20)           22.2443         calculate D2E/DX2 analytically  !
 ! D34   D(2,3,11,4)           -61.8268         calculate D2E/DX2 analytically  !
 ! D35   D(6,3,11,4)           179.6268         calculate D2E/DX2 analytically  !
 ! D36   D(12,3,11,4)           59.6242         calculate D2E/DX2 analytically  !
 ! D37   D(2,3,12,79)         -170.6728         calculate D2E/DX2 analytically  !
 ! D38   D(6,3,12,79)          -49.4747         calculate D2E/DX2 analytically  !
 ! D39   D(11,3,12,79)          67.2177         calculate D2E/DX2 analytically  !
 ! D40   D(9,4,5,1)             68.1891         calculate D2E/DX2 analytically  !
 ! D41   D(9,4,5,10)          -172.3481         calculate D2E/DX2 analytically  !
 ! D42   D(9,4,5,15)           -52.4042         calculate D2E/DX2 analytically  !
 ! D43   D(11,4,5,1)           -50.6566         calculate D2E/DX2 analytically  !
 ! D44   D(11,4,5,10)           68.8062         calculate D2E/DX2 analytically  !
 ! D45   D(11,4,5,15)         -171.2498         calculate D2E/DX2 analytically  !
 ! D46   D(16,4,5,1)          -170.325          calculate D2E/DX2 analytically  !
 ! D47   D(16,4,5,10)          -50.8622         calculate D2E/DX2 analytically  !
 ! D48   D(16,4,5,15)           69.0817         calculate D2E/DX2 analytically  !
 ! D49   D(5,4,11,3)            57.8761         calculate D2E/DX2 analytically  !
 ! D50   D(9,4,11,3)           -60.6352         calculate D2E/DX2 analytically  !
 ! D51   D(16,4,11,3)         -178.4191         calculate D2E/DX2 analytically  !
 ! D52   D(5,4,16,17)          -59.5966         calculate D2E/DX2 analytically  !
 ! D53   D(5,4,16,18)         -170.6906         calculate D2E/DX2 analytically  !
 ! D54   D(5,4,16,19)           65.8884         calculate D2E/DX2 analytically  !
 ! D55   D(9,4,16,17)           61.3664         calculate D2E/DX2 analytically  !
 ! D56   D(9,4,16,18)          -49.7276         calculate D2E/DX2 analytically  !
 ! D57   D(9,4,16,19)         -173.1487         calculate D2E/DX2 analytically  !
 ! D58   D(11,4,16,17)         178.8945         calculate D2E/DX2 analytically  !
 ! D59   D(11,4,16,18)          67.8004         calculate D2E/DX2 analytically  !
 ! D60   D(11,4,16,19)         -55.6206         calculate D2E/DX2 analytically  !
 ! D61   D(1,5,15,28)          115.1833         calculate D2E/DX2 analytically  !
 ! D62   D(4,5,15,28)         -122.2232         calculate D2E/DX2 analytically  !
 ! D63   D(10,5,15,28)          -3.232          calculate D2E/DX2 analytically  !
 ! D64   D(3,12,79,80)         174.8729         calculate D2E/DX2 analytically  !
 ! D65   D(3,12,79,81)         -65.7005         calculate D2E/DX2 analytically  !
 ! D66   D(3,12,79,82)          56.0282         calculate D2E/DX2 analytically  !
 ! D67   D(2,13,20,21)         -60.6671         calculate D2E/DX2 analytically  !
 ! D68   D(2,13,20,22)          61.3067         calculate D2E/DX2 analytically  !
 ! D69   D(2,13,20,23)        -179.15           calculate D2E/DX2 analytically  !
 ! D70   D(1,14,24,25)         -58.0435         calculate D2E/DX2 analytically  !
 ! D71   D(1,14,24,26)          63.9871         calculate D2E/DX2 analytically  !
 ! D72   D(1,14,24,27)        -177.1421         calculate D2E/DX2 analytically  !
 ! D73   D(5,15,28,29)         -58.5044         calculate D2E/DX2 analytically  !
 ! D74   D(5,15,28,30)          63.8541         calculate D2E/DX2 analytically  !
 ! D75   D(5,15,28,31)        -177.2752         calculate D2E/DX2 analytically  !
 ! D76   D(4,16,19,37)         -33.8866         calculate D2E/DX2 analytically  !
 ! D77   D(4,16,19,83)          47.1972         calculate D2E/DX2 analytically  !
 ! D78   D(17,16,19,37)         87.2017         calculate D2E/DX2 analytically  !
 ! D79   D(17,16,19,83)        168.2854         calculate D2E/DX2 analytically  !
 ! D80   D(18,16,19,37)       -153.7248         calculate D2E/DX2 analytically  !
 ! D81   D(18,16,19,83)        -72.641          calculate D2E/DX2 analytically  !
 ! D82   D(16,19,37,34)       -128.1968         calculate D2E/DX2 analytically  !
 ! D83   D(16,19,37,52)         88.6909         calculate D2E/DX2 analytically  !
 ! D84   D(83,19,37,34)        131.3927         calculate D2E/DX2 analytically  !
 ! D85   D(83,19,37,52)        -11.7196         calculate D2E/DX2 analytically  !
 ! D86   D(16,19,83,52)       -115.0029         calculate D2E/DX2 analytically  !
 ! D87   D(16,19,83,84)         86.6556         calculate D2E/DX2 analytically  !
 ! D88   D(37,19,83,52)         11.7522         calculate D2E/DX2 analytically  !
 ! D89   D(37,19,83,84)       -146.5894         calculate D2E/DX2 analytically  !
 ! D90   D(36,32,33,34)        -49.7951         calculate D2E/DX2 analytically  !
 ! D91   D(36,32,33,38)         62.0822         calculate D2E/DX2 analytically  !
 ! D92   D(36,32,33,44)       -174.7364         calculate D2E/DX2 analytically  !
 ! D93   D(39,32,33,34)         69.6735         calculate D2E/DX2 analytically  !
 ! D94   D(39,32,33,38)       -178.4492         calculate D2E/DX2 analytically  !
 ! D95   D(39,32,33,44)        -55.2679         calculate D2E/DX2 analytically  !
 ! D96   D(45,32,33,34)       -169.204          calculate D2E/DX2 analytically  !
 ! D97   D(45,32,33,38)        -57.3267         calculate D2E/DX2 analytically  !
 ! D98   D(45,32,33,44)         65.8547         calculate D2E/DX2 analytically  !
 ! D99   D(33,32,36,35)         59.078          calculate D2E/DX2 analytically  !
 ! D100  D(33,32,36,41)        -61.1041         calculate D2E/DX2 analytically  !
 ! D101  D(33,32,36,46)        176.8623         calculate D2E/DX2 analytically  !
 ! D102  D(39,32,36,35)        -59.7935         calculate D2E/DX2 analytically  !
 ! D103  D(39,32,36,41)       -179.9755         calculate D2E/DX2 analytically  !
 ! D104  D(39,32,36,46)         57.9909         calculate D2E/DX2 analytically  !
 ! D105  D(45,32,36,35)        177.7811         calculate D2E/DX2 analytically  !
 ! D106  D(45,32,36,41)         57.599          calculate D2E/DX2 analytically  !
 ! D107  D(45,32,36,46)        -64.4346         calculate D2E/DX2 analytically  !
 ! D108  D(33,32,45,67)       -137.1808         calculate D2E/DX2 analytically  !
 ! D109  D(36,32,45,67)        104.7361         calculate D2E/DX2 analytically  !
 ! D110  D(39,32,45,67)        -17.1727         calculate D2E/DX2 analytically  !
 ! D111  D(32,33,34,37)       -163.4157         calculate D2E/DX2 analytically  !
 ! D112  D(32,33,34,42)         32.3851         calculate D2E/DX2 analytically  !
 ! D113  D(32,33,34,53)        -71.7376         calculate D2E/DX2 analytically  !
 ! D114  D(38,33,34,37)         80.4827         calculate D2E/DX2 analytically  !
 ! D115  D(38,33,34,42)        -83.7165         calculate D2E/DX2 analytically  !
 ! D116  D(38,33,34,53)        172.1608         calculate D2E/DX2 analytically  !
 ! D117  D(44,33,34,37)        -35.4441         calculate D2E/DX2 analytically  !
 ! D118  D(44,33,34,42)        160.3566         calculate D2E/DX2 analytically  !
 ! D119  D(44,33,34,53)         56.234          calculate D2E/DX2 analytically  !
 ! D120  D(32,33,44,63)        -92.8394         calculate D2E/DX2 analytically  !
 ! D121  D(34,33,44,63)        141.1724         calculate D2E/DX2 analytically  !
 ! D122  D(38,33,44,63)         30.0285         calculate D2E/DX2 analytically  !
 ! D123  D(33,34,37,19)        -55.239          calculate D2E/DX2 analytically  !
 ! D124  D(33,34,37,52)         82.1674         calculate D2E/DX2 analytically  !
 ! D125  D(42,34,37,19)        110.226          calculate D2E/DX2 analytically  !
 ! D126  D(42,34,37,52)       -112.3675         calculate D2E/DX2 analytically  !
 ! D127  D(53,34,37,19)       -152.7897         calculate D2E/DX2 analytically  !
 ! D128  D(53,34,37,52)        -15.3833         calculate D2E/DX2 analytically  !
 ! D129  D(33,34,42,35)        -20.859          calculate D2E/DX2 analytically  !
 ! D130  D(37,34,42,35)        174.1709         calculate D2E/DX2 analytically  !
 ! D131  D(53,34,42,35)         83.4686         calculate D2E/DX2 analytically  !
 ! D132  D(33,34,53,51)       -117.9213         calculate D2E/DX2 analytically  !
 ! D133  D(37,34,53,51)          2.2275         calculate D2E/DX2 analytically  !
 ! D134  D(42,34,53,51)        116.9572         calculate D2E/DX2 analytically  !
 ! D135  D(40,35,36,32)         68.3206         calculate D2E/DX2 analytically  !
 ! D136  D(40,35,36,41)       -171.8181         calculate D2E/DX2 analytically  !
 ! D137  D(40,35,36,46)        -52.3116         calculate D2E/DX2 analytically  !
 ! D138  D(42,35,36,32)        -47.0299         calculate D2E/DX2 analytically  !
 ! D139  D(42,35,36,41)         72.8314         calculate D2E/DX2 analytically  !
 ! D140  D(42,35,36,46)       -167.662          calculate D2E/DX2 analytically  !
 ! D141  D(47,35,36,32)       -168.3617         calculate D2E/DX2 analytically  !
 ! D142  D(47,35,36,41)        -48.5004         calculate D2E/DX2 analytically  !
 ! D143  D(47,35,36,46)         71.0062         calculate D2E/DX2 analytically  !
 ! D144  D(36,35,42,34)         27.5506         calculate D2E/DX2 analytically  !
 ! D145  D(40,35,42,34)        -90.7136         calculate D2E/DX2 analytically  !
 ! D146  D(47,35,42,34)        153.8717         calculate D2E/DX2 analytically  !
 ! D147  D(36,35,47,48)        -66.1183         calculate D2E/DX2 analytically  !
 ! D148  D(36,35,47,49)        176.8533         calculate D2E/DX2 analytically  !
 ! D149  D(36,35,47,50)         55.2299         calculate D2E/DX2 analytically  !
 ! D150  D(40,35,47,48)         57.2116         calculate D2E/DX2 analytically  !
 ! D151  D(40,35,47,49)        -59.8168         calculate D2E/DX2 analytically  !
 ! D152  D(40,35,47,50)        178.5597         calculate D2E/DX2 analytically  !
 ! D153  D(42,35,47,48)        169.2985         calculate D2E/DX2 analytically  !
 ! D154  D(42,35,47,49)         52.2701         calculate D2E/DX2 analytically  !
 ! D155  D(42,35,47,50)        -69.3534         calculate D2E/DX2 analytically  !
 ! D156  D(32,36,46,71)        113.4419         calculate D2E/DX2 analytically  !
 ! D157  D(35,36,46,71)       -125.8788         calculate D2E/DX2 analytically  !
 ! D158  D(41,36,46,71)         -7.3769         calculate D2E/DX2 analytically  !
 ! D159  D(19,37,52,51)        163.1533         calculate D2E/DX2 analytically  !
 ! D160  D(19,37,52,83)         12.0201         calculate D2E/DX2 analytically  !
 ! D161  D(34,37,52,51)         28.4825         calculate D2E/DX2 analytically  !
 ! D162  D(34,37,52,83)       -122.6508         calculate D2E/DX2 analytically  !
 ! D163  D(33,44,63,64)        -60.299          calculate D2E/DX2 analytically  !
 ! D164  D(33,44,63,65)         61.9547         calculate D2E/DX2 analytically  !
 ! D165  D(33,44,63,66)       -178.7391         calculate D2E/DX2 analytically  !
 ! D166  D(32,45,67,68)        -60.1404         calculate D2E/DX2 analytically  !
 ! D167  D(32,45,67,69)         61.9476         calculate D2E/DX2 analytically  !
 ! D168  D(32,45,67,70)       -179.3939         calculate D2E/DX2 analytically  !
 ! D169  D(36,46,71,72)        -62.0411         calculate D2E/DX2 analytically  !
 ! D170  D(36,46,71,73)         59.9415         calculate D2E/DX2 analytically  !
 ! D171  D(36,46,71,74)        178.8516         calculate D2E/DX2 analytically  !
 ! D172  D(35,47,50,75)        178.3964         calculate D2E/DX2 analytically  !
 ! D173  D(48,47,50,75)        -62.5807         calculate D2E/DX2 analytically  !
 ! D174  D(49,47,50,75)         58.2144         calculate D2E/DX2 analytically  !
 ! D175  D(47,50,75,76)        179.773          calculate D2E/DX2 analytically  !
 ! D176  D(47,50,75,77)        -61.0044         calculate D2E/DX2 analytically  !
 ! D177  D(47,50,75,78)         60.46           calculate D2E/DX2 analytically  !
 ! D178  D(43,51,52,37)       -150.2876         calculate D2E/DX2 analytically  !
 ! D179  D(43,51,52,83)       -102.9174         calculate D2E/DX2 analytically  !
 ! D180  D(53,51,52,37)        -19.3512         calculate D2E/DX2 analytically  !
 ! D181  D(53,51,52,83)         28.019          calculate D2E/DX2 analytically  !
 ! D182  D(54,51,52,37)         93.6514         calculate D2E/DX2 analytically  !
 ! D183  D(54,51,52,83)        141.0216         calculate D2E/DX2 analytically  !
 ! D184  D(43,51,53,34)        148.9543         calculate D2E/DX2 analytically  !
 ! D185  D(52,51,53,34)         17.8046         calculate D2E/DX2 analytically  !
 ! D186  D(54,51,53,34)        -95.0288         calculate D2E/DX2 analytically  !
 ! D187  D(43,51,54,55)        -33.9197         calculate D2E/DX2 analytically  !
 ! D188  D(43,51,54,56)        148.968          calculate D2E/DX2 analytically  !
 ! D189  D(52,51,54,55)         87.32           calculate D2E/DX2 analytically  !
 ! D190  D(52,51,54,56)        -89.7923         calculate D2E/DX2 analytically  !
 ! D191  D(53,51,54,55)       -154.8152         calculate D2E/DX2 analytically  !
 ! D192  D(53,51,54,56)         28.0725         calculate D2E/DX2 analytically  !
 ! D193  D(37,52,83,19)        -10.5385         calculate D2E/DX2 analytically  !
 ! D194  D(37,52,83,84)        147.7079         calculate D2E/DX2 analytically  !
 ! D195  D(51,52,83,19)        -65.4508         calculate D2E/DX2 analytically  !
 ! D196  D(51,52,83,84)         92.7956         calculate D2E/DX2 analytically  !
 ! D197  D(51,54,55,57)       -176.6412         calculate D2E/DX2 analytically  !
 ! D198  D(51,54,55,58)          3.8968         calculate D2E/DX2 analytically  !
 ! D199  D(56,54,55,57)          0.4273         calculate D2E/DX2 analytically  !
 ! D200  D(56,54,55,58)       -179.0347         calculate D2E/DX2 analytically  !
 ! D201  D(51,54,56,59)        176.8943         calculate D2E/DX2 analytically  !
 ! D202  D(51,54,56,60)         -2.9513         calculate D2E/DX2 analytically  !
 ! D203  D(55,54,56,59)         -0.1744         calculate D2E/DX2 analytically  !
 ! D204  D(55,54,56,60)        179.9801         calculate D2E/DX2 analytically  !
 ! D205  D(54,55,57,61)         -0.3693         calculate D2E/DX2 analytically  !
 ! D206  D(54,55,57,93)        176.6399         calculate D2E/DX2 analytically  !
 ! D207  D(58,55,57,61)        179.0896         calculate D2E/DX2 analytically  !
 ! D208  D(58,55,57,93)         -3.9011         calculate D2E/DX2 analytically  !
 ! D209  D(54,56,59,61)         -0.1427         calculate D2E/DX2 analytically  !
 ! D210  D(54,56,59,97)        176.9966         calculate D2E/DX2 analytically  !
 ! D211  D(60,56,59,61)        179.7026         calculate D2E/DX2 analytically  !
 ! D212  D(60,56,59,97)         -3.1581         calculate D2E/DX2 analytically  !
 ! D213  D(55,57,61,59)          0.0606         calculate D2E/DX2 analytically  !
 ! D214  D(55,57,61,62)       -179.8204         calculate D2E/DX2 analytically  !
 ! D215  D(93,57,61,59)       -176.9377         calculate D2E/DX2 analytically  !
 ! D216  D(93,57,61,62)          3.1813         calculate D2E/DX2 analytically  !
 ! D217  D(55,57,93,94)        -85.927          calculate D2E/DX2 analytically  !
 ! D218  D(55,57,93,95)        154.5208         calculate D2E/DX2 analytically  !
 ! D219  D(55,57,93,96)         33.5146         calculate D2E/DX2 analytically  !
 ! D220  D(61,57,93,94)         91.1101         calculate D2E/DX2 analytically  !
 ! D221  D(61,57,93,95)        -28.4421         calculate D2E/DX2 analytically  !
 ! D222  D(61,57,93,96)       -149.4483         calculate D2E/DX2 analytically  !
 ! D223  D(56,59,61,57)          0.1984         calculate D2E/DX2 analytically  !
 ! D224  D(56,59,61,62)       -179.9208         calculate D2E/DX2 analytically  !
 ! D225  D(97,59,61,57)       -176.957          calculate D2E/DX2 analytically  !
 ! D226  D(97,59,61,62)          2.9238         calculate D2E/DX2 analytically  !
 ! D227  D(56,59,97,98)         23.256          calculate D2E/DX2 analytically  !
 ! D228  D(56,59,97,99)        -96.4959         calculate D2E/DX2 analytically  !
 ! D229  D(56,59,97,100)       144.0744         calculate D2E/DX2 analytically  !
 ! D230  D(61,59,97,98)       -159.5695         calculate D2E/DX2 analytically  !
 ! D231  D(61,59,97,99)         80.6785         calculate D2E/DX2 analytically  !
 ! D232  D(61,59,97,100)       -38.7512         calculate D2E/DX2 analytically  !
 ! D233  D(19,83,84,85)        147.5151         calculate D2E/DX2 analytically  !
 ! D234  D(19,83,84,89)        -18.9852         calculate D2E/DX2 analytically  !
 ! D235  D(52,83,84,85)         -7.8135         calculate D2E/DX2 analytically  !
 ! D236  D(52,83,84,89)       -174.3138         calculate D2E/DX2 analytically  !
 ! D237  D(83,84,85,86)       -107.1561         calculate D2E/DX2 analytically  !
 ! D238  D(83,84,85,87)         12.206          calculate D2E/DX2 analytically  !
 ! D239  D(83,84,85,88)        131.6175         calculate D2E/DX2 analytically  !
 ! D240  D(89,84,85,86)         60.3019         calculate D2E/DX2 analytically  !
 ! D241  D(89,84,85,87)        179.664          calculate D2E/DX2 analytically  !
 ! D242  D(89,84,85,88)        -60.9245         calculate D2E/DX2 analytically  !
 ! D243  D(83,84,89,90)       -131.3528         calculate D2E/DX2 analytically  !
 ! D244  D(83,84,89,91)        -12.0104         calculate D2E/DX2 analytically  !
 ! D245  D(83,84,89,92)        107.3461         calculate D2E/DX2 analytically  !
 ! D246  D(85,84,89,90)         60.5089         calculate D2E/DX2 analytically  !
 ! D247  D(85,84,89,91)        179.8513         calculate D2E/DX2 analytically  !
 ! D248  D(85,84,89,92)        -60.7922         calculate D2E/DX2 analytically  !
 --------------------------------------------------------------------------------
 Trust Radius=5.00D-02 FncErr=1.00D-07 GrdErr=1.00D-06 EigMax=2.50D+02 EigMin=1.00D-04
 Number of steps in this run=    556 maximum allowed number of steps=    600.
 Search for a saddle point of order  1.
 GradGradGradGradGradGradGradGradGradGradGradGradGradGradGradGradGradGrad

 Leave Link  103 at Sun Jun 16 11:40:31 2019, MaxMem=  6442450944 cpu:               4.6 elap:               0.2
 (Enter /home/ekwan/sw/g16/l202.exe)
 Stoichiometry    C30H47F6NaO15S
 Framework group  C1[X(C30H47F6NaO15S)]
 Deg. of freedom   294
 Full point group                 C1      NOp   1
 Largest Abelian subgroup         C1      NOp   1
 Largest concise Abelian subgroup C1      NOp   1
                         Standard orientation:                         
 ---------------------------------------------------------------------
 Center     Atomic      Atomic             Coordinates (Angstroms)
 Number     Number       Type             X           Y           Z
 ---------------------------------------------------------------------
      1          6           0       -2.160456    1.217815    2.379686
      2          6           0       -2.549007    2.084489    1.171479
      3          6           0       -1.850485    3.453782    1.260854
      4          6           0        0.027720    2.538330    2.483734
      5          6           0       -0.630670    1.145233    2.525210
      6          1           0       -2.017691    4.030069    0.336919
      7          1           0       -2.179076    1.601709    0.253287
      8          1           0       -2.583588    1.676786    3.284805
      9          1           0       -0.262516    3.084707    3.394345
     10          1           0       -0.238291    0.543752    1.692078
     11          8           0       -0.440656    3.275522    1.326493
     12          8           0       -2.356950    4.145812    2.364935
     13          8           0       -3.950290    2.290284    1.092115
     14          8           0       -2.693222   -0.094596    2.202237
     15          8           0       -0.310190    0.530704    3.772484
     16          6           0        1.571744    2.490539    2.388717
     17          1           0        1.904282    1.939515    3.295527
     18          1           0        1.908952    3.543787    2.541781
     19          8           0        2.061199    1.960394    1.213256
     20          6           0       -4.609966    1.436262    0.168032
     21          1           0       -4.232437    1.582924   -0.856936
     22          1           0       -4.495854    0.379223    0.439230
     23          1           0       -5.671129    1.706427    0.193039
     24          6           0       -3.389563   -0.601135    3.331087
     25          1           0       -2.748837   -0.627489    4.223564
     26          1           0       -4.286546   -0.001389    3.552325
     27          1           0       -3.693718   -1.620880    3.075350
     28          6           0        0.357264   -0.717673    3.661677
     29          1           0       -0.240776   -1.443975    3.092422
     30          1           0        1.344456   -0.616963    3.186414
     31          1           0        0.493407   -1.090467    4.683319
     32          6           0        4.272349   -0.954432   -1.209869
     33          6           0        3.428544    0.226833   -0.694810
     34          6           0        2.113204   -0.242122   -0.137267
     35          6           0        2.894626   -2.500728    0.256068
     36          6           0        4.312817   -2.025771   -0.103223
     37          1           0        1.306413    0.459773    0.014933
     38          1           0        3.920222    0.655998    0.198449
     39          1           0        3.800653   -1.365369   -2.114069
     40          1           0        2.475681   -3.061520   -0.587597
     41          1           0        4.786712   -1.593508    0.788497
     42          8           0        1.961269   -1.372443    0.448466
     43          8           0       -0.317968    0.146953   -3.917761
     44          8           0        3.198064    1.245232   -1.638966
     45          8           0        5.581789   -0.495764   -1.488301
     46          8           0        5.015799   -3.175925   -0.538222
     47          6           0        2.800098   -3.345085    1.516351
     48          1           0        3.332634   -4.292373    1.329694
     49          1           0        1.740167   -3.581984    1.710552
     50          8           0        3.370536   -2.630873    2.589575
     51         16           0       -0.119690   -0.030775   -2.464694
     52          8           0       -0.234417    1.231546   -1.672820
     53          8           0        1.123329   -0.801295   -2.112930
     54          6           0       -1.490568   -1.064821   -1.879243
     55          6           0       -2.746761   -0.944139   -2.477320
     56          6           0       -1.289238   -1.925698   -0.797326
     57          6           0       -3.815772   -1.694418   -1.972362
     58          1           0       -2.885596   -0.282708   -3.327858
     59          6           0       -2.364827   -2.671878   -0.308137
     60          1           0       -0.308241   -2.010760   -0.341546
     61          6           0       -3.632291   -2.559957   -0.889472
     62          1           0       -4.465956   -3.140449   -0.505763
     63          6           0        4.160904    2.306136   -1.591764
     64          1           0        4.150618    2.786793   -0.603270
     65          1           0        5.165720    1.934607   -1.818149
     66          1           0        3.849335    3.027285   -2.352580
     67          6           0        6.129795   -0.997379   -2.705079
     68          1           0        6.191777   -2.093137   -2.695509
     69          1           0        5.531967   -0.675120   -3.570526
     70          1           0        7.136170   -0.575726   -2.786877
     71          6           0        6.239828   -3.407123    0.156137
     72          1           0        6.944767   -2.578668    0.004616
     73          1           0        6.066131   -3.543153    1.233791
     74          1           0        6.662387   -4.326045   -0.260694
     75          6           0        3.288028   -3.340678    3.815428
     76          1           0        3.756161   -2.712636    4.578556
     77          1           0        2.240431   -3.533498    4.096319
     78          1           0        3.821550   -4.302780    3.757897
     79          6           0       -1.939596    5.505117    2.427893
     80          1           0       -2.469336    5.957228    3.271130
     81          1           0       -0.856615    5.588726    2.590655
     82          1           0       -2.205680    6.040244    1.502834
     83         11           0        0.988435    2.879623   -0.570339
     84          8           0        1.666028    4.872209   -1.578530
     85          6           0        1.538801    5.185035   -2.959804
     86          1           0        2.518027    5.155016   -3.462221
     87          1           0        0.880598    4.432343   -3.403745
     88          1           0        1.097264    6.183593   -3.096658
     89          6           0        2.511794    5.784173   -0.889938
     90          1           0        2.114218    6.808559   -0.948102
     91          1           0        2.545831    5.466674    0.156744
     92          1           0        3.529771    5.770269   -1.308946
     93          6           0       -5.195480   -1.513208   -2.563969
     94          9           0       -5.852574   -0.485802   -1.974588
     95          9           0       -5.959871   -2.611071   -2.402751
     96          9           0       -5.142038   -1.239046   -3.881602
     97          6           0       -2.149519   -3.657880    0.816963
     98          9           0       -1.056917   -3.358050    1.554657
     99          9           0       -1.973360   -4.911882    0.348803
    100          9           0       -3.207086   -3.699556    1.655056
 ---------------------------------------------------------------------
 Rotational constants (GHZ):           0.0545793           0.0422266           0.0357082
 Leave Link  202 at Sun Jun 16 11:40:31 2019, MaxMem=  6442450944 cpu:               4.7 elap:               0.2
 (Enter /home/ekwan/sw/g16/l301.exe)
 Standard basis: 6-31G(d) (6D, 7F)
 Centers:      19     53     43     52
 SP 1 1.00
     Exponent=  8.4500000000D-02 Coefficients=  1.0000000000D+00  1.0000000000D+00
 ****
 Ernie: Thresh=  0.10000D-02 Tol=  0.10000D-05 Strict=F.
 There are   913 symmetry adapted cartesian basis functions of A   symmetry.
 There are   913 symmetry adapted basis functions of A   symmetry.
   913 basis functions,  1736 primitive gaussians,   913 cartesian basis functions
   214 alpha electrons      214 beta electrons
       nuclear repulsion energy      9541.5659364693 Hartrees.
 IExCor= 1614 DFT=T Ex+Corr=B971 ExCW=0 ScaHFX=  0.210000
 ScaDFX=  1.000000  1.000000  1.000000  1.000000 ScalE2=  1.000000  1.000000
 IRadAn=      5 IRanWt=     -1 IRanGd=            0 ICorTp=0 IEmpDi=  4
 NAtoms=  100 NActive=  100 NUniq=  100 SFac= 1.00D+00 NAtFMM=   60 NAOKFM=T Big=T
 Integral buffers will be    131072 words long.
 Raffenetti 2 integral format.
 Two-electron integral symmetry is turned on.
 Force inversion solution in PCM.
 ------------------------------------------------------------------------------
 Polarizable Continuum Model (PCM)
 =================================
 Model                : PCM.
 Atomic radii         : UFF (Universal Force Field).
 Polarization charges : Total charges.
 Charge compensation  : None.
 Solution method      : Matrix inversion.
 Cavity type          : Scaled VdW (van der Waals Surface) (Alpha=1.100).
 Cavity algorithm     : GePol (No added spheres)
                        Default sphere list used, NSphG=  100.
                        Lebedev-Laikov grids with approx.  5.0 points / Ang**2.
                        Smoothing algorithm: York/Karplus (Gamma=1.0000).
                        Polarization charges: spherical gaussians, with
                                              point-specific exponents (IZeta= 3).
                        Self-potential: point-specific (ISelfS= 7).
                        Self-field    : sphere-specific E.n sum rule (ISelfD= 2).
 1st derivatives      : Analytical E(r).r(x)/FMM algorithm (CHGder, D1EAlg=3).
                        Cavity 1st derivative terms included.
 2nd derivatives      : Analytical E(r).r(xy)/FMM algorithm (CHGder, D2EAlg=3).
                        Cavity 2nd derivative terms included.
 Solvent              : TetraHydroFuran, Eps=   7.425700 Eps(inf)=   1.974025
 ------------------------------------------------------------------------------
 GePol: Number of generator spheres                  =     100
 GePol: Total number of spheres                      =     100
 GePol: Number of exposed spheres                    =     100 (100.00%)
 GePol: Number of points                             =    6549
 GePol: Average weight of points                     =       0.12
 GePol: Minimum weight of points                     =   0.81D-11
 GePol: Maximum weight of points                     =    0.21580
 GePol: Number of points with low weight             =     467
 GePol: Fraction of low-weight points (<1% of avg)   =       7.13%
 GePol: Cavity surface area                          =    806.655 Ang**2
 GePol: Cavity volume                                =   1000.298 Ang**3
 Leave Link  301 at Sun Jun 16 11:40:32 2019, MaxMem=  6442450944 cpu:               7.2 elap:               0.3
 (Enter /home/ekwan/sw/g16/l302.exe)
 NPDir=0 NMtPBC=     1 NCelOv=     1 NCel=       1 NClECP=     1 NCelD=      1
         NCelK=      1 NCelE2=     1 NClLst=     1 CellRange=     0.0.
 One-electron integrals computed using PRISM.
 One-electron integral symmetry used in STVInt
 NBasis=   913 RedAO= T EigKep=  3.91D-04  NBF=   913
 NBsUse=   913 1.00D-06 EigRej= -1.00D+00 NBFU=   913
 Precomputing XC quadrature grid using
 IXCGrd= 4 IRadAn=           5 IRanWt=          -1 IRanGd=           0 AccXCQ= 0.00D+00.
 Generated NRdTot=       0 NPtTot=           0 NUsed=           0 NTot=          32
 NSgBfM=   858   844   849   857   858 MxSgAt=   100 MxSgA2=   100.
 Leave Link  302 at Sun Jun 16 11:40:48 2019, MaxMem=  6442450944 cpu:             471.5 elap:              16.4
[...]
 033,0.00019212,0.00002565,-0.00003528,-0.00011501,0.00002650,-0.000003
 61,0.00013450,-0.00014938,0.00005769,-0.00007829,0.00010801,-0.0000650
 2,0.00331606,0.00181153,-0.00119532,-0.00071983,-0.00117590,-0.0001030
 6,-0.00159904,0.00001252,-0.00004735,-0.00044593,0.00070527,0.00227496
 ,0.00027607,-0.00088725,0.00045967,0.00364602,-0.00058746,0.00073972,-
 0.00005331,0.00050194,0.00235261,0.00010571,-0.00017424,-0.00018198,0.
 00765197,-0.04447457,-0.00481820,0.00035725,-0.00061452,-0.00095772,-0
 .00338410,-0.00156451,-0.00000155,0.00054654,-0.00073344,-0.00087298,0
 .00006975,0.00008901,-0.00000841,-0.00000751,-0.00000899,-0.00000646,-
 0.00002377,-0.00001223,0.00000273,0.00000152,-0.00001027,0.00000439,0.
 00003247,-0.00004205,-0.00006751,-0.00000588,0.00001523,0.00000638,0.0
 0000028,0.00000118,0.00000615,-0.00000893,0.00000213,0.00000926,0.0000
 5281,-0.00002018,0.00003678,-0.00000367,0.00000404,-0.00000635,-0.0000
 0242,-0.00000663,-0.00000946,-0.00002147,0.00001024,0.00000277,0.00005
 456,-0.00007296,0.00007420,0.00000187,0.00000779,-0.00000550,-0.000004
 17,-0.00001783,0.00000259,-0.00003695,0.00002648,-0.00000447,0.0000269
 5,0.00011297,-0.00000009,0.00000321,-0.00001852,-0.00001126,-0.0000126
 9,-0.00000929,0.00000238,-0.00000459,-0.00001549,0.00001049,0.00010758
 ,0.00020048,0.00003973,-0.00003814,-0.00005341,0.00000645,0.00001560,0
 .00002183,-0.00002136,-0.00001058,-0.00000031,0.00000183,-0.00000480,-
 0.00000399,-0.00000981,0.00000084,-0.00000717,-0.00000008,0.00003592,0
 .00003401,0.00002296,-0.00000087,-0.00000941,-0.00000100,-0.00000093,-
 0.00000246,-0.00000038,-0.00001096,-0.00000303,0.00000338,-0.00284941,
 0.00000773,-0.00093462,0.00085692,-0.00042030,0.00003120,0.00085576,0.
 00039600,0.00021333,0.00073298,-0.00019024,0.00087799,0.02740364,-0.24
 916112,-0.04145459,-0.02715472,-0.03254840,-0.03538694,-0.03702669,0.3
 4096538,0.00009615,0.00022450,0.00001073,-0.00005415,-0.00000071,-0.00
 010875,-0.00000418,0.00002240,0.00000354,-0.00001885,0.00008139,-0.000
 04241,-0.00002836,0.00008157,-0.00014106,-0.00000082,-0.00002588,0.000
 00754,0.00000210,-0.00000353,0.00001102,-0.00000978,-0.00002481,-0.000
 00075,-0.00000658,-0.00000795,0.00000595,0.00000991,0.00001175,-0.0000
 0932,0.00001486,-0.00005530,0.00006784,0.00000299,-0.00002846,0.000016
 24,0.00007204,0.00002269,0.00011255,-0.00003494,-0.00041527,0.00004107
 ,0.00003383,-0.00037380,0.00004390,0.00005954,-0.00000273,-0.00007634,
 0.00000868,-0.00000059,0.00002533,-0.00002089,-0.00000412,0.00001854,-
 0.00005055,0.00001466,0.00011134,-0.00001979,-0.00003608,-0.00010269,-
 0.00000807,-0.00003638,0.00004513,0.00000919,-0.00000009,-0.00004408,-
 0.00000128,0.00000901,0.00001067,0.00022625,0.00043713,-0.00004993,-0.
 00002549,-0.00005675,0.00000537,-0.00000197,-0.00013861,-0.00002365,-0
 .00030579,0.00007170,0.00027002,0.00020347,0.00047350,0.00021157,-0.00
 006902,0.00000285,0.00008070,-0.00006355,-0.00005908,-0.00004110,-0.00
 003124,-0.00004150,-0.00004888,-0.00002828,0.00000173,-0.00002875,-0.0
 0000034,0.00000822,-0.00000586,-0.00013157,0.00001199,-0.00031184,-0.0
 0005271,0.00001335,-0.00010217,0.00002069,-0.00001459,0.00000706,0.000
 01044,-0.00000878,-0.00001780,0.00000933,0.00000134,-0.00000395,-0.000
 00773,0.00000534,0.00001448,-0.00000088,-0.00000013,0.00000617,0.00001
 137,0.00000543,0.,0.00003813,-0.00009250,0.00015202,0.00024370,0.00022
 650,-0.00022811,0.00002302,0.00000842,0.00002556,0.00000475,-0.0000003
 6,0.00002951,0.00000824,-0.00000291,0.00002538,0.00022177,0.00007861,-
 0.00006744,-0.00005428,0.00000371,0.00001617,0.00007133,-0.00007846,0.
 00005358,-0.00010025,-0.00002247,0.00003245,-0.00093104,-0.00065944,0.
 00012163,0.00019092,0.00038203,0.00011656,0.00049510,0.00006225,0.0001
 3528,-0.00009969,-0.00055937,-0.00084641,0.00007728,0.00046375,-0.0003
 5334,-0.00131958,-0.00006119,0.00031231,0.00044590,-0.00049816,-0.0003
 4502,-0.00001126,0.00002987,0.00007927,-0.00249563,0.01817862,0.009556
 68,0.00009515,0.00038768,0.00006927,0.00079901,0.00046019,0.00025944,-
 0.00016774,0.00016327,-0.00000586,-0.00001195,-0.00002004,-0.00000190,
 0.00000205,0.00000489,0.00000467,0.00000311,0.00000234,-0.00000073,-0.
 00000066,-0.00000192,0.00000024,-0.00000202,-0.00000654,-0.00001669,-0
 .00000238,0.00000238,-0.00000085,0.00000121,-0.00000355,0.00000517,0.0
 0000228,0.00000204,0.00000147,-0.00000756,0.00000160,-0.00001621,0.000
 00082,0.00000086,0.00000092,0.00000411,-0.00000137,0.00000658,-0.00000
 219,0.00000200,0.00000074,0.00008565,0.00000214,-0.00001946,-0.0000092
 8,-0.00000496,0.00000057,-0.00002994,-0.00000449,0.00002018,-0.0000165
 4,0.00000793,0.00000438,0.00000170,0.00002260,-0.00000425,-0.00000073,
 -0.00000039,-0.00000058,-0.00000092,-0.00000071,-0.00000076,0.00000097
 ,-0.00000507,0.00000506,-0.00001684,-0.00004726,-0.00006505,0.00000943
 ,0.00001333,0.00001807,-0.00000565,-0.00000595,-0.00001119,-0.00000029
 ,-0.00000096,0.00000156,0.00000429,0.00000211,0.00000248,-0.00000005,0
 .00000186,0.00000196,-0.00000897,-0.00000952,-0.00001256,0.00000093,0.
 00000291,0.00000055,0.00000066,-0.00000056,0.00000296,0.00000171,0.000
 00134,0.00000036,0.00082725,-0.00021807,0.00018425,-0.00025376,0.00016
 978,0.00002517,-0.00023913,-0.00004146,-0.00003774,-0.00020242,0.00007
 487,-0.00015597,0.00569602,-0.04041355,-0.08292563,-0.01877161,-0.0443
 0738,-0.01665169,-0.01565034,0.10714130,0.11204024,-0.00022810,-0.0003
 8052,-0.00003786,-0.00000561,0.00006281,0.00009128,-0.00013981,0.00001
 248,-0.00001464,0.00006161,-0.00000440,-0.00002330,-0.00014083,0.00021
 322,-0.00003131,0.00001594,0.00002490,-0.00000177,-0.00000596,0.000008
 82,-0.00002377,0.00002463,0.00001014,-0.00000896,0.00000260,-0.0000188
 7,-0.00000900,0.00003639,-0.00001323,-0.00004018,0.00009087,-0.0000492
 4,0.00001105,0.00004507,0.00000006,-0.00003220,0.00009502,0.00003629,-
 0.00005291,0.00051413,0.00053663,-0.00023205,0.00022201,-0.00041742,-0
 .00004992,-0.00009262,0.00004841,0.00012851,0.00001365,0.00000817,-0.0
 0001919,0.00002488,-0.00004254,-0.00003844,0.00005511,-0.00014750,-0.0
 0015087,-0.00002683,-0.00010952,0.00006572,0.00001644,0.00006221,-0.00
 005604,-0.00002745,0.00000171,0.00004915,0.00001136,-0.00000803,-0.000
 00307,-0.00087176,-0.00126062,0.00041767,0.00009043,0.00028418,0.00010
 322,0.00007944,0.00030917,0.00004699,0.00071053,-0.00009565,-0.0008208
 6,0.00013266,0.00056631,0.00023970,-0.00011415,0.00007173,0.00017856,-
 0.00000289,-0.00002309,-0.00003675,-0.00005169,-0.00006425,-0.00008095
 ,0.00006127,0.00003226,-0.00005170,-0.00002748,0.00005044,-0.00002699,
 0.00020293,0.00051860,-0.00000017,0.00001585,0.00005209,-0.00004928,0.
 00012635,-0.00005546,-0.00000227,-0.00002206,0.00004432,0.00001413,-0.
 00000425,0.00000253,0.00002237,0.00000729,-0.00000361,-0.00001142,0.00
 003765,-0.00000031,-0.00004413,-0.00001683,0.00000033,-0.00000186,-0.0
 0016754,-0.00036060,0.00012680,-0.00019887,-0.00026060,0.00048760,-0.0
 0006396,-0.00011818,0.00003349,-0.00012033,-0.00003684,0.00007354,-0.0
 0014108,0.00003338,0.00000310,0.00061329,0.00029402,0.00007335,-0.0001
 0945,-0.00001440,0.00001594,0.00014914,-0.00022643,0.00022892,-0.00028
 040,-0.00010282,-0.00029862,0.00087965,0.00085949,-0.00039811,-0.00016
 252,-0.00054580,-0.00012768,-0.00038009,-0.00018503,0.00007600,-0.0003
 1861,-0.00039679,-0.00035587,0.00038110,0.00011815,0.00014288,0.001397
 29,-0.00077224,0.00189096,0.00107098,-0.00096247,0.00050786,0.00012084
 ,0.00012138,0.00003911,-0.00639536,-0.00163330,0.01306608,0.00044262,0
 .00071502,-0.00030603,-0.00274839,-0.00040414,-0.00250646,0.00169459,0
 .00102093,0.00059958,0.00005505,0.00007431,0.00000521,-0.00000742,-0.0
 0000654,-0.00000904,-0.00001207,-0.00000413,-0.00000030,-0.00000277,-0
 .00001096,0.00000624,0.00002795,-0.00001789,-0.00005426,0.00000496,0.0
 0000376,0.00000273,0.00000176,0.00000534,0.00000840,-0.00001271,-0.000
 00224,0.00000715,0.00009681,-0.00001663,0.00004581,-0.00001695,-0.0000
 0894,-0.00000408,0.00000443,0.00000090,-0.00000773,-0.00000837,0.00000
 814,-0.00000162,0.00007142,-0.00010367,0.00015996,-0.00002304,-0.00000
 769,-0.00002906,-0.00001104,0.00002534,0.00001888,-0.00001055,0.000030
 77,-0.00000748,-0.00001069,-0.00000599,0.00000117,0.00000158,-0.000002
 13,-0.00000212,0.00000505,0.00000363,0.00000243,-0.00000081,0.00000220
 ,-0.00000086,-0.00000642,0.00012090,0.00003144,-0.00000288,-0.00002841
 ,-0.00000426,0.00000051,0.00001131,-0.00000395,0.00000062,0.00000170,-
 0.00000059,-0.00000598,-0.00000025,-0.00000249,0.00000084,-0.00000662,
 -0.00000050,0.00000920,0.00001712,0.00001100,0.00000040,-0.00000680,0.
 00000081,-0.00000242,0.00000027,0.00000009,-0.00000134,-0.00000073,-0.
 00000073,-0.00102645,-0.00012847,0.00011342,0.00034694,-0.00016218,-0.
 00008873,0.00031765,0.00017683,-0.00004043,0.00023469,-0.00003418,0.00
 010922,-0.16933020,-0.01513621,0.09534408,-0.07833670,-0.01457185,0.01
 164210,-0.01713966,0.02777464,0.03124219,0.26820992,0.00011069,0.00024
 320,0.00002202,-0.00006242,0.00001749,0.00002654,0.00002780,0.00010294
 ,0.00005411,-0.00001129,0.00005108,0.00000539,0.00002391,-0.00000913,0
 .00009046,-0.00000457,-0.00001853,-0.00000104,0.00000859,0.00001804,-0
 .00001791,-0.00001457,-0.00002868,-0.00000803,0.00000100,-0.00001510,-
 0.00001023,0.00001911,-0.00000826,-0.00002136,-0.00001952,-0.00004971,
 -0.00002748,-0.00000223,-0.00010514,-0.00004464,0.00001441,-0.00009548
 ,-0.00004864,0.00001824,-0.00020572,-0.00021037,-0.00007698,0.00000868
 ,-0.00007443,0.00000558,-0.00001191,0.00005354,0.00000038,0.00000797,-
 0.00001836,-0.00001015,-0.00003003,-0.00001698,-0.00003616,-0.00005590
 ,-0.00006757,-0.00001008,0.00009563,0.00003557,0.00000323,0.00002762,-
 0.00001946,-0.00003841,-0.00000651,0.00004803,0.00002552,-0.00002798,-
 0.00000479,0.00058737,0.00060692,-0.00007324,-0.00007032,-0.00020548,-
 0.00009276,-0.00009425,-0.00031573,-0.00012409,-0.00033472,-0.00186577
 ,-0.00061357,0.00007349,-0.00000154,0.00004994,-0.00000564,-0.00001996
 ,0.00002304,-0.00000986,0.00000094,-0.00000502,-0.00001647,-0.00000529
 ,-0.00003349,0.00005385,-0.00001602,-0.00001257,-0.00000219,0.00000558
 ,-0.00002205,0.00021489,0.00010959,0.00026454,0.00010322,-0.00014797,0
 .00001421,0.00003691,-0.00001459,0.00000268,0.00000144,0.00002350,0.00
 000646,-0.00000978,-0.00000336,0.00001497,0.00000852,-0.00000613,-0.00
 001015,-0.00000059,-0.00000433,0.00000325,-0.00000346,0.00000136,0.000
 00033,-0.00015188,0.00006846,-0.00008834,-0.00036305,-0.00025788,0.000
 60324,-0.00006261,-0.00003901,0.00000299,-0.00005876,0.00000915,0.0000
 2399,-0.00005907,0.00005005,-0.00000345,0.00005356,0.00001098,0.000010
 20,-0.00003136,0.00000765,-0.00000558,0.00004272,-0.00004654,0.0000387
 4,-0.00001970,0.00003948,-0.00006035,0.00178787,0.00073537,-0.00058522
 ,-0.00043775,-0.00065665,-0.00011454,-0.00076109,-0.00000612,-0.000053
 55,0.00002428,-0.00165554,0.00016035,-0.00052353,-0.00043550,0.0004388
 9,0.00208092,0.00024449,0.00239630,0.00002003,-0.00015474,-0.00029072,
 0.00000004,0.00005573,0.00002979,-0.01881124,0.00372728,0.02021262,-0.
 00001941,0.00055282,0.00006534,-0.00056970,-0.00061775,0.00063262,0.00
 014478,-0.00025594,0.00068978,0.00003423,0.00004483,-0.00000316,-0.000
 00387,-0.00000519,-0.00000413,-0.00001105,-0.00000564,0.00000137,0.000
 00075,-0.00000426,0.00000206,0.00001495,-0.00001541,-0.00002530,-0.000
 00122,0.00000544,0.00000288,-0.00000005,0.00000173,0.00000156,-0.00000
 493,0.00000005,0.00000365,0.00002908,-0.00000926,0.00002193,-0.0000027
 9,0.00000055,-0.00000303,-0.00000184,-0.00000196,-0.00000603,-0.000007
 89,0.00000389,0.00000063,-0.00000571,-0.00003789,0.00004939,0.00000275
 ,0.00000370,-0.00000437,0.00000869,-0.00000269,-0.00000448,-0.00000808
 ,0.00000987,-0.00000359,0.00001393,0.00005541,0.00000166,0.00000163,-0
 .00000972,-0.00000585,-0.00000668,-0.00000511,0.00000134,-0.00000281,-
 0.00000796,0.00000456,0.00005624,0.00010478,0.00002599,-0.00001850,-0.
 00002694,-0.00000053,0.00000739,0.00001089,-0.00000769,-0.00000439,0.0
 0000021,0.00000062,-0.00000319,-0.00000204,-0.00000471,0.00000054,-0.0
 0000384,-0.00000045,0.00001782,0.00001757,0.00001295,-0.00000054,-0.00
 000497,-0.00000054,-0.00000054,-0.00000094,-0.00000071,-0.00000522,-0.
 00000168,0.00000143,-0.00122414,0.00003310,-0.00048249,0.00038549,-0.0
 0017508,0.00001962,0.00038711,0.00016107,0.00009099,0.00026524,-0.0000
 6212,0.00031200,-0.01373659,-0.07530421,0.01759161,-0.01376359,0.00935
 745,0.00231072,0.04019917,-0.01132567,-0.04099799,0.00459907,0.0777799
 4,0.00024147,0.00050890,0.00006654,-0.00007839,-0.00005578,-0.00021026
 ,0.00009453,-0.00001851,0.00000634,-0.00007500,0.00008434,-0.00003793,
 0.00007703,-0.00008817,-0.00014179,-0.00001247,-0.00004618,0.00001035,
 0.00000744,-0.00001625,0.00003871,-0.00002706,-0.00001678,0.00001756,-
 0.00000900,0.00000915,0.00001714,-0.00002476,0.00002668,0.00002834,-0.
 00003911,-0.00000677,0.00007968,-0.00002670,-0.00000044,0.00005644,0.0
 0004043,0.00004910,0.00019717,-0.00045770,-0.00075729,0.00033618,-0.00
 013067,-0.00004147,0.00012188,0.00013230,-0.00003906,-0.00019375,-0.00
 000127,-0.00000913,0.00004830,-0.00003959,0.00003602,0.00005375,-0.000
 07625,0.00014009,0.00026058,-0.00001583,-0.00003198,-0.00017399,-0.000
 01887,-0.00008570,0.00008968,0.00002919,-0.00000156,-0.00010668,-0.000
 01339,0.00002231,0.00001631,0.00136930,0.00154881,-0.00036974,-0.00011
 719,-0.00026929,-0.00004059,-0.00013795,-0.00053290,-0.00008945,-0.001
 10356,-0.00071336,0.00028769,0.00003830,-0.00001541,-0.00001081,0.0000
 5702,-0.00003885,-0.00008906,-0.00005097,-0.00003626,-0.00000541,0.000
 02620,0.00001922,0.00003532,-0.00009577,-0.00000129,0.00000949,0.00001
 488,-0.00001879,0.00002306,-0.00039683,-0.00035067,-0.00052024,-0.0001
 3619,0.00010710,-0.00008188,-0.00006840,0.00002085,0.00000356,0.000023
 51,-0.00005196,-0.00003442,0.00001950,0.00000181,-0.00002679,-0.000016
 67,0.00001172,0.00002787,-0.00001811,0.00000241,0.00002501,0.00002094,
 0.00000390,0.00000059,0.00024079,0.00004500,0.00015062,0.00066780,0.00
 057958,-0.00110398,0.00010263,0.00009714,0.00000784,0.00010643,0.00001
 130,-0.00002619,0.00011807,-0.00005277,0.00002387,-0.00008273,-0.00005
 334,-0.00012797,0.00001378,0.00000506,0.00001486,0.00001364,0.00003080
 ,-0.00001529,0.00004631,0.00000411,0.00020669,-0.00299595,-0.00166094,
 0.00072940,0.00065301,0.00130103,0.00035476,0.00132832,0.00013906,0.00
 013365,0.00154387,0.00196796,-0.00020139,0.00019684,0.00045377,-0.0005
 5849,-0.00451752,0.00179811,-0.00559383,0.00002962,0.00047994,-0.00001
 117,-0.00003238,-0.00005206,-0.00003620,0.03538103,0.00872987,-0.02306
 086,-0.00004912,-0.00048319,-0.00001754,0.00159512,0.00038193,-0.00006
 248,-0.00013917,0.00013528,-0.00163931,-0.00006398,-0.00009123,-0.0000
 0224,0.00000888,0.00001219,0.00001239,0.00001740,0.00000900,-0.0000012
 2,0.00000013,0.00000678,-0.00000438,-0.00002622,0.00001358,0.00003005,
 -0.00000348,-0.00000351,-0.00000412,0.00000021,-0.00000688,-0.00000067
 ,0.00001190,0.00000276,-0.00000490,-0.00007344,0.00001474,-0.00005210,
 0.00001101,0.00000529,0.00000449,0.00000302,-0.00000094,0.00001353,0.0
 0000714,-0.00000477,0.00000171,0.00004776,0.00007071,-0.00012093,0.000
 00322,-0.00000142,0.00001710,-0.00002588,-0.00001657,0.00000981,-0.000
 00800,-0.00001244,0.00000994,0.00000432,0.00001242,-0.00000572,-0.0000
 0268,0.00000383,0.00000227,-0.00000207,-0.00000191,-0.00000299,0.00000
 231,-0.00000520,0.00000505,-0.00004403,-0.00018394,-0.00011871,0.00002
 126,0.00004630,0.00002208,-0.00001048,-0.00001896,-0.00000517,0.000001
 71,-0.00000210,0.00000172,0.00001001,0.00000309,0.00000698,-0.00000063
 ,0.00000814,0.00000253,-0.00002463,-0.00002933,-0.00002743,0.00000143,
 0.00000988,0.00000038,0.00000231,-0.00000061,0.00000352,0.00000531,0.0
 0000284,0.00000018,0.00216353,-0.00029505,0.00056524,-0.00073308,0.000
 42831,0.00006649,-0.00066679,-0.00020473,-0.00011417,-0.00047671,0.000
 14861,-0.00048930,0.08770963,0.01883168,-0.16514960,-0.00267128,-0.000
 05063,0.02205712,0.03285917,-0.02976425,-0.02151263,-0.15128301,-0.002
 14183,0.19589199\\0.00000144,-0.00000023,0.00000127,0.00000035,-0.0000
 0050,0.00000107,-0.00000011,-0.00000018,0.00000170,0.00000025,-0.00000
 003,0.00000103,0.00000012,-0.00000098,0.00000033,0.00000019,0.00000011
 ,0.00000102,0.,0.00000023,0.00000089,0.00000080,-0.00000007,0.00000078
 ,0.00000109,-0.00000017,0.00000026,0.00000052,0.00000018,0.00000043,0.
 00000076,-0.00000030,0.00000025,0.00000067,-0.00000040,0.00000113,0.00
 000061,0.00000053,0.00000192,-0.00000028,0.00000021,0.00000071,0.00000
 238,0.00000066,0.00000036,0.,-0.00000071,-0.00000011,0.00000106,-0.000
 00047,-0.00000005,0.00000121,0.00000080,0.00000084,0.00000082,-0.00000
 080,-0.00000122,-0.00000019,-0.00000044,0.00000153,-0.00000046,0.00000
 017,0.00000172,0.00000001,-0.00000002,0.00000161,-0.00000001,0.0000001
 3,0.00000220,0.00000121,-0.00000005,0.00000167,0.00000062,-0.00000061,
 0.00000095,0.00000150,-0.00000068,0.00000151,0.00000095,-0.00000042,0.
 00000118,0.00000102,-0.00000081,-0.00000086,0.00000099,-0.00000022,0.0
 0000013,0.00000084,0.00000001,-0.00000015,0.00000139,-0.00000053,0.000
 00021,-0.00000101,0.00000011,-0.00000073,-0.00000016,0.00000011,-0.000
 00112,0.00000068,-0.00000004,-0.00000017,-0.00000062,-0.00000012,-0.00
 000050,0.00000038,0.00000042,-0.00000187,-0.00000014,0.00000005,-0.000
 00036,-0.00000026,0.00000017,-0.00000141,-0.00000084,0.00000023,-0.000
 00135,-0.00000043,0.00000001,-0.00000124,0.00000005,-0.00000022,-0.000
 00159,-0.00000044,-0.00000027,-0.00000068,-0.00000129,0.00000028,0.000
 00018,-0.00000054,0.00000024,-0.00000151,-0.00000038,-0.00000012,-0.00
 000209,-0.00000009,-0.00000018,-0.00000164,0.00000078,0.00000021,-0.00
 000108,0.00000045,-0.00000015,-0.00000126,0.00000045,0.00000002,-0.000
 00082,0.00000065,-0.00000048,-0.00000149,-0.00000141,0.00000111,0.0000
 0090,-0.00000171,-0.00000025,-0.00000017,-0.00000049,0.00000011,-0.000
 00006,-0.00000062,0.00000043,0.00000079,-0.00000056,0.00000004,0.00000
 137,-0.00000066,0.00000019,0.00000037,-0.00000058,-0.00000019,0.000001
 34,-0.00000127,0.00000058,0.00000074,-0.00000019,0.00000007,0.00000104
 ,0.00000006,0.00000013,-0.00000004,-0.00000077,0.00000004,0.00000058,0
 .00000002,0.00000027,0.00000123,-0.00000072,0.00000009,-0.00000009,-0.
 00000034,-0.00000022,-0.00000122,-0.00000070,0.00000009,-0.00000140,-0
 .00000072,0.00000017,-0.00000109,-0.00000087,0.00000076,-0.00000208,-0
 .00000104,0.00000019,-0.00000207,-0.00000122,0.00000020,-0.00000155,-0
 .00000119,0.00000010,-0.00000223,-0.00000039,-0.00000005,-0.00000193,0
 .,0.00000016,-0.00000253,0.00000025,-0.00000020,-0.00000236,-0.0000002
 0,-0.00000010,-0.00000256,0.00000083,-0.00000017,-0.00000126,0.0000013
 3,-0.00000055,-0.00000136,0.00000146,-0.00000040,-0.00000092,0.0000011
 2,-0.00000041,-0.00000161,0.00000139,0.,0.00000033,0.00000067,0.000000
 05,0.00000211,0.00000060,-0.00000021,0.00000100,0.00000050,-0.00000033
 ,0.00000189,0.00000044,0.00000002,0.00000014,-0.00000041,-0.00000119,-
 0.00000149,-0.00000175,0.00000004,0.00000023,-0.00000088,0.00000037,-0
 .00000036,-0.00000107,0.00000049,0.00000026,-0.00000097,0.00000034,0.0
 0000047,-0.00000188,0.00000144,0.00000061,0.00000034,0.00000028,0.0000
 0049,0.00000077,0.00000080,0.00000048,-0.00000066,-0.00000041,-0.00000
 084,-0.00000122,0.00000060,0.00000172,-0.00000069,0.00000022,0.0000018
 7,-0.00000095,0.00000034,0.00000193,-0.00000138,0.00000044,0.00000192,
 0.00000060,0.00000084,0.00000080,-0.00000023,-0.00000044,-0.00000004,-
 0.00000020,-0.00000061,0.00000016,0.00000055,0.00000006,0.00000096\\\@


 SUCCESS-- IF YOU HAVE TRIED TO DO SOMETHING AND FAILED
           YOU ARE BETTER OFF THAN IF YOU HAD TRIED TO DO
           NOTHING AND SUCCEEDED.

                   -- FROM THE BACK OF A SUGAR PACKET
 Job cpu time:       5 days  3 hours 34 minutes 19.7 seconds.
 Elapsed time:       0 days  4 hours  6 minutes 12.1 seconds.
 File lengths (MBytes):  RWF=  10089 Int=      0 D2E=      0 Chk=     89 Scr=      1
 Normal termination of Gaussian 16 at Sun Jun 16 19:51:10 2019.
