 Entering Gaussian System, Link 0=g16
 Input=clay_new-glu_gluC6-bisCF3-sm-mpw3pbe-custom-pcm_thf.gjf
 Output=clay_new-glu_gluC6-bisCF3-sm-mpw3pbe-custom-pcm_thf.out
 Initial command:
 /home/ekwan/sw/g16/l1.exe "/scratch/users/ekwan/clay_new-glu_gluC6-bisCF3-sm-mpw3pbe-custom-pcm_thf/Gau-23142.inp" -scrdir="/scratch/users/ekwan/clay_new-glu_gluC6-bisCF3-sm-mpw3pbe-custom-pcm_thf/"
 Entering Link 1 = /home/ekwan/sw/g16/l1.exe PID=     23143.
  
 Copyright (c) 1988,1990,1992,1993,1995,1998,2003,2009,2016,
            Gaussian, Inc.  All Rights Reserved.
  
 This is part of the Gaussian(R) 16 program.  It is based on
 the Gaussian(R) 09 system (copyright 2009, Gaussian, Inc.),
 the Gaussian(R) 03 system (copyright 2003, Gaussian, Inc.),
 the Gaussian(R) 98 system (copyright 1998, Gaussian, Inc.),
 the Gaussian(R) 94 system (copyright 1995, Gaussian, Inc.),
 the Gaussian 92(TM) system (copyright 1992, Gaussian, Inc.),
 the Gaussian 90(TM) system (copyright 1990, Gaussian, Inc.),
 the Gaussian 88(TM) system (copyright 1988, Gaussian, Inc.),
 the Gaussian 86(TM) system (copyright 1986, Carnegie Mellon
 University), and the Gaussian 82(TM) system (copyright 1983,
 Carnegie Mellon University). Gaussian is a federally registered
 trademark of Gaussian, Inc.
  
 This software contains proprietary and confidential information,
 including trade secrets, belonging to Gaussian, Inc.
  
 This software is provided under written license and may be
 used, copied, transmitted, or stored only in accord with that
 written license.
  
 The following legend is applicable only to US Government
 contracts under FAR:
  
                    RESTRICTED RIGHTS LEGEND
  
 Use, reproduction and disclosure by the US Government is
 subject to restrictions as set forth in subparagraphs (a)
 and (c) of the Commercial Computer Software - Restricted
 Rights clause in FAR 52.227-19.
  
 Gaussian, Inc.
 340 Quinnipiac St., Bldg. 40, Wallingford CT 06492
  
  
 ---------------------------------------------------------------
 Warning -- This program may not be used in any manner that
 competes with the business of Gaussian, Inc. or will provide
 assistance to any competitor of Gaussian, Inc.  The licensee
 of this program is prohibited from giving any competitor of
 Gaussian, Inc. access to this program.  By using this program,
 the user acknowledges that Gaussian, Inc. is engaged in the
 business of creating and licensing software in the field of
 computational chemistry and represents and warrants to the
 licensee that it is not a competitor of Gaussian, Inc. and that
 it will not use this program in any manner prohibited above.
 ---------------------------------------------------------------
  

 Cite this work as:
 Gaussian 16, Revision A.03,
 M. J. Frisch, G. W. Trucks, H. B. Schlegel, G. E. Scuseria, 
 M. A. Robb, J. R. Cheeseman, G. Scalmani, V. Barone, 
 G. A. Petersson, H. Nakatsuji, X. Li, M. Caricato, A. V. Marenich, 
 J. Bloino, B. G. Janesko, R. Gomperts, B. Mennucci, H. P. Hratchian, 
 J. V. Ortiz, A. F. Izmaylov, J. L. Sonnenberg, D. Williams-Young, 
 F. Ding, F. Lipparini, F. Egidi, J. Goings, B. Peng, A. Petrone, 
 T. Henderson, D. Ranasinghe, V. G. Zakrzewski, J. Gao, N. Rega, 
 G. Zheng, W. Liang, M. Hada, M. Ehara, K. Toyota, R. Fukuda, 
 J. Hasegawa, M. Ishida, T. Nakajima, Y. Honda, O. Kitao, H. Nakai, 
 T. Vreven, K. Throssell, J. A. Montgomery, Jr., J. E. Peralta, 
 F. Ogliaro, M. J. Bearpark, J. J. Heyd, E. N. Brothers, K. N. Kudin, 
 V. N. Staroverov, T. A. Keith, R. Kobayashi, J. Normand, 
 K. Raghavachari, A. P. Rendell, J. C. Burant, S. S. Iyengar, 
 J. Tomasi, M. Cossi, J. M. Millam, M. Klene, C. Adamo, R. Cammi, 
 J. W. Ochterski, R. L. Martin, K. Morokuma, O. Farkas, 
 J. B. Foresman, and D. J. Fox, Gaussian, Inc., Wallingford CT, 2016.
 
 ******************************************
 Gaussian 16:  AS64L-G16RevA.03 25-Dec-2016
                15-Jun-2019 
 ******************************************
 %nprocshared=32
 Will use up to   32 processors via shared memory.
 %mem=48GB
 ----------------------------------------------------------------------
 #p opt freq=noraman pop=none 6-31g* scrf=(pcm,solvent=tetrahydrofuran)
  mpw3pbe extrabasis
 ----------------------------------------------------------------------
 1/18=20,19=15,26=3,38=1/1,3;
 2/9=110,12=2,17=6,18=5,40=1/2;
 3/5=1,6=6,7=1,10=1,11=2,25=1,30=1,70=2201,71=1,72=20,74=-12/1,2,3;
 4//1;
 5/5=2,38=5,53=20/2;
 7//1,2,3,16;
 1/18=20,19=15,26=3/3(2);
 2/9=110/2;
 99//99;
 2/9=110/2;
 3/5=7,6=1,7=1,11=2,25=1,30=1,70=2205,71=1,72=20,74=-12,82=7/1,2,3;
 4/5=5,16=3,69=1/1;
 5/5=2,38=5,53=20/2;
 7//1,2,3,16;
 1/18=20,19=15,26=3/3(-5);
 2/9=110/2;
 99/9=1/99;
 Leave Link    1 at Sat Jun 15 08:52:33 2019, MaxMem=  6442450944 cpu:              11.5 elap:               0.5
 (Enter /home/ekwan/sw/g16/l101.exe)
 -----
 title
 -----
 Symbolic Z-matrix:
 Charge =  0 Multiplicity = 1
 6                     3.5043   -0.22936   0.73149 
 6                     3.35501  -0.47791  -0.76944 
 6                     1.88623  -0.3613   -1.20684 
 6                     1.35126   1.08882   0.61187 
 6                     2.79498   1.0673    1.11922 
 1                     1.78035  -0.40676  -2.29246 
 1                     3.88959   0.33003  -1.29697 
 1                     3.04466  -1.05899   1.28944 
 1                     0.77936   0.31345   1.14301 
 1                     3.33293   1.91405   0.67062 
 8                     1.29751   0.82187  -0.80184 
 8                     1.19978  -1.51467  -0.63992 
 8                     3.91571  -1.72369  -1.09047 
 8                     4.8671   -0.09898   1.08045 
 8                     2.74704   1.19515   2.52611 
 6                     0.6627    2.42257   0.87051 
 1                     0.5503    2.51787   1.9552 
 1                    -0.34009   2.40549   0.41906 
 8                     1.38453   3.55555   0.44338 
 16                   -0.09924  -2.12554  -1.39883 
 8                    -0.19065  -3.49541  -0.91787 
 8                     0.00602  -1.83016  -2.82469 
 6                    -1.46741  -1.20099  -0.72802 
 6                    -2.11402  -1.68562   0.40448 
 6                    -1.85463  -0.0188   -1.35122 
 6                    -3.18188  -0.95668   0.92268 
 1                    -1.79435  -2.61454   0.86523 
 6                    -2.91764   0.69872  -0.80968 
 1                    -1.3433    0.33098  -2.24143 
 6                    -3.58347   0.23477   0.32312 
 1                    -4.41427   0.79817   0.73488 
 6                     4.31459  -1.85871  -2.44386 
 1                     3.45846  -1.86575  -3.13208 
 1                     5.00248  -1.05251  -2.73614 
 1                     4.83159  -2.81771  -2.52212 
 6                     5.45634  -1.27419   1.60807 
 1                     6.49166  -1.02062   1.85257 
 1                     4.9442   -1.59811   2.52603 
 1                     5.44467  -2.09481   0.88198 
 6                     3.64539   2.15592   3.05323 
 1                     3.50297   2.15547   4.13754 
 1                     4.68599   1.8978    2.82373 
 1                     3.42629   3.16043   2.66416 
 6                     1.1973    3.8997   -0.91746 
 1                     1.64205   4.88936  -1.05549 
 1                     0.12725   3.95145  -1.16819 
 1                     1.68161   3.18833  -1.59701 
 6                    -3.94393  -1.49313   2.10645 
 9                    -3.15535  -2.22717   2.90803 
 9                    -4.96016  -2.28247   1.71359 
 9                    -4.47165  -0.50126   2.84274 
 6                    -3.30591   2.01908  -1.42028 
 9                    -2.60242   3.03226  -0.86963 
 9                    -4.60516   2.29299  -1.22871 
 9                    -3.0662    2.04423  -2.74018 
 
 ITRead=  0  0  0  0  0  0  0  0  0  0  0  0  0  0  0  0  0  0  0  0
 ITRead=  0  0  0  0  0  0  0  0  0  0  0  0  0  0  0  0  0  0  0  0
 ITRead=  0  0  0  0  0  0  0  0  0  0  0  0  0  0  0
 MicOpt= -1 -1 -1 -1 -1 -1 -1 -1 -1 -1 -1 -1 -1 -1 -1 -1 -1 -1 -1 -1
 MicOpt= -1 -1 -1 -1 -1 -1 -1 -1 -1 -1 -1 -1 -1 -1 -1 -1 -1 -1 -1 -1
 MicOpt= -1 -1 -1 -1 -1 -1 -1 -1 -1 -1 -1 -1 -1 -1 -1
 NAtoms=     55 NQM=       55 NQMF=       0 NMMI=      0 NMMIF=      0
                NMic=       0 NMicF=      0.
                    Isotopes and Nuclear Properties:
 (Nuclear quadrupole moments (NQMom) in fm**2, nuclear magnetic moments (NMagM)
  in nuclear magnetons)

  Atom         1           2           3           4           5           6           7           8           9          10
 IAtWgt=          12          12          12          12          12           1           1           1           1           1
 AtmWgt=  12.0000000  12.0000000  12.0000000  12.0000000  12.0000000   1.0078250   1.0078250   1.0078250   1.0078250   1.0078250
 NucSpn=           0           0           0           0           0           1           1           1           1           1
 AtZEff=   0.0000000   0.0000000   0.0000000   0.0000000   0.0000000   0.0000000   0.0000000   0.0000000   0.0000000   0.0000000
 NQMom=    0.0000000   0.0000000   0.0000000   0.0000000   0.0000000   0.0000000   0.0000000   0.0000000   0.0000000   0.0000000
 NMagM=    0.0000000   0.0000000   0.0000000   0.0000000   0.0000000   2.7928460   2.7928460   2.7928460   2.7928460   2.7928460
 AtZNuc=   6.0000000   6.0000000   6.0000000   6.0000000   6.0000000   1.0000000   1.0000000   1.0000000   1.0000000   1.0000000

  Atom        11          12          13          14          15          16          17          18          19          20
 IAtWgt=          16          16          16          16          16          12           1           1          16          32
 AtmWgt=  15.9949146  15.9949146  15.9949146  15.9949146  15.9949146  12.0000000   1.0078250   1.0078250  15.9949146  31.9720718
 NucSpn=           0           0           0           0           0           0           1           1           0           0
 AtZEff=   0.0000000   0.0000000   0.0000000   0.0000000   0.0000000   0.0000000   0.0000000   0.0000000   0.0000000   0.0000000
 NQMom=    0.0000000   0.0000000   0.0000000   0.0000000   0.0000000   0.0000000   0.0000000   0.0000000   0.0000000   0.0000000
 NMagM=    0.0000000   0.0000000   0.0000000   0.0000000   0.0000000   0.0000000   2.7928460   2.7928460   0.0000000   0.0000000
 AtZNuc=   8.0000000   8.0000000   8.0000000   8.0000000   8.0000000   6.0000000   1.0000000   1.0000000   8.0000000  16.0000000

  Atom        21          22          23          24          25          26          27          28          29          30
 IAtWgt=          16          16          12          12          12          12           1          12           1          12
 AtmWgt=  15.9949146  15.9949146  12.0000000  12.0000000  12.0000000  12.0000000   1.0078250  12.0000000   1.0078250  12.0000000
 NucSpn=           0           0           0           0           0           0           1           0           1           0
 AtZEff=   0.0000000   0.0000000   0.0000000   0.0000000   0.0000000   0.0000000   0.0000000   0.0000000   0.0000000   0.0000000
 NQMom=    0.0000000   0.0000000   0.0000000   0.0000000   0.0000000   0.0000000   0.0000000   0.0000000   0.0000000   0.0000000
 NMagM=    0.0000000   0.0000000   0.0000000   0.0000000   0.0000000   0.0000000   2.7928460   0.0000000   2.7928460   0.0000000
 AtZNuc=   8.0000000   8.0000000   6.0000000   6.0000000   6.0000000   6.0000000   1.0000000   6.0000000   1.0000000   6.0000000

  Atom        31          32          33          34          35          36          37          38          39          40
 IAtWgt=           1          12           1           1           1          12           1           1           1          12
 AtmWgt=   1.0078250  12.0000000   1.0078250   1.0078250   1.0078250  12.0000000   1.0078250   1.0078250   1.0078250  12.0000000
 NucSpn=           1           0           1           1           1           0           1           1           1           0
 AtZEff=   0.0000000   0.0000000   0.0000000   0.0000000   0.0000000   0.0000000   0.0000000   0.0000000   0.0000000   0.0000000
 NQMom=    0.0000000   0.0000000   0.0000000   0.0000000   0.0000000   0.0000000   0.0000000   0.0000000   0.0000000   0.0000000
 NMagM=    2.7928460   0.0000000   2.7928460   2.7928460   2.7928460   0.0000000   2.7928460   2.7928460   2.7928460   0.0000000
 AtZNuc=   1.0000000   6.0000000   1.0000000   1.0000000   1.0000000   6.0000000   1.0000000   1.0000000   1.0000000   6.0000000

  Atom        41          42          43          44          45          46          47          48          49          50
 IAtWgt=           1           1           1          12           1           1           1          12          19          19
 AtmWgt=   1.0078250   1.0078250   1.0078250  12.0000000   1.0078250   1.0078250   1.0078250  12.0000000  18.9984033  18.9984033
 NucSpn=           1           1           1           0           1           1           1           0           1           1
 AtZEff=   0.0000000   0.0000000   0.0000000   0.0000000   0.0000000   0.0000000   0.0000000   0.0000000   0.0000000   0.0000000
 NQMom=    0.0000000   0.0000000   0.0000000   0.0000000   0.0000000   0.0000000   0.0000000   0.0000000   0.0000000   0.0000000
 NMagM=    2.7928460   2.7928460   2.7928460   0.0000000   2.7928460   2.7928460   2.7928460   0.0000000   2.6288670   2.6288670
 AtZNuc=   1.0000000   1.0000000   1.0000000   6.0000000   1.0000000   1.0000000   1.0000000   6.0000000   9.0000000   9.0000000

  Atom        51          52          53          54          55
 IAtWgt=          19          12          19          19          19
 AtmWgt=  18.9984033  12.0000000  18.9984033  18.9984033  18.9984033
 NucSpn=           1           0           1           1           1
 AtZEff=   0.0000000   0.0000000   0.0000000   0.0000000   0.0000000
 NQMom=    0.0000000   0.0000000   0.0000000   0.0000000   0.0000000
 NMagM=    2.6288670   0.0000000   2.6288670   2.6288670   2.6288670
 AtZNuc=   9.0000000   6.0000000   9.0000000   9.0000000   9.0000000
 Leave Link  101 at Sat Jun 15 08:52:34 2019, MaxMem=  6442450944 cpu:              15.6 elap:               0.7
 (Enter /home/ekwan/sw/g16/l103.exe)

 GradGradGradGradGradGradGradGradGradGradGradGradGradGradGradGradGradGrad
 Berny optimization.
 Initialization pass.
                           ----------------------------
                           !    Initial Parameters    !
                           ! (Angstroms and Degrees)  !
 --------------------------                            --------------------------
 ! Name  Definition              Value          Derivative Info.                !
 --------------------------------------------------------------------------------
 ! R1    R(1,2)                  1.5287         estimate D2E/DX2                !
 ! R2    R(1,5)                  1.528          estimate D2E/DX2                !
 ! R3    R(1,8)                  1.1004         estimate D2E/DX2                !
 ! R4    R(1,14)                 1.4128         estimate D2E/DX2                !
 ! R5    R(2,3)                  1.537          estimate D2E/DX2                !
 ! R6    R(2,7)                  1.1031         estimate D2E/DX2                !
 ! R7    R(2,13)                 1.4034         estimate D2E/DX2                !
 ! R8    R(3,6)                  1.0917         estimate D2E/DX2                !
 ! R9    R(3,11)                 1.3822         estimate D2E/DX2                !
 ! R10   R(3,12)                 1.457          estimate D2E/DX2                !
 ! R11   R(4,5)                  1.5304         estimate D2E/DX2                !
 ! R12   R(4,9)                  1.1002         estimate D2E/DX2                !
 ! R13   R(4,11)                 1.4397         estimate D2E/DX2                !
 ! R14   R(4,16)                 1.5231         estimate D2E/DX2                !
 ! R15   R(5,10)                 1.0989         estimate D2E/DX2                !
 ! R16   R(5,15)                 1.4135         estimate D2E/DX2                !
 ! R17   R(12,20)                1.6237         estimate D2E/DX2                !
 ! R18   R(13,32)                1.4174         estimate D2E/DX2                !
 ! R19   R(14,36)                1.4166         estimate D2E/DX2                !
 ! R20   R(15,40)                1.417          estimate D2E/DX2                !
 ! R21   R(16,17)                1.0946         estimate D2E/DX2                !
 ! R22   R(16,18)                1.0999         estimate D2E/DX2                !
 ! R23   R(16,19)                1.4097         estimate D2E/DX2                !
 ! R24   R(19,44)                1.4161         estimate D2E/DX2                !
 ! R25   R(20,21)                1.4547         estimate D2E/DX2                !
 ! R26   R(20,22)                1.4599         estimate D2E/DX2                !
 ! R27   R(20,23)                1.7823         estimate D2E/DX2                !
 ! R28   R(23,24)                1.3912         estimate D2E/DX2                !
 ! R29   R(23,25)                1.3914         estimate D2E/DX2                !
 ! R30   R(24,26)                1.3929         estimate D2E/DX2                !
 ! R31   R(24,27)                1.0851         estimate D2E/DX2                !
 ! R32   R(25,28)                1.3921         estimate D2E/DX2                !
 ! R33   R(25,29)                1.0846         estimate D2E/DX2                !
 ! R34   R(26,30)                1.3929         estimate D2E/DX2                !
 ! R35   R(26,48)                1.5066         estimate D2E/DX2                !
 ! R36   R(28,30)                1.3935         estimate D2E/DX2                !
 ! R37   R(28,52)                1.5056         estimate D2E/DX2                !
 ! R38   R(30,31)                1.085          estimate D2E/DX2                !
 ! R39   R(32,33)                1.0985         estimate D2E/DX2                !
 ! R40   R(32,34)                1.0994         estimate D2E/DX2                !
 ! R41   R(32,35)                1.0923         estimate D2E/DX2                !
 ! R42   R(36,37)                1.0936         estimate D2E/DX2                !
 ! R43   R(36,38)                1.0999         estimate D2E/DX2                !
 ! R44   R(36,39)                1.0958         estimate D2E/DX2                !
 ! R45   R(40,41)                1.0936         estimate D2E/DX2                !
 ! R46   R(40,42)                1.0964         estimate D2E/DX2                !
 ! R47   R(40,43)                1.0993         estimate D2E/DX2                !
 ! R48   R(44,45)                1.0937         estimate D2E/DX2                !
 ! R49   R(44,46)                1.1002         estimate D2E/DX2                !
 ! R50   R(44,47)                1.0965         estimate D2E/DX2                !
 ! R51   R(48,49)                1.3428         estimate D2E/DX2                !
 ! R52   R(48,50)                1.3454         estimate D2E/DX2                !
 ! R53   R(48,51)                1.3433         estimate D2E/DX2                !
 ! R54   R(52,53)                1.3508         estimate D2E/DX2                !
 ! R55   R(52,54)                1.3416         estimate D2E/DX2                !
 ! R56   R(52,55)                1.3417         estimate D2E/DX2                !
 ! A1    A(2,1,5)              109.9854         estimate D2E/DX2                !
 ! A2    A(2,1,8)              109.5397         estimate D2E/DX2                !
 ! A3    A(2,1,14)             110.5926         estimate D2E/DX2                !
 ! A4    A(5,1,8)              108.4952         estimate D2E/DX2                !
 ! A5    A(5,1,14)             107.8664         estimate D2E/DX2                !
 ! A6    A(8,1,14)             110.3204         estimate D2E/DX2                !
 ! A7    A(1,2,3)              111.1256         estimate D2E/DX2                !
 ! A8    A(1,2,7)              107.6462         estimate D2E/DX2                !
 ! A9    A(1,2,13)             109.264          estimate D2E/DX2                !
 ! A10   A(3,2,7)              105.7505         estimate D2E/DX2                !
 ! A11   A(3,2,13)             112.5859         estimate D2E/DX2                !
 ! A12   A(7,2,13)             110.3138         estimate D2E/DX2                !
 ! A13   A(2,3,6)              111.8712         estimate D2E/DX2                !
 ! A14   A(2,3,11)             112.8669         estimate D2E/DX2                !
 ! A15   A(2,3,12)             106.2275         estimate D2E/DX2                !
 ! A16   A(6,3,11)             106.6013         estimate D2E/DX2                !
 ! A17   A(6,3,12)             107.9546         estimate D2E/DX2                !
 ! A18   A(11,3,12)            111.2802         estimate D2E/DX2                !
 ! A19   A(5,4,9)              108.6881         estimate D2E/DX2                !
 ! A20   A(5,4,11)             110.9861         estimate D2E/DX2                !
 ! A21   A(5,4,16)             112.4871         estimate D2E/DX2                !
 ! A22   A(9,4,11)             108.904          estimate D2E/DX2                !
 ! A23   A(9,4,16)             107.4674         estimate D2E/DX2                !
 ! A24   A(11,4,16)            108.1942         estimate D2E/DX2                !
 ! A25   A(1,5,4)              111.4523         estimate D2E/DX2                !
 ! A26   A(1,5,10)             108.8465         estimate D2E/DX2                !
 ! A27   A(1,5,15)             110.1856         estimate D2E/DX2                !
 ! A28   A(4,5,10)             108.3986         estimate D2E/DX2                !
 ! A29   A(4,5,15)             107.2594         estimate D2E/DX2                !
 ! A30   A(10,5,15)            110.6846         estimate D2E/DX2                !
 ! A31   A(3,11,4)             115.5015         estimate D2E/DX2                !
 ! A32   A(3,12,20)            119.5295         estimate D2E/DX2                !
 ! A33   A(2,13,32)            114.5463         estimate D2E/DX2                !
 ! A34   A(1,14,36)            114.6248         estimate D2E/DX2                !
 ! A35   A(5,15,40)            114.2097         estimate D2E/DX2                !
 ! A36   A(4,16,17)            106.9134         estimate D2E/DX2                !
 ! A37   A(4,16,18)            109.2001         estimate D2E/DX2                !
 ! A38   A(4,16,19)            114.889          estimate D2E/DX2                !
 ! A39   A(17,16,18)           108.328          estimate D2E/DX2                !
 ! A40   A(17,16,19)           106.431          estimate D2E/DX2                !
 ! A41   A(18,16,19)           110.7917         estimate D2E/DX2                !
 ! A42   A(16,19,44)           114.7592         estimate D2E/DX2                !
 ! A43   A(12,20,21)           104.4784         estimate D2E/DX2                !
 ! A44   A(12,20,22)           108.8247         estimate D2E/DX2                !
 ! A45   A(12,20,23)           104.0667         estimate D2E/DX2                !
 ! A46   A(21,20,22)           121.1956         estimate D2E/DX2                !
 ! A47   A(21,20,23)           108.4093         estimate D2E/DX2                !
 ! A48   A(22,20,23)           108.5406         estimate D2E/DX2                !
 ! A49   A(20,23,24)           118.8457         estimate D2E/DX2                !
 ! A50   A(20,23,25)           119.065          estimate D2E/DX2                !
 ! A51   A(24,23,25)           122.0892         estimate D2E/DX2                !
 ! A52   A(23,24,26)           118.4802         estimate D2E/DX2                !
 ! A53   A(23,24,27)           120.4608         estimate D2E/DX2                !
 ! A54   A(26,24,27)           121.0574         estimate D2E/DX2                !
 ! A55   A(23,25,28)           118.4365         estimate D2E/DX2                !
 ! A56   A(23,25,29)           120.6944         estimate D2E/DX2                !
 ! A57   A(28,25,29)           120.868          estimate D2E/DX2                !
 ! A58   A(24,26,30)           120.5649         estimate D2E/DX2                !
 ! A59   A(24,26,48)           119.5872         estimate D2E/DX2                !
 ! A60   A(30,26,48)           119.7972         estimate D2E/DX2                !
 ! A61   A(25,28,30)           120.6287         estimate D2E/DX2                !
 ! A62   A(25,28,52)           119.4153         estimate D2E/DX2                !
 ! A63   A(30,28,52)           119.8958         estimate D2E/DX2                !
 ! A64   A(26,30,28)           119.7968         estimate D2E/DX2                !
 ! A65   A(26,30,31)           120.1035         estimate D2E/DX2                !
 ! A66   A(28,30,31)           120.0993         estimate D2E/DX2                !
 ! A67   A(13,32,33)           112.3036         estimate D2E/DX2                !
 ! A68   A(13,32,34)           111.1052         estimate D2E/DX2                !
 ! A69   A(13,32,35)           106.5734         estimate D2E/DX2                !
 ! A70   A(33,32,34)           109.0146         estimate D2E/DX2                !
 ! A71   A(33,32,35)           108.5652         estimate D2E/DX2                !
 ! A72   A(34,32,35)           109.186          estimate D2E/DX2                !
 ! A73   A(14,36,37)           106.5412         estimate D2E/DX2                !
 ! A74   A(14,36,38)           111.1903         estimate D2E/DX2                !
 ! A75   A(14,36,39)           111.7184         estimate D2E/DX2                !
 ! A76   A(37,36,38)           108.8139         estimate D2E/DX2                !
 ! A77   A(37,36,39)           109.3828         estimate D2E/DX2                !
 ! A78   A(38,36,39)           109.1169         estimate D2E/DX2                !
 ! A79   A(15,40,41)           106.6174         estimate D2E/DX2                !
 ! A80   A(15,40,42)           111.3584         estimate D2E/DX2                !
 ! A81   A(15,40,43)           111.195          estimate D2E/DX2                !
 ! A82   A(41,40,42)           109.3321         estimate D2E/DX2                !
 ! A83   A(41,40,43)           108.9858         estimate D2E/DX2                !
 ! A84   A(42,40,43)           109.2818         estimate D2E/DX2                !
 ! A85   A(19,44,45)           106.7028         estimate D2E/DX2                !
 ! A86   A(19,44,46)           111.0389         estimate D2E/DX2                !
 ! A87   A(19,44,47)           112.3009         estimate D2E/DX2                !
 ! A88   A(45,44,46)           108.9144         estimate D2E/DX2                !
 ! A89   A(45,44,47)           109.2203         estimate D2E/DX2                !
 ! A90   A(46,44,47)           108.5931         estimate D2E/DX2                !
 ! A91   A(26,48,49)           111.5078         estimate D2E/DX2                !
 ! A92   A(26,48,50)           111.1939         estimate D2E/DX2                !
 ! A93   A(26,48,51)           111.498          estimate D2E/DX2                !
 ! A94   A(49,48,50)           107.2875         estimate D2E/DX2                !
 ! A95   A(49,48,51)           107.8872         estimate D2E/DX2                !
 ! A96   A(50,48,51)           107.2492         estimate D2E/DX2                !
 ! A97   A(28,52,53)           110.9862         estimate D2E/DX2                !
 ! A98   A(28,52,54)           111.7703         estimate D2E/DX2                !
 ! A99   A(28,52,55)           111.6725         estimate D2E/DX2                !
 ! A100  A(53,52,54)           107.0389         estimate D2E/DX2                !
 ! A101  A(53,52,55)           107.0926         estimate D2E/DX2                !
 ! A102  A(54,52,55)           108.0395         estimate D2E/DX2                !
 ! D1    D(5,1,2,3)            -50.3832         estimate D2E/DX2                !
 ! D2    D(5,1,2,7)             64.9757         estimate D2E/DX2                !
 ! D3    D(5,1,2,13)          -175.2169         estimate D2E/DX2                !
 ! D4    D(8,1,2,3)             68.7769         estimate D2E/DX2                !
 ! D5    D(8,1,2,7)           -175.8643         estimate D2E/DX2                !
 ! D6    D(8,1,2,13)           -56.0569         estimate D2E/DX2                !
 ! D7    D(14,1,2,3)          -169.421          estimate D2E/DX2                !
 ! D8    D(14,1,2,7)           -54.0621         estimate D2E/DX2                !
 ! D9    D(14,1,2,13)           65.7452         estimate D2E/DX2                !
 ! D10   D(2,1,5,4)             51.8474         estimate D2E/DX2                !
 ! D11   D(2,1,5,10)           -67.6548         estimate D2E/DX2                !
 ! D12   D(2,1,5,15)           170.8016         estimate D2E/DX2                !
 ! D13   D(8,1,5,4)            -67.9495         estimate D2E/DX2                !
 ! D14   D(8,1,5,10)           172.5483         estimate D2E/DX2                !
 ! D15   D(8,1,5,15)            51.0047         estimate D2E/DX2                !
 ! D16   D(14,1,5,4)           172.5415         estimate D2E/DX2                !
 ! D17   D(14,1,5,10)           53.0392         estimate D2E/DX2                !
 ! D18   D(14,1,5,15)          -68.5044         estimate D2E/DX2                !
 ! D19   D(2,1,14,36)          -98.4389         estimate D2E/DX2                !
 ! D20   D(5,1,14,36)          141.2481         estimate D2E/DX2                !
 ! D21   D(8,1,14,36)           22.9026         estimate D2E/DX2                !
 ! D22   D(1,2,3,6)            172.5496         estimate D2E/DX2                !
 ! D23   D(1,2,3,11)            52.3232         estimate D2E/DX2                !
 ! D24   D(1,2,3,12)           -69.8835         estimate D2E/DX2                !
 ! D25   D(7,2,3,6)             56.0218         estimate D2E/DX2                !
 ! D26   D(7,2,3,11)           -64.2046         estimate D2E/DX2                !
 ! D27   D(7,2,3,12)           173.5887         estimate D2E/DX2                !
 ! D28   D(13,2,3,6)           -64.5081         estimate D2E/DX2                !
 ! D29   D(13,2,3,11)          175.2655         estimate D2E/DX2                !
 ! D30   D(13,2,3,12)           53.0589         estimate D2E/DX2                !
 ! D31   D(1,2,13,32)         -156.6658         estimate D2E/DX2                !
 ! D32   D(3,2,13,32)           79.3556         estimate D2E/DX2                !
 ! D33   D(7,2,13,32)          -38.5152         estimate D2E/DX2                !
 ! D34   D(2,3,11,4)           -55.7241         estimate D2E/DX2                !
 ! D35   D(6,3,11,4)          -178.9276         estimate D2E/DX2                !
 ! D36   D(12,3,11,4)           63.5995         estimate D2E/DX2                !
 ! D37   D(2,3,12,20)         -151.0805         estimate D2E/DX2                !
 ! D38   D(6,3,12,20)          -30.9381         estimate D2E/DX2                !
 ! D39   D(11,3,12,20)          85.7109         estimate D2E/DX2                !
 ! D40   D(9,4,5,1)             66.5089         estimate D2E/DX2                !
 ! D41   D(9,4,5,10)          -173.7236         estimate D2E/DX2                !
 ! D42   D(9,4,5,15)           -54.1758         estimate D2E/DX2                !
 ! D43   D(11,4,5,1)           -53.231          estimate D2E/DX2                !
 ! D44   D(11,4,5,10)           66.5365         estimate D2E/DX2                !
 ! D45   D(11,4,5,15)         -173.9157         estimate D2E/DX2                !
 ! D46   D(16,4,5,1)          -174.612          estimate D2E/DX2                !
 ! D47   D(16,4,5,10)          -54.8444         estimate D2E/DX2                !
 ! D48   D(16,4,5,15)           64.7033         estimate D2E/DX2                !
 ! D49   D(5,4,11,3)            56.0283         estimate D2E/DX2                !
 ! D50   D(9,4,11,3)           -63.5826         estimate D2E/DX2                !
 ! D51   D(16,4,11,3)          179.8962         estimate D2E/DX2                !
 ! D52   D(5,4,16,17)          -67.2626         estimate D2E/DX2                !
 ! D53   D(5,4,16,18)          175.7417         estimate D2E/DX2                !
 ! D54   D(5,4,16,19)           50.5768         estimate D2E/DX2                !
 ! D55   D(9,4,16,17)           52.3285         estimate D2E/DX2                !
 ! D56   D(9,4,16,18)          -64.6672         estimate D2E/DX2                !
 ! D57   D(9,4,16,19)          170.168          estimate D2E/DX2                !
 ! D58   D(11,4,16,17)         169.7765         estimate D2E/DX2                !
 ! D59   D(11,4,16,18)          52.7809         estimate D2E/DX2                !
 ! D60   D(11,4,16,19)         -72.384          estimate D2E/DX2                !
 ! D61   D(1,5,15,40)          105.861          estimate D2E/DX2                !
 ! D62   D(4,5,15,40)         -132.6554         estimate D2E/DX2                !
 ! D63   D(10,5,15,40)         -14.583          estimate D2E/DX2                !
 ! D64   D(3,12,20,21)         157.8778         estimate D2E/DX2                !
 ! D65   D(3,12,20,22)          27.0938         estimate D2E/DX2                !
 ! D66   D(3,12,20,23)         -88.485          estimate D2E/DX2                !
 ! D67   D(2,13,32,33)         -67.6482         estimate D2E/DX2                !
 ! D68   D(2,13,32,34)          54.7503         estimate D2E/DX2                !
 ! D69   D(2,13,32,35)         173.5928         estimate D2E/DX2                !
 ! D70   D(1,14,36,37)        -178.6551         estimate D2E/DX2                !
 ! D71   D(1,14,36,38)         -60.2337         estimate D2E/DX2                !
 ! D72   D(1,14,36,39)          61.9413         estimate D2E/DX2                !
 ! D73   D(5,15,40,41)         179.7647         estimate D2E/DX2                !
 ! D74   D(5,15,40,42)         -61.0486         estimate D2E/DX2                !
 ! D75   D(5,15,40,43)          61.0875         estimate D2E/DX2                !
 ! D76   D(4,16,19,44)          85.3439         estimate D2E/DX2                !
 ! D77   D(17,16,19,44)       -156.5446         estimate D2E/DX2                !
 ! D78   D(18,16,19,44)        -38.986          estimate D2E/DX2                !
 ! D79   D(16,19,44,45)        168.846          estimate D2E/DX2                !
 ! D80   D(16,19,44,46)         50.2895         estimate D2E/DX2                !
 ! D81   D(16,19,44,47)        -71.5132         estimate D2E/DX2                !
 ! D82   D(12,20,23,24)        -90.3475         estimate D2E/DX2                !
 ! D83   D(12,20,23,25)         89.6119         estimate D2E/DX2                !
 ! D84   D(21,20,23,24)         20.4485         estimate D2E/DX2                !
 ! D85   D(21,20,23,25)       -159.5921         estimate D2E/DX2                !
 ! D86   D(22,20,23,24)        153.8739         estimate D2E/DX2                !
 ! D87   D(22,20,23,25)        -26.1667         estimate D2E/DX2                !
 ! D88   D(20,23,24,26)        179.9695         estimate D2E/DX2                !
 ! D89   D(20,23,24,27)         -0.4743         estimate D2E/DX2                !
 ! D90   D(25,23,24,26)          0.0114         estimate D2E/DX2                !
 ! D91   D(25,23,24,27)        179.5676         estimate D2E/DX2                !
 ! D92   D(20,23,25,28)       -179.4663         estimate D2E/DX2                !
 ! D93   D(20,23,25,29)          0.9055         estimate D2E/DX2                !
 ! D94   D(24,23,25,28)          0.4917         estimate D2E/DX2                !
 ! D95   D(24,23,25,29)       -179.1365         estimate D2E/DX2                !
 ! D96   D(23,24,26,30)         -0.4598         estimate D2E/DX2                !
 ! D97   D(23,24,26,48)        176.9457         estimate D2E/DX2                !
 ! D98   D(27,24,26,30)        179.9867         estimate D2E/DX2                !
 ! D99   D(27,24,26,48)         -2.6077         estimate D2E/DX2                !
 ! D100  D(23,25,28,30)         -0.5553         estimate D2E/DX2                !
 ! D101  D(23,25,28,52)        176.62           estimate D2E/DX2                !
 ! D102  D(29,25,28,30)        179.0722         estimate D2E/DX2                !
 ! D103  D(29,25,28,52)         -3.7524         estimate D2E/DX2                !
 ! D104  D(24,26,30,28)          0.3962         estimate D2E/DX2                !
 ! D105  D(24,26,30,31)       -179.8076         estimate D2E/DX2                !
 ! D106  D(48,26,30,28)       -177.0039         estimate D2E/DX2                !
 ! D107  D(48,26,30,31)          2.7923         estimate D2E/DX2                !
 ! D108  D(24,26,48,49)         30.7619         estimate D2E/DX2                !
 ! D109  D(24,26,48,50)        -88.9328         estimate D2E/DX2                !
 ! D110  D(24,26,48,51)        151.4275         estimate D2E/DX2                !
 ! D111  D(30,26,48,49)       -151.8124         estimate D2E/DX2                !
 ! D112  D(30,26,48,50)         88.4928         estimate D2E/DX2                !
 ! D113  D(30,26,48,51)        -31.1468         estimate D2E/DX2                !
 ! D114  D(25,28,30,26)          0.1229         estimate D2E/DX2                !
 ! D115  D(25,28,30,31)       -179.6734         estimate D2E/DX2                !
 ! D116  D(52,28,30,26)       -177.0389         estimate D2E/DX2                !
 ! D117  D(52,28,30,31)          3.1648         estimate D2E/DX2                !
 ! D118  D(25,28,52,53)        -87.9983         estimate D2E/DX2                !
 ! D119  D(25,28,52,54)        152.5865         estimate D2E/DX2                !
 ! D120  D(25,28,52,55)         31.4199         estimate D2E/DX2                !
 ! D121  D(30,28,52,53)         89.1981         estimate D2E/DX2                !
 ! D122  D(30,28,52,54)        -30.2172         estimate D2E/DX2                !
 ! D123  D(30,28,52,55)       -151.3838         estimate D2E/DX2                !
 --------------------------------------------------------------------------------
 Trust Radius=3.00D-01 FncErr=1.00D-07 GrdErr=1.00D-06 EigMax=2.50D+02 EigMin=1.00D-04
 Number of steps in this run=    291 maximum allowed number of steps=    330.
 GradGradGradGradGradGradGradGradGradGradGradGradGradGradGradGradGradGrad

 Leave Link  103 at Sat Jun 15 08:52:34 2019, MaxMem=  6442450944 cpu:               2.2 elap:               0.3
 (Enter /home/ekwan/sw/g16/l202.exe)
 Stoichiometry    C18H22F6O8S
 Framework group  C1[X(C18H22F6O8S)]
 Deg. of freedom   159
 Full point group                 C1      NOp   1
 Largest Abelian subgroup         C1      NOp   1
 Largest concise Abelian subgroup C1      NOp   1
                         Standard orientation:                         
 ---------------------------------------------------------------------
 Center     Atomic      Atomic             Coordinates (Angstroms)
 Number     Number       Type             X           Y           Z
 ---------------------------------------------------------------------
      1          6           0        3.504304   -0.229360    0.731494
      2          6           0        3.355013   -0.477908   -0.769438
      3          6           0        1.886231   -0.361299   -1.206836
      4          6           0        1.351261    1.088817    0.611865
      5          6           0        2.794981    1.067297    1.119223
      6          1           0        1.780351   -0.406764   -2.292457
      7          1           0        3.889587    0.330027   -1.296973
      8          1           0        3.044661   -1.058994    1.289437
      9          1           0        0.779364    0.313452    1.143007
     10          1           0        3.332932    1.914045    0.670616
     11          8           0        1.297512    0.821871   -0.801840
     12          8           0        1.199775   -1.514667   -0.639919
     13          8           0        3.915714   -1.723693   -1.090470
     14          8           0        4.867098   -0.098978    1.080446
     15          8           0        2.747043    1.195149    2.526110
     16          6           0        0.662704    2.422567    0.870514
     17          1           0        0.550296    2.517865    1.955195
     18          1           0       -0.340094    2.405486    0.419055
     19          8           0        1.384529    3.555553    0.443377
     20         16           0       -0.099237   -2.125544   -1.398829
     21          8           0       -0.190648   -3.495409   -0.917869
     22          8           0        0.006024   -1.830158   -2.824686
     23          6           0       -1.467412   -1.200993   -0.728017
     24          6           0       -2.114018   -1.685620    0.404479
     25          6           0       -1.854630   -0.018798   -1.351223
     26          6           0       -3.181875   -0.956678    0.922680
     27          1           0       -1.794347   -2.614544    0.865232
     28          6           0       -2.917638    0.698716   -0.809684
     29          1           0       -1.343297    0.330984   -2.241433
     30          6           0       -3.583467    0.234769    0.323119
     31          1           0       -4.414269    0.798171    0.734883
     32          6           0        4.314586   -1.858713   -2.443864
     33          1           0        3.458457   -1.865753   -3.132082
     34          1           0        5.002482   -1.052505   -2.736138
     35          1           0        4.831592   -2.817712   -2.522121
     36          6           0        5.456344   -1.274193    1.608071
     37          1           0        6.491657   -1.020621    1.852572
     38          1           0        4.944197   -1.598105    2.526030
     39          1           0        5.444666   -2.094812    0.881979
     40          6           0        3.645393    2.155923    3.053232
     41          1           0        3.502965    2.155473    4.137543
     42          1           0        4.685986    1.897799    2.823730
     43          1           0        3.426285    3.160431    2.664163
     44          6           0        1.197298    3.899704   -0.917464
     45          1           0        1.642049    4.889358   -1.055493
     46          1           0        0.127254    3.951454   -1.168188
     47          1           0        1.681610    3.188330   -1.597006
     48          6           0       -3.943931   -1.493131    2.106453
     49          9           0       -3.155353   -2.227172    2.908033
     50          9           0       -4.960158   -2.282471    1.713590
     51          9           0       -4.471646   -0.501263    2.842737
     52          6           0       -3.305911    2.019084   -1.420279
     53          9           0       -2.602421    3.032262   -0.869626
     54          9           0       -4.605156    2.292992   -1.228713
     55          9           0       -3.066195    2.044227   -2.740179
 ---------------------------------------------------------------------
 Rotational constants (GHZ):           0.1508818           0.0805232           0.0744597
 Leave Link  202 at Sat Jun 15 08:52:35 2019, MaxMem=  6442450944 cpu:               5.1 elap:               0.3
 (Enter /home/ekwan/sw/g16/l301.exe)
 Standard basis: 6-31G(d) (6D, 7F)
 Centers:      12     22     21
 SP 1 1.00
     Exponent=  8.4500000000D-02 Coefficients=  1.0000000000D+00  1.0000000000D+00
 ****
 Ernie: Thresh=  0.10000D-02 Tol=  0.10000D-05 Strict=F.
 There are   555 symmetry adapted cartesian basis functions of A   symmetry.
 There are   555 symmetry adapted basis functions of A   symmetry.
   555 basis functions,  1048 primitive gaussians,   555 cartesian basis functions
   132 alpha electrons      132 beta electrons
       nuclear repulsion energy      4278.0916766201 Hartrees.
 IExCor=  909 DFT=T Ex+Corr=mPW3PBE ExCW=0 ScaHFX=  0.200000
 ScaDFX=  0.800000  0.720000  1.000000  0.810000 ScalE2=  1.000000  1.000000
 IRadAn=      5 IRanWt=     -1 IRanGd=            0 ICorTp=0 IEmpDi=  4
 NAtoms=   55 NActive=   55 NUniq=   55 SFac= 1.00D+00 NAtFMM=   60 NAOKFM=F Big=F
 Integral buffers will be    131072 words long.
 Raffenetti 2 integral format.
 Two-electron integral symmetry is turned on.
 ------------------------------------------------------------------------------
 Polarizable Continuum Model (PCM)
 =================================
 Model                : PCM.
 Atomic radii         : UFF (Universal Force Field).
 Polarization charges : Total charges.
 Charge compensation  : None.
 Solution method      : On-the-fly selection.
 Cavity type          : Scaled VdW (van der Waals Surface) (Alpha=1.100).
 Cavity algorithm     : GePol (No added spheres)
                        Default sphere list used, NSphG=   55.
                        Lebedev-Laikov grids with approx.  5.0 points / Ang**2.
                        Smoothing algorithm: York/Karplus (Gamma=1.0000).
                        Polarization charges: spherical gaussians, with
                                              point-specific exponents (IZeta= 3).
                        Self-potential: point-specific (ISelfS= 7).
                        Self-field    : sphere-specific E.n sum rule (ISelfD= 2).
 1st derivatives      : Analytical E(r).r(x)/FMM algorithm (CHGder, D1EAlg=3).
                        Cavity 1st derivative terms included.
 Solvent              : TetraHydroFuran, Eps=   7.425700 Eps(inf)=   1.974025
 ------------------------------------------------------------------------------
 GePol: Number of generator spheres                  =      55
 GePol: Total number of spheres                      =      55
 GePol: Number of exposed spheres                    =      55 (100.00%)
 GePol: Number of points                             =    4005
 GePol: Average weight of points                     =       0.13
 GePol: Minimum weight of points                     =   0.10D-09
 GePol: Maximum weight of points                     =    0.20577
 GePol: Number of points with low weight             =     259
 GePol: Fraction of low-weight points (<1% of avg)   =       6.47%
 GePol: Cavity surface area                          =    507.018 Ang**2
 GePol: Cavity volume                                =    580.015 Ang**3
 Leave Link  301 at Sat Jun 15 08:52:36 2019, MaxMem=  6442450944 cpu:               9.6 elap:               0.5
 (Enter /home/ekwan/sw/g16/l302.exe)
 NPDir=0 NMtPBC=     1 NCelOv=     1 NCel=       1 NClECP=     1 NCelD=      1
         NCelK=      1 NCelE2=     1 NClLst=     1 CellRange=     0.0.
 One-electron integrals computed using PRISM.
 One-electron integral symmetry used in STVInt
 NBasis=   555 RedAO= T EigKep=  4.03D-04  NBF=   555
 NBsUse=   555 1.00D-06 EigRej= -1.00D+00 NBFU=   555
 Precomputing XC quadrature grid using
 IXCGrd= 4 IRadAn=           5 IRanWt=          -1 IRanGd=           0 AccXCQ= 0.00D+00.
 Generated NRdTot=       0 NPtTot=           0 NUsed=           0 NTot=          32
 NSgBfM=   543   542   542   543   543 MxSgAt=    55 MxSgA2=    55.
 Leave Link  302 at Sat Jun 15 08:52:43 2019, MaxMem=  6442450944 cpu:             199.2 elap:               7.0
 (Enter /home/ekwan/sw/g16/l303.exe)
 DipDrv:  MaxL=1.
 Leave Link  303 at Sat Jun 15 08:52:43 2019, MaxMem=  6442450944 cpu:               7.5 elap:               0.4
 (Enter /home/ekwan/sw/g16/l401.exe)
 ExpMin= 8.45D-02 ExpMax= 2.19D+04 ExpMxC= 3.30D+03 IAcc=3 IRadAn=         5 AccDes= 0.00D+00
 Harris functional with IExCor=  909 and IRadAn=       5 diagonalized for initial guess.
 HarFok:  IExCor=  909 AccDes= 0.00D+00 IRadAn=         5 IDoV= 1 UseB2=F ITyADJ=14
 ICtDFT=  3500011 ScaDFX=  1.000000  1.000000  1.000000  1.000000
 FoFCou: FMM=F IPFlag=           0 FMFlag=      100000 FMFlg1=           0
         NFxFlg=           0 DoJE=T BraDBF=F KetDBF=T FulRan=T
         wScrn=  0.000000 ICntrl=       500 IOpCl=  0 I1Cent=   200000004 NGrid=           0
         NMat0=    1 NMatS0=      1 NMatT0=    0 NMatD0=    1 NMtDS0=    0 NMtDT0=    0
 Petite list used in FoFCou.
 Harris En= -2297.56116640471    
 JPrj=0 DoOrth=F DoCkMO=F.
 Leave Link  401 at Sat Jun 15 08:52:52 2019, MaxMem=  6442450944 cpu:             268.2 elap:               8.9
 (Enter /home/ekwan/sw/g16/l502.exe)
 Integral symmetry usage will be decided dynamically.
 Closed shell SCF:
 Using DIIS extrapolation, IDIIS=  1040.
 NGot=  6442450944 LenX=  6441811192 LenY=  6441502612
 Requested convergence on RMS density matrix=1.00D-08 within 128 cycles.
 Requested convergence on MAX density matrix=1.00D-06.
 Requested convergence on             energy=1.00D-06.
 No special actions if energy rises.
 Fock matrices will be formed incrementally for  20 cycles.

 Cycle   1  Pass 1  IDiag  1:
 FoFJK:  IHMeth= 1 ICntrl=       0 DoSepK=F KAlg= 0 I1Cent=           0 FoldK=F
 IRaf= 690000000 NMat=       1 IRICut=       1 DoRegI=T DoRafI=F ISym2E= 0 IDoP0=0 IntGTp=1.
 FoFCou: FMM=F IPFlag=           0 FMFlag=      100000 FMFlg1=           0
         NFxFlg=           0 DoJE=F BraDBF=F KetDBF=F FulRan=T
         wScrn=  0.000000 ICntrl=         0 IOpCl=  0 I1Cent=           0 NGrid=           0
         NMat0=    1 NMatS0=      1 NMatT0=    0 NMatD0=    1 NMtDS0=    0 NMtDT0=    0
 Symmetry not used in FoFCou.
 Inv3:  Mode=1 IEnd=    48120075.
 Iteration    1 A*A^-1 deviation from unit magnitude is 7.99D-15 for   4005.
 Iteration    1 A*A^-1 deviation from orthogonality  is 4.04D-15 for   4004   3395.
 Iteration    1 A^-1*A deviation from unit magnitude is 8.22D-15 for   4005.
 Iteration    1 A^-1*A deviation from orthogonality  is 1.98D-15 for   3664   2427.
 E= -2296.16819985276    
 DIIS: error= 2.34D-02 at cycle   1 NSaved=   1.
 NSaved= 1 IEnMin= 1 EnMin= -2296.16819985276     IErMin= 1 ErrMin= 2.34D-02
 ErrMax= 2.34D-02  0.00D+00 EMaxC= 1.00D-01 BMatC= 7.87D-01 BMatP= 7.87D-01
 IDIUse=3 WtCom= 7.66D-01 WtEn= 2.34D-01
 Coeff-Com:  0.100D+01
 Coeff-En:   0.100D+01
 Coeff:      0.100D+01
 Gap=     0.149 Goal=   None    Shift=    0.000
 GapD=    0.149 DampG=1.000 DampE=0.500 DampFc=0.5000 IDamp=-1.
 Damping current iteration by 5.00D-01
 RMSDP=3.97D-03 MaxDP=5.34D-01              OVMax= 1.92D-01

 Cycle   2  Pass 1  IDiag  1:
 RMSU=  1.98D-03    CP:  9.98D-01
 E= -2296.35107189391     Delta-E=       -0.182872041157 Rises=F Damp=T
 DIIS: error= 8.81D-03 at cycle   2 NSaved=   2.
 NSaved= 2 IEnMin= 2 EnMin= -2296.35107189391     IErMin= 2 ErrMin= 8.81D-03
 ErrMax= 8.81D-03  0.00D+00 EMaxC= 1.00D-01 BMatC= 1.01D-01 BMatP= 7.87D-01
 IDIUse=3 WtCom= 9.12D-01 WtEn= 8.81D-02
 Coeff-Com:  0.199D+00 0.801D+00
 Coeff-En:   0.332D+00 0.668D+00
 Coeff:      0.211D+00 0.789D+00
 Gap=     0.200 Goal=   None    Shift=    0.000
 RMSDP=1.23D-03 MaxDP=1.22D-01 DE=-1.83D-01 OVMax= 1.55D-01

 Cycle   3  Pass 1  IDiag  1:
 RMSU=  9.75D-04    CP:  9.91D-01  6.22D-01
 E= -2296.74884445959     Delta-E=       -0.397772565674 Rises=F Damp=F
 DIIS: error= 7.16D-03 at cycle   3 NSaved=   3.
 NSaved= 3 IEnMin= 3 EnMin= -2296.74884445959     IErMin= 3 ErrMin= 7.16D-03
 ErrMax= 7.16D-03  0.00D+00 EMaxC= 1.00D-01 BMatC= 6.53D-02 BMatP= 1.01D-01
 IDIUse=3 WtCom= 9.28D-01 WtEn= 7.16D-02
 Coeff-Com:  0.542D-01 0.445D+00 0.501D+00
 Coeff-En:   0.000D+00 0.000D+00 0.100D+01
 Coeff:      0.503D-01 0.413D+00 0.537D+00
 Gap=     0.170 Goal=   None    Shift=    0.000
 RMSDP=6.93D-04 MaxDP=4.06D-02 DE=-3.98D-01 OVMax= 5.60D-02

 Cycle   4  Pass 1  IDiag  1:
 RMSU=  4.10D-04    CP:  9.95D-01  7.53D-01  4.95D-01
 E= -2296.79328544481     Delta-E=       -0.044440985223 Rises=F Damp=F
 DIIS: error= 2.92D-03 at cycle   4 NSaved=   4.
 NSaved= 4 IEnMin= 4 EnMin= -2296.79328544481     IErMin= 4 ErrMin= 2.92D-03
 ErrMax= 2.92D-03  0.00D+00 EMaxC= 1.00D-01 BMatC= 1.32D-02 BMatP= 6.53D-02
 IDIUse=3 WtCom= 9.71D-01 WtEn= 2.92D-02
 Coeff-Com: -0.267D-02 0.112D+00 0.325D+00 0.565D+00
 Coeff-En:   0.000D+00 0.000D+00 0.179D+00 0.821D+00
 Coeff:     -0.259D-02 0.109D+00 0.321D+00 0.573D+00
 Gap=     0.170 Goal=   None    Shift=    0.000
 RMSDP=2.39D-04 MaxDP=1.71D-02 DE=-4.44D-02 OVMax= 2.21D-02

 Cycle   5  Pass 1  IDiag  1:
 RMSU=  1.05D-04    CP:  9.94D-01  7.26D-01  6.27D-01  6.02D-01
 E= -2296.80316177398     Delta-E=       -0.009876329173 Rises=F Damp=F
 DIIS: error= 9.83D-04 at cycle   5 NSaved=   5.
 NSaved= 5 IEnMin= 5 EnMin= -2296.80316177398     IErMin= 5 ErrMin= 9.83D-04
 ErrMax= 9.83D-04  0.00D+00 EMaxC= 1.00D-01 BMatC= 9.86D-04 BMatP= 1.32D-02
 IDIUse=3 WtCom= 9.90D-01 WtEn= 9.83D-03
 Coeff-Com: -0.473D-02 0.276D-01 0.130D+00 0.313D+00 0.534D+00
 Coeff-En:   0.000D+00 0.000D+00 0.000D+00 0.000D+00 0.100D+01
 Coeff:     -0.469D-02 0.273D-01 0.129D+00 0.310D+00 0.539D+00
 Gap=     0.170 Goal=   None    Shift=    0.000
 RMSDP=6.15D-05 MaxDP=4.88D-03 DE=-9.88D-03 OVMax= 7.24D-03

 Cycle   6  Pass 1  IDiag  1:
 RMSU=  3.44D-05    CP:  9.94D-01  7.31D-01  6.29D-01  6.53D-01  5.72D-01
 E= -2296.80394923643     Delta-E=       -0.000787462453 Rises=F Damp=F
 DIIS: error= 1.68D-04 at cycle   6 NSaved=   6.
 NSaved= 6 IEnMin= 6 EnMin= -2296.80394923643     IErMin= 6 ErrMin= 1.68D-04
 ErrMax= 1.68D-04  0.00D+00 EMaxC= 1.00D-01 BMatC= 6.27D-05 BMatP= 9.86D-04
 IDIUse=3 WtCom= 9.98D-01 WtEn= 1.68D-03
 Coeff-Com: -0.216D-02 0.465D-02 0.357D-01 0.103D+00 0.270D+00 0.589D+00
 Coeff-En:   0.000D+00 0.000D+00 0.000D+00 0.000D+00 0.000D+00 0.100D+01
 Coeff:     -0.215D-02 0.464D-02 0.357D-01 0.103D+00 0.270D+00 0.590D+00
 Gap=     0.170 Goal=   None    Shift=    0.000
 RMSDP=1.69D-05 MaxDP=1.10D-03 DE=-7.87D-04 OVMax= 1.63D-03

 Cycle   7  Pass 1  IDiag  1:
 RMSU=  8.57D-06    CP:  9.94D-01  7.29D-01  6.29D-01  6.58D-01  6.24D-01
                    CP:  6.22D-01
 E= -2296.80399911880     Delta-E=       -0.000049882362 Rises=F Damp=F
 DIIS: error= 4.03D-05 at cycle   7 NSaved=   7.
 NSaved= 7 IEnMin= 7 EnMin= -2296.80399911880     IErMin= 7 ErrMin= 4.03D-05
 ErrMax= 4.03D-05  0.00D+00 EMaxC= 1.00D-01 BMatC= 4.13D-06 BMatP= 6.27D-05
 IDIUse=1 WtCom= 1.00D+00 WtEn= 0.00D+00
 Coeff-Com: -0.906D-03 0.659D-03 0.108D-01 0.352D-01 0.110D+00 0.305D+00
 Coeff-Com:  0.539D+00
 Coeff:     -0.906D-03 0.659D-03 0.108D-01 0.352D-01 0.110D+00 0.305D+00
 Coeff:      0.539D+00
 Gap=     0.171 Goal=   None    Shift=    0.000
 RMSDP=4.37D-06 MaxDP=2.46D-04 DE=-4.99D-05 OVMax= 3.55D-04

 Cycle   8  Pass 1  IDiag  1:
 RMSU=  2.75D-06    CP:  9.94D-01  7.29D-01  6.29D-01  6.58D-01  6.25D-01
                    CP:  6.67D-01  6.50D-01
 E= -2296.80400222895     Delta-E=       -0.000003110156 Rises=F Damp=F
 DIIS: error= 1.51D-05 at cycle   8 NSaved=   8.
 NSaved= 8 IEnMin= 8 EnMin= -2296.80400222895     IErMin= 8 ErrMin= 1.51D-05
 ErrMax= 1.51D-05  0.00D+00 EMaxC= 1.00D-01 BMatC= 4.19D-07 BMatP= 4.13D-06
 IDIUse=1 WtCom= 1.00D+00 WtEn= 0.00D+00
 Coeff-Com: -0.236D-03-0.140D-03 0.158D-02 0.656D-02 0.284D-01 0.961D-01
 Coeff-Com:  0.283D+00 0.585D+00
 Coeff:     -0.236D-03-0.140D-03 0.158D-02 0.656D-02 0.284D-01 0.961D-01
 Coeff:      0.283D+00 0.585D+00
 Gap=     0.171 Goal=   None    Shift=    0.000
 RMSDP=1.50D-06 MaxDP=9.70D-05 DE=-3.11D-06 OVMax= 1.29D-04

 Cycle   9  Pass 1  IDiag  1:
 RMSU=  1.06D-06    CP:  9.94D-01  7.30D-01  6.29D-01  6.58D-01  6.27D-01
                    CP:  6.71D-01  6.87D-01  6.52D-01
 E= -2296.80400248207     Delta-E=       -0.000000253117 Rises=F Damp=F
 DIIS: error= 8.10D-06 at cycle   9 NSaved=   9.
 NSaved= 9 IEnMin= 9 EnMin= -2296.80400248207     IErMin= 9 ErrMin= 8.10D-06
 ErrMax= 8.10D-06  0.00D+00 EMaxC= 1.00D-01 BMatC= 8.07D-08 BMatP= 4.19D-07
 IDIUse=1 WtCom= 1.00D+00 WtEn= 0.00D+00
 Coeff-Com: -0.322D-04-0.112D-03-0.296D-03-0.374D-03 0.345D-02 0.197D-01
 Coeff-Com:  0.101D+00 0.354D+00 0.523D+00
 Coeff:     -0.322D-04-0.112D-03-0.296D-03-0.374D-03 0.345D-02 0.197D-01
 Coeff:      0.101D+00 0.354D+00 0.523D+00
 Gap=     0.171 Goal=   None    Shift=    0.000
 RMSDP=6.33D-07 MaxDP=5.09D-05 DE=-2.53D-07 OVMax= 6.42D-05

 Cycle  10  Pass 1  IDiag  1:
 RMSU=  3.15D-07    CP:  9.94D-01  7.29D-01  6.29D-01  6.58D-01  6.28D-01
                    CP:  6.71D-01  6.97D-01  7.36D-01  5.52D-01
 E= -2296.80400254574     Delta-E=       -0.000000063667 Rises=F Damp=F
 DIIS: error= 2.49D-06 at cycle  10 NSaved=  10.
 NSaved=10 IEnMin=10 EnMin= -2296.80400254574     IErMin=10 ErrMin= 2.49D-06
 ErrMax= 2.49D-06  0.00D+00 EMaxC= 1.00D-01 BMatC= 7.41D-09 BMatP= 8.07D-08
 IDIUse=1 WtCom= 1.00D+00 WtEn= 0.00D+00
 Coeff-Com: -0.789D-06-0.429D-04-0.290D-03-0.758D-03-0.504D-03 0.289D-02
 Coeff-Com:  0.323D-01 0.149D+00 0.304D+00 0.514D+00
 Coeff:     -0.789D-06-0.429D-04-0.290D-03-0.758D-03-0.504D-03 0.289D-02
 Coeff:      0.323D-01 0.149D+00 0.304D+00 0.514D+00
 Gap=     0.171 Goal=   None    Shift=    0.000
 RMSDP=1.82D-07 MaxDP=1.30D-05 DE=-6.37D-08 OVMax= 1.85D-05

 Cycle  11  Pass 1  IDiag  1:
 RMSU=  1.15D-07    CP:  9.94D-01  7.29D-01  6.29D-01  6.58D-01  6.28D-01
                    CP:  6.71D-01  7.01D-01  7.36D-01  6.18D-01  6.42D-01
 E= -2296.80400255119     Delta-E=       -0.000000005456 Rises=F Damp=F
 DIIS: error= 5.22D-07 at cycle  11 NSaved=  11.
 NSaved=11 IEnMin=11 EnMin= -2296.80400255119     IErMin=11 ErrMin= 5.22D-07
 ErrMax= 5.22D-07  0.00D+00 EMaxC= 1.00D-01 BMatC= 6.24D-10 BMatP= 7.41D-09
 IDIUse=1 WtCom= 1.00D+00 WtEn= 0.00D+00
 Coeff-Com:  0.315D-05-0.115D-04-0.141D-03-0.404D-03-0.803D-03-0.978D-03
 Coeff-Com:  0.483D-02 0.370D-01 0.103D+00 0.280D+00 0.577D+00
 Coeff:      0.315D-05-0.115D-04-0.141D-03-0.404D-03-0.803D-03-0.978D-03
 Coeff:      0.483D-02 0.370D-01 0.103D+00 0.280D+00 0.577D+00
 Gap=     0.171 Goal=   None    Shift=    0.000
 RMSDP=5.50D-08 MaxDP=4.48D-06 DE=-5.46D-09 OVMax= 5.37D-06

 Cycle  12  Pass 1  IDiag  1:
 RMSU=  3.22D-08    CP:  9.94D-01  7.29D-01  6.29D-01  6.58D-01  6.28D-01
                    CP:  6.71D-01  7.00D-01  7.40D-01  6.28D-01  7.05D-01
                    CP:  7.00D-01
 E= -2296.80400255168     Delta-E=       -0.000000000490 Rises=F Damp=F
 DIIS: error= 1.72D-07 at cycle  12 NSaved=  12.
 NSaved=12 IEnMin=12 EnMin= -2296.80400255168     IErMin=12 ErrMin= 1.72D-07
 ErrMax= 1.72D-07  0.00D+00 EMaxC= 1.00D-01 BMatC= 4.71D-11 BMatP= 6.24D-10
 IDIUse=1 WtCom= 1.00D+00 WtEn= 0.00D+00
 Coeff-Com:  0.139D-05-0.197D-05-0.475D-04-0.137D-03-0.372D-03-0.758D-03
 Coeff-Com: -0.427D-03 0.525D-02 0.251D-01 0.956D-01 0.285D+00 0.591D+00
 Coeff:      0.139D-05-0.197D-05-0.475D-04-0.137D-03-0.372D-03-0.758D-03
 Coeff:     -0.427D-03 0.525D-02 0.251D-01 0.956D-01 0.285D+00 0.591D+00
 Gap=     0.171 Goal=   None    Shift=    0.000
 RMSDP=1.75D-08 MaxDP=9.77D-07 DE=-4.90D-10 OVMax= 2.71D-06

 Cycle  13  Pass 1  IDiag  1:
 RMSU=  1.22D-08    CP:  9.94D-01  7.29D-01  6.29D-01  6.58D-01  6.28D-01
                    CP:  6.71D-01  7.00D-01  7.41D-01  6.29D-01  7.09D-01
                    CP:  7.30D-01  6.59D-01
 E= -2296.80400255173     Delta-E=       -0.000000000051 Rises=F Damp=F
 DIIS: error= 9.77D-08 at cycle  13 NSaved=  13.
 NSaved=13 IEnMin=13 EnMin= -2296.80400255173     IErMin=13 ErrMin= 9.77D-08
 ErrMax= 9.77D-08  0.00D+00 EMaxC= 1.00D-01 BMatC= 9.02D-12 BMatP= 4.71D-11
 IDIUse=1 WtCom= 1.00D+00 WtEn= 0.00D+00
 Coeff-Com:  0.401D-06 0.460D-06-0.101D-04-0.286D-04-0.117D-03-0.314D-03
 Coeff-Com: -0.763D-03-0.155D-02 0.157D-02 0.188D-01 0.832D-01 0.340D+00
 Coeff-Com:  0.559D+00
 Coeff:      0.401D-06 0.460D-06-0.101D-04-0.286D-04-0.117D-03-0.314D-03
 Coeff:     -0.763D-03-0.155D-02 0.157D-02 0.188D-01 0.832D-01 0.340D+00
 Coeff:      0.559D+00
 Gap=     0.171 Goal=   None    Shift=    0.000
 RMSDP=7.18D-09 MaxDP=4.99D-07 DE=-5.09D-11 OVMax= 1.54D-06

 Error on total polarization charges =  0.00993
 SCF Done:  E(RmPW3PBE) =  -2296.80400255     A.U. after   13 cycles
            NFock= 13  Conv=0.72D-08     -V/T= 2.0073
 KE= 2.280250036918D+03 PE=-1.396193760383D+04 EE= 5.106791887738D+03
 Leave Link  502 at Sat Jun 15 08:57:10 2019, MaxMem=  6442450944 cpu:            7716.4 elap:             257.6
 (Enter /home/ekwan/sw/g16/l701.exe)
 ... and contract with generalized density number  0.
 Compute integral first derivatives.
 D1PCM: PCM CHGder 1st derivatives, ID1Alg=3 FixD1E=F DoIter=F DoCFld=F I1PDM=0.
 GePol: Maximum number of non-zero 1st derivatives   =     220
 Leave Link  701 at Sat Jun 15 08:57:22 2019, MaxMem=  6442450944 cpu:             347.2 elap:              12.3
 (Enter /home/ekwan/sw/g16/l702.exe)
 L702 exits ... SP integral derivatives will be done elsewhere.
 Leave Link  702 at Sat Jun 15 08:57:23 2019, MaxMem=  6442450944 cpu:               2.8 elap:               0.3
 (Enter /home/ekwan/sw/g16/l703.exe)
 Integral derivatives from FoFJK, PRISM(SPDF).
 Compute integral first derivatives, UseDBF=F ICtDFT=           0.
 Calling FoFJK, ICntrl=      2127 FMM=F ISym2X=0 I1Cent= 0 IOpClX= 0 NMat=1 NMatS=1 NMatT=0.
 FoFJK:  IHMeth= 1 ICntrl=    2127 DoSepK=F KAlg= 0 I1Cent=           0 FoldK=F
 IRaf=         0 NMat=       1 IRICut=       1 DoRegI=T DoRafI=F ISym2E= 0 IDoP0=0 IntGTp=1.
 FoFCou: FMM=F IPFlag=           0 FMFlag=      100000 FMFlg1=         800
         NFxFlg=           0 DoJE=F BraDBF=F KetDBF=F FulRan=T
         wScrn=  0.000000 ICntrl=      2127 IOpCl=  0 I1Cent=           0 NGrid=           0
         NMat0=    1 NMatS0=      1 NMatT0=    0 NMatD0=    1 NMtDS0=    0 NMtDT0=    0
 Symmetry not used in FoFCou.
 Leave Link  703 at Sat Jun 15 08:58:03 2019, MaxMem=  6442450944 cpu:            1173.1 elap:              40.4
 (Enter /home/ekwan/sw/g16/l716.exe)
 Dipole        = 4.25749619D-01 1.40674837D+00 1.57616035D-02
 ***** Axes restored to original set *****
 -------------------------------------------------------------------
 Center     Atomic                   Forces (Hartrees/Bohr)
 Number     Number              X              Y              Z
 -------------------------------------------------------------------
      1        6          -0.000000105   -0.000000314    0.000002055
      2        6           0.000006823   -0.000002874    0.000003627
      3        6           0.000002172    0.000012566   -0.000000892
      4        6           0.000001197   -0.000000033   -0.000003464
      5        6          -0.000000146    0.000002388   -0.000000270
      6        1          -0.000000596   -0.000003521    0.000000680
      7        1           0.000000289   -0.000001113   -0.000000944
      8        1           0.000000442   -0.000000222    0.000000480
      9        1           0.000000316    0.000000691   -0.000000076
     10        1          -0.000000214   -0.000000282   -0.000000850
     11        8          -0.000003237   -0.000002744   -0.000000109
     12        8          -0.000000373   -0.000010412   -0.000000065
     13        8          -0.000005286   -0.000000151   -0.000003091
     14        8          -0.000000989   -0.000000116   -0.000000487
     15        8           0.000002259   -0.000001601   -0.000001065
     16        6          -0.000001499    0.000000635    0.000001393
     17        1          -0.000001585    0.000001912   -0.000001270
     18        1           0.000001469   -0.000000085   -0.000001976
     19        8           0.000002257    0.000002005   -0.000002471
     20       16          -0.000003635   -0.000006734   -0.000003320
     21        8           0.000003067    0.000008834    0.000000390
     22        8           0.000001881   -0.000003716    0.000011324
     23        6           0.000002506    0.000000406   -0.000002191
     24        6          -0.000004186    0.000003433    0.000002638
     25        6           0.000002660    0.000000748    0.000002867
     26        6           0.000004561   -0.000007156    0.000002087
     27        1           0.000000994    0.000000874    0.000001761
     28        6          -0.000005127    0.000001432    0.000004435
     29        1          -0.000000714   -0.000001462   -0.000000414
     30        6          -0.000002907    0.000000468   -0.000005770
     31        1           0.000000515    0.000000686    0.000000035
     32        6           0.000001147   -0.000001375    0.000003324
     33        1          -0.000000339   -0.000002539    0.000001241
     34        1          -0.000001049   -0.000001028    0.000000281
     35        1           0.000001417   -0.000000430    0.000002401
     36        6          -0.000001352    0.000002547    0.000000806
     37        1          -0.000000112    0.000001214    0.000000836
     38        1           0.000000015    0.000001053    0.000000805
     39        1           0.000000160    0.000000201    0.000001244
     40        6          -0.000002683    0.000004345   -0.000001497
     41        1           0.000000148    0.000002076   -0.000001262
     42        1           0.000000734    0.000001167   -0.000000841
     43        1          -0.000000131    0.000001009   -0.000001813
     44        6          -0.000002579   -0.000000916   -0.000001757
     45        1           0.000000691   -0.000001403   -0.000002399
     46        1           0.000000408   -0.000000810   -0.000001986
     47        1           0.000000063   -0.000001986   -0.000001961
     48        6           0.000003756    0.000001881   -0.000002234
     49        9          -0.000001892    0.000001145    0.000001411
     50        9          -0.000001634    0.000000970    0.000001256
     51        9          -0.000000309    0.000002762    0.000003051
     52        6          -0.000001792   -0.000007904    0.000000699
     53        9           0.000001608    0.000002132   -0.000002976
     54        9           0.000001762    0.000001559   -0.000001621
     55        9          -0.000000847   -0.000000208   -0.000002053
 -------------------------------------------------------------------
 Cartesian Forces:  Max     0.000012566 RMS     0.000002793
 Leave Link  716 at Sat Jun 15 08:58:04 2019, MaxMem=  6442450944 cpu:               2.1 elap:               0.2
 (Enter /home/ekwan/sw/g16/l103.exe)

 GradGradGradGradGradGradGradGradGradGradGradGradGradGradGradGradGradGrad
 Berny optimization.
 FormGI is forming the generalized inverse of G from B-inverse, IUseBI=4.
 Internal  Forces:  Max     0.000010175 RMS     0.000001615
 Search for a local minimum.
 Step number   1 out of a maximum of  291
 All quantities printed in internal units (Hartrees-Bohrs-Radians)
 RMS Force = .16149D-05 SwitMx=.10000D-02 MixMth= 2
 Mixed Optimization -- En-DIIS/RFO-DIIS
 Second derivative matrix not updated -- first step.
 ITU=  0
     Eigenvalues ---    0.00460   0.00583   0.00604   0.00643   0.00679
     Eigenvalues ---    0.00691   0.00938   0.01384   0.01462   0.01466
     Eigenvalues ---    0.01472   0.01479   0.01513   0.01523   0.01549
     Eigenvalues ---    0.01564   0.01610   0.01618   0.01647   0.02178
     Eigenvalues ---    0.02181   0.02188   0.02193   0.02198   0.02202
     Eigenvalues ---    0.02305   0.02896   0.03318   0.04392   0.04575
     Eigenvalues ---    0.04670   0.04838   0.04914   0.05239   0.05271
     Eigenvalues ---    0.05789   0.06069   0.06552   0.06984   0.07036
     Eigenvalues ---    0.07166   0.07794   0.09299   0.10000   0.10027
     Eigenvalues ---    0.10058   0.10088   0.10570   0.10585   0.10604
     Eigenvalues ---    0.10606   0.10710   0.10747   0.10824   0.10897
     Eigenvalues ---    0.10941   0.10983   0.11476   0.11796   0.11849
     Eigenvalues ---    0.14144   0.14981   0.15999   0.16000   0.16000
     Eigenvalues ---    0.16000   0.16000   0.16000   0.16000   0.16000
     Eigenvalues ---    0.16000   0.16000   0.16000   0.16000   0.16000
     Eigenvalues ---    0.16000   0.16000   0.16425   0.16901   0.17503
     Eigenvalues ---    0.18696   0.19710   0.19791   0.20853   0.22139
     Eigenvalues ---    0.23481   0.23484   0.23503   0.24968   0.24975
     Eigenvalues ---    0.25000   0.25000   0.25000   0.25000   0.25000
     Eigenvalues ---    0.25000   0.25000   0.25000   0.25000   0.25000
     Eigenvalues ---    0.25000   0.25000   0.25000   0.27175   0.27560
     Eigenvalues ---    0.28715   0.28862   0.29136   0.30068   0.31695
     Eigenvalues ---    0.31793   0.33342   0.33639   0.33655   0.33664
     Eigenvalues ---    0.33689   0.33697   0.33753   0.33762   0.33802
     Eigenvalues ---    0.33851   0.34068   0.34081   0.34152   0.34281
     Eigenvalues ---    0.34384   0.34397   0.34400   0.34549   0.34615
     Eigenvalues ---    0.35388   0.35398   0.35448   0.37341   0.38262
     Eigenvalues ---    0.42702   0.42804   0.42855   0.42911   0.42978
     Eigenvalues ---    0.43051   0.43455   0.43565   0.44057   0.45068
     Eigenvalues ---    0.46737   0.46774   0.46885   0.46887   0.46938
     Eigenvalues ---    0.47063   0.54853   0.56011   0.56476   0.56575
     Eigenvalues ---    0.56820   0.56859   0.91638   0.93863
 RFO step:  Lambda= 0.00000000D+00 EMin= 4.60094381D-03
 Linear search not attempted -- first point.
 Iteration  1 RMS(Cart)=  0.00023624 RMS(Int)=  0.00000001
 Iteration  2 RMS(Cart)=  0.00000002 RMS(Int)=  0.00000000
 ITry= 1 IFail=0 DXMaxC= 1.05D-03 DCOld= 1.00D+10 DXMaxT= 3.00D-01 DXLimC= 3.00D+00 Rises=F
 Variable       Old X    -DE/DX   Delta X   Delta X   Delta X     New X
                                 (Linear)    (Quad)   (Total)
    R1        2.88879   0.00000   0.00000   0.00000   0.00000   2.88878
    R2        2.88751   0.00000   0.00000   0.00000   0.00000   2.88751
    R3        2.07944   0.00000   0.00000   0.00000   0.00000   2.07944
    R4        2.66979   0.00000   0.00000  -0.00001  -0.00001   2.66978
    R5        2.90443   0.00000   0.00000   0.00000   0.00000   2.90443
    R6        2.08455   0.00000   0.00000   0.00000   0.00000   2.08455
    R7        2.65197   0.00000   0.00000  -0.00001  -0.00001   2.65197
    R8        2.06305   0.00000   0.00000   0.00000   0.00000   2.06305
    R9        2.61200   0.00000   0.00000  -0.00001  -0.00001   2.61199
   R10        2.75335   0.00001   0.00000   0.00001   0.00001   2.75336
   R11        2.89209   0.00000   0.00000   0.00000   0.00000   2.89209
   R12        2.07902   0.00000   0.00000   0.00000   0.00000   2.07901
   R13        2.72062   0.00000   0.00000   0.00000   0.00000   2.72062
   R14        2.87828   0.00000   0.00000   0.00000   0.00000   2.87829
   R15        2.07665   0.00000   0.00000   0.00000   0.00000   2.07665
   R16        2.67112   0.00000   0.00000   0.00000   0.00000   2.67112
   R17        3.06843   0.00000   0.00000  -0.00001  -0.00001   3.06843
   R18        2.67849   0.00000   0.00000   0.00000   0.00000   2.67848
   R19        2.67697   0.00000   0.00000   0.00000   0.00000   2.67696
   R20        2.67780   0.00000   0.00000   0.00000   0.00000   2.67780
   R21        2.06858   0.00000   0.00000   0.00000   0.00000   2.06858
   R22        2.07845   0.00000   0.00000   0.00000   0.00000   2.07845
   R23        2.66387   0.00000   0.00000   0.00000   0.00000   2.66387
   R24        2.67607   0.00000   0.00000   0.00000   0.00000   2.67607
   R25        2.74902  -0.00001   0.00000  -0.00001  -0.00001   2.74901
   R26        2.75887  -0.00001   0.00000  -0.00001  -0.00001   2.75886
   R27        3.36811   0.00000   0.00000   0.00001   0.00001   3.36812
   R28        2.62904   0.00000   0.00000   0.00000   0.00000   2.62904
   R29        2.62931   0.00000   0.00000   0.00000   0.00000   2.62931
   R30        2.63222   0.00000   0.00000  -0.00001  -0.00001   2.63222
   R31        2.05049   0.00000   0.00000   0.00000   0.00000   2.05049
   R32        2.63078   0.00000   0.00000   0.00001   0.00001   2.63078
   R33        2.04953   0.00000   0.00000   0.00000   0.00000   2.04953
   R34        2.63228   0.00000   0.00000   0.00001   0.00001   2.63229
   R35        2.84705   0.00000   0.00000   0.00000   0.00000   2.84705
   R36        2.63332   0.00000   0.00000  -0.00001  -0.00001   2.63331
   R37        2.84525   0.00000   0.00000   0.00000   0.00000   2.84525
   R38        2.05033   0.00000   0.00000   0.00000   0.00000   2.05033
   R39        2.07582   0.00000   0.00000   0.00000   0.00000   2.07582
   R40        2.07749   0.00000   0.00000   0.00000   0.00000   2.07749
   R41        2.06413   0.00000   0.00000   0.00000   0.00000   2.06413
   R42        2.06660   0.00000   0.00000   0.00000   0.00000   2.06660
   R43        2.07858   0.00000   0.00000   0.00000   0.00000   2.07858
   R44        2.07075   0.00000   0.00000   0.00000   0.00000   2.07075
   R45        2.06665   0.00000   0.00000   0.00000   0.00000   2.06665
   R46        2.07193   0.00000   0.00000   0.00000   0.00000   2.07193
   R47        2.07734   0.00000   0.00000   0.00000   0.00000   2.07734
   R48        2.06687   0.00000   0.00000   0.00000   0.00000   2.06687
   R49        2.07916   0.00000   0.00000   0.00000   0.00000   2.07916
   R50        2.07215   0.00000   0.00000   0.00000   0.00000   2.07215
   R51        2.53759   0.00000   0.00000   0.00000   0.00000   2.53759
   R52        2.54245   0.00000   0.00000   0.00000   0.00000   2.54245
   R53        2.53843   0.00000   0.00000   0.00000   0.00000   2.53843
   R54        2.55263   0.00000   0.00000   0.00000   0.00000   2.55264
   R55        2.53517   0.00000   0.00000   0.00000   0.00000   2.53516
   R56        2.53550   0.00000   0.00000   0.00000   0.00000   2.53550
    A1        1.91961   0.00000   0.00000  -0.00001  -0.00001   1.91960
    A2        1.91183   0.00000   0.00000   0.00000   0.00000   1.91183
    A3        1.93021   0.00000   0.00000   0.00000   0.00000   1.93021
    A4        1.89360   0.00000   0.00000   0.00001   0.00001   1.89361
    A5        1.88262   0.00000   0.00000   0.00000   0.00000   1.88262
    A6        1.92545   0.00000   0.00000   0.00000   0.00000   1.92545
    A7        1.93951   0.00000   0.00000  -0.00002  -0.00002   1.93949
    A8        1.87878   0.00000   0.00000   0.00001   0.00001   1.87879
    A9        1.90702   0.00000   0.00000   0.00001   0.00001   1.90703
   A10        1.84569   0.00000   0.00000   0.00000   0.00000   1.84570
   A11        1.96499   0.00000   0.00000   0.00000   0.00000   1.96499
   A12        1.92534   0.00000   0.00000  -0.00001  -0.00001   1.92533
   A13        1.95252   0.00000   0.00000   0.00001   0.00001   1.95253
   A14        1.96990   0.00000   0.00000   0.00002   0.00002   1.96992
   A15        1.85402   0.00000   0.00000  -0.00001  -0.00001   1.85401
   A16        1.86054   0.00000   0.00000   0.00001   0.00001   1.86055
   A17        1.88416   0.00000   0.00000  -0.00001  -0.00001   1.88415
   A18        1.94221   0.00000   0.00000  -0.00001  -0.00001   1.94219
   A19        1.89697   0.00000   0.00000   0.00000   0.00000   1.89697
   A20        1.93707   0.00000   0.00000   0.00001   0.00001   1.93708
   A21        1.96327   0.00000   0.00000   0.00000   0.00000   1.96326
   A22        1.90073   0.00000   0.00000   0.00000   0.00000   1.90074
   A23        1.87566   0.00000   0.00000   0.00001   0.00001   1.87567
   A24        1.88834   0.00000   0.00000  -0.00002  -0.00002   1.88833
   A25        1.94521   0.00000   0.00000   0.00001   0.00001   1.94522
   A26        1.89973   0.00000   0.00000   0.00000   0.00000   1.89973
   A27        1.92310   0.00000   0.00000   0.00000   0.00000   1.92310
   A28        1.89191   0.00000   0.00000  -0.00001  -0.00001   1.89190
   A29        1.87203   0.00000   0.00000   0.00000   0.00000   1.87203
   A30        1.93181   0.00000   0.00000   0.00000   0.00000   1.93181
   A31        2.01588   0.00000   0.00000   0.00000   0.00000   2.01588
   A32        2.08618   0.00000   0.00000  -0.00002  -0.00002   2.08617
   A33        1.99921   0.00000   0.00000   0.00000   0.00000   1.99921
   A34        2.00058   0.00000   0.00000  -0.00001  -0.00001   2.00057
   A35        1.99334   0.00000   0.00000   0.00000   0.00000   1.99333
   A36        1.86599   0.00000   0.00000   0.00003   0.00003   1.86602
   A37        1.90590   0.00000   0.00000  -0.00001  -0.00001   1.90589
   A38        2.00519   0.00000   0.00000  -0.00002  -0.00002   2.00517
   A39        1.89068   0.00000   0.00000   0.00000   0.00000   1.89068
   A40        1.85757   0.00000   0.00000   0.00002   0.00002   1.85759
   A41        1.93368   0.00000   0.00000  -0.00001  -0.00001   1.93367
   A42        2.00293  -0.00001   0.00000  -0.00002  -0.00002   2.00290
   A43        1.82349   0.00000   0.00000  -0.00002  -0.00002   1.82347
   A44        1.89935   0.00000   0.00000  -0.00002  -0.00002   1.89933
   A45        1.81631   0.00000   0.00000   0.00001   0.00001   1.81632
   A46        2.11526   0.00000   0.00000   0.00001   0.00001   2.11527
   A47        1.89210   0.00000   0.00000   0.00001   0.00001   1.89211
   A48        1.89439   0.00000   0.00000   0.00001   0.00001   1.89440
   A49        2.07425   0.00000   0.00000  -0.00001  -0.00001   2.07424
   A50        2.07808   0.00000   0.00000   0.00001   0.00001   2.07809
   A51        2.13086   0.00000   0.00000  -0.00001  -0.00001   2.13085
   A52        2.06787   0.00000   0.00000   0.00001   0.00001   2.06788
   A53        2.10244   0.00000   0.00000  -0.00001  -0.00001   2.10243
   A54        2.11285   0.00000   0.00000   0.00000   0.00000   2.11285
   A55        2.06711   0.00000   0.00000   0.00001   0.00001   2.06711
   A56        2.10651   0.00000   0.00000   0.00000   0.00000   2.10651
   A57        2.10955   0.00000   0.00000  -0.00001  -0.00001   2.10954
   A58        2.10425   0.00000   0.00000   0.00000   0.00000   2.10426
   A59        2.08719   0.00000   0.00000   0.00001   0.00001   2.08720
   A60        2.09086   0.00000   0.00000  -0.00001  -0.00001   2.09084
   A61        2.10537   0.00000   0.00000   0.00000   0.00000   2.10537
   A62        2.08419   0.00000   0.00000  -0.00001  -0.00001   2.08418
   A63        2.09258   0.00000   0.00000   0.00002   0.00002   2.09259
   A64        2.09085   0.00000   0.00000   0.00000   0.00000   2.09085
   A65        2.09620   0.00000   0.00000   0.00000   0.00000   2.09620
   A66        2.09613   0.00000   0.00000   0.00000   0.00000   2.09613
   A67        1.96007   0.00000   0.00000   0.00000   0.00000   1.96007
   A68        1.93915   0.00000   0.00000   0.00000   0.00000   1.93915
   A69        1.86006   0.00000   0.00000   0.00000   0.00000   1.86006
   A70        1.90266   0.00000   0.00000   0.00000   0.00000   1.90266
   A71        1.89482   0.00000   0.00000   0.00001   0.00001   1.89483
   A72        1.90566   0.00000   0.00000   0.00000   0.00000   1.90565
   A73        1.85949   0.00000   0.00000   0.00000   0.00000   1.85949
   A74        1.94064   0.00000   0.00000   0.00000   0.00000   1.94064
   A75        1.94985   0.00000   0.00000   0.00000   0.00000   1.94986
   A76        1.89916   0.00000   0.00000   0.00000   0.00000   1.89916
   A77        1.90909   0.00000   0.00000   0.00000   0.00000   1.90909
   A78        1.90445   0.00000   0.00000   0.00000   0.00000   1.90445
   A79        1.86082   0.00000   0.00000   0.00000   0.00000   1.86082
   A80        1.94357   0.00000   0.00000   0.00000   0.00000   1.94357
   A81        1.94072   0.00000   0.00000   0.00000   0.00000   1.94072
   A82        1.90821   0.00000   0.00000   0.00000   0.00000   1.90820
   A83        1.90216   0.00000   0.00000   0.00000   0.00000   1.90216
   A84        1.90733   0.00000   0.00000   0.00000   0.00000   1.90733
   A85        1.86232   0.00000   0.00000   0.00000   0.00000   1.86231
   A86        1.93799   0.00000   0.00000   0.00000   0.00000   1.93800
   A87        1.96002   0.00000   0.00000  -0.00001  -0.00001   1.96002
   A88        1.90091   0.00000   0.00000   0.00001   0.00001   1.90092
   A89        1.90625   0.00000   0.00000   0.00000   0.00000   1.90625
   A90        1.89531   0.00000   0.00000   0.00000   0.00000   1.89531
   A91        1.94618   0.00000   0.00000   0.00001   0.00001   1.94619
   A92        1.94070   0.00000   0.00000   0.00000   0.00000   1.94070
   A93        1.94601   0.00000   0.00000   0.00000   0.00000   1.94601
   A94        1.87252   0.00000   0.00000   0.00000   0.00000   1.87252
   A95        1.88299   0.00000   0.00000  -0.00001  -0.00001   1.88298
   A96        1.87185   0.00000   0.00000   0.00000   0.00000   1.87185
   A97        1.93707   0.00000   0.00000   0.00001   0.00001   1.93708
   A98        1.95076   0.00000   0.00000   0.00002   0.00002   1.95078
[...]
 28,0.00000086,-0.00000955,0.00001021,0.00000055,-0.00072544,0.00009843
 ,0.00021540,0.00013910,0.00006407,-0.00003345,-0.00039035,-0.00032017,
 0.00031952,0.00023833,-0.00006477,-0.00006077,0.00093084,0.00220748,-0
 .00151553,-0.00009815,-0.00047688,0.00047626,-0.00065021,-0.00067217,0
 .00022745,-0.00033967,-0.00030329,0.00056430,-0.01247225,-0.03602650,0
 .54684910,0.00002211,-0.00013477,-0.00005869,0.00004228,0.00000359,-0.
 00006275,-0.00001535,-0.00063046,-0.00000676,-0.00024624,-0.00043281,-
 0.00041633,0.00008475,0.00017733,0.00018705,-0.00001333,0.00003456,0.0
 0000725,0.00002142,0.00000543,0.00000421,-0.00000602,0.00001311,-0.000
 00690,0.00000002,0.00002606,-0.00000895,0.00003412,-0.00001921,-0.0000
 0204,-0.00013564,0.00042181,0.00024058,0.00049193,0.00038284,0.0000228
 5,-0.00005931,0.00008777,0.00005706,-0.00013509,0.00011365,-0.00003166
 ,-0.00012263,0.00001994,-0.00007234,0.00168389,0.00051485,0.00043663,-
 0.00019792,0.00004212,-0.00012974,-0.00100914,0.00009791,-0.00037541,-
 0.00100052,-0.00029020,-0.00029554,-0.00084099,0.00001914,0.00023068,0
 .00019923,-0.00018062,-0.00003291,0.00019057,-0.00000106,-0.00010816,0
 .00078914,-0.00094428,0.00047465,0.00043346,-0.00008540,-0.00051611,-0
 .00097873,-0.00093011,0.00075267,-0.00026053,0.00032276,-0.00007800,-0
 .00000993,-0.00003052,-0.00002736,0.00770042,-0.00588510,-0.00374954,-
 0.00018582,-0.00017300,-0.00023851,0.00025293,0.00046553,0.00071170,-0
 .00006412,0.00020199,-0.00041623,0.00000773,-0.00000214,-0.00004289,0.
 00000196,-0.00000648,0.00000851,0.00000272,-0.00000149,0.00000584,-0.0
 0000645,0.00000633,0.00000590,0.00001748,-0.00006912,0.00004143,-0.000
 01165,0.00000875,-0.00000668,0.00000333,0.00000809,-0.00000827,-0.0000
 0354,0.00001570,0.00000017,0.00008360,0.00004957,0.00006409,-0.0000041
 1,-0.00000497,-0.00001977,-0.00002454,-0.00000518,-0.00000216,0.000009
 24,0.00000878,0.00000711,0.00109818,-0.00036350,0.00040846,-0.00022809
 ,-0.00004532,-0.00001758,-0.00074214,0.00036215,-0.00005064,-0.0001597
 8,0.00002407,0.00003611,-0.00000993,0.00006141,-0.00037097,0.00005594,
 -0.00006257,0.00013380,-0.00004655,-0.00004801,0.00006903,-0.00001911,
 0.00000844,0.00011115,-0.10968752,-0.06825817,-0.02865144,0.16187586,-
 0.00006393,-0.00012109,-0.00012175,-0.00012135,0.00013160,-0.00007038,
 -0.00040822,-0.00109931,0.00027619,-0.00026853,-0.00047886,-0.00049433
 ,0.00002032,0.00008619,0.00005376,-0.00002624,0.00004868,-0.00000658,0
 .00008749,0.00000567,0.00001546,-0.00000597,0.00002465,-0.00001660,-0.
 00001604,0.00004809,-0.00004577,0.00005733,-0.00000816,0.00000583,0.00
 021154,0.00066892,0.00034619,0.00166239,0.00064079,-0.00005743,0.00008
 916,0.00001924,-0.00002123,0.00003277,0.00007852,0.00004449,-0.0000163
 4,0.00010858,0.00007505,0.00099465,0.00012719,0.00049312,-0.00006757,0
 .00005114,-0.00006135,0.00059769,-0.00085342,0.00028702,-0.00052896,0.
 00026267,-0.00041705,-0.00357627,0.00158870,0.00150833,0.00083084,-0.0
 0112578,-0.00020905,0.00087497,-0.00031783,-0.00087443,0.00159424,-0.0
 0025215,0.00160161,0.00014950,-0.00116319,0.00029187,-0.00259051,-0.00
 037623,0.00222585,0.00164422,-0.00004778,0.00199042,-0.00019230,-0.000
 04204,-0.00016783,-0.02188041,-0.04357975,-0.01316419,-0.00078016,-0.0
 0051422,-0.00081633,0.00263638,-0.00158373,-0.00258653,-0.00094544,-0.
 00047886,-0.00065380,-0.00005849,0.00000045,0.00005355,-0.00000161,-0.
 00000092,0.00001261,0.00001686,0.00001569,-0.00000676,0.00000182,-0.00
 000398,-0.00000193,-0.00001574,-0.00000873,0.00001012,0.00000625,0.000
 00357,0.00000098,0.00000094,-0.00000444,-0.00000465,-0.00000824,0.0000
 0617,0.00000262,0.00000226,-0.00005939,0.00001469,0.00000434,0.0000014
 3,-0.00000129,-0.00000751,0.00000559,-0.00000163,0.00001351,0.00002791
 ,-0.00000210,0.00122458,-0.00032704,0.00066360,-0.00020515,-0.00001809
 ,-0.00003345,0.00006498,0.00040762,-0.00038384,-0.00024546,0.00001772,
 0.00002172,0.00181431,0.00075922,-0.00232738,-0.00011118,-0.00060724,0
 .00100319,-0.00074996,-0.00051364,0.00036319,-0.00048820,0.00017209,0.
 00078409,-0.07114763,-0.20119916,-0.05083724,0.12245794,0.24340042,0.0
 0001668,-0.00008338,-0.00004396,0.00003618,-0.00001692,-0.00003697,0.0
 0003546,-0.00022682,-0.00007042,-0.00014543,-0.00028269,-0.00031998,0.
 00005986,0.00012016,0.00011585,-0.00001757,0.00002743,0.00001056,-0.00
 000261,0.00000134,0.00000134,-0.00000246,0.00000353,-0.00000012,0.0000
 0495,-0.00000195,0.00001083,0.00001085,-0.00001455,-0.00000230,-0.0001
 0175,0.00019921,0.00020526,0.00004206,0.00012501,0.00009377,-0.0000466
 5,0.00005280,0.00006105,-0.00009259,0.00006963,-0.00001270,-0.00008380
 ,0.00000924,-0.00002643,0.00102638,0.00045735,0.00035189,-0.00009564,0
 .00001372,-0.00005564,-0.00053494,-0.00006263,-0.00028790,-0.00056075,
 -0.00025558,0.00009880,-0.00005473,-0.00014269,-0.00043887,0.00001171,
 0.00005368,0.00007410,0.00002770,-0.00001384,0.00016387,-0.00031013,0.
 00032512,-0.00052754,-0.00052432,0.00025943,0.00035485,0.00111257,0.00
 051120,-0.00020717,-0.00004939,-0.00083825,0.00057208,-0.00000265,-0.0
 0001948,0.00002229,-0.00110006,0.00304377,0.01068913,-0.00023893,0.000
 29184,-0.00002197,0.00032024,-0.00089640,-0.00044346,-0.00005631,-0.00
 004631,-0.00006212,0.00001031,-0.00000070,-0.00005265,0.00000570,-0.00
 000182,0.00000808,-0.00000293,-0.00000327,0.00000449,-0.00000361,0.000
 00314,0.00000585,0.00001258,-0.00004158,0.00002075,-0.00000830,0.00000
 530,-0.00000495,0.00000102,0.00000443,-0.00000255,-0.00000220,0.000010
 99,-0.00000010,0.00005642,0.00003511,0.00003868,-0.00000034,-0.0000043
 5,-0.00000844,-0.00001812,-0.00000191,-0.00000106,0.00000661,0.0000034
 8,0.00000096,0.00044029,-0.00003756,0.00002214,-0.00008025,-0.00003191
 ,0.00001748,0.00028477,0.00011248,-0.00028172,-0.00010299,0.00002073,0
 .00003371,0.00007778,-0.00017195,-0.00009486,0.00001791,-0.00003854,0.
 00010112,0.00001588,0.00004146,0.00002096,-0.00000765,0.00006847,0.000
 04453,-0.02897364,-0.04896097,-0.09119457,0.06663459,0.09815846,0.1272
 6872,0.00009227,-0.00005636,0.00005418,0.00016140,-0.00013154,-0.00000
 932,0.00030154,0.00011668,-0.00022784,0.00000275,-0.00005018,0.0000823
 2,0.00009373,0.00008950,0.00016780,0.00001507,-0.00000948,0.00001038,-
 0.00004559,0.00000505,-0.00001170,-0.00000370,-0.00000138,0.00000158,0
 .00001376,-0.00000099,0.00001793,0.00000391,-0.00001308,-0.00000942,-0
 .00033800,-0.00002286,-0.00007176,-0.00079636,-0.00008385,0.00004002,-
 0.00015356,0.00010941,0.00007913,-0.00019444,0.00007879,-0.00009005,-0
 .00013014,-0.00005543,-0.00016666,0.00074010,0.00023834,0.00024048,-0.
 00008906,0.00000268,-0.00007586,0.00003985,-0.00009419,0.00013464,-0.0
 0043633,-0.00015389,-0.00015470,0.00196059,-0.00109019,-0.00100217,-0.
 00056511,0.00111024,0.00007802,-0.00047329,0.00028905,0.00059003,-0.00
 086051,0.00067919,0.00133007,0.00002394,0.00021047,-0.00044424,0.00020
 261,0.00419647,-0.00464667,0.00046439,0.00101409,-0.00052496,0.0000752
 3,-0.00008995,-0.00011513,-0.03018716,0.01280502,0.00474722,0.00039332
 ,-0.00068323,-0.00019675,-0.00138092,-0.00104788,0.00381419,0.00049746
 ,0.00013596,-0.00219475,0.00005943,-0.00000748,-0.00008993,0.00000141,
 -0.00001100,-0.00000201,-0.00000682,-0.00001373,0.00001416,-0.00001218
 ,0.00001398,0.00000771,0.00003995,-0.00008911,0.00004877,-0.00001936,0
 .00000766,-0.00000900,0.00000417,0.00001504,-0.00000968,0.00000282,0.0
 0001450,-0.00000054,0.00009430,0.00009222,0.00006424,-0.00000712,-0.00
 000790,-0.00002375,-0.00002339,-0.00000965,0.00000040,-0.00000106,-0.0
 0000690,0.00000797,0.00053637,-0.00009649,0.00021525,-0.00012377,-0.00
 005052,-0.00001624,0.00001148,0.00022131,-0.00011557,-0.00004152,0.000
 01483,0.00000049,-0.00129838,-0.00029148,0.00114071,0.00014687,0.00024
 141,-0.00041769,0.00056916,0.00033061,-0.00017500,0.00037648,-0.000151
 06,-0.00042160,-0.25981447,0.06444228,0.01355278,-0.06893074,-0.025733
 29,-0.01307275,0.38950520,-0.00006226,-0.00002682,-0.00006866,-0.00011
 558,0.00010611,-0.00002783,-0.00029139,-0.00053225,0.00022065,-0.00011
 700,-0.00017529,-0.00022438,-0.00003009,0.00000153,-0.00004325,-0.0000
 1479,0.00002107,-0.00000941,0.00005605,0.00000179,0.00001140,-0.000001
 02,0.00001095,-0.00000868,-0.00001261,0.00002178,-0.00002985,0.0000213
 6,0.00000272,0.00000632,0.00020513,0.00028924,0.00015873,0.00101269,0.
 00030490,-0.00004660,0.00009833,-0.00003366,-0.00004506,0.00008870,0.0
 0000193,0.00005101,0.00004386,0.00006510,0.00009205,0.00015049,-0.0000
 6246,0.00007875,-0.00000429,0.00001969,0.00000042,0.00003328,-0.000162
 61,0.00004293,-0.00006631,0.00013012,-0.00008955,-0.00255848,0.0008564
 1,0.00105241,0.00074158,-0.00103184,-0.00009236,0.00058412,-0.00018659
 ,-0.00067880,0.00054817,-0.00194911,-0.00113240,0.00066876,-0.00059817
 ,-0.00001221,-0.00003360,-0.00287959,0.00504894,0.00003558,-0.00008816
 ,-0.00035909,0.00001024,0.00004558,0.00001735,0.03928378,-0.00683332,-
 0.00278291,0.00010563,0.00053763,0.00018360,0.00103628,-0.00082683,-0.
 00013556,0.00072974,-0.00094523,0.00086814,-0.00004755,0.00000291,0.00
 006296,-0.00000228,0.00000321,0.00000512,0.00001068,0.00001230,-0.0000
 0826,0.00000510,-0.00000672,-0.00000432,-0.00002180,0.00003013,-0.0000
 1367,0.00001009,-0.00000146,0.00000404,-0.00000098,-0.00000749,0.00000
 136,-0.00000446,-0.00000329,0.00000138,-0.00003576,-0.00005894,-0.0000
 1864,0.00000424,0.00000364,0.00000811,0.00000636,0.00000557,-0.0000007
 6,0.00000540,0.00001377,-0.00000360,0.00019848,-0.00006801,0.00011394,
 -0.00001734,0.00001250,-0.00000520,0.00001777,0.00005787,-0.00005225,-
 0.00005437,-0.00000261,0.00000887,0.00104090,0.00058688,-0.00142931,-0
 .00005818,-0.00030304,0.00050146,-0.00048332,-0.00032709,0.00023197,-0
 .00032501,0.00008668,0.00048988,0.05838202,-0.09580585,0.00018338,-0.0
 4125322,0.00834381,-0.00338606,-0.06331286,0.08951505,0.00001591,-0.00
 000461,0.00000144,0.00002610,-0.00003172,0.00000179,0.00006961,0.00013
 582,-0.00008980,0.00001764,-0.00000572,-0.00003162,0.00001341,0.000011
 61,0.00001488,-0.00000534,0.00000422,0.00000592,-0.00001771,-0.0000011
 9,-0.00000251,0.00000034,-0.00000330,0.00000359,0.00000407,-0.00001117
 ,0.00001419,-0.00000509,-0.00000385,-0.00000150,-0.00004586,-0.0000419
 6,0.00003147,-0.00030445,-0.00007681,0.00006470,-0.00002768,0.00001333
 ,0.00003183,-0.00002908,0.00000802,-0.00000465,-0.00002143,-0.00000828
 ,-0.00000582,0.00010537,0.00007073,0.00000537,0.00000287,-0.00000304,0
 .00000615,0.00001918,-0.00001941,0.00002999,-0.00006133,-0.00005581,0.
 00006827,0.00064182,-0.00024523,-0.00055027,-0.00017447,0.00028517,0.0
 0008001,-0.00013863,0.00001766,0.00028694,-0.00083105,0.00046765,0.000
 47090,-0.00014939,0.00026324,-0.00002596,0.00020142,0.00168231,-0.0015
 4051,-0.00059695,-0.00027965,0.00060804,-0.00005426,0.00003340,0.00005
 935,-0.00906708,0.00482542,0.01047767,-0.00031608,0.00032195,0.0000597
 2,-0.00030744,0.00062024,-0.00188013,-0.00138908,0.00087877,0.00065264
 ,0.00001093,-0.00000084,-0.00003384,0.00000418,0.00000032,0.00000254,-
 0.00000442,-0.00000348,0.00000253,-0.00000118,0.00000113,0.00000273,0.
 00000631,-0.00000937,0.00000139,-0.00000306,0.00000073,-0.00000170,-0.
 00000045,0.00000128,0.00000101,0.00000034,0.00000275,-0.00000018,0.000
 01471,0.00001337,0.00000661,0.00000079,-0.00000151,0.00000006,-0.00000
 500,-0.00000014,0.00000009,0.00000117,-0.00000177,-0.00000093,0.000050
 49,-0.00000737,-0.00004118,-0.00000905,-0.00000494,0.00000474,0.000042
 19,0.00003611,-0.00003448,-0.00002696,0.00000804,0.00000674,-0.0001903
 0,-0.00043963,0.00036488,-0.00001948,0.00012760,-0.00014370,0.00014941
 ,0.00014246,-0.00004574,0.00005245,0.00007523,-0.00010764,0.01855836,-
 0.00179344,-0.07634085,-0.01880440,-0.00280663,0.01080839,-0.04552490,
 0.00841857,0.08458148,0.00002145,-0.00001303,0.00001961,0.00003648,-0.
 00002532,-0.00000715,0.00006300,-0.00006478,-0.00001444,-0.00000144,-0
 .00000017,0.00007262,0.00002291,0.00001521,0.00003699,0.00001224,-0.00
 000493,-0.00000181,-0.00000273,0.00000295,-0.00000218,-0.00000145,0.00
 000166,-0.00000228,0.00000168,0.00000695,-0.00000601,0.00000470,-0.000
 00144,-0.00000187,-0.00007987,0.00002489,-0.00004959,-0.00007328,0.000
 04531,-0.00002530,-0.00003496,0.00003050,0.00000828,-0.00004499,0.0000
 2066,-0.00002658,-0.00002976,-0.00001173,-0.00004842,0.00011427,0.0000
 0447,0.00005459,-0.00002030,0.00000109,-0.00002270,0.00001437,-0.00001
 358,0.00003475,-0.00007659,0.00000432,-0.00009956,0.00019561,-0.000398
 23,0.00009079,-0.00001007,0.00014187,-0.00004101,-0.00007048,0.0001127
 7,-0.00000459,0.00047620,-0.00050421,-0.00044753,0.00005757,0.00014469
 ,-0.00011158,-0.00181007,0.00076594,-0.00037820,0.00028749,-0.00000686
 ,-0.00071314,0.00007508,0.00002817,-0.00005065,0.01039018,0.00162025,-
 0.00273696,0.00069969,0.00037304,-0.00110657,-0.00060052,0.00129055,0.
 00001509,0.00020143,0.00033456,-0.00035711,0.00001248,-0.00000257,-0.0
 0001020,-0.00000170,-0.00000447,-0.00000186,0.00000097,-0.00000219,0.0
 0000338,-0.00000377,0.00000425,0.00000070,0.00000994,-0.00002395,0.000
 01445,-0.00000434,0.00000195,-0.00000192,0.00000147,0.00000398,-0.0000
 0373,0.00000070,0.00000319,0.00000026,0.00002073,0.00001986,0.00001515
 ,-0.00000211,-0.00000185,-0.00000689,-0.00000481,-0.00000267,0.0000003
 6,-0.00000088,-0.00000070,0.00000247,0.00012567,-0.00002514,0.00009284
 ,-0.00003251,-0.00001614,-0.00001300,-0.00003242,0.00006081,0.00003115
 ,0.00002271,0.00000060,-0.00000520,-0.00030439,-0.00000575,0.00015454,
 0.00003487,0.00006462,-0.00011569,0.00011130,0.00006258,-0.00002465,0.
 00007437,-0.00004195,-0.00006166,-0.07760110,-0.00058017,0.02890880,0.
 01005313,-0.00683059,-0.02397499,-0.03049659,0.00378969,0.05812253,0.0
 8819844,-0.00004416,-0.00003047,-0.00004982,-0.00008256,0.00007326,-0.
 00001909,-0.00023931,-0.00045463,0.00016382,-0.00010071,-0.00015737,-0
 .00016549,-0.00001762,0.00001074,-0.00001478,-0.00001079,0.00001336,-0
 .00000623,0.00004403,0.00000271,0.00000748,-0.00000156,0.00001045,-0.0
 0000835,-0.00001084,0.00002315,-0.00002610,0.00002109,0.00000171,0.000
 00422,0.00015214,0.00025925,0.00011508,0.00080221,0.00021912,-0.000033
 83,0.00006804,-0.00001475,-0.00003451,0.00005581,0.00001209,0.00003071
 ,0.00002610,0.00005184,0.00005541,0.00018666,-0.00005116,0.00011020,-0
 .00001659,0.00001715,-0.00001273,0.00006521,-0.00015355,0.00001357,-0.
 00009715,0.00011742,-0.00012443,-0.00182407,0.00104793,0.00061907,0.00
 041097,-0.00056309,-0.00006419,0.00047000,-0.00020537,-0.00046986,-0.0
 0061078,0.00015559,-0.00003211,-0.00024319,-0.00042926,0.00085954,0.00
 071588,-0.00109440,0.00090390,-0.00118276,-0.00167107,0.00086374,-0.00
 001769,0.00003767,0.00004562,-0.00465625,0.00095835,0.03536341,0.00019
 973,-0.00105990,0.00120012,0.00418619,-0.00290840,0.00024126,0.0001405
 0,0.00037171,0.00018229,-0.00003583,0.00000100,0.00004790,-0.00000286,
 0.00000078,0.00000383,0.00000958,0.00000958,-0.00000558,0.00000285,-0.
 00000389,-0.00000320,-0.00001470,0.00001446,-0.00000426,0.00000681,-0.
 00000026,0.00000260,-0.00000004,-0.00000445,-0.00000094,-0.00000355,-0
 .00000139,0.00000122,-0.00002193,-0.00004272,-0.00000870,0.00000231,0.
 00000235,0.00000325,0.00000367,0.00000349,-0.00000056,0.00000405,0.000
 01187,-0.00000176,0.00021589,-0.00006219,0.00012728,-0.00002607,0.0000
 0506,-0.00000793,-0.00000969,0.00005144,-0.00002006,-0.00004051,-0.000
 00276,0.00000526,0.00121530,0.00015945,-0.00157646,-0.00001882,-0.0003
 4897,0.00063945,-0.00062058,-0.00034652,0.00025720,-0.00030483,0.00010
 099,0.00044758,0.00086213,-0.08077610,0.02521243,-0.00610391,-0.002267
 35,-0.04844640,0.00689119,0.01182556,-0.01260620,-0.00039901,0.0770805
 0,0.00005944,-0.00003630,-0.00000452,0.00010105,-0.00008784,-0.0000097
 5,0.00025936,0.00027994,-0.00029505,0.00003525,-0.00006382,-0.00014699
 ,0.00006422,0.00006197,0.00008674,-0.00001890,0.00001792,0.00002070,-0
 .00005226,-0.00000353,-0.00000587,0.00000029,-0.00000961,0.00001147,0.
 00001799,-0.00003905,0.00005006,-0.00001556,-0.00001530,-0.00000628,-0
 .00025064,-0.00007028,0.00013694,-0.00083942,-0.00011532,0.00020614,-0
 .00010725,0.00006050,0.00011462,-0.00012139,0.00004298,-0.00002173,-0.
 00009481,-0.00003123,-0.00004277,0.00061465,0.00032015,0.00012404,-0.0
 0002853,-0.00000818,-0.00000296,0.00010007,-0.00009683,0.00001216,-0.0
 0033482,-0.00024736,0.00023194,0.00196827,-0.00101818,-0.00155720,-0.0
 0050086,0.00067583,0.00022890,-0.00044009,0.00010991,0.00090757,-0.000
 10069,0.00127188,0.00053080,-0.00032279,0.00032390,-0.00018303,0.00332
 651,-0.00164902,-0.00103347,0.00179133,0.00066214,-0.00125900,-0.00012
 832,-0.00007702,0.00004485,0.00790609,0.00688310,-0.03830329,-0.002005
 96,0.00069655,0.00008008,-0.00495620,0.00541305,-0.00035411,-0.0003143
 0,-0.00067009,0.00045154,0.00003832,-0.00000237,-0.00012057,0.00001391
 ,-0.00000014,0.00000982,-0.00001468,-0.00001219,0.00000945,-0.00000485
 ,0.00000463,0.00001031,0.00002406,-0.00004198,0.00001177,-0.00001253,0
 .00000382,-0.00000667,-0.00000072,0.00000594,0.00000230,0.00000075,0.0
 0001159,-0.00000103,0.00006498,0.00005935,0.00003496,0.00000063,-0.000
 00585,-0.00000467,-0.00002053,-0.00000245,-0.00000049,0.00000412,-0.00
 000638,-0.00000101,0.00022296,-0.00001042,-0.00016261,-0.00004754,-0.0
 0002592,0.00001789,0.00011010,0.00008152,-0.00011253,-0.00010306,0.000
 03060,0.00002590,-0.00151918,-0.00050424,0.00162706,-0.00000084,0.0005
 3866,-0.00086451,0.00074905,0.00048537,-0.00020717,0.00030089,0.000026
 68,-0.00046307,0.02444937,0.03183440,-0.27342969,-0.01604279,-0.034112
 49,-0.05702308,0.04338015,-0.00715509,-0.02787506,-0.05720430,-0.00378
 388,0.39851014\\0.00000015,0.00000036,-0.00000204,-0.00000680,0.000002
 88,-0.00000361,-0.00000229,-0.00001255,0.00000095,-0.00000118,0.000000
 02,0.00000335,0.00000020,-0.00000243,0.00000031,0.00000061,0.00000352,
 -0.00000070,-0.00000029,0.00000111,0.00000094,-0.00000045,0.00000021,-
 0.00000047,-0.00000034,-0.00000072,0.00000011,0.00000020,0.00000029,0.
 00000084,0.00000325,0.00000279,0.00000007,0.00000032,0.00001036,0.0000
 0013,0.00000529,0.00000014,0.00000308,0.00000095,0.00000010,0.00000048
 ,-0.00000224,0.00000162,0.00000107,0.00000150,-0.00000057,-0.00000139,
 0.00000158,-0.00000192,0.00000128,-0.00000147,0.00000007,0.00000198,-0
 .00000226,-0.00000201,0.00000244,0.00000404,0.00000685,0.00000315,-0.0
 0000314,-0.00000900,-0.00000027,-0.00000195,0.00000372,-0.00001141,-0.
 00000229,-0.00000058,0.00000211,0.00000406,-0.00000366,-0.00000231,-0.
 00000266,-0.00000044,-0.00000315,-0.00000476,0.00000738,-0.00000207,-0
 .00000096,-0.00000089,-0.00000179,0.00000491,-0.00000137,-0.00000423,0
 .00000074,0.00000143,0.00000041,0.00000289,-0.00000048,0.00000580,-0.0
 0000043,-0.00000074,-0.00000008,-0.00000114,0.00000136,-0.00000334,0.0
 0000034,0.00000254,-0.00000124,0.00000105,0.00000103,-0.00000028,-0.00
 000142,0.00000044,-0.00000240,0.00000135,-0.00000252,-0.00000081,0.000
 00010,-0.00000122,-0.00000084,-0.00000002,-0.00000106,-0.00000080,-0.0
 0000016,-0.00000021,-0.00000124,0.00000267,-0.00000437,0.00000150,-0.0
 0000015,-0.00000207,0.00000125,-0.00000074,-0.00000116,0.00000084,0.00
 000013,-0.00000101,0.00000181,0.00000259,0.00000091,0.00000179,-0.0000
 0070,0.00000139,0.00000240,-0.00000041,0.00000081,0.00000198,-0.000000
 07,0.00000199,0.00000196,-0.00000383,-0.00000182,0.00000227,0.00000193
 ,-0.00000118,-0.00000138,0.00000165,-0.00000097,-0.00000126,0.00000035
 ,-0.00000281,-0.00000310,0.00000172,0.00000798,-0.00000066,-0.00000159
 ,-0.00000215,0.00000298,-0.00000171,-0.00000160,0.00000162,0.00000087,
 0.00000020,0.00000198\\\@


 IT IS IMPOSSIBLE TO MEDITATE ON TIME AND THE MYSTERY 
 OF NATURE WITHOUT AN OVERWHELMING EMOTION AT THE
 LIMITATIONS OF HUMAN INTELLIGENCE.

                                         -- ALFRED NORTH WHITEHEAD
 Job cpu time:       0 days 21 hours 19 minutes 10.3 seconds.
 Elapsed time:       0 days  0 hours 42 minutes 54.3 seconds.
 File lengths (MBytes):  RWF=   2328 Int=      0 D2E=      0 Chk=     41 Scr=      1
 Normal termination of Gaussian 16 at Sat Jun 15 09:41:17 2019.
