 Entering Gaussian System, Link 0=g16
 Input=clay_new-glu_gluC6-bisCF3-sm-m11-custom-pcm_thf.gjf
 Output=clay_new-glu_gluC6-bisCF3-sm-m11-custom-pcm_thf.out
 Initial command:
 /home/ekwan/sw/g16/l1.exe "/scratch/users/ekwan/clay_new-glu_gluC6-bisCF3-sm-m11-custom-pcm_thf/Gau-23803.inp" -scrdir="/scratch/users/ekwan/clay_new-glu_gluC6-bisCF3-sm-m11-custom-pcm_thf/"
 Entering Link 1 = /home/ekwan/sw/g16/l1.exe PID=     23804.
  
 Copyright (c) 1988,1990,1992,1993,1995,1998,2003,2009,2016,
            Gaussian, Inc.  All Rights Reserved.
  
 This is part of the Gaussian(R) 16 program.  It is based on
 the Gaussian(R) 09 system (copyright 2009, Gaussian, Inc.),
 the Gaussian(R) 03 system (copyright 2003, Gaussian, Inc.),
 the Gaussian(R) 98 system (copyright 1998, Gaussian, Inc.),
 the Gaussian(R) 94 system (copyright 1995, Gaussian, Inc.),
 the Gaussian 92(TM) system (copyright 1992, Gaussian, Inc.),
 the Gaussian 90(TM) system (copyright 1990, Gaussian, Inc.),
 the Gaussian 88(TM) system (copyright 1988, Gaussian, Inc.),
 the Gaussian 86(TM) system (copyright 1986, Carnegie Mellon
 University), and the Gaussian 82(TM) system (copyright 1983,
 Carnegie Mellon University). Gaussian is a federally registered
 trademark of Gaussian, Inc.
  
 This software contains proprietary and confidential information,
 including trade secrets, belonging to Gaussian, Inc.
  
 This software is provided under written license and may be
 used, copied, transmitted, or stored only in accord with that
 written license.
  
 The following legend is applicable only to US Government
 contracts under FAR:
  
                    RESTRICTED RIGHTS LEGEND
  
 Use, reproduction and disclosure by the US Government is
 subject to restrictions as set forth in subparagraphs (a)
 and (c) of the Commercial Computer Software - Restricted
 Rights clause in FAR 52.227-19.
  
 Gaussian, Inc.
 340 Quinnipiac St., Bldg. 40, Wallingford CT 06492
  
  
 ---------------------------------------------------------------
 Warning -- This program may not be used in any manner that
 competes with the business of Gaussian, Inc. or will provide
 assistance to any competitor of Gaussian, Inc.  The licensee
 of this program is prohibited from giving any competitor of
 Gaussian, Inc. access to this program.  By using this program,
 the user acknowledges that Gaussian, Inc. is engaged in the
 business of creating and licensing software in the field of
 computational chemistry and represents and warrants to the
 licensee that it is not a competitor of Gaussian, Inc. and that
 it will not use this program in any manner prohibited above.
 ---------------------------------------------------------------
  

 Cite this work as:
 Gaussian 16, Revision A.03,
 M. J. Frisch, G. W. Trucks, H. B. Schlegel, G. E. Scuseria, 
 M. A. Robb, J. R. Cheeseman, G. Scalmani, V. Barone, 
 G. A. Petersson, H. Nakatsuji, X. Li, M. Caricato, A. V. Marenich, 
 J. Bloino, B. G. Janesko, R. Gomperts, B. Mennucci, H. P. Hratchian, 
 J. V. Ortiz, A. F. Izmaylov, J. L. Sonnenberg, D. Williams-Young, 
 F. Ding, F. Lipparini, F. Egidi, J. Goings, B. Peng, A. Petrone, 
 T. Henderson, D. Ranasinghe, V. G. Zakrzewski, J. Gao, N. Rega, 
 G. Zheng, W. Liang, M. Hada, M. Ehara, K. Toyota, R. Fukuda, 
 J. Hasegawa, M. Ishida, T. Nakajima, Y. Honda, O. Kitao, H. Nakai, 
 T. Vreven, K. Throssell, J. A. Montgomery, Jr., J. E. Peralta, 
 F. Ogliaro, M. J. Bearpark, J. J. Heyd, E. N. Brothers, K. N. Kudin, 
 V. N. Staroverov, T. A. Keith, R. Kobayashi, J. Normand, 
 K. Raghavachari, A. P. Rendell, J. C. Burant, S. S. Iyengar, 
 J. Tomasi, M. Cossi, J. M. Millam, M. Klene, C. Adamo, R. Cammi, 
 J. W. Ochterski, R. L. Martin, K. Morokuma, O. Farkas, 
 J. B. Foresman, and D. J. Fox, Gaussian, Inc., Wallingford CT, 2016.
 
 ******************************************
 Gaussian 16:  AS64L-G16RevA.03 25-Dec-2016
                15-Jun-2019 
 ******************************************
 %nprocshared=32
 Will use up to   32 processors via shared memory.
 %mem=48GB
 ----------------------------------------------------------------------
 #p opt freq=noraman pop=none 6-31g* scrf=(pcm,solvent=tetrahydrofuran)
  m11 extrabasis
 ----------------------------------------------------------------------
 1/18=20,19=15,26=3,38=1/1,3;
 2/9=110,12=2,17=6,18=5,40=1/2;
 3/5=1,6=6,7=1,10=1,11=2,25=1,30=1,70=2201,71=1,72=20,74=-64/1,2,3;
 4//1;
 5/5=2,38=5,53=20/2;
 7//1,2,3,16;
 1/18=20,19=15,26=3/3(2);
 2/9=110/2;
 99//99;
 2/9=110/2;
 3/5=7,6=1,7=1,11=2,25=1,30=1,70=2205,71=1,72=20,74=-64,82=7/1,2,3;
 4/5=5,16=3,69=1/1;
 5/5=2,38=5,53=20/2;
 7//1,2,3,16;
 1/18=20,19=15,26=3/3(-5);
 2/9=110/2;
 99/9=1/99;
 Leave Link    1 at Sat Jun 15 08:43:00 2019, MaxMem=  6442450944 cpu:              24.8 elap:               0.9
 (Enter /home/ekwan/sw/g16/l101.exe)
 -----
 title
 -----
 Symbolic Z-matrix:
 Charge =  0 Multiplicity = 1
 6                     3.35897   0.32565   0.64643 
 6                     3.31921  -0.46266  -0.66243 
 6                     1.87017  -0.76597  -1.0769 
 6                     1.01317   1.08223   0.15325 
 6                     2.41964   1.52275   0.55499 
 1                     1.80728  -1.21788  -2.07379 
 1                     3.74289   0.17145  -1.46631 
 1                     3.02655  -0.3274    1.47461 
 1                     0.60187   0.42417   0.93951 
 1                     2.80298   2.21992  -0.21035 
 8                     1.05669   0.35282  -1.08913 
 8                     1.38628  -1.74755  -0.10702 
 8                     4.0823   -1.62883  -0.50064 
 8                     4.65953   0.81452   0.89452 
 8                     2.32013   2.16654   1.8066 
 6                     0.08301   2.27984  -0.00961 
 1                    -0.16785   2.6461    0.99378 
 1                    -0.84211   1.9536   -0.51681 
 8                     0.66533   3.36574  -0.69692 
 16                    0.09182  -2.62601  -0.50227 
 8                     0.04992  -3.69665   0.48001 
 8                     0.15247  -2.90781  -1.93287 
 6                    -1.2728   -1.52113  -0.2012 
 6                    -1.74877  -1.39331   1.09752 
 6                    -1.79996  -0.80305  -1.26569 
 6                    -2.79273  -0.50403   1.32503 
 1                    -1.31572  -1.9769    1.91145 
 6                    -2.8436    0.07667  -1.00459 
 1                    -1.40393  -0.93017  -2.27412 
 6                    -3.34329   0.23529   0.28346 
 1                    -4.15935   0.93277   0.47525 
 6                     4.21736  -2.40622  -1.68148 
 1                     3.28154  -2.93755  -1.92319 
 1                     4.50999  -1.77386  -2.53653 
 1                     5.00281  -3.14557  -1.49198 
 6                     5.4356   -0.00119   1.76119 
 1                     6.40324   0.49869   1.88774 
 1                     4.94787  -0.09524   2.74597 
 1                     5.58906  -1.00209   1.33448 
 6                     2.99831   3.41488   1.85533 
 1                     2.85427   3.82048   2.86381 
 1                     4.0732    3.28017   1.66204 
 1                     2.57145   4.11087   1.11468 
 6                     0.8072    3.15474  -2.09354 
 1                     0.98417   4.13446  -2.55336 
 1                    -0.11161   2.7123   -2.51426 
 1                     1.65295   2.48706  -2.32238 
 6                    -3.37224  -0.37594   2.71091 
 9                    -2.45414  -0.66265   3.65269 
 9                    -4.40943  -1.21776   2.88959 
 9                    -3.8274    0.87205   2.93375 
 6                    -3.38394   0.92538  -2.12561 
 9                    -2.66799   2.06642  -2.26029 
 9                    -4.66106   1.28261  -1.90358 
 9                    -3.32369   0.27901  -3.30355 
 
 ITRead=  0  0  0  0  0  0  0  0  0  0  0  0  0  0  0  0  0  0  0  0
 ITRead=  0  0  0  0  0  0  0  0  0  0  0  0  0  0  0  0  0  0  0  0
 ITRead=  0  0  0  0  0  0  0  0  0  0  0  0  0  0  0
 MicOpt= -1 -1 -1 -1 -1 -1 -1 -1 -1 -1 -1 -1 -1 -1 -1 -1 -1 -1 -1 -1
 MicOpt= -1 -1 -1 -1 -1 -1 -1 -1 -1 -1 -1 -1 -1 -1 -1 -1 -1 -1 -1 -1
 MicOpt= -1 -1 -1 -1 -1 -1 -1 -1 -1 -1 -1 -1 -1 -1 -1
 NAtoms=     55 NQM=       55 NQMF=       0 NMMI=      0 NMMIF=      0
                NMic=       0 NMicF=      0.
                    Isotopes and Nuclear Properties:
 (Nuclear quadrupole moments (NQMom) in fm**2, nuclear magnetic moments (NMagM)
  in nuclear magnetons)

  Atom         1           2           3           4           5           6           7           8           9          10
 IAtWgt=          12          12          12          12          12           1           1           1           1           1
 AtmWgt=  12.0000000  12.0000000  12.0000000  12.0000000  12.0000000   1.0078250   1.0078250   1.0078250   1.0078250   1.0078250
 NucSpn=           0           0           0           0           0           1           1           1           1           1
 AtZEff=   0.0000000   0.0000000   0.0000000   0.0000000   0.0000000   0.0000000   0.0000000   0.0000000   0.0000000   0.0000000
 NQMom=    0.0000000   0.0000000   0.0000000   0.0000000   0.0000000   0.0000000   0.0000000   0.0000000   0.0000000   0.0000000
 NMagM=    0.0000000   0.0000000   0.0000000   0.0000000   0.0000000   2.7928460   2.7928460   2.7928460   2.7928460   2.7928460
 AtZNuc=   6.0000000   6.0000000   6.0000000   6.0000000   6.0000000   1.0000000   1.0000000   1.0000000   1.0000000   1.0000000

  Atom        11          12          13          14          15          16          17          18          19          20
 IAtWgt=          16          16          16          16          16          12           1           1          16          32
 AtmWgt=  15.9949146  15.9949146  15.9949146  15.9949146  15.9949146  12.0000000   1.0078250   1.0078250  15.9949146  31.9720718
 NucSpn=           0           0           0           0           0           0           1           1           0           0
 AtZEff=   0.0000000   0.0000000   0.0000000   0.0000000   0.0000000   0.0000000   0.0000000   0.0000000   0.0000000   0.0000000
 NQMom=    0.0000000   0.0000000   0.0000000   0.0000000   0.0000000   0.0000000   0.0000000   0.0000000   0.0000000   0.0000000
 NMagM=    0.0000000   0.0000000   0.0000000   0.0000000   0.0000000   0.0000000   2.7928460   2.7928460   0.0000000   0.0000000
 AtZNuc=   8.0000000   8.0000000   8.0000000   8.0000000   8.0000000   6.0000000   1.0000000   1.0000000   8.0000000  16.0000000

  Atom        21          22          23          24          25          26          27          28          29          30
 IAtWgt=          16          16          12          12          12          12           1          12           1          12
 AtmWgt=  15.9949146  15.9949146  12.0000000  12.0000000  12.0000000  12.0000000   1.0078250  12.0000000   1.0078250  12.0000000
 NucSpn=           0           0           0           0           0           0           1           0           1           0
 AtZEff=   0.0000000   0.0000000   0.0000000   0.0000000   0.0000000   0.0000000   0.0000000   0.0000000   0.0000000   0.0000000
 NQMom=    0.0000000   0.0000000   0.0000000   0.0000000   0.0000000   0.0000000   0.0000000   0.0000000   0.0000000   0.0000000
 NMagM=    0.0000000   0.0000000   0.0000000   0.0000000   0.0000000   0.0000000   2.7928460   0.0000000   2.7928460   0.0000000
 AtZNuc=   8.0000000   8.0000000   6.0000000   6.0000000   6.0000000   6.0000000   1.0000000   6.0000000   1.0000000   6.0000000

  Atom        31          32          33          34          35          36          37          38          39          40
 IAtWgt=           1          12           1           1           1          12           1           1           1          12
 AtmWgt=   1.0078250  12.0000000   1.0078250   1.0078250   1.0078250  12.0000000   1.0078250   1.0078250   1.0078250  12.0000000
 NucSpn=           1           0           1           1           1           0           1           1           1           0
 AtZEff=   0.0000000   0.0000000   0.0000000   0.0000000   0.0000000   0.0000000   0.0000000   0.0000000   0.0000000   0.0000000
 NQMom=    0.0000000   0.0000000   0.0000000   0.0000000   0.0000000   0.0000000   0.0000000   0.0000000   0.0000000   0.0000000
 NMagM=    2.7928460   0.0000000   2.7928460   2.7928460   2.7928460   0.0000000   2.7928460   2.7928460   2.7928460   0.0000000
 AtZNuc=   1.0000000   6.0000000   1.0000000   1.0000000   1.0000000   6.0000000   1.0000000   1.0000000   1.0000000   6.0000000

  Atom        41          42          43          44          45          46          47          48          49          50
 IAtWgt=           1           1           1          12           1           1           1          12          19          19
 AtmWgt=   1.0078250   1.0078250   1.0078250  12.0000000   1.0078250   1.0078250   1.0078250  12.0000000  18.9984033  18.9984033
 NucSpn=           1           1           1           0           1           1           1           0           1           1
 AtZEff=   0.0000000   0.0000000   0.0000000   0.0000000   0.0000000   0.0000000   0.0000000   0.0000000   0.0000000   0.0000000
 NQMom=    0.0000000   0.0000000   0.0000000   0.0000000   0.0000000   0.0000000   0.0000000   0.0000000   0.0000000   0.0000000
 NMagM=    2.7928460   2.7928460   2.7928460   0.0000000   2.7928460   2.7928460   2.7928460   0.0000000   2.6288670   2.6288670
 AtZNuc=   1.0000000   1.0000000   1.0000000   6.0000000   1.0000000   1.0000000   1.0000000   6.0000000   9.0000000   9.0000000

  Atom        51          52          53          54          55
 IAtWgt=          19          12          19          19          19
 AtmWgt=  18.9984033  12.0000000  18.9984033  18.9984033  18.9984033
 NucSpn=           1           0           1           1           1
 AtZEff=   0.0000000   0.0000000   0.0000000   0.0000000   0.0000000
 NQMom=    0.0000000   0.0000000   0.0000000   0.0000000   0.0000000
 NMagM=    2.6288670   0.0000000   2.6288670   2.6288670   2.6288670
 AtZNuc=   9.0000000   6.0000000   9.0000000   9.0000000   9.0000000
 Leave Link  101 at Sat Jun 15 08:43:01 2019, MaxMem=  6442450944 cpu:              19.8 elap:               0.9
 (Enter /home/ekwan/sw/g16/l103.exe)

 GradGradGradGradGradGradGradGradGradGradGradGradGradGradGradGradGradGrad
 Berny optimization.
 Initialization pass.
                           ----------------------------
                           !    Initial Parameters    !
                           ! (Angstroms and Degrees)  !
 --------------------------                            --------------------------
 ! Name  Definition              Value          Derivative Info.                !
 --------------------------------------------------------------------------------
 ! R1    R(1,2)                  1.5284         estimate D2E/DX2                !
 ! R2    R(1,5)                  1.5244         estimate D2E/DX2                !
 ! R3    R(1,8)                  1.1058         estimate D2E/DX2                !
 ! R4    R(1,14)                 1.4114         estimate D2E/DX2                !
 ! R5    R(2,3)                  1.5374         estimate D2E/DX2                !
 ! R6    R(2,7)                  1.1081         estimate D2E/DX2                !
 ! R7    R(2,13)                 1.403          estimate D2E/DX2                !
 ! R8    R(3,6)                  1.0963         estimate D2E/DX2                !
 ! R9    R(3,11)                 1.3833         estimate D2E/DX2                !
 ! R10   R(3,12)                 1.4623         estimate D2E/DX2                !
 ! R11   R(4,5)                  1.5276         estimate D2E/DX2                !
 ! R12   R(4,9)                  1.1047         estimate D2E/DX2                !
 ! R13   R(4,11)                 1.4413         estimate D2E/DX2                !
 ! R14   R(4,16)                 1.5251         estimate D2E/DX2                !
 ! R15   R(5,10)                 1.104          estimate D2E/DX2                !
 ! R16   R(5,15)                 1.411          estimate D2E/DX2                !
 ! R17   R(12,20)                1.6135         estimate D2E/DX2                !
 ! R18   R(13,32)                1.4202         estimate D2E/DX2                !
 ! R19   R(14,36)                1.4208         estimate D2E/DX2                !
 ! R20   R(15,40)                1.4215         estimate D2E/DX2                !
 ! R21   R(16,17)                1.0972         estimate D2E/DX2                !
 ! R22   R(16,18)                1.1043         estimate D2E/DX2                !
 ! R23   R(16,19)                1.4109         estimate D2E/DX2                !
 ! R24   R(19,44)                1.4196         estimate D2E/DX2                !
 ! R25   R(20,21)                1.4536         estimate D2E/DX2                !
 ! R26   R(20,22)                1.4594         estimate D2E/DX2                !
 ! R27   R(20,23)                1.7815         estimate D2E/DX2                !
 ! R28   R(23,24)                1.3891         estimate D2E/DX2                !
 ! R29   R(23,25)                1.3881         estimate D2E/DX2                !
 ! R30   R(24,26)                1.3901         estimate D2E/DX2                !
 ! R31   R(24,27)                1.0911         estimate D2E/DX2                !
 ! R32   R(25,28)                1.3897         estimate D2E/DX2                !
 ! R33   R(25,29)                1.0908         estimate D2E/DX2                !
 ! R34   R(26,30)                1.3909         estimate D2E/DX2                !
 ! R35   R(26,48)                1.5076         estimate D2E/DX2                !
 ! R36   R(28,30)                1.3907         estimate D2E/DX2                !
 ! R37   R(28,52)                1.5063         estimate D2E/DX2                !
 ! R38   R(30,31)                1.0905         estimate D2E/DX2                !
 ! R39   R(32,33)                1.1029         estimate D2E/DX2                !
 ! R40   R(32,34)                1.103          estimate D2E/DX2                !
 ! R41   R(32,35)                1.0952         estimate D2E/DX2                !
 ! R42   R(36,37)                1.0965         estimate D2E/DX2                !
 ! R43   R(36,38)                1.103          estimate D2E/DX2                !
 ! R44   R(36,39)                1.0988         estimate D2E/DX2                !
 ! R45   R(40,41)                1.0965         estimate D2E/DX2                !
 ! R46   R(40,42)                1.1004         estimate D2E/DX2                !
 ! R47   R(40,43)                1.1023         estimate D2E/DX2                !
 ! R48   R(44,45)                1.0966         estimate D2E/DX2                !
 ! R49   R(44,46)                1.1032         estimate D2E/DX2                !
 ! R50   R(44,47)                1.1016         estimate D2E/DX2                !
 ! R51   R(48,49)                1.3461         estimate D2E/DX2                !
 ! R52   R(48,50)                1.3477         estimate D2E/DX2                !
 ! R53   R(48,51)                1.347          estimate D2E/DX2                !
 ! R54   R(52,53)                1.3538         estimate D2E/DX2                !
 ! R55   R(52,54)                1.3446         estimate D2E/DX2                !
 ! R56   R(52,55)                1.345          estimate D2E/DX2                !
 ! A1    A(2,1,5)              109.7324         estimate D2E/DX2                !
 ! A2    A(2,1,8)              109.2041         estimate D2E/DX2                !
 ! A3    A(2,1,14)             110.6797         estimate D2E/DX2                !
 ! A4    A(5,1,8)              108.8716         estimate D2E/DX2                !
 ! A5    A(5,1,14)             107.8396         estimate D2E/DX2                !
 ! A6    A(8,1,14)             110.4817         estimate D2E/DX2                !
 ! A7    A(1,2,3)              110.9246         estimate D2E/DX2                !
 ! A8    A(1,2,7)              108.4309         estimate D2E/DX2                !
 ! A9    A(1,2,13)             108.409          estimate D2E/DX2                !
 ! A10   A(3,2,7)              106.1234         estimate D2E/DX2                !
 ! A11   A(3,2,13)             112.3179         estimate D2E/DX2                !
 ! A12   A(7,2,13)             110.5703         estimate D2E/DX2                !
 ! A13   A(2,3,6)              112.3663         estimate D2E/DX2                !
 ! A14   A(2,3,11)             113.3969         estimate D2E/DX2                !
 ! A15   A(2,3,12)             105.3978         estimate D2E/DX2                !
 ! A16   A(6,3,11)             106.9541         estimate D2E/DX2                !
 ! A17   A(6,3,12)             107.9036         estimate D2E/DX2                !
 ! A18   A(11,3,12)            110.7419         estimate D2E/DX2                !
 ! A19   A(5,4,9)              109.1103         estimate D2E/DX2                !
 ! A20   A(5,4,11)             110.1712         estimate D2E/DX2                !
 ! A21   A(5,4,16)             111.2947         estimate D2E/DX2                !
 ! A22   A(9,4,11)             108.8608         estimate D2E/DX2                !
 ! A23   A(9,4,16)             108.4626         estimate D2E/DX2                !
 ! A24   A(11,4,16)            108.8906         estimate D2E/DX2                !
 ! A25   A(1,5,4)              110.8948         estimate D2E/DX2                !
 ! A26   A(1,5,10)             108.8774         estimate D2E/DX2                !
 ! A27   A(1,5,15)             110.3989         estimate D2E/DX2                !
 ! A28   A(4,5,10)             108.6322         estimate D2E/DX2                !
 ! A29   A(4,5,15)             107.453          estimate D2E/DX2                !
 ! A30   A(10,5,15)            110.5671         estimate D2E/DX2                !
 ! A31   A(3,11,4)             114.7983         estimate D2E/DX2                !
 ! A32   A(3,12,20)            117.934          estimate D2E/DX2                !
 ! A33   A(2,13,32)            114.2565         estimate D2E/DX2                !
 ! A34   A(1,14,36)            114.3104         estimate D2E/DX2                !
 ! A35   A(5,15,40)            113.4188         estimate D2E/DX2                !
 ! A36   A(4,16,17)            107.6934         estimate D2E/DX2                !
 ! A37   A(4,16,18)            109.1466         estimate D2E/DX2                !
 ! A38   A(4,16,19)            113.8701         estimate D2E/DX2                !
 ! A39   A(17,16,18)           109.0927         estimate D2E/DX2                !
 ! A40   A(17,16,19)           106.4353         estimate D2E/DX2                !
 ! A41   A(18,16,19)           110.4493         estimate D2E/DX2                !
 ! A42   A(16,19,44)           113.961          estimate D2E/DX2                !
 ! A43   A(12,20,21)           104.9866         estimate D2E/DX2                !
 ! A44   A(12,20,22)           108.1747         estimate D2E/DX2                !
 ! A45   A(12,20,23)           103.6194         estimate D2E/DX2                !
 ! A46   A(21,20,22)           121.4275         estimate D2E/DX2                !
 ! A47   A(21,20,23)           108.6952         estimate D2E/DX2                !
 ! A48   A(22,20,23)           108.498          estimate D2E/DX2                !
 ! A49   A(20,23,24)           118.526          estimate D2E/DX2                !
 ! A50   A(20,23,25)           118.8269         estimate D2E/DX2                !
 ! A51   A(24,23,25)           122.6339         estimate D2E/DX2                !
 ! A52   A(23,24,26)           117.9829         estimate D2E/DX2                !
 ! A53   A(23,24,27)           120.8111         estimate D2E/DX2                !
 ! A54   A(26,24,27)           121.2058         estimate D2E/DX2                !
 ! A55   A(23,25,28)           117.9442         estimate D2E/DX2                !
 ! A56   A(23,25,29)           120.7168         estimate D2E/DX2                !
 ! A57   A(28,25,29)           121.339          estimate D2E/DX2                !
 ! A58   A(24,26,30)           120.9806         estimate D2E/DX2                !
 ! A59   A(24,26,48)           119.5688         estimate D2E/DX2                !
 ! A60   A(30,26,48)           119.4106         estimate D2E/DX2                !
 ! A61   A(25,28,30)           121.069          estimate D2E/DX2                !
 ! A62   A(25,28,52)           119.0938         estimate D2E/DX2                !
 ! A63   A(30,28,52)           119.745          estimate D2E/DX2                !
 ! A64   A(26,30,28)           119.3887         estimate D2E/DX2                !
 ! A65   A(26,30,31)           120.2969         estimate D2E/DX2                !
 ! A66   A(28,30,31)           120.3144         estimate D2E/DX2                !
 ! A67   A(13,32,33)           111.421          estimate D2E/DX2                !
 ! A68   A(13,32,34)           110.8524         estimate D2E/DX2                !
 ! A69   A(13,32,35)           107.0891         estimate D2E/DX2                !
 ! A70   A(33,32,34)           109.3541         estimate D2E/DX2                !
 ! A71   A(33,32,35)           108.7365         estimate D2E/DX2                !
 ! A72   A(34,32,35)           109.3222         estimate D2E/DX2                !
 ! A73   A(14,36,37)           106.9            estimate D2E/DX2                !
 ! A74   A(14,36,38)           110.612          estimate D2E/DX2                !
 ! A75   A(14,36,39)           111.2444         estimate D2E/DX2                !
 ! A76   A(37,36,38)           109.0307         estimate D2E/DX2                !
 ! A77   A(37,36,39)           109.6844         estimate D2E/DX2                !
 ! A78   A(38,36,39)           109.3178         estimate D2E/DX2                !
 ! A79   A(15,40,41)           107.0799         estimate D2E/DX2                !
 ! A80   A(15,40,42)           110.6401         estimate D2E/DX2                !
 ! A81   A(15,40,43)           110.2846         estimate D2E/DX2                !
 ! A82   A(41,40,42)           109.5823         estimate D2E/DX2                !
 ! A83   A(41,40,43)           109.4837         estimate D2E/DX2                !
 ! A84   A(42,40,43)           109.7257         estimate D2E/DX2                !
 ! A85   A(19,44,45)           107.2087         estimate D2E/DX2                !
 ! A86   A(19,44,46)           110.5841         estimate D2E/DX2                !
 ! A87   A(19,44,47)           111.7894         estimate D2E/DX2                !
 ! A88   A(45,44,46)           109.4395         estimate D2E/DX2                !
 ! A89   A(45,44,47)           109.2984         estimate D2E/DX2                !
 ! A90   A(46,44,47)           108.4908         estimate D2E/DX2                !
 ! A91   A(26,48,49)           111.2767         estimate D2E/DX2                !
 ! A92   A(26,48,50)           111.3843         estimate D2E/DX2                !
 ! A93   A(26,48,51)           111.143          estimate D2E/DX2                !
 ! A94   A(49,48,50)           107.4031         estimate D2E/DX2                !
 ! A95   A(49,48,51)           108.1836         estimate D2E/DX2                !
 ! A96   A(50,48,51)           107.2612         estimate D2E/DX2                !
 ! A97   A(28,52,53)           111.0524         estimate D2E/DX2                !
 ! A98   A(28,52,54)           111.5625         estimate D2E/DX2                !
 ! A99   A(28,52,55)           111.404          estimate D2E/DX2                !
 ! A100  A(53,52,54)           107.1468         estimate D2E/DX2                !
 ! A101  A(53,52,55)           107.1121         estimate D2E/DX2                !
 ! A102  A(54,52,55)           108.3518         estimate D2E/DX2                !
 ! D1    D(5,1,2,3)            -50.2142         estimate D2E/DX2                !
 ! D2    D(5,1,2,7)             65.9415         estimate D2E/DX2                !
 ! D3    D(5,1,2,13)          -173.9761         estimate D2E/DX2                !
 ! D4    D(8,1,2,3)             69.0484         estimate D2E/DX2                !
 ! D5    D(8,1,2,7)           -174.7959         estimate D2E/DX2                !
 ! D6    D(8,1,2,13)           -54.7136         estimate D2E/DX2                !
 ! D7    D(14,1,2,3)          -169.1134         estimate D2E/DX2                !
 ! D8    D(14,1,2,7)           -52.9577         estimate D2E/DX2                !
 ! D9    D(14,1,2,13)           67.1247         estimate D2E/DX2                !
 ! D10   D(2,1,5,4)             53.8859         estimate D2E/DX2                !
 ! D11   D(2,1,5,10)           -65.5836         estimate D2E/DX2                !
 ! D12   D(2,1,5,15)           172.8645         estimate D2E/DX2                !
 ! D13   D(8,1,5,4)            -65.5807         estimate D2E/DX2                !
 ! D14   D(8,1,5,10)           174.9499         estimate D2E/DX2                !
 ! D15   D(8,1,5,15)            53.3979         estimate D2E/DX2                !
 ! D16   D(14,1,5,4)           174.5204         estimate D2E/DX2                !
 ! D17   D(14,1,5,10)           55.051          estimate D2E/DX2                !
 ! D18   D(14,1,5,15)          -66.501          estimate D2E/DX2                !
 ! D19   D(2,1,14,36)          -96.4022         estimate D2E/DX2                !
 ! D20   D(5,1,14,36)          143.559          estimate D2E/DX2                !
 ! D21   D(8,1,14,36)           24.6825         estimate D2E/DX2                !
 ! D22   D(1,2,3,6)            172.7328         estimate D2E/DX2                !
 ! D23   D(1,2,3,11)            51.2922         estimate D2E/DX2                !
 ! D24   D(1,2,3,12)           -70.0009         estimate D2E/DX2                !
 ! D25   D(7,2,3,6)             55.1601         estimate D2E/DX2                !
 ! D26   D(7,2,3,11)           -66.2805         estimate D2E/DX2                !
 ! D27   D(7,2,3,12)           172.4264         estimate D2E/DX2                !
 ! D28   D(13,2,3,6)           -65.772          estimate D2E/DX2                !
 ! D29   D(13,2,3,11)          172.7873         estimate D2E/DX2                !
 ! D30   D(13,2,3,12)           51.4942         estimate D2E/DX2                !
 ! D31   D(1,2,13,32)         -175.275          estimate D2E/DX2                !
 ! D32   D(3,2,13,32)           61.8025         estimate D2E/DX2                !
 ! D33   D(7,2,13,32)          -56.5367         estimate D2E/DX2                !
 ! D34   D(2,3,11,4)           -55.6314         estimate D2E/DX2                !
 ! D35   D(6,3,11,4)           179.9414         estimate D2E/DX2                !
 ! D36   D(12,3,11,4)           62.6118         estimate D2E/DX2                !
 ! D37   D(2,3,12,20)         -160.9689         estimate D2E/DX2                !
 ! D38   D(6,3,12,20)          -40.7204         estimate D2E/DX2                !
 ! D39   D(11,3,12,20)          76.0252         estimate D2E/DX2                !
 ! D40   D(9,4,5,1)             63.2141         estimate D2E/DX2                !
 ! D41   D(9,4,5,10)          -177.1696         estimate D2E/DX2                !
 ! D42   D(9,4,5,15)           -57.5243         estimate D2E/DX2                !
 ! D43   D(11,4,5,1)           -56.2424         estimate D2E/DX2                !
 ! D44   D(11,4,5,10)           63.3739         estimate D2E/DX2                !
 ! D45   D(11,4,5,15)         -176.9809         estimate D2E/DX2                !
 ! D46   D(16,4,5,1)          -177.1316         estimate D2E/DX2                !
 ! D47   D(16,4,5,10)          -57.5153         estimate D2E/DX2                !
 ! D48   D(16,4,5,15)           62.13           estimate D2E/DX2                !
 ! D49   D(5,4,11,3)            57.7137         estimate D2E/DX2                !
 ! D50   D(9,4,11,3)           -61.8943         estimate D2E/DX2                !
 ! D51   D(16,4,11,3)         -179.9677         estimate D2E/DX2                !
 ! D52   D(5,4,16,17)          -74.539          estimate D2E/DX2                !
 ! D53   D(5,4,16,18)          167.1535         estimate D2E/DX2                !
 ! D54   D(5,4,16,19)           43.2312         estimate D2E/DX2                !
 ! D55   D(9,4,16,17)           45.4993         estimate D2E/DX2                !
 ! D56   D(9,4,16,18)          -72.8082         estimate D2E/DX2                !
 ! D57   D(9,4,16,19)          163.2695         estimate D2E/DX2                !
 ! D58   D(11,4,16,17)         163.8235         estimate D2E/DX2                !
 ! D59   D(11,4,16,18)          45.5161         estimate D2E/DX2                !
 ! D60   D(11,4,16,19)         -78.4062         estimate D2E/DX2                !
 ! D61   D(1,5,15,40)          107.2512         estimate D2E/DX2                !
 ! D62   D(4,5,15,40)         -131.6981         estimate D2E/DX2                !
 ! D63   D(10,5,15,40)         -13.2946         estimate D2E/DX2                !
 ! D64   D(3,12,20,21)         166.8397         estimate D2E/DX2                !
 ! D65   D(3,12,20,22)          35.8437         estimate D2E/DX2                !
 ! D66   D(3,12,20,23)         -79.1889         estimate D2E/DX2                !
 ! D67   D(2,13,32,33)         -73.8291         estimate D2E/DX2                !
 ! D68   D(2,13,32,34)          48.2026         estimate D2E/DX2                !
 ! D69   D(2,13,32,35)         167.3809         estimate D2E/DX2                !
 ! D70   D(1,14,36,37)        -178.6952         estimate D2E/DX2                !
 ! D71   D(1,14,36,38)         -60.1161         estimate D2E/DX2                !
 ! D72   D(1,14,36,39)          61.5806         estimate D2E/DX2                !
 ! D73   D(5,15,40,41)         179.9642         estimate D2E/DX2                !
 ! D74   D(5,15,40,42)         -60.6682         estimate D2E/DX2                !
 ! D75   D(5,15,40,43)          60.9149         estimate D2E/DX2                !
 ! D76   D(4,16,19,44)          73.5278         estimate D2E/DX2                !
 ! D77   D(17,16,19,44)       -167.9797         estimate D2E/DX2                !
 ! D78   D(18,16,19,44)        -49.6878         estimate D2E/DX2                !
 ! D79   D(16,19,44,45)        163.8118         estimate D2E/DX2                !
 ! D80   D(16,19,44,46)         44.5707         estimate D2E/DX2                !
 ! D81   D(16,19,44,47)        -76.4255         estimate D2E/DX2                !
 ! D82   D(12,20,23,24)        -82.1463         estimate D2E/DX2                !
 ! D83   D(12,20,23,25)         96.5651         estimate D2E/DX2                !
 ! D84   D(21,20,23,24)         29.131          estimate D2E/DX2                !
 ! D85   D(21,20,23,25)       -152.1576         estimate D2E/DX2                !
 ! D86   D(22,20,23,24)        163.0518         estimate D2E/DX2                !
 ! D87   D(22,20,23,25)        -18.2369         estimate D2E/DX2                !
 ! D88   D(20,23,24,26)        178.4817         estimate D2E/DX2                !
 ! D89   D(20,23,24,27)         -1.6835         estimate D2E/DX2                !
 ! D90   D(25,23,24,26)         -0.1777         estimate D2E/DX2                !
 ! D91   D(25,23,24,27)        179.6571         estimate D2E/DX2                !
 ! D92   D(20,23,25,28)       -178.5303         estimate D2E/DX2                !
 ! D93   D(20,23,25,29)          1.5302         estimate D2E/DX2                !
 ! D94   D(24,23,25,28)          0.1252         estimate D2E/DX2                !
 ! D95   D(24,23,25,29)       -179.8142         estimate D2E/DX2                !
 ! D96   D(23,24,26,30)         -0.0171         estimate D2E/DX2                !
 ! D97   D(23,24,26,48)        177.6685         estimate D2E/DX2                !
 ! D98   D(27,24,26,30)       -179.8512         estimate D2E/DX2                !
 ! D99   D(27,24,26,48)         -2.1656         estimate D2E/DX2                !
 ! D100  D(23,25,28,30)          0.1236         estimate D2E/DX2                !
 ! D101  D(23,25,28,52)        176.623          estimate D2E/DX2                !
 ! D102  D(29,25,28,30)       -179.9374         estimate D2E/DX2                !
 ! D103  D(29,25,28,52)         -3.4379         estimate D2E/DX2                !
 ! D104  D(24,26,30,28)          0.2559         estimate D2E/DX2                !
 ! D105  D(24,26,30,31)       -179.7516         estimate D2E/DX2                !
 ! D106  D(48,26,30,28)       -177.4333         estimate D2E/DX2                !
 ! D107  D(48,26,30,31)          2.5592         estimate D2E/DX2                !
 ! D108  D(24,26,48,49)         28.389          estimate D2E/DX2                !
 ! D109  D(24,26,48,50)        -91.4252         estimate D2E/DX2                !
 ! D110  D(24,26,48,51)        149.0301         estimate D2E/DX2                !
 ! D111  D(30,26,48,49)       -153.8889         estimate D2E/DX2                !
 ! D112  D(30,26,48,50)         86.2969         estimate D2E/DX2                !
 ! D113  D(30,26,48,51)        -33.2478         estimate D2E/DX2                !
 ! D114  D(25,28,30,26)         -0.3109         estimate D2E/DX2                !
 ! D115  D(25,28,30,31)        179.6966         estimate D2E/DX2                !
 ! D116  D(52,28,30,26)       -176.7878         estimate D2E/DX2                !
 ! D117  D(52,28,30,31)          3.2197         estimate D2E/DX2                !
 ! D118  D(25,28,52,53)        -85.9941         estimate D2E/DX2                !
 ! D119  D(25,28,52,54)        154.5479         estimate D2E/DX2                !
 ! D120  D(25,28,52,55)         33.315          estimate D2E/DX2                !
 ! D121  D(30,28,52,53)         90.5526         estimate D2E/DX2                !
 ! D122  D(30,28,52,54)        -28.9054         estimate D2E/DX2                !
 ! D123  D(30,28,52,55)       -150.1384         estimate D2E/DX2                !
 --------------------------------------------------------------------------------
 Trust Radius=3.00D-01 FncErr=1.00D-07 GrdErr=1.00D-06 EigMax=2.50D+02 EigMin=1.00D-04
 Number of steps in this run=    291 maximum allowed number of steps=    330.
 GradGradGradGradGradGradGradGradGradGradGradGradGradGradGradGradGradGrad

 Leave Link  103 at Sat Jun 15 08:43:01 2019, MaxMem=  6442450944 cpu:               2.4 elap:               0.1
 (Enter /home/ekwan/sw/g16/l202.exe)
 Stoichiometry    C18H22F6O8S
 Framework group  C1[X(C18H22F6O8S)]
 Deg. of freedom   159
 Full point group                 C1      NOp   1
 Largest Abelian subgroup         C1      NOp   1
 Largest concise Abelian subgroup C1      NOp   1
                         Standard orientation:                         
 ---------------------------------------------------------------------
 Center     Atomic      Atomic             Coordinates (Angstroms)
 Number     Number       Type             X           Y           Z
 ---------------------------------------------------------------------
      1          6           0        3.358967    0.325646    0.646430
      2          6           0        3.319208   -0.462657   -0.662430
      3          6           0        1.870165   -0.765967   -1.076901
      4          6           0        1.013173    1.082227    0.153249
      5          6           0        2.419635    1.522745    0.554990
      6          1           0        1.807282   -1.217878   -2.073792
      7          1           0        3.742890    0.171449   -1.466312
      8          1           0        3.026550   -0.327399    1.474613
      9          1           0        0.601871    0.424173    0.939507
     10          1           0        2.802976    2.219921   -0.210354
     11          8           0        1.056685    0.352815   -1.089128
     12          8           0        1.386276   -1.747551   -0.107023
     13          8           0        4.082296   -1.628832   -0.500641
     14          8           0        4.659532    0.814519    0.894521
     15          8           0        2.320126    2.166536    1.806604
     16          6           0        0.083009    2.279837   -0.009608
     17          1           0       -0.167853    2.646103    0.993780
     18          1           0       -0.842112    1.953596   -0.516814
     19          8           0        0.665330    3.365737   -0.696924
     20         16           0        0.091817   -2.626009   -0.502270
     21          8           0        0.049919   -3.696654    0.480007
     22          8           0        0.152469   -2.907808   -1.932872
     23          6           0       -1.272802   -1.521130   -0.201197
     24          6           0       -1.748772   -1.393305    1.097518
     25          6           0       -1.799959   -0.803045   -1.265689
     26          6           0       -2.792729   -0.504033    1.325025
     27          1           0       -1.315724   -1.976899    1.911450
     28          6           0       -2.843595    0.076670   -1.004592
     29          1           0       -1.403930   -0.930166   -2.274124
     30          6           0       -3.343294    0.235291    0.283457
     31          1           0       -4.159353    0.932766    0.475250
     32          6           0        4.217355   -2.406221   -1.681482
     33          1           0        3.281538   -2.937545   -1.923191
     34          1           0        4.509995   -1.773863   -2.536528
     35          1           0        5.002811   -3.145569   -1.491980
     36          6           0        5.435600   -0.001188    1.761194
     37          1           0        6.403241    0.498686    1.887742
     38          1           0        4.947873   -0.095236    2.745969
     39          1           0        5.589060   -1.002094    1.334483
     40          6           0        2.998310    3.414883    1.855333
     41          1           0        2.854270    3.820484    2.863808
     42          1           0        4.073204    3.280171    1.662037
     43          1           0        2.571450    4.110868    1.114682
     44          6           0        0.807196    3.154739   -2.093544
     45          1           0        0.984168    4.134459   -2.553356
     46          1           0       -0.111613    2.712300   -2.514258
     47          1           0        1.652953    2.487064   -2.322383
     48          6           0       -3.372236   -0.375938    2.710909
     49          9           0       -2.454136   -0.662646    3.652691
     50          9           0       -4.409432   -1.217755    2.889588
     51          9           0       -3.827403    0.872046    2.933751
     52          6           0       -3.383941    0.925379   -2.125614
     53          9           0       -2.667987    2.066416   -2.260294
     54          9           0       -4.661062    1.282605   -1.903579
     55          9           0       -3.323690    0.279007   -3.303551
 ---------------------------------------------------------------------
 Rotational constants (GHZ):           0.1516072           0.0860172           0.0838756
 Leave Link  202 at Sat Jun 15 08:43:02 2019, MaxMem=  6442450944 cpu:               4.5 elap:               0.2
 (Enter /home/ekwan/sw/g16/l301.exe)
 Standard basis: 6-31G(d) (6D, 7F)
 Centers:      12     22     21
 SP 1 1.00
     Exponent=  8.4500000000D-02 Coefficients=  1.0000000000D+00  1.0000000000D+00
 ****
 Ernie: Thresh=  0.10000D-02 Tol=  0.10000D-05 Strict=F.
 There are   555 symmetry adapted cartesian basis functions of A   symmetry.
 There are   555 symmetry adapted basis functions of A   symmetry.
   555 basis functions,  1048 primitive gaussians,   555 cartesian basis functions
   132 alpha electrons      132 beta electrons
       nuclear repulsion energy      4364.0788747115 Hartrees.
 IExCor= 5042 DFT=T Ex+Corr=M11 ExCW=0 ScaHFX=  1.000000
 ScaDFX=  1.000000  1.000000  1.000000  1.000000 ScalE2=  1.000000  1.000000
 IRadAn=      5 IRanWt=     -1 IRanGd=            0 ICorTp=0 IEmpDi=  4
 HFx  wShort=  0.000000 wLong=  0.250000 cFull=  0.428000 cShort=  0.000000 cLong=  0.572000
 DFx  wShort=  0.000000 wLong=  0.250000 cFull=  0.000000 cShort=  0.000000 cLong=  1.000000
 NAtoms=   55 NActive=   55 NUniq=   55 SFac= 1.00D+00 NAtFMM=   60 NAOKFM=F Big=F
 Integral buffers will be    131072 words long.
 Raffenetti 2 integral format.
 Two-electron integral symmetry is turned on.
 ------------------------------------------------------------------------------
 Polarizable Continuum Model (PCM)
 =================================
 Model                : PCM.
 Atomic radii         : UFF (Universal Force Field).
 Polarization charges : Total charges.
 Charge compensation  : None.
 Solution method      : On-the-fly selection.
 Cavity type          : Scaled VdW (van der Waals Surface) (Alpha=1.100).
 Cavity algorithm     : GePol (No added spheres)
                        Default sphere list used, NSphG=   55.
                        Lebedev-Laikov grids with approx.  5.0 points / Ang**2.
                        Smoothing algorithm: York/Karplus (Gamma=1.0000).
                        Polarization charges: spherical gaussians, with
                                              point-specific exponents (IZeta= 3).
                        Self-potential: point-specific (ISelfS= 7).
                        Self-field    : sphere-specific E.n sum rule (ISelfD= 2).
 1st derivatives      : Analytical E(r).r(x)/FMM algorithm (CHGder, D1EAlg=3).
                        Cavity 1st derivative terms included.
 Solvent              : TetraHydroFuran, Eps=   7.425700 Eps(inf)=   1.974025
 ------------------------------------------------------------------------------
 GePol: Number of generator spheres                  =      55
 GePol: Total number of spheres                      =      55
 GePol: Number of exposed spheres                    =      55 (100.00%)
 GePol: Number of points                             =    3875
 GePol: Average weight of points                     =       0.13
 GePol: Minimum weight of points                     =   0.14D-11
 GePol: Maximum weight of points                     =    0.20577
 GePol: Number of points with low weight             =     242
 GePol: Fraction of low-weight points (<1% of avg)   =       6.25%
 GePol: Cavity surface area                          =    487.203 Ang**2
 GePol: Cavity volume                                =    572.042 Ang**3
 Leave Link  301 at Sat Jun 15 08:43:02 2019, MaxMem=  6442450944 cpu:               9.9 elap:               0.4
 (Enter /home/ekwan/sw/g16/l302.exe)
 NPDir=0 NMtPBC=     1 NCelOv=     1 NCel=       1 NClECP=     1 NCelD=      1
         NCelK=      1 NCelE2=     1 NClLst=     1 CellRange=     0.0.
 One-electron integrals computed using PRISM.
 One-electron integral symmetry used in STVInt
 NBasis=   555 RedAO= T EigKep=  4.04D-04  NBF=   555
 NBsUse=   555 1.00D-06 EigRej= -1.00D+00 NBFU=   555
 Precomputing XC quadrature grid using
 IXCGrd= 4 IRadAn=           5 IRanWt=          -1 IRanGd=           0 AccXCQ= 0.00D+00.
 Generated NRdTot=       0 NPtTot=           0 NUsed=           0 NTot=          32
 NSgBfM=   544   543   543   543   544 MxSgAt=    55 MxSgA2=    55.
 Leave Link  302 at Sat Jun 15 08:43:09 2019, MaxMem=  6442450944 cpu:             194.5 elap:               6.6
 (Enter /home/ekwan/sw/g16/l303.exe)
 DipDrv:  MaxL=1.
 Leave Link  303 at Sat Jun 15 08:43:09 2019, MaxMem=  6442450944 cpu:               8.6 elap:               0.3
 (Enter /home/ekwan/sw/g16/l401.exe)
 ExpMin= 8.45D-02 ExpMax= 2.19D+04 ExpMxC= 3.30D+03 IAcc=3 IRadAn=         5 AccDes= 0.00D+00
 Harris functional with IExCor= 1009 and IRadAn=       5 diagonalized for initial guess.
 HarFok:  IExCor= 1009 AccDes= 0.00D+00 IRadAn=         5 IDoV= 1 UseB2=F ITyADJ=14
 ICtDFT=  3500011 ScaDFX=  1.000000  1.000000  1.000000  1.000000
 FoFCou: FMM=F IPFlag=           0 FMFlag=      100000 FMFlg1=           0
         NFxFlg=           0 DoJE=T BraDBF=F KetDBF=T FulRan=T
         wScrn=  0.000000 ICntrl=       500 IOpCl=  0 I1Cent=   200000004 NGrid=           0
         NMat0=    1 NMatS0=      1 NMatT0=    0 NMatD0=    1 NMtDS0=    0 NMtDT0=    0
 Petite list used in FoFCou.
 Harris En= -2257.85253883209    
 JPrj=0 DoOrth=F DoCkMO=F.
 Leave Link  401 at Sat Jun 15 08:43:18 2019, MaxMem=  6442450944 cpu:             251.0 elap:               8.5
 (Enter /home/ekwan/sw/g16/l502.exe)
 Integral symmetry usage will be decided dynamically.
 Closed shell SCF:
 Using DIIS extrapolation, IDIIS=  1040.
 NGot=  6442450944 LenX=  6441811192 LenY=  6441502612
 Requested convergence on RMS density matrix=1.00D-08 within 128 cycles.
 Requested convergence on MAX density matrix=1.00D-06.
 Requested convergence on             energy=1.00D-06.
 No special actions if energy rises.
 Fock matrices will be formed incrementally for  20 cycles.

 Cycle   1  Pass 1  IDiag  1:
 FoFJK:  IHMeth= 1 ICntrl=       0 DoSepK=T KAlg= 0 I1Cent=           0 FoldK=F
 IRaf=         1 NMat=       1 IRICut=       1 DoRegI=T DoRafI=F ISym2E= 0 IDoP0=0 IntGTp=1.
 FoFCou: FMM=F IPFlag=           0 FMFlag=      100000 FMFlg1=           0
         NFxFlg=           0 DoJE=T BraDBF=F KetDBF=F FulRan=T
         wScrn=  0.000000 ICntrl=       500 IOpCl=  0 I1Cent=           0 NGrid=           0
         NMat0=    1 NMatS0=      1 NMatT0=    0 NMatD0=    1 NMtDS0=    0 NMtDT0=    0
 Symmetry not used in FoFCou.
 Inv3:  Mode=1 IEnd=    45046875.
 Iteration    1 A*A^-1 deviation from unit magnitude is 4.00D-15 for   3874.
 Iteration    1 A*A^-1 deviation from orthogonality  is 3.25D-15 for   3869   2667.
 Iteration    1 A^-1*A deviation from unit magnitude is 4.44D-15 for   3860.
 Iteration    1 A^-1*A deviation from orthogonality  is 1.17D-13 for   3351   3326.
 E= -2296.84992415428    
 DIIS: error= 1.41D-02 at cycle   1 NSaved=   1.
 NSaved= 1 IEnMin= 1 EnMin= -2296.84992415428     IErMin= 1 ErrMin= 1.41D-02
 ErrMax= 1.41D-02  0.00D+00 EMaxC= 1.00D-01 BMatC= 5.56D-01 BMatP= 5.56D-01
 IDIUse=3 WtCom= 8.59D-01 WtEn= 1.41D-01
 Coeff-Com:  0.100D+01
 Coeff-En:   0.100D+01
 Coeff:      0.100D+01
 Gap=     0.372 Goal=   None    Shift=    0.000
 GapD=    0.372 DampG=1.000 DampE=0.500 DampFc=0.5000 IDamp=-1.
 Damping current iteration by 5.00D-01
 RMSDP=2.53D-03 MaxDP=3.19D-01              OVMax= 1.05D-01

 Cycle   2  Pass 1  IDiag  1:
 RMSU=  1.26D-03    CP:  1.00D+00
 E= -2297.08000498707     Delta-E=       -0.230080832795 Rises=F Damp=T
 DIIS: error= 4.64D-03 at cycle   2 NSaved=   2.
 NSaved= 2 IEnMin= 2 EnMin= -2297.08000498707     IErMin= 2 ErrMin= 4.64D-03
 ErrMax= 4.64D-03  0.00D+00 EMaxC= 1.00D-01 BMatC= 4.12D-02 BMatP= 5.56D-01
 IDIUse=3 WtCom= 9.54D-01 WtEn= 4.64D-02
 Coeff-Com: -0.512D-01 0.105D+01
 Coeff-En:   0.000D+00 0.100D+01
 Coeff:     -0.488D-01 0.105D+01
 Gap=     0.383 Goal=   None    Shift=    0.000
 RMSDP=7.66D-04 MaxDP=4.55D-02 DE=-2.30D-01 OVMax= 6.53D-02

 Cycle   3  Pass 1  IDiag  1:
 RMSU=  7.48D-04    CP:  1.00D+00  1.13D+00
 E= -2297.30657799540     Delta-E=       -0.226573008326 Rises=F Damp=F
 DIIS: error= 2.84D-03 at cycle   3 NSaved=   3.
 NSaved= 3 IEnMin= 3 EnMin= -2297.30657799540     IErMin= 3 ErrMin= 2.84D-03
 ErrMax= 2.84D-03  0.00D+00 EMaxC= 1.00D-01 BMatC= 1.83D-02 BMatP= 4.12D-02
 IDIUse=3 WtCom= 9.72D-01 WtEn= 2.84D-02
 Coeff-Com: -0.816D-01 0.414D+00 0.668D+00
 Coeff-En:   0.000D+00 0.000D+00 0.100D+01
 Coeff:     -0.793D-01 0.402D+00 0.677D+00
 Gap=     0.349 Goal=   None    Shift=    0.000
 RMSDP=2.83D-04 MaxDP=2.12D-02 DE=-2.27D-01 OVMax= 2.38D-02

 Cycle   4  Pass 1  IDiag  1:
 RMSU=  2.35D-04    CP:  1.00D+00  1.22D+00  8.45D-01
 E= -2297.31826058798     Delta-E=       -0.011682592579 Rises=F Damp=F
 DIIS: error= 1.23D-03 at cycle   4 NSaved=   4.
 NSaved= 4 IEnMin= 4 EnMin= -2297.31826058798     IErMin= 4 ErrMin= 1.23D-03
 ErrMax= 1.23D-03  0.00D+00 EMaxC= 1.00D-01 BMatC= 2.34D-03 BMatP= 1.83D-02
 IDIUse=3 WtCom= 9.88D-01 WtEn= 1.23D-02
 Coeff-Com: -0.245D-01 0.329D-01 0.279D+00 0.713D+00
 Coeff-En:   0.000D+00 0.000D+00 0.781D-02 0.992D+00
 Coeff:     -0.242D-01 0.325D-01 0.276D+00 0.716D+00
 Gap=     0.351 Goal=   None    Shift=    0.000
 RMSDP=9.68D-05 MaxDP=5.86D-03 DE=-1.17D-02 OVMax= 7.64D-03

 Cycle   5  Pass 1  IDiag  1:
 RMSU=  6.06D-05    CP:  1.00D+00  1.22D+00  9.19D-01  7.86D-01
 E= -2297.32004465468     Delta-E=       -0.001784066699 Rises=F Damp=F
 DIIS: error= 3.68D-04 at cycle   5 NSaved=   5.
 NSaved= 5 IEnMin= 5 EnMin= -2297.32004465468     IErMin= 5 ErrMin= 3.68D-04
 ErrMax= 3.68D-04  0.00D+00 EMaxC= 1.00D-01 BMatC= 1.60D-04 BMatP= 2.34D-03
 IDIUse=3 WtCom= 9.96D-01 WtEn= 3.68D-03
 Coeff-Com: -0.492D-02-0.694D-02 0.651D-01 0.273D+00 0.674D+00
 Coeff-En:   0.000D+00 0.000D+00 0.000D+00 0.000D+00 0.100D+01
 Coeff:     -0.490D-02-0.692D-02 0.649D-01 0.272D+00 0.675D+00
 Gap=     0.351 Goal=   None    Shift=    0.000
 RMSDP=2.48D-05 MaxDP=2.42D-03 DE=-1.78D-03 OVMax= 2.00D-03

 Cycle   6  Pass 1  IDiag  1:
 RMSU=  2.09D-05    CP:  1.00D+00  1.22D+00  9.27D-01  8.30D-01  9.57D-01
 E= -2297.32016898811     Delta-E=       -0.000124333432 Rises=F Damp=F
 DIIS: error= 1.48D-04 at cycle   6 NSaved=   6.
 NSaved= 6 IEnMin= 6 EnMin= -2297.32016898811     IErMin= 6 ErrMin= 1.48D-04
 ErrMax= 1.48D-04  0.00D+00 EMaxC= 1.00D-01 BMatC= 2.03D-05 BMatP= 1.60D-04
 IDIUse=3 WtCom= 9.99D-01 WtEn= 1.48D-03
 Coeff-Com:  0.141D-02-0.708D-02-0.173D-01-0.493D-02 0.246D+00 0.782D+00
 Coeff-En:   0.000D+00 0.000D+00 0.000D+00 0.000D+00 0.000D+00 0.100D+01
 Coeff:      0.141D-02-0.707D-02-0.172D-01-0.492D-02 0.246D+00 0.782D+00
 Gap=     0.351 Goal=   None    Shift=    0.000
 RMSDP=1.16D-05 MaxDP=7.41D-04 DE=-1.24D-04 OVMax= 1.08D-03

 Cycle   7  Pass 1  IDiag  1:
 RMSU=  7.74D-06    CP:  1.00D+00  1.22D+00  9.30D-01  8.46D-01  1.07D+00
                    CP:  1.02D+00
 E= -2297.32018935115     Delta-E=       -0.000020363040 Rises=F Damp=F
 DIIS: error= 4.43D-05 at cycle   7 NSaved=   7.
 NSaved= 7 IEnMin= 7 EnMin= -2297.32018935115     IErMin= 7 ErrMin= 4.43D-05
 ErrMax= 4.43D-05  0.00D+00 EMaxC= 1.00D-01 BMatC= 1.67D-06 BMatP= 2.03D-05
 IDIUse=1 WtCom= 1.00D+00 WtEn= 0.00D+00
 Coeff-Com:  0.975D-03-0.170D-02-0.133D-01-0.322D-01-0.337D-02 0.218D+00
 Coeff-Com:  0.831D+00
 Coeff:      0.975D-03-0.170D-02-0.133D-01-0.322D-01-0.337D-02 0.218D+00
 Coeff:      0.831D+00
 Gap=     0.351 Goal=   None    Shift=    0.000
 RMSDP=4.65D-06 MaxDP=2.27D-04 DE=-2.04D-05 OVMax= 6.33D-04

 Cycle   8  Pass 1  IDiag  1:
 RMSU=  2.94D-06    CP:  1.00D+00  1.22D+00  9.31D-01  8.47D-01  1.11D+00
                    CP:  1.14D+00  1.05D+00
 E= -2297.32019189120     Delta-E=       -0.000002540051 Rises=F Damp=F
 DIIS: error= 1.80D-05 at cycle   8 NSaved=   8.
 NSaved= 8 IEnMin= 8 EnMin= -2297.32019189120     IErMin= 8 ErrMin= 1.80D-05
 ErrMax= 1.80D-05  0.00D+00 EMaxC= 1.00D-01 BMatC= 3.87D-07 BMatP= 1.67D-06
 IDIUse=1 WtCom= 1.00D+00 WtEn= 0.00D+00
 Coeff-Com:  0.220D-03 0.274D-03-0.323D-02-0.122D-01-0.328D-01-0.803D-02
 Coeff-Com:  0.353D+00 0.703D+00
 Coeff:      0.220D-03 0.274D-03-0.323D-02-0.122D-01-0.328D-01-0.803D-02
 Coeff:      0.353D+00 0.703D+00
 Gap=     0.351 Goal=   None    Shift=    0.000
 RMSDP=1.62D-06 MaxDP=7.10D-05 DE=-2.54D-06 OVMax= 3.21D-04

 Cycle   9  Pass 1  IDiag  1:
 RMSU=  1.05D-06    CP:  1.00D+00  1.22D+00  9.31D-01  8.47D-01  1.12D+00
                    CP:  1.17D+00  1.16D+00  1.02D+00
 E= -2297.32019238225     Delta-E=       -0.000000491052 Rises=F Damp=F
 DIIS: error= 1.09D-05 at cycle   9 NSaved=   9.
 NSaved= 9 IEnMin= 9 EnMin= -2297.32019238225     IErMin= 9 ErrMin= 1.09D-05
 ErrMax= 1.09D-05  0.00D+00 EMaxC= 1.00D-01 BMatC= 3.78D-08 BMatP= 3.87D-07
 IDIUse=1 WtCom= 1.00D+00 WtEn= 0.00D+00
 Coeff-Com: -0.728D-04 0.322D-03 0.136D-02 0.213D-02-0.990D-02-0.386D-01
 Coeff-Com: -0.443D-01 0.158D+00 0.931D+00
 Coeff:     -0.728D-04 0.322D-03 0.136D-02 0.213D-02-0.990D-02-0.386D-01
 Coeff:     -0.443D-01 0.158D+00 0.931D+00
 Gap=     0.351 Goal=   None    Shift=    0.000
 RMSDP=8.70D-07 MaxDP=3.93D-05 DE=-4.91D-07 OVMax= 1.52D-04

 Cycle  10  Pass 1  IDiag  1:
 RMSU=  4.35D-07    CP:  1.00D+00  1.22D+00  9.31D-01  8.47D-01  1.12D+00
                    CP:  1.18D+00  1.22D+00  1.18D+00  1.17D+00
 E= -2297.32019246917     Delta-E=       -0.000000086917 Rises=F Damp=F
 DIIS: error= 2.06D-06 at cycle  10 NSaved=  10.
 NSaved=10 IEnMin=10 EnMin= -2297.32019246917     IErMin=10 ErrMin= 2.06D-06
 ErrMax= 2.06D-06  0.00D+00 EMaxC= 1.00D-01 BMatC= 6.96D-09 BMatP= 3.78D-08
 IDIUse=1 WtCom= 1.00D+00 WtEn= 0.00D+00
 Coeff-Com: -0.349D-04-0.837D-05 0.885D-03 0.263D-02 0.232D-02-0.839D-02
 Coeff-Com: -0.691D-01-0.754D-01 0.297D+00 0.850D+00
 Coeff:     -0.349D-04-0.837D-05 0.885D-03 0.263D-02 0.232D-02-0.839D-02
 Coeff:     -0.691D-01-0.754D-01 0.297D+00 0.850D+00
 Gap=     0.351 Goal=   None    Shift=    0.000
 RMSDP=3.15D-07 MaxDP=1.52D-05 DE=-8.69D-08 OVMax= 7.11D-05

 Cycle  11  Pass 1  IDiag  1:
 RMSU=  1.66D-07    CP:  1.00D+00  1.22D+00  9.31D-01  8.47D-01  1.13D+00
                    CP:  1.19D+00  1.23D+00  1.23D+00  1.34D+00  1.07D+00
 E= -2297.32019248193     Delta-E=       -0.000000012761 Rises=F Damp=F
 DIIS: error= 1.04D-06 at cycle  11 NSaved=  11.
 NSaved=11 IEnMin=11 EnMin= -2297.32019248193     IErMin=11 ErrMin= 1.04D-06
 ErrMax= 1.04D-06  0.00D+00 EMaxC= 1.00D-01 BMatC= 1.09D-09 BMatP= 6.96D-09
 IDIUse=1 WtCom= 1.00D+00 WtEn= 0.00D+00
 Coeff-Com: -0.316D-05-0.395D-04 0.224D-03 0.809D-03 0.172D-02 0.351D-03
 Coeff-Com: -0.214D-01-0.444D-01 0.218D-01 0.326D+00 0.715D+00
 Coeff:     -0.316D-05-0.395D-04 0.224D-03 0.809D-03 0.172D-02 0.351D-03
 Coeff:     -0.214D-01-0.444D-01 0.218D-01 0.326D+00 0.715D+00
 Gap=     0.351 Goal=   None    Shift=    0.000
 RMSDP=9.10D-08 MaxDP=5.77D-06 DE=-1.28D-08 OVMax= 1.97D-05

 Cycle  12  Pass 1  IDiag  1:
 RMSU=  6.64D-08    CP:  1.00D+00  1.22D+00  9.31D-01  8.47D-01  1.13D+00
                    CP:  1.19D+00  1.23D+00  1.24D+00  1.37D+00  1.17D+00
                    CP:  1.02D+00
 E= -2297.32019248330     Delta-E=       -0.000000001370 Rises=F Damp=F
 DIIS: error= 4.77D-07 at cycle  12 NSaved=  12.
 NSaved=12 IEnMin=12 EnMin= -2297.32019248330     IErMin=12 ErrMin= 4.77D-07
 ErrMax= 4.77D-07  0.00D+00 EMaxC= 1.00D-01 BMatC= 2.48D-10 BMatP= 1.09D-09
 IDIUse=1 WtCom= 1.00D+00 WtEn= 0.00D+00
 Coeff-Com:  0.841D-05-0.163D-04-0.115D-03-0.312D-03 0.128D-03 0.216D-02
 Coeff-Com:  0.862D-02-0.386D-03-0.703D-01-0.713D-01 0.329D+00 0.802D+00
 Coeff:      0.841D-05-0.163D-04-0.115D-03-0.312D-03 0.128D-03 0.216D-02
 Coeff:      0.862D-02-0.386D-03-0.703D-01-0.713D-01 0.329D+00 0.802D+00
 Gap=     0.351 Goal=   None    Shift=    0.000
 RMSDP=5.09D-08 MaxDP=2.33D-06 DE=-1.37D-09 OVMax= 8.58D-06

 Cycle  13  Pass 1  IDiag  1:
 RMSU=  2.11D-08    CP:  1.00D+00  1.22D+00  9.31D-01  8.47D-01  1.13D+00
                    CP:  1.19D+00  1.23D+00  1.24D+00  1.39D+00  1.23D+00
                    CP:  1.23D+00  9.68D-01
 E= -2297.32019248365     Delta-E=       -0.000000000350 Rises=F Damp=F
 DIIS: error= 7.84D-08 at cycle  13 NSaved=  13.
 NSaved=13 IEnMin=13 EnMin= -2297.32019248365     IErMin=13 ErrMin= 7.84D-08
 ErrMax= 7.84D-08  0.00D+00 EMaxC= 1.00D-01 BMatC= 9.75D-12 BMatP= 2.48D-10
 IDIUse=1 WtCom= 1.00D+00 WtEn= 0.00D+00
 Coeff-Com:  0.164D-05 0.673D-06-0.373D-04-0.124D-03-0.122D-03 0.337D-03
 Coeff-Com:  0.361D-02 0.412D-02-0.160D-01-0.412D-01 0.766D-02 0.164D+00
 Coeff-Com:  0.877D+00
 Coeff:      0.164D-05 0.673D-06-0.373D-04-0.124D-03-0.122D-03 0.337D-03
 Coeff:      0.361D-02 0.412D-02-0.160D-01-0.412D-01 0.766D-02 0.164D+00
 Coeff:      0.877D+00
 Gap=     0.351 Goal=   None    Shift=    0.000
 RMSDP=1.38D-08 MaxDP=6.29D-07 DE=-3.50D-10 OVMax= 1.66D-06

 Cycle  14  Pass 1  IDiag  1:
 RMSU=  7.32D-09    CP:  1.00D+00  1.22D+00  9.31D-01  8.47D-01  1.13D+00
                    CP:  1.18D+00  1.23D+00  1.24D+00  1.39D+00  1.25D+00
                    CP:  1.27D+00  1.05D+00  1.12D+00
 E= -2297.32019248363     Delta-E=        0.000000000015 Rises=F Damp=F
 DIIS: error= 2.49D-08 at cycle  14 NSaved=  14.
 NSaved=14 IEnMin=13 EnMin= -2297.32019248365     IErMin=14 ErrMin= 2.49D-08
 ErrMax= 2.49D-08  0.00D+00 EMaxC= 1.00D-01 BMatC= 2.04D-12 BMatP= 9.75D-12
 IDIUse=1 WtCom= 1.00D+00 WtEn= 0.00D+00
 Coeff-Com: -0.542D-06 0.223D-05 0.688D-06-0.591D-05-0.650D-04-0.170D-03
 Coeff-Com:  0.265D-03 0.161D-02 0.238D-02-0.675D-02-0.367D-01-0.370D-01
 Coeff-Com:  0.317D+00 0.759D+00
 Coeff:     -0.542D-06 0.223D-05 0.688D-06-0.591D-05-0.650D-04-0.170D-03
 Coeff:      0.265D-03 0.161D-02 0.238D-02-0.675D-02-0.367D-01-0.370D-01
 Coeff:      0.317D+00 0.759D+00
 Gap=     0.351 Goal=   None    Shift=    0.000
 RMSDP=4.51D-09 MaxDP=2.44D-07 DE= 1.46D-11 OVMax= 7.58D-07

 Error on total polarization charges =  0.01033
 SCF Done:  E(RM11) =  -2297.32019248     A.U. after   14 cycles
            NFock= 14  Conv=0.45D-08     -V/T= 2.0085
 KE= 2.278057387146D+03 PE=-1.412949301268D+04 EE= 5.190036558338D+03
 Leave Link  502 at Sat Jun 15 08:51:18 2019, MaxMem=  6442450944 cpu:           14634.2 elap:             480.7
 (Enter /home/ekwan/sw/g16/l701.exe)
 ... and contract with generalized density number  0.
 Compute integral first derivatives.
 D1PCM: PCM CHGder 1st derivatives, ID1Alg=3 FixD1E=F DoIter=F DoCFld=F I1PDM=0.
 GePol: Maximum number of non-zero 1st derivatives   =     215
 Leave Link  701 at Sat Jun 15 08:51:29 2019, MaxMem=  6442450944 cpu:             304.3 elap:              10.9
 (Enter /home/ekwan/sw/g16/l702.exe)
 L702 exits ... SP integral derivatives will be done elsewhere.
 Leave Link  702 at Sat Jun 15 08:51:29 2019, MaxMem=  6442450944 cpu:               2.6 elap:               0.1
 (Enter /home/ekwan/sw/g16/l703.exe)
 Integral derivatives from FoFJK, PRISM(SPDF).
 Compute integral first derivatives, UseDBF=F ICtDFT=           0.
 Calling FoFJK, ICntrl=      2127 FMM=F ISym2X=0 I1Cent= 0 IOpClX= 0 NMat=1 NMatS=1 NMatT=0.
 FoFJK:  IHMeth= 1 ICntrl=    2127 DoSepK=T KAlg= 0 I1Cent=           0 FoldK=F
 IRaf=         1 NMat=       1 IRICut=       1 DoRegI=T DoRafI=F ISym2E= 0 IDoP0=0 IntGTp=1.
 FoFCou: FMM=F IPFlag=           0 FMFlag=      100000 FMFlg1=         800
         NFxFlg=           0 DoJE=F BraDBF=F KetDBF=F FulRan=T
         wScrn=  0.000000 ICntrl=      2527 IOpCl=  0 I1Cent=           0 NGrid=           0
         NMat0=    1 NMatS0=      1 NMatT0=    0 NMatD0=    1 NMtDS0=    0 NMtDT0=    0
 Symmetry not used in FoFCou.
 Leave Link  703 at Sat Jun 15 08:52:42 2019, MaxMem=  6442450944 cpu:            2244.4 elap:              72.5
 (Enter /home/ekwan/sw/g16/l716.exe)
 Dipole        = 3.66193645D-01 1.31130329D+00-6.82075196D-01
 ***** Axes restored to original set *****
 -------------------------------------------------------------------
 Center     Atomic                   Forces (Hartrees/Bohr)
 Number     Number              X              Y              Z
 -------------------------------------------------------------------
      1        6           0.000002231   -0.000001600   -0.000000491
      2        6          -0.000000079   -0.000000767    0.000001524
      3        6          -0.000000190   -0.000000157   -0.000000261
      4        6          -0.000000570    0.000000882   -0.000000256
      5        6          -0.000000245    0.000001837   -0.000000783
      6        1           0.000000271   -0.000000735    0.000001428
      7        1          -0.000000358    0.000000277   -0.000000906
      8        1          -0.000000364    0.000001171    0.000000545
      9        1           0.000000399    0.000000275   -0.000000385
     10        1          -0.000000400   -0.000000477   -0.000000471
     11        8          -0.000000898    0.000000152   -0.000000077
     12        8           0.000000570   -0.000002027    0.000001699
     13        8          -0.000000741    0.000000834    0.000000473
     14        8          -0.000001280    0.000001657   -0.000000217
     15        8           0.000001007    0.000000332   -0.000000343
     16        6           0.000001308    0.000000783   -0.000000996
     17        1          -0.000000498    0.000000395   -0.000000620
     18        1          -0.000000942   -0.000000023   -0.000000979
     19        8          -0.000000737   -0.000000540   -0.000001161
     20       16           0.000002222   -0.000000181    0.000000628
     21        8           0.000000233   -0.000000040    0.000002841
     22        8           0.000000476   -0.000000073    0.000000647
     23        6           0.000000159   -0.000000604   -0.000001272
     24        6           0.000000385    0.000000803    0.000002323
     25        6           0.000000052   -0.000001687    0.000000848
     26        6           0.000000762   -0.000000403    0.000000903
     27        1           0.000000442    0.000001039    0.000000320
     28        6          -0.000001039   -0.000001479    0.000000363
     29        1           0.000000235   -0.000001800    0.000000960
     30        6           0.000000181    0.000000401   -0.000001170
     31        1           0.000000010   -0.000000752   -0.000000064
     32        6           0.000000326    0.000000003    0.000000901
     33        1           0.000000314   -0.000000364    0.000001293
     34        1           0.000000205   -0.000000589    0.000000896
     35        1           0.000000329   -0.000000122    0.000001759
     36        6           0.000000516    0.000001402   -0.000000151
     37        1           0.000000081    0.000001745   -0.000000227
     38        1           0.000000155    0.000001836    0.000000439
     39        1           0.000000158    0.000001332    0.000000359
     40        6          -0.000002535    0.000001828   -0.000002852
     41        1           0.000000042    0.000001462   -0.000001294
     42        1           0.000000067    0.000001560   -0.000001195
     43        1          -0.000000430    0.000000376   -0.000001546
     44        6          -0.000000073   -0.000000639   -0.000001613
     45        1          -0.000000921   -0.000000988   -0.000001690
     46        1          -0.000000921   -0.000001377   -0.000001111
     47        1          -0.000000396   -0.000000576   -0.000000769
     48        6          -0.000000379   -0.000001581   -0.000000107
     49        9          -0.000000155    0.000000512    0.000000681
     50        9           0.000000941    0.000001544    0.000000831
     51        9          -0.000000342    0.000001899    0.000000424
     52        6           0.000001732   -0.000000918   -0.000000027
     53        9           0.000000180   -0.000001917    0.000000097
     54        9          -0.000001323   -0.000001614    0.000000088
     55        9          -0.000000171   -0.000002306   -0.000000236
 -------------------------------------------------------------------
 Cartesian Forces:  Max     0.000002852 RMS     0.000001022
 Leave Link  716 at Sat Jun 15 08:52:42 2019, MaxMem=  6442450944 cpu:               2.0 elap:               0.1
 (Enter /home/ekwan/sw/g16/l103.exe)

 GradGradGradGradGradGradGradGradGradGradGradGradGradGradGradGradGradGrad
 Berny optimization.
 FormGI is forming the generalized inverse of G from B-inverse, IUseBI=4.
 GSVD:  received Info=                   1 from GESDD.
 Internal  Forces:  Max     0.000006518 RMS     0.000000750
 Search for a local minimum.
 Step number   1 out of a maximum of  291
 All quantities printed in internal units (Hartrees-Bohrs-Radians)
 RMS Force = .75041D-06 SwitMx=.10000D-02 MixMth= 2
 Mixed Optimization -- En-DIIS/RFO-DIIS
 Second derivative matrix not updated -- first step.
 ITU=  0
     Eigenvalues ---    0.00434   0.00581   0.00616   0.00665   0.00682
     Eigenvalues ---    0.00704   0.00868   0.01400   0.01407   0.01416
     Eigenvalues ---    0.01425   0.01433   0.01541   0.01546   0.01547
     Eigenvalues ---    0.01574   0.01635   0.01643   0.01652   0.02211
     Eigenvalues ---    0.02214   0.02221   0.02226   0.02235   0.02239
     Eigenvalues ---    0.02440   0.02938   0.03352   0.04529   0.04649
     Eigenvalues ---    0.04795   0.04870   0.04933   0.05203   0.05268
     Eigenvalues ---    0.05826   0.06012   0.06547   0.06976   0.07041
     Eigenvalues ---    0.07175   0.07750   0.09328   0.10091   0.10111
     Eigenvalues ---    0.10134   0.10214   0.10521   0.10555   0.10580
     Eigenvalues ---    0.10590   0.10632   0.10804   0.10883   0.10890
     Eigenvalues ---    0.10943   0.11002   0.11342   0.11754   0.11895
     Eigenvalues ---    0.14060   0.14749   0.16000   0.16000   0.16000
     Eigenvalues ---    0.16000   0.16000   0.16000   0.16000   0.16000
     Eigenvalues ---    0.16000   0.16000   0.16000   0.16000   0.16000
     Eigenvalues ---    0.16000   0.16000   0.16332   0.16920   0.17393
     Eigenvalues ---    0.18604   0.19551   0.19776   0.20815   0.22147
     Eigenvalues ---    0.23480   0.23491   0.23505   0.24953   0.24980
     Eigenvalues ---    0.24994   0.25000   0.25000   0.25000   0.25000
     Eigenvalues ---    0.25000   0.25000   0.25000   0.25000   0.25000
     Eigenvalues ---    0.25000   0.25000   0.25000   0.27197   0.27634
     Eigenvalues ---    0.28745   0.29130   0.29282   0.29879   0.31591
     Eigenvalues ---    0.31724   0.32805   0.33046   0.33166   0.33208
     Eigenvalues ---    0.33247   0.33335   0.33352   0.33358   0.33359
     Eigenvalues ---    0.33424   0.33509   0.33637   0.33811   0.33993
     Eigenvalues ---    0.34058   0.34074   0.34077   0.34090   0.34217
     Eigenvalues ---    0.34681   0.34715   0.34754   0.36678   0.38031
     Eigenvalues ---    0.42234   0.42334   0.42431   0.42524   0.43046
     Eigenvalues ---    0.43167   0.43784   0.43846   0.43859   0.45125
     Eigenvalues ---    0.46544   0.47211   0.47336   0.47362   0.47553
     Eigenvalues ---    0.48685   0.54227   0.55509   0.55673   0.55853
     Eigenvalues ---    0.56104   0.56187   0.91882   0.94357
 RFO step:  Lambda= 0.00000000D+00 EMin= 4.33631339D-03
 Linear search not attempted -- first point.
 Iteration  1 RMS(Cart)=  0.00025110 RMS(Int)=  0.00000001
 Iteration  2 RMS(Cart)=  0.00000002 RMS(Int)=  0.00000000
 ITry= 1 IFail=0 DXMaxC= 9.71D-04 DCOld= 1.00D+10 DXMaxT= 3.00D-01 DXLimC= 3.00D+00 Rises=F
 Variable       Old X    -DE/DX   Delta X   Delta X   Delta X     New X
                                 (Linear)    (Quad)   (Total)
    R1        2.88833   0.00000   0.00000   0.00000   0.00000   2.88832
    R2        2.88067   0.00000   0.00000   0.00000   0.00000   2.88067
    R3        2.08971   0.00000   0.00000   0.00000   0.00000   2.08971
    R4        2.66714   0.00000   0.00000   0.00000   0.00000   2.66714
    R5        2.90521   0.00000   0.00000   0.00000   0.00000   2.90521
    R6        2.09395   0.00000   0.00000   0.00000   0.00000   2.09395
    R7        2.65131   0.00000   0.00000   0.00000   0.00000   2.65131
    R8        2.07179   0.00000   0.00000   0.00000   0.00000   2.07179
    R9        2.61409   0.00000   0.00000   0.00001   0.00001   2.61410
   R10        2.76335   0.00000   0.00000   0.00000   0.00000   2.76335
   R11        2.88676   0.00000   0.00000   0.00000   0.00000   2.88676
   R12        2.08762   0.00000   0.00000   0.00000   0.00000   2.08762
   R13        2.72372   0.00000   0.00000   0.00000   0.00000   2.72372
   R14        2.88206   0.00000   0.00000   0.00000   0.00000   2.88207
   R15        2.08621   0.00000   0.00000   0.00000   0.00000   2.08620
   R16        2.66639   0.00000   0.00000   0.00000   0.00000   2.66639
   R17        3.04916   0.00000   0.00000   0.00000   0.00000   3.04916
   R18        2.68378   0.00000   0.00000   0.00000   0.00000   2.68378
   R19        2.68500   0.00000   0.00000   0.00000   0.00000   2.68500
   R20        2.68626   0.00000   0.00000   0.00000   0.00000   2.68626
   R21        2.07343   0.00000   0.00000   0.00000   0.00000   2.07343
   R22        2.08688   0.00000   0.00000   0.00000   0.00000   2.08688
   R23        2.66624   0.00000   0.00000   0.00000   0.00000   2.66624
   R24        2.68261   0.00000   0.00000   0.00000   0.00000   2.68261
   R25        2.74687   0.00000   0.00000   0.00000   0.00000   2.74688
   R26        2.75778   0.00000   0.00000   0.00000   0.00000   2.75778
   R27        3.36647   0.00000   0.00000   0.00000   0.00000   3.36646
   R28        2.62498   0.00000   0.00000   0.00000   0.00000   2.62499
   R29        2.62304   0.00000   0.00000   0.00000   0.00000   2.62303
   R30        2.62693   0.00000   0.00000   0.00000   0.00000   2.62693
   R31        2.06197   0.00000   0.00000   0.00000   0.00000   2.06196
   R32        2.62614   0.00000   0.00000   0.00000   0.00000   2.62614
   R33        2.06140   0.00000   0.00000   0.00000   0.00000   2.06140
   R34        2.62841   0.00000   0.00000   0.00000   0.00000   2.62841
   R35        2.84898   0.00000   0.00000   0.00000   0.00000   2.84899
   R36        2.62796   0.00000   0.00000   0.00000   0.00000   2.62796
   R37        2.84651   0.00000   0.00000   0.00000   0.00000   2.84651
   R38        2.06076   0.00000   0.00000   0.00000   0.00000   2.06076
   R39        2.08426   0.00000   0.00000   0.00000   0.00000   2.08426
   R40        2.08438   0.00000   0.00000   0.00000   0.00000   2.08438
   R41        2.06965   0.00000   0.00000   0.00000   0.00000   2.06965
   R42        2.07200   0.00000   0.00000   0.00000   0.00000   2.07200
   R43        2.08428   0.00000   0.00000   0.00000   0.00000   2.08428
   R44        2.07650   0.00000   0.00000   0.00000   0.00000   2.07650
   R45        2.07206   0.00000   0.00000   0.00000   0.00000   2.07206
   R46        2.07948   0.00000   0.00000   0.00000   0.00000   2.07948
   R47        2.08313   0.00000   0.00000   0.00000   0.00000   2.08313
   R48        2.07233   0.00000   0.00000   0.00000   0.00000   2.07233
   R49        2.08467   0.00000   0.00000   0.00000   0.00000   2.08467
   R50        2.08167   0.00000   0.00000   0.00000   0.00000   2.08167
   R51        2.54381   0.00000   0.00000   0.00000   0.00000   2.54381
   R52        2.54683   0.00000   0.00000   0.00000   0.00000   2.54683
   R53        2.54538   0.00000   0.00000   0.00000   0.00000   2.54539
   R54        2.55826   0.00000   0.00000   0.00000   0.00000   2.55825
   R55        2.54092   0.00000   0.00000   0.00000   0.00000   2.54093
   R56        2.54164   0.00000   0.00000   0.00000   0.00000   2.54164
    A1        1.91519   0.00000   0.00000   0.00000   0.00000   1.91519
    A2        1.90597   0.00000   0.00000   0.00001   0.00001   1.90598
    A3        1.93172   0.00000   0.00000   0.00000   0.00000   1.93173
    A4        1.90017   0.00000   0.00000   0.00000   0.00000   1.90016
    A5        1.88216   0.00000   0.00000  -0.00001  -0.00001   1.88215
    A6        1.92827   0.00000   0.00000   0.00000   0.00000   1.92828
    A7        1.93600   0.00000   0.00000   0.00001   0.00001   1.93601
    A8        1.89248   0.00000   0.00000   0.00000   0.00000   1.89248
    A9        1.89209   0.00000   0.00000   0.00000   0.00000   1.89209
   A10        1.85220   0.00000   0.00000  -0.00001  -0.00001   1.85219
   A11        1.96032   0.00000   0.00000  -0.00001  -0.00001   1.96031
   A12        1.92982   0.00000   0.00000   0.00001   0.00001   1.92982
   A13        1.96116   0.00000   0.00000  -0.00001  -0.00001   1.96115
   A14        1.97915   0.00000   0.00000   0.00001   0.00001   1.97916
   A15        1.83954   0.00000   0.00000   0.00000   0.00000   1.83954
   A16        1.86670   0.00000   0.00000   0.00000   0.00000   1.86670
   A17        1.88327   0.00000   0.00000  -0.00002  -0.00002   1.88325
   A18        1.93281   0.00000   0.00000   0.00002   0.00002   1.93283
   A19        1.90433   0.00000   0.00000   0.00000   0.00000   1.90433
   A20        1.92285   0.00000   0.00000  -0.00001  -0.00001   1.92284
   A21        1.94246   0.00000   0.00000   0.00000   0.00000   1.94245
   A22        1.89998   0.00000   0.00000   0.00000   0.00000   1.89998
   A23        1.89303   0.00000   0.00000   0.00000   0.00000   1.89303
   A24        1.90050   0.00000   0.00000   0.00001   0.00001   1.90051
   A25        1.93548   0.00000   0.00000   0.00000   0.00000   1.93548
   A26        1.90027   0.00000   0.00000   0.00000   0.00000   1.90027
   A27        1.92682   0.00000   0.00000   0.00000   0.00000   1.92683
   A28        1.89599   0.00000   0.00000  -0.00001  -0.00001   1.89598
   A29        1.87541   0.00000   0.00000   0.00000   0.00000   1.87541
   A30        1.92976   0.00000   0.00000   0.00000   0.00000   1.92976
   A31        2.00361   0.00000   0.00000   0.00001   0.00001   2.00362
   A32        2.05834  -0.00001   0.00000  -0.00003  -0.00003   2.05831
   A33        1.99415   0.00000   0.00000   0.00000   0.00000   1.99415
   A34        1.99509   0.00000   0.00000   0.00000   0.00000   1.99510
   A35        1.97953   0.00000   0.00000   0.00000   0.00000   1.97953
   A36        1.87960   0.00000   0.00000   0.00000   0.00000   1.87960
   A37        1.90497   0.00000   0.00000   0.00001   0.00001   1.90497
   A38        1.98741   0.00000   0.00000   0.00001   0.00001   1.98742
   A39        1.90403   0.00000   0.00000   0.00000   0.00000   1.90402
   A40        1.85765   0.00000   0.00000   0.00000   0.00000   1.85764
   A41        1.92770   0.00000   0.00000  -0.00001  -0.00001   1.92770
   A42        1.98900   0.00000   0.00000   0.00000   0.00000   1.98900
   A43        1.83236   0.00000   0.00000   0.00001   0.00001   1.83237
   A44        1.88800   0.00000   0.00000  -0.00001  -0.00001   1.88800
   A45        1.80850   0.00000   0.00000  -0.00001  -0.00001   1.80849
   A46        2.11931   0.00000   0.00000   0.00001   0.00001   2.11932
   A47        1.89709   0.00000   0.00000   0.00000   0.00000   1.89709
   A48        1.89365   0.00000   0.00000  -0.00001  -0.00001   1.89364
   A49        2.06867   0.00000   0.00000   0.00000   0.00000   2.06867
   A50        2.07392   0.00000   0.00000  -0.00001  -0.00001   2.07392
   A51        2.14036   0.00000   0.00000   0.00000   0.00000   2.14037
   A52        2.05919   0.00000   0.00000   0.00000   0.00000   2.05919
   A53        2.10855   0.00000   0.00000   0.00000   0.00000   2.10855
   A54        2.11544   0.00000   0.00000   0.00000   0.00000   2.11544
   A55        2.05851   0.00000   0.00000   0.00000   0.00000   2.05851
   A56        2.10691   0.00000   0.00000   0.00000   0.00000   2.10690
   A57        2.11776   0.00000   0.00000   0.00000   0.00000   2.11777
   A58        2.11151   0.00000   0.00000   0.00000   0.00000   2.11151
   A59        2.08687   0.00000   0.00000   0.00000   0.00000   2.08687
   A60        2.08411   0.00000   0.00000   0.00000   0.00000   2.08411
   A61        2.11305   0.00000   0.00000   0.00000   0.00000   2.11305
   A62        2.07858   0.00000   0.00000   0.00000   0.00000   2.07858
   A63        2.08994   0.00000   0.00000   0.00000   0.00000   2.08994
   A64        2.08373   0.00000   0.00000   0.00000   0.00000   2.08373
   A65        2.09958   0.00000   0.00000   0.00000   0.00000   2.09958
   A66        2.09988   0.00000   0.00000   0.00000   0.00000   2.09988
   A67        1.94466   0.00000   0.00000   0.00000   0.00000   1.94466
   A68        1.93474   0.00000   0.00000   0.00000   0.00000   1.93474
   A69        1.86906   0.00000   0.00000   0.00000   0.00000   1.86905
   A70        1.90859   0.00000   0.00000   0.00000   0.00000   1.90859
   A71        1.89781   0.00000   0.00000   0.00000   0.00000   1.89781
   A72        1.90803   0.00000   0.00000   0.00000   0.00000   1.90803
   A73        1.86576   0.00000   0.00000   0.00000   0.00000   1.86576
   A74        1.93054   0.00000   0.00000   0.00000   0.00000   1.93055
   A75        1.94158   0.00000   0.00000   0.00000   0.00000   1.94158
   A76        1.90294   0.00000   0.00000   0.00000   0.00000   1.90294
   A77        1.91435   0.00000   0.00000   0.00000   0.00000   1.91435
   A78        1.90796   0.00000   0.00000   0.00000   0.00000   1.90796
   A79        1.86890   0.00000   0.00000   0.00000   0.00000   1.86890
   A80        1.93103   0.00000   0.00000   0.00000   0.00000   1.93104
   A81        1.92483   0.00000   0.00000   0.00000   0.00000   1.92483
[...]
 657,-0.00002213,0.00000784,-0.00014650,-0.00026917,0.00000433,0.000001
 86,0.00002710,0.00001730,0.00004504,0.00002039,-0.00000718,-0.00000998
 ,0.00001589,-0.00001804,0.00015140,0.00019453,0.00087019,-0.00000306,0
 .00004828,-0.00008250,-0.00011120,-0.00000746,-0.00003511,-0.00002245,
 -0.00007926,-0.00004196,0.00183664,0.00039967,-0.00496299,0.00008719,-
 0.00015871,0.00166982,-0.00128632,-0.00065045,0.00120610,-0.00059828,0
 .00054808,0.00138678,0.01320754,-0.02559984,0.59016207,0.00006918,-0.0
 0015832,0.00000734,0.00007763,-0.00003422,-0.00005461,0.00012685,-0.00
 068991,0.00021532,-0.00017591,-0.00075359,-0.00025704,0.00005844,0.000
 28363,0.00014360,-0.00002017,0.00003368,-0.00000691,0.00001742,0.00000
 828,-0.00000289,-0.00000879,0.00001235,-0.00001239,-0.00001922,0.00005
 165,-0.00004308,0.00005889,-0.00000952,0.00001061,-0.00025517,0.000580
 60,0.00003803,0.00043108,0.00045167,-0.00014829,-0.00009519,0.00013302
 ,0.00002595,-0.00020640,0.00008507,-0.00009313,-0.00016830,-0.00005378
 ,-0.00012486,0.00192300,0.00140465,0.00044933,-0.00028623,-0.00003165,
 -0.00022202,-0.00144232,-0.00048356,-0.00024619,-0.00089722,-0.0008056
 1,-0.00054634,-0.00072971,-0.00008742,0.00016464,0.00016963,-0.0000864
 6,0.00001176,0.00017538,0.00000391,-0.00006741,0.00074075,-0.00058104,
 0.00060675,0.00034519,-0.00027616,-0.00045241,-0.00057338,-0.00073186,
 0.00088854,-0.00043463,0.00023275,-0.00016468,-0.00000074,-0.00003384,
 0.00000093,0.00869701,-0.00259026,-0.00192483,-0.00022262,-0.00025541,
 0.00001001,0.00014050,0.00053991,0.00059344,-0.00009621,0.00004269,-0.
 00047401,0.00000156,-0.00003695,-0.00005023,0.00000385,-0.00000025,0.0
 0001171,0.00000775,0.00000197,0.00000539,-0.00000895,0.00000952,0.0000
 0344,0.00004233,-0.00006295,0.00008195,-0.00001562,0.00000431,-0.00001
 089,0.00000278,0.00000757,-0.00001328,-0.00000564,0.00001473,-0.000005
 79,0.00009452,0.00009849,0.00005092,-0.00000732,-0.00001460,-0.0000263
 1,-0.00002845,-0.00001218,-0.00000180,0.00002499,0.00003771,0.00001468
 ,0.00132506,0.00067478,0.00108250,-0.00025026,-0.00017211,-0.00003593,
 -0.00155189,-0.00018708,-0.00056619,-0.00039021,-0.00013660,-0.0000744
 3,-0.00012353,-0.00011312,-0.00023557,0.00007982,0.00001003,0.00010347
 ,0.00000009,0.00000603,0.00005781,0.00001675,0.00004656,0.00007014,-0.
 11005791,-0.07539295,0.01592581,0.16746829,-0.00002210,-0.00017429,-0.
 00005816,-0.00009097,0.00000055,-0.00006257,-0.00025904,-0.00081924,0.
 00052896,-0.00024173,-0.00086083,-0.00026790,-0.00000138,0.00014678,0.
 00002359,-0.00003791,0.00004626,-0.00001815,0.00006300,0.00001944,-0.0
 0000212,-0.00001595,0.00001928,-0.00002676,-0.00009380,0.00004390,-0.0
 0011151,0.00009075,0.00000717,0.00001535,0.00020317,0.00083619,0.00004
 895,0.00135419,0.00059082,-0.00024712,0.00006359,0.00007183,-0.0000080
 8,-0.00003112,0.00010579,-0.00001284,-0.00007303,0.00012648,-0.0000086
 7,0.00115669,0.00063663,0.00061478,-0.00015211,0.00000230,-0.00013737,
 0.00043263,-0.00094683,0.00071426,-0.00052941,-0.00007549,-0.00070251,
 -0.00294369,0.00151811,0.00052616,0.00070851,-0.00090453,0.00022472,0.
 00077576,-0.00054046,-0.00052796,0.00111290,0.00071752,0.00055703,0.00
 000229,-0.00051099,0.00097617,-0.00107243,0.00076330,0.00185502,0.0016
 8607,0.00058400,0.00163607,-0.00018886,-0.00008118,-0.00010637,-0.0199
 2758,-0.03309442,0.01431592,-0.00081143,-0.00052355,-0.00039835,0.0022
 7247,-0.00291372,-0.00118423,-0.00083460,-0.00072715,-0.00020428,-0.00
 005622,-0.00002173,0.00001838,0.00000324,0.00001583,0.00001218,0.00000
 799,0.00001107,-0.00000948,0.00000713,0.00000155,0.00000336,0.00000105
 ,-0.00002410,0.00003146,0.00000104,0.00000449,-0.00000263,0.00000183,-
 0.00000194,-0.00000678,-0.00001002,0.00000781,-0.00000296,0.00003456,-
 0.00004076,0.00005417,0.00000063,-0.00000035,-0.00001039,-0.00001507,0
 .00000157,-0.00000590,0.00002633,0.00004732,-0.00000267,0.00122650,0.0
 0085127,0.00121959,-0.00019886,-0.00012720,-0.00005413,0.00022898,-0.0
 0035724,-0.00069650,-0.00047254,-0.00014937,-0.00011115,0.00123503,-0.
 00053611,-0.00212561,0.00005098,-0.00001917,0.00102303,-0.00054963,-0.
 00019241,0.00051409,-0.00031460,0.00051410,0.00056745,-0.07594724,-0.2
 1954488,0.03530887,0.14416289,0.29993219,0.00005461,-0.00003424,0.0000
 2098,0.00010951,-0.00002738,-0.00000707,0.00025740,0.00014946,-0.00028
 564,-0.00002502,-0.00020006,-0.00020646,0.00003890,0.00016859,0.000079
 13,-0.00000908,0.00001037,0.00000783,-0.00003942,-0.00001100,0.0000015
 8,0.00000670,-0.00000446,0.00001423,0.00005296,0.00000760,0.00006716,-
 0.00002626,-0.00001994,-0.00000155,-0.00030040,-0.00011146,0.00014575,
 -0.00074654,-0.00011048,0.00017732,-0.00010333,0.00005101,0.00005700,-
 0.00013656,0.00000651,-0.00004500,-0.00008853,-0.00009665,-0.00004850,
 0.00078794,0.00107139,-0.00008726,-0.00011049,-0.00004027,-0.00004959,
 -0.00125060,0.00013982,-0.00134078,-0.00035433,-0.00052810,0.00058944,
 0.00158186,-0.00125657,-0.00068770,-0.00039533,0.00061869,-0.00009207,
 -0.00040289,0.00038232,0.00049310,-0.00111117,-0.00036924,-0.00119022,
 -0.00063969,0.00079656,-0.00016305,0.00165994,-0.00015396,-0.00178471,
 -0.00090127,-0.00090929,0.00007656,0.00012071,0.00004737,0.00009846,0.
 01044998,0.03009699,0.00061504,0.00022291,0.00070123,0.00001051,-0.001
 10640,0.00003551,0.00090011,0.00047997,0.00026264,0.00018143,0.0000362
 4,-0.00001693,-0.00007032,0.00000443,-0.00000695,-0.00000249,-0.000006
 03,-0.00000997,0.00001328,-0.00000917,0.00000494,0.00000293,0.00002799
 ,-0.00002953,0.00003231,-0.00001207,0.00000022,-0.00000706,-0.00000035
 ,0.00000597,-0.00000216,0.00000102,0.00000712,-0.00000325,0.00005083,0
 .00009601,0.00000054,-0.00000210,-0.00000983,-0.00000708,-0.00001494,-
 0.00000786,0.00000205,0.00000401,-0.00000508,0.00000718,-0.00015494,-0
 .00017949,-0.00055490,0.00003808,0.00000757,0.00006068,0.00015155,0.00
 008563,0.00000739,0.00007933,0.00005206,0.00005292,-0.00061149,0.00008
 750,0.00121395,0.00000132,0.00002772,-0.00048511,0.00033245,0.00016136
 ,-0.00029966,0.00016950,-0.00019112,-0.00031910,0.01594760,0.03549038,
 -0.07933923,-0.01735355,-0.02296156,0.07569636,0.00012071,-0.00002520,
 0.00007549,0.00019531,-0.00007424,0.00000889,0.00039016,-0.00003357,-0
 .00025809,0.00006692,-0.00002135,0.00004894,0.00008843,0.00016433,0.00
 017596,0.00001442,-0.00000777,0.00001053,-0.00004110,-0.00000871,-0.00
 000713,0.00000211,0.00000026,0.00000699,0.00005127,0.00003049,0.000046
 62,0.00000418,-0.00001468,-0.00000092,-0.00048592,-0.00003480,-0.00005
 863,-0.00090545,-0.00004418,0.00005450,-0.00019003,0.00011691,0.000036
 74,-0.00024044,0.00001304,-0.00012074,-0.00014338,-0.00016739,-0.00016
 664,0.00078239,0.00058274,0.00023546,-0.00010846,-0.00002855,-0.000106
 56,0.00000598,-0.00011786,0.00024127,-0.00043663,-0.00040263,-0.000161
 76,0.00206861,-0.00162427,-0.00053729,-0.00061651,0.00115353,-0.000393
 85,-0.00054217,0.00060196,0.00046838,-0.00080211,0.00131476,0.00096361
 ,-0.00011278,0.00000104,-0.00060938,-0.00074485,0.00181507,-0.00662923
 ,0.00015409,0.00068549,-0.00086473,0.00007181,-0.00013625,-0.00003048,
 -0.03319988,0.01495927,0.00419998,0.00041390,-0.00067992,0.00007944,-0
 .00099685,0.00081064,0.00364745,-0.00026973,-0.00051380,-0.00202336,0.
 00005701,-0.00003276,-0.00007987,0.00000334,-0.00001744,0.00000454,0.0
 0000462,-0.00000589,0.00001487,-0.00002163,0.00001175,0.00000054,0.000
 06079,-0.00006642,0.00008615,-0.00002096,0.00000112,-0.00001160,0.0000
 0265,0.00001196,-0.00001384,0.00000206,0.00001260,-0.00000375,0.000089
 11,0.00014301,0.00002577,-0.00000776,-0.00001838,-0.00002466,-0.000023
 44,-0.00001505,0.00000358,0.00000873,0.00001080,0.00001742,0.00057256,
 0.00034527,0.00042512,-0.00011769,-0.00010144,-0.00000608,0.00011148,-
 0.00002405,-0.00029131,-0.00014488,-0.00004391,-0.00003383,-0.00119820
 ,0.00031473,0.00142548,0.00007825,0.00000368,-0.00054707,0.00056976,0.
 00020979,-0.00039512,0.00034244,-0.00037249,-0.00038638,-0.26440471,0.
 06901353,0.00558020,-0.06845951,-0.02767027,0.01365907,0.38513209,-0.0
 0004961,-0.00004219,-0.00004416,-0.00009888,0.00002425,-0.00002254,-0.
 00021823,-0.00025721,0.00026513,-0.00010071,-0.00024268,-0.00008647,-0
 .00002995,-0.00002115,-0.00006064,-0.00001639,0.00001552,-0.00001013,0
 .00003435,0.00001015,0.00000174,-0.00000556,0.00000558,-0.00001140,-0.
 00004824,0.00000319,-0.00005408,0.00002656,0.00000792,0.00000499,0.000
 21639,0.00026207,0.00003656,0.00072210,0.00020734,-0.00009235,0.000086
 35,-0.00001684,-0.00001565,0.00007674,0.00002847,0.00003903,0.00002771
 ,0.00010195,0.00005886,0.00006423,-0.00005638,0.00006203,-0.00000579,0
 .00001232,0.00000208,0.00004313,-0.00018834,0.00012999,-0.00002313,0.0
 0012844,-0.00014925,-0.00182888,0.00089114,0.00040873,0.00055367,-0.00
 074049,0.00024282,0.00044834,-0.00035339,-0.00035555,0.00007066,-0.001
 54500,0.00007066,0.00058953,-0.00036857,0.00011680,0.00061404,-0.00000
 909,0.00400392,-0.00024757,-0.00012397,0.00005372,-0.00002766,0.000072
 89,-0.00000814,0.03103336,-0.00189838,-0.00074590,-0.00012996,0.000634
 60,-0.00009996,0.00049342,-0.00105509,-0.00064725,0.00023953,-0.000300
 78,0.00097493,-0.00003874,0.00000360,0.00003410,0.00000030,0.00001102,
 0.00000250,0.00000130,0.00000599,-0.00000844,0.00000959,-0.00000358,0.
 00000076,-0.00002068,0.00001561,-0.00002094,0.00000793,0.00000094,0.00
 000338,-0.00000037,-0.00000500,0.00000281,-0.00000397,-0.00000194,0.00
 000061,-0.00002153,-0.00006637,0.00000751,0.00000363,0.00000661,0.0000
 0624,0.00000342,0.00000615,-0.00000302,0.00000511,0.00001088,-0.000007
 97,0.00017369,0.00009911,0.00020788,-0.00001455,0.00000125,-0.00001402
 ,0.00008090,-0.00004158,-0.00010607,-0.00007966,-0.00002316,-0.0000180
 9,0.00066362,-0.00027441,-0.00114237,-0.00000829,0.00000753,0.00042129
 ,-0.00030643,-0.00009214,0.00028362,-0.00021080,0.00029923,0.00030852,
 0.06518115,-0.09491342,0.00069564,-0.04346946,0.00776100,0.00568389,-0
 .08396804,0.10024814,0.00003538,0.00001911,0.00001817,0.00006684,-0.00
 002095,0.00001411,0.00016168,0.00021093,-0.00025476,0.00008249,0.00011
 599,0.00000301,0.00002387,0.00001477,0.00003213,-0.00000176,-0.0000016
 3,0.00000719,-0.00003044,-0.00000965,-0.00000046,0.00000471,-0.0000042
 3,0.00001100,0.00003693,-0.00000147,0.00004829,-0.00001977,-0.00000884
 ,-0.00000232,-0.00014767,-0.00016111,0.00005593,-0.00062984,-0.0001353
 1,0.00014063,-0.00006205,0.00002233,0.00003610,-0.00005616,-0.00001190
 ,-0.00001666,-0.00002917,-0.00005182,-0.00001895,-0.00001638,0.0000710
 2,-0.00006498,0.00002579,-0.00000333,0.00002030,0.00000887,0.00007576,
 -0.00008164,-0.00002965,-0.00007305,0.00019881,0.00145352,-0.00086752,
 -0.00063106,-0.00041993,0.00059400,-0.00012921,-0.00032488,0.00028501,
 0.00044436,-0.00083231,0.00142814,0.00006096,-0.00052604,0.00043960,-0
 .00013687,-0.00024377,0.00046588,-0.00366314,-0.00053310,0.00009131,0.
 00095848,-0.00004732,0.00004304,0.00005926,-0.02218007,0.01034052,0.00
 867572,-0.00037286,0.00007088,-0.00003709,-0.00068665,-0.00016507,-0.0
 0255943,-0.00177113,0.00134818,-0.00041209,0.00002477,-0.00001038,-0.0
 0004402,0.00000368,-0.00000508,-0.00000352,-0.00000494,-0.00000720,0.0
 0000843,-0.00000586,0.00000237,0.00000124,0.00001520,-0.00001158,0.000
 00940,-0.00000544,-0.00000096,-0.00000288,-0.00000079,0.00000288,0.000
 00035,0.00000177,0.00000275,-0.00000083,0.00001807,0.00003867,-0.00000
 517,0.00000063,-0.00000340,-0.00000058,-0.00000580,-0.00000229,0.00000
 146,-0.00000002,-0.00000575,0.00000173,-0.00011481,-0.00008746,-0.0002
 1148,0.00001583,0.00000227,0.00001408,-0.00000208,0.00003021,0.0000529
 2,0.00003388,0.00002217,0.00001298,-0.00034483,-0.00014371,0.00114486,
 -0.00006762,0.00004802,-0.00039500,0.00026612,0.00014466,-0.00025763,0
 .00010481,-0.00009467,-0.00030542,0.01486309,-0.00299023,-0.07906781,0
 .01628987,0.00384329,0.00963345,-0.05305695,0.01420988,0.08847443,0.00
 003696,-0.00000435,0.00002786,0.00006288,-0.00002525,-0.00000065,0.000
 13250,-0.00004682,-0.00003798,0.00000795,0.00001551,0.00005078,0.00003
 092,0.00004686,0.00004851,0.00001354,-0.00000448,0.00000135,-0.0000089
 1,-0.00000063,-0.00000240,0.00000043,0.00000004,0.00000038,0.00001323,
 0.00000851,0.00000554,0.00000211,-0.00000290,-0.00000049,-0.00014879,-
 0.00001058,-0.00005905,-0.00023218,0.00003027,-0.00001981,-0.00006110,
 0.00003981,0.00000629,-0.00007469,0.00000381,-0.00004059,-0.00004427,-
 0.00005291,-0.00005458,0.00020284,0.00016180,0.00006311,-0.00002665,-0
 .00000907,-0.00002894,0.00001390,-0.00007418,0.00009770,-0.00011274,-0
 .00010678,-0.00005817,0.00057003,-0.00062423,0.00012067,-0.00010525,0.
 00025877,-0.00012567,-0.00017094,0.00021341,0.00006167,0.00044352,-0.0
 0051641,-0.00023903,-0.00002241,0.00007826,-0.00024839,-0.00155787,0.0
 0007461,-0.00036712,0.00039635,-0.00023349,-0.00096093,0.00005672,-0.0
 0000549,-0.00004424,0.01011995,-0.00270319,-0.01169387,0.00024179,-0.0
 0018537,-0.00138839,-0.00166163,0.00168219,-0.00076670,0.00008559,0.00
 005017,-0.00038661,0.00001688,-0.00001111,-0.00002122,0.00000129,-0.00
 000622,0.00000245,0.00000335,-0.00000060,0.00000386,-0.00000752,0.0000
 0395,-0.00000054,0.00001982,-0.00002174,0.00002825,-0.00000644,0.00000
 040,-0.00000356,0.00000097,0.00000368,-0.00000487,0.00000064,0.0000039
 5,-0.00000086,0.00002677,0.00004321,0.00000760,-0.00000217,-0.00000587
 ,-0.00000756,-0.00000710,-0.00000468,0.00000140,0.00000229,0.00000318,
 0.00000512,0.00013584,0.00007151,0.00009320,-0.00003036,-0.00003058,-0
 .00000312,-0.00000002,0.00001866,-0.00003417,-0.00001907,-0.00000536,-
 0.00000372,-0.00047802,0.00015727,0.00050267,-0.00000540,0.00000485,-0
 .00028325,0.00023133,0.00008955,-0.00015403,0.00011210,-0.00011460,-0.
 00012507,-0.07392412,0.00340226,-0.00150350,0.00443274,-0.02434857,-0.
 02041486,-0.01723014,0.02950231,0.04903230,0.07852253,0.00000307,-0.00
 006532,-0.00002288,-0.00001544,-0.00000421,-0.00001968,-0.00004195,-0.
 00027256,0.00009243,-0.00005526,-0.00029922,-0.00013537,0.00001047,0.0
 0005769,0.00001841,-0.00002436,0.00001828,-0.00000281,0.00001146,0.000
 00400,-0.00000042,-0.00000374,0.00000528,-0.00000543,-0.00001883,0.000
 01413,-0.00001532,0.00002229,-0.00000179,0.00000395,-0.00001107,0.0002
 8648,0.00007984,0.00028105,0.00020170,0.00001080,0.00000182,0.00004278
 ,0.00002130,-0.00002937,0.00003993,-0.00000433,-0.00004135,0.00003726,
 0.00000044,0.00048788,0.00030492,0.00017364,-0.00005577,-0.00000326,-0
 .00003904,0.00009915,-0.00030379,0.00019804,-0.00025803,-0.00006602,-0
 .00008708,-0.00066374,0.00021043,-0.00038700,0.00011870,-0.00010681,0.
 00010931,0.00023086,-0.00009537,0.00010057,-0.00058814,0.00084287,-0.0
 0026696,-0.00036429,0.00019372,0.00078321,0.00228525,-0.00157548,0.000
 69323,0.00007733,-0.00099264,0.00066948,-0.00007493,0.00002391,0.00005
 392,0.00118800,0.00957473,0.00864299,-0.00083326,-0.00015284,0.0011759
 8,0.00099254,0.00019599,-0.00040598,0.00003325,0.00016184,0.00034685,-
 0.00001723,-0.00001806,-0.00001867,0.00000444,0.00000641,0.00000279,-0
 .00000048,0.00000068,0.00000019,0.00000148,0.00000126,0.00000271,0.000
 00470,-0.00001271,0.00001167,-0.00000108,0.00000139,-0.00000202,-0.000
 00002,-0.00000016,-0.00000125,-0.00000388,0.00000438,-0.00000163,0.000
 01946,-0.00000403,0.00001751,0.00000133,-0.00000096,-0.00000261,-0.000
 00849,0.00000004,-0.00000191,0.00001052,0.00001538,-0.00000173,0.00034
 364,0.00016535,0.00020393,-0.00004578,-0.00003132,-0.00000565,0.000117
 77,-0.00005268,-0.00016939,-0.00013694,-0.00002933,-0.00002668,0.00022
 097,-0.00036754,-0.00043244,-0.00000550,0.00003172,0.00011161,-0.00012
 598,0.00001846,0.00013510,-0.00009654,0.00017481,0.00009565,0.00150140
 ,-0.10510658,-0.07714432,-0.02167761,-0.05219658,-0.04896505,0.0239435
 5,-0.00824170,-0.02910508,-0.00681335,0.15736514,0.00009975,-0.0000278
 4,0.00002608,0.00015745,-0.00004493,-0.00000355,0.00039929,0.00010324,
 -0.00043985,0.00013451,-0.00003248,-0.00013783,0.00007764,0.00011424,0
 .00012366,-0.00002093,0.00001628,0.00001061,-0.00005501,-0.00001681,0.
 00000008,0.00000690,-0.00000441,0.00001941,0.00008556,0.00001468,0.000
 10078,-0.00002316,-0.00002392,-0.00000135,-0.00048507,-0.00007428,0.00
 019151,-0.00105471,-0.00002759,0.00023660,-0.00016014,0.00010443,0.000
 09929,-0.00018752,0.00001313,-0.00005717,-0.00012749,-0.00011374,-0.00
 007140,0.00060259,0.00054481,0.00007281,-0.00002690,-0.00001346,-0.000
 02257,0.00003270,-0.00002722,0.00002102,-0.00039432,-0.00032710,0.0003
 0912,0.00242669,-0.00204882,-0.00107441,-0.00062974,0.00094209,-0.0001
 2601,-0.00057222,0.00064328,0.00090434,0.00026035,0.00106293,-0.000016
 62,-0.00036767,0.00014551,-0.00078313,0.00249254,-0.00110732,-0.001027
 07,0.00165378,0.00066239,-0.00199472,-0.00007486,-0.00008067,0.0001023
 5,0.00067866,-0.02169321,-0.04672769,-0.00195663,0.00062430,-0.0010378
 1,-0.00628044,0.00481949,-0.00250561,-0.00029660,-0.00054515,0.0007347
 4,0.00004577,-0.00004099,-0.00012210,0.00001156,-0.00000728,-0.0000034
 7,-0.00001014,-0.00001570,0.00002052,-0.00001376,0.00000803,0.00000535
 ,0.00004602,-0.00004598,0.00004382,-0.00001640,-0.00000055,-0.00000983
 ,-0.00000127,0.00000816,-0.00000213,0.00000055,0.00001184,-0.00000424,
 0.00007328,0.00011095,0.00000896,0.00000002,-0.00001146,-0.00000910,-0
 .00002402,-0.00000854,0.00000188,0.00001048,0.00000273,0.00000698,0.00
 019636,0.00005754,-0.00015091,-0.00003857,-0.00004789,0.00002238,0.000
 11401,-0.00002133,-0.00013026,-0.00008895,0.00000611,-0.00000684,-0.00
 150274,0.00056165,0.00231229,-0.00015780,0.00004672,-0.00117764,0.0008
 3496,0.00033607,-0.00061837,0.00031057,-0.00032598,-0.00059630,-0.0067
 3551,-0.06856675,-0.25759210,-0.01364894,-0.03455813,-0.00317874,0.035
 27623,-0.02461625,-0.02183675,-0.01107672,0.14351516,0.33609100\\-0.00
 000219,0.00000161,0.00000050,0.00000011,0.00000075,-0.00000153,0.00000
 007,0.00000029,0.00000028,0.00000057,-0.00000095,0.00000021,0.00000022
 ,-0.00000184,0.00000081,-0.00000026,0.00000071,-0.00000144,0.00000036,
 -0.00000028,0.00000091,0.00000036,-0.00000117,-0.00000054,-0.00000039,
 -0.00000026,0.00000039,0.00000041,0.00000049,0.00000047,0.00000095,-0.
 00000018,0.00000005,-0.00000059,0.00000197,-0.00000169,0.00000074,-0.0
 0000084,-0.00000048,0.00000128,-0.00000166,0.00000022,-0.00000100,-0.0
 0000034,0.00000033,-0.00000131,-0.00000076,0.00000102,0.00000050,-0.00
 000040,0.00000061,0.00000095,0.00000002,0.00000098,0.00000074,0.000000
 54,0.00000116,-0.00000213,0.00000019,-0.00000057,-0.00000024,0.0000000
 2,-0.00000283,-0.00000048,0.00000008,-0.00000070,-0.00000015,0.0000006
 0,0.00000124,-0.00000046,-0.00000076,-0.00000223,-0.00000011,0.0000017
 4,-0.00000089,-0.00000079,0.00000044,-0.00000098,-0.00000043,-0.000001
 05,-0.00000033,0.00000099,0.00000150,-0.00000026,-0.00000022,0.0000017
 9,-0.00000096,-0.00000011,-0.00000046,0.00000112,0.,0.00000074,0.00000
 006,-0.00000032,0.,-0.00000088,-0.00000032,0.00000036,-0.00000129,-0.0
 0000021,0.00000059,-0.00000090,-0.00000033,0.00000012,-0.00000176,-0.0
 0000053,-0.00000138,0.00000012,-0.00000008,-0.00000175,0.00000023,-0.0
 0000016,-0.00000184,-0.00000043,-0.00000016,-0.00000134,-0.00000036,0.
 00000254,-0.00000180,0.00000286,-0.00000004,-0.00000146,0.00000129,-0.
 00000007,-0.00000157,0.00000119,0.00000043,-0.00000038,0.00000154,0.00
 000007,0.00000066,0.00000163,0.00000092,0.00000098,0.00000169,0.000000
 92,0.00000137,0.00000111,0.00000040,0.00000057,0.00000077,0.00000046,0
 .00000155,0.00000007,0.00000013,-0.00000051,-0.00000068,-0.00000096,-0
 .00000155,-0.00000082,0.00000033,-0.00000189,-0.00000041,-0.00000167,0
 .00000084,0.00000005,-0.00000019,0.00000192,-0.00000010,0.00000131,0.0
 0000163,-0.00000009,0.00000016,0.00000233,0.00000025\\\@


 EDUCATION IS NOT TRAINING BUT RATHER THE PROCESS THAT EQUIPS YOU TO
 ENTERTAIN YOURSELF, A FRIEND, OR AN IDEA.  -- WALLACE STERLING
 Job cpu time:       1 days 16 hours 45 minutes  1.7 seconds.
 Elapsed time:       0 days  1 hours 22 minutes 42.4 seconds.
 File lengths (MBytes):  RWF=   2311 Int=      0 D2E=      0 Chk=     40 Scr=      1
 Normal termination of Gaussian 16 at Sat Jun 15 10:15:47 2019.
