 Entering Gaussian System, Link 0=g16
 Input=clay_new-glu_gluC6-BCDR-Na2_1Me2O-bisCF3-ts-mpw1pw91-custom-pcm_thf.gjf
 Output=clay_new-glu_gluC6-BCDR-Na2_1Me2O-bisCF3-ts-mpw1pw91-custom-pcm_thf.out
 Initial command:
 /n/sw/g16_nehalem/g16/l1.exe "/scratch/Gau-189161.inp" -scrdir="/scratch/"
 Entering Link 1 = /n/sw/g16_nehalem/g16/l1.exe PID=    189162.
  
 Copyright (c) 1988,1990,1992,1993,1995,1998,2003,2009,2016,
            Gaussian, Inc.  All Rights Reserved.
  
 This is part of the Gaussian(R) 16 program.  It is based on
 the Gaussian(R) 09 system (copyright 2009, Gaussian, Inc.),
 the Gaussian(R) 03 system (copyright 2003, Gaussian, Inc.),
 the Gaussian(R) 98 system (copyright 1998, Gaussian, Inc.),
 the Gaussian(R) 94 system (copyright 1995, Gaussian, Inc.),
 the Gaussian 92(TM) system (copyright 1992, Gaussian, Inc.),
 the Gaussian 90(TM) system (copyright 1990, Gaussian, Inc.),
 the Gaussian 88(TM) system (copyright 1988, Gaussian, Inc.),
 the Gaussian 86(TM) system (copyright 1986, Carnegie Mellon
 University), and the Gaussian 82(TM) system (copyright 1983,
 Carnegie Mellon University). Gaussian is a federally registered
 trademark of Gaussian, Inc.
  
 This software contains proprietary and confidential information,
 including trade secrets, belonging to Gaussian, Inc.
  
 This software is provided under written license and may be
 used, copied, transmitted, or stored only in accord with that
 written license.
  
 The following legend is applicable only to US Government
 contracts under FAR:
  
                    RESTRICTED RIGHTS LEGEND
  
 Use, reproduction and disclosure by the US Government is
 subject to restrictions as set forth in subparagraphs (a)
 and (c) of the Commercial Computer Software - Restricted
 Rights clause in FAR 52.227-19.
  
 Gaussian, Inc.
 340 Quinnipiac St., Bldg. 40, Wallingford CT 06492
  
  
 ---------------------------------------------------------------
 Warning -- This program may not be used in any manner that
 competes with the business of Gaussian, Inc. or will provide
 assistance to any competitor of Gaussian, Inc.  The licensee
 of this program is prohibited from giving any competitor of
 Gaussian, Inc. access to this program.  By using this program,
 the user acknowledges that Gaussian, Inc. is engaged in the
 business of creating and licensing software in the field of
 computational chemistry and represents and warrants to the
 licensee that it is not a competitor of Gaussian, Inc. and that
 it will not use this program in any manner prohibited above.
 ---------------------------------------------------------------
  

 Cite this work as:
 Gaussian 16, Revision A.03,
 M. J. Frisch, G. W. Trucks, H. B. Schlegel, G. E. Scuseria, 
 M. A. Robb, J. R. Cheeseman, G. Scalmani, V. Barone, 
 G. A. Petersson, H. Nakatsuji, X. Li, M. Caricato, A. V. Marenich, 
 J. Bloino, B. G. Janesko, R. Gomperts, B. Mennucci, H. P. Hratchian, 
 J. V. Ortiz, A. F. Izmaylov, J. L. Sonnenberg, D. Williams-Young, 
 F. Ding, F. Lipparini, F. Egidi, J. Goings, B. Peng, A. Petrone, 
 T. Henderson, D. Ranasinghe, V. G. Zakrzewski, J. Gao, N. Rega, 
 G. Zheng, W. Liang, M. Hada, M. Ehara, K. Toyota, R. Fukuda, 
 J. Hasegawa, M. Ishida, T. Nakajima, Y. Honda, O. Kitao, H. Nakai, 
 T. Vreven, K. Throssell, J. A. Montgomery, Jr., J. E. Peralta, 
 F. Ogliaro, M. J. Bearpark, J. J. Heyd, E. N. Brothers, K. N. Kudin, 
 V. N. Staroverov, T. A. Keith, R. Kobayashi, J. Normand, 
 K. Raghavachari, A. P. Rendell, J. C. Burant, S. S. Iyengar, 
 J. Tomasi, M. Cossi, J. M. Millam, M. Klene, C. Adamo, R. Cammi, 
 J. W. Ochterski, R. L. Martin, K. Morokuma, O. Farkas, 
 J. B. Foresman, and D. J. Fox, Gaussian, Inc., Wallingford CT, 2016.
 
 ******************************************
 Gaussian 16:  ES64L-G16RevA.03 25-Dec-2016
                17-Jun-2019 
 ******************************************
 %nprocshared=36
 Will use up to   36 processors via shared memory.
 %mem=96GB
 ----------------------------------------------------------------------
 #p opt=(calcfc,ts,noeigentest,maxstep=1) freq=noraman mpw1pw91/6-31g(d
 ) scrf=(solvent=tetrahydrofuran,pcm) pop=none extrabasis
 ----------------------------------------------------------------------
 1/5=1,8=1,10=4,11=1,18=20,26=3,38=1/1,3;
 2/9=110,12=2,17=6,18=5,40=1/2;
 3/5=1,6=6,7=1,10=1,11=2,25=1,30=1,70=2201,71=2,72=20,74=-7,140=1/1,2,3;
 4//1;
 5/5=2,38=5,53=20/2;
 8/6=4,10=90,11=11/1;
 11/6=1,8=1,9=11,15=111,16=1/1,2,10;
 10/6=1,13=1/2;
 7/10=1,18=20,25=1/1,2,3,16;
 1/5=1,8=1,10=4,11=1,18=20,26=3/3(2);
 2/9=110/2;
 99//99;
 2/9=110/2;
 3/5=7,6=1,7=1,11=2,25=1,30=1,70=2205,71=1,72=20,74=-7,82=7/1,2,3;
 4/5=5,16=3,69=1/1;
 5/5=2,38=5,53=20/2;
 7//1,2,3,16;
 1/5=1,8=1,11=1,18=20,26=3/3(-5);
 2/9=110/2;
 99/9=1/99;
 Leave Link    1 at Mon Jun 17 15:21:07 2019, MaxMem= 12884901888 cpu:               4.8 elap:               0.1
 (Enter /n/sw/g16_nehalem/g16/l101.exe)
 -----
 title
 -----
 Symbolic Z-matrix:
 Charge =  0 Multiplicity = 1
 C                    -2.18354   1.29364   2.42947 
 C                    -2.56681   2.12915   1.21321 
 C                    -1.84151   3.47308   1.2571 
 C                     0.02031   2.55243   2.46401 
 C                    -0.66522   1.188     2.55112 
 H                    -2.01474   4.03041   0.32652 
 H                    -2.22115   1.61343   0.30729 
 H                    -2.5786    1.78822   3.32536 
 H                    -0.24284   3.12516   3.36306 
 H                    -0.30118   0.55859   1.72922 
 O                    -0.44436   3.26605   1.30313 
 O                    -2.30988   4.19695   2.34841 
 O                    -3.95628   2.36144   1.14671 
 O                    -2.75259   0.0014    2.29669 
 O                    -0.34244   0.60007   3.80138 
 C                     1.54865   2.46313   2.35116 
 H                     1.8775    1.90921   3.25307 
 H                     1.91854   3.50198   2.49586 
 O                     2.00618   1.9199    1.17622 
 C                    -4.63948   1.51377   0.24615 
 H                    -4.27974   1.64697  -0.78327 
 H                    -4.53515   0.46108   0.52338 
 H                    -5.69363   1.79614   0.28656 
 C                    -3.38891  -0.47897   3.46164 
 H                    -2.70504  -0.49915   4.31677 
 H                    -4.26464   0.13072   3.72077 
 H                    -3.71668  -1.49654   3.241 
 C                     0.30361  -0.65158   3.7139 
 H                    -0.30735  -1.38269   3.17167 
 H                     1.28286  -0.57419   3.22638 
 H                     0.44815  -1.00234   4.73845 
 C                     4.25827  -0.77577  -1.25823 
 C                     3.35479   0.3371   -0.72735 
 C                     2.11897  -0.22919  -0.10868 
 C                     3.13943  -2.36258   0.34871 
 C                     4.46847  -1.77958  -0.12533 
 H                     1.24036   0.37851   0.02287 
 H                     3.843     0.82198   0.13513 
 H                     3.76492  -1.26288  -2.10752 
 H                     2.74409  -3.02405  -0.42662 
 H                     4.95719  -1.26678   0.71081 
 O                     2.10626  -1.34006   0.52258 
 O                    -0.27008  -0.08567  -3.85428 
 O                     2.99917   1.31463  -1.66623 
 O                     5.49587  -0.22855  -1.64724 
 O                     5.24267  -2.87473  -0.55712 
 C                     3.21758  -3.11814   1.65306 
 H                     3.84846  -4.00355   1.49027 
 H                     2.21165  -3.46664   1.92914 
 O                     3.75235  -2.27532   2.63734 
 S                    -0.10264  -0.22735  -2.40004 
 O                    -0.2741    1.0395   -1.63923 
 O                     1.14916  -0.94808  -2.00292 
 C                    -1.44209  -1.27561  -1.82788 
 C                    -2.69137  -1.17046  -2.4262 
 C                    -1.23703  -2.12096  -0.74348 
 C                    -3.75092  -1.91763  -1.91788 
 H                    -2.83275  -0.51807  -3.27994 
 C                    -2.30405  -2.86215  -0.24889 
 H                    -0.25663  -2.19398  -0.29002 
 C                    -3.56493  -2.76361  -0.82999 
 H                    -4.39485  -3.3397   -0.43903 
 C                     3.91076   2.40948  -1.72587 
 H                     3.97961   2.90157  -0.74863 
 H                     4.90076   2.07924  -2.04333 
 H                     3.49815   3.10652  -2.4553 
 C                     5.98459  -0.72506  -2.88153 
 H                     6.12065  -1.81038  -2.85061 
 H                     5.30851  -0.46963  -3.70636 
 H                     6.94932  -0.24421  -3.04961 
 C                     6.53479  -2.93497   0.02273 
 H                     7.12663  -2.05028  -0.23274 
 H                     6.47666  -3.02681   1.11396 
 H                     7.01736  -3.82373  -0.38594 
 C                     3.86265  -2.91479   3.88991 
 H                     4.28457  -2.18762   4.58423 
 H                     2.88174  -3.23993   4.26096 
 H                     4.52501  -3.78912   3.83556 
 C                    -1.8689    5.54122   2.36794 
 H                    -2.35988   6.02234   3.21438 
 H                    -0.78329   5.60854   2.49319 
 H                    -2.1542    6.06026   1.44343 
 Na                    0.92749   2.76674  -0.626 
 O                     1.16355   4.74217  -1.87397 
 C                     0.64291   4.92621  -3.17565 
 H                     1.44656   5.13408  -3.89321 
 H                     0.13771   4.00267  -3.45985 
 H                    -0.07589   5.75491  -3.19712 
 C                     1.85198   5.88437  -1.40667 
 H                     1.18269   6.75213  -1.35284 
 H                     2.22569   5.65584  -0.40775 
 H                     2.69762   6.1282   -2.06212 
 C                    -5.12225  -1.74935  -2.5083 
 F                    -5.77359  -0.71474  -1.94241 
 F                    -5.88336  -2.83843  -2.3252 
 F                    -5.06963  -1.50416  -3.82559 
 C                    -2.09681  -3.81153   0.89673 
 F                    -0.98394  -3.52606   1.59369 
 F                    -1.97947  -5.08103   0.47131 
 F                    -3.13064  -3.78321   1.75464 
 
 Add virtual bond connecting atoms H37        and O19        Dist= 3.92D+00.
 Add virtual bond connecting atoms O52        and H37        Dist= 4.43D+00.
 Add virtual bond connecting atoms O52        and Na83       Dist= 4.41D+00.
 Add virtual bond connecting atoms O53        and C34        Dist= 4.24D+00.
 Add virtual bond connecting atoms O84        and Na83       Dist= 4.44D+00.
 ITRead=  0  0  0  0  0  0  0  0  0  0  0  0  0  0  0  0  0  0  0  0
 ITRead=  0  0  0  0  0  0  0  0  0  0  0  0  0  0  0  0  0  0  0  0
 ITRead=  0  0  0  0  0  0  0  0  0  0  0  0  0  0  0  0  0  0  0  0
 ITRead=  0  0  0  0  0  0  0  0  0  0  0  0  0  0  0  0  0  0  0  0
 ITRead=  0  0  0  0  0  0  0  0  0  0  0  0  0  0  0  0  0  0  0  0
 MicOpt= -1 -1 -1 -1 -1 -1 -1 -1 -1 -1 -1 -1 -1 -1 -1 -1 -1 -1 -1 -1
 MicOpt= -1 -1 -1 -1 -1 -1 -1 -1 -1 -1 -1 -1 -1 -1 -1 -1 -1 -1 -1 -1
 MicOpt= -1 -1 -1 -1 -1 -1 -1 -1 -1 -1 -1 -1 -1 -1 -1 -1 -1 -1 -1 -1
 MicOpt= -1 -1 -1 -1 -1 -1 -1 -1 -1 -1 -1 -1 -1 -1 -1 -1 -1 -1 -1 -1
 MicOpt= -1 -1 -1 -1 -1 -1 -1 -1 -1 -1 -1 -1 -1 -1 -1 -1 -1 -1 -1 -1
 NAtoms=    100 NQM=      100 NQMF=       0 NMMI=      0 NMMIF=      0
                NMic=       0 NMicF=      0.
                    Isotopes and Nuclear Properties:
 (Nuclear quadrupole moments (NQMom) in fm**2, nuclear magnetic moments (NMagM)
  in nuclear magnetons)

  Atom         1           2           3           4           5           6           7           8           9          10
 IAtWgt=          12          12          12          12          12           1           1           1           1           1
 AtmWgt=  12.0000000  12.0000000  12.0000000  12.0000000  12.0000000   1.0078250   1.0078250   1.0078250   1.0078250   1.0078250
 NucSpn=           0           0           0           0           0           1           1           1           1           1
 AtZEff=   0.0000000   0.0000000   0.0000000   0.0000000   0.0000000   0.0000000   0.0000000   0.0000000   0.0000000   0.0000000
 NQMom=    0.0000000   0.0000000   0.0000000   0.0000000   0.0000000   0.0000000   0.0000000   0.0000000   0.0000000   0.0000000
 NMagM=    0.0000000   0.0000000   0.0000000   0.0000000   0.0000000   2.7928460   2.7928460   2.7928460   2.7928460   2.7928460
 AtZNuc=   6.0000000   6.0000000   6.0000000   6.0000000   6.0000000   1.0000000   1.0000000   1.0000000   1.0000000   1.0000000

  Atom        11          12          13          14          15          16          17          18          19          20
 IAtWgt=          16          16          16          16          16          12           1           1          16          12
 AtmWgt=  15.9949146  15.9949146  15.9949146  15.9949146  15.9949146  12.0000000   1.0078250   1.0078250  15.9949146  12.0000000
 NucSpn=           0           0           0           0           0           0           1           1           0           0
 AtZEff=   0.0000000   0.0000000   0.0000000   0.0000000   0.0000000   0.0000000   0.0000000   0.0000000   0.0000000   0.0000000
 NQMom=    0.0000000   0.0000000   0.0000000   0.0000000   0.0000000   0.0000000   0.0000000   0.0000000   0.0000000   0.0000000
 NMagM=    0.0000000   0.0000000   0.0000000   0.0000000   0.0000000   0.0000000   2.7928460   2.7928460   0.0000000   0.0000000
 AtZNuc=   8.0000000   8.0000000   8.0000000   8.0000000   8.0000000   6.0000000   1.0000000   1.0000000   8.0000000   6.0000000

  Atom        21          22          23          24          25          26          27          28          29          30
 IAtWgt=           1           1           1          12           1           1           1          12           1           1
 AtmWgt=   1.0078250   1.0078250   1.0078250  12.0000000   1.0078250   1.0078250   1.0078250  12.0000000   1.0078250   1.0078250
 NucSpn=           1           1           1           0           1           1           1           0           1           1
 AtZEff=   0.0000000   0.0000000   0.0000000   0.0000000   0.0000000   0.0000000   0.0000000   0.0000000   0.0000000   0.0000000
 NQMom=    0.0000000   0.0000000   0.0000000   0.0000000   0.0000000   0.0000000   0.0000000   0.0000000   0.0000000   0.0000000
 NMagM=    2.7928460   2.7928460   2.7928460   0.0000000   2.7928460   2.7928460   2.7928460   0.0000000   2.7928460   2.7928460
 AtZNuc=   1.0000000   1.0000000   1.0000000   6.0000000   1.0000000   1.0000000   1.0000000   6.0000000   1.0000000   1.0000000

  Atom        31          32          33          34          35          36          37          38          39          40
 IAtWgt=           1          12          12          12          12          12           1           1           1           1
 AtmWgt=   1.0078250  12.0000000  12.0000000  12.0000000  12.0000000  12.0000000   1.0078250   1.0078250   1.0078250   1.0078250
 NucSpn=           1           0           0           0           0           0           1           1           1           1
 AtZEff=   0.0000000   0.0000000   0.0000000   0.0000000   0.0000000   0.0000000   0.0000000   0.0000000   0.0000000   0.0000000
 NQMom=    0.0000000   0.0000000   0.0000000   0.0000000   0.0000000   0.0000000   0.0000000   0.0000000   0.0000000   0.0000000
 NMagM=    2.7928460   0.0000000   0.0000000   0.0000000   0.0000000   0.0000000   2.7928460   2.7928460   2.7928460   2.7928460
 AtZNuc=   1.0000000   6.0000000   6.0000000   6.0000000   6.0000000   6.0000000   1.0000000   1.0000000   1.0000000   1.0000000

  Atom        41          42          43          44          45          46          47          48          49          50
 IAtWgt=           1          16          16          16          16          16          12           1           1          16
 AtmWgt=   1.0078250  15.9949146  15.9949146  15.9949146  15.9949146  15.9949146  12.0000000   1.0078250   1.0078250  15.9949146
 NucSpn=           1           0           0           0           0           0           0           1           1           0
 AtZEff=   0.0000000   0.0000000   0.0000000   0.0000000   0.0000000   0.0000000   0.0000000   0.0000000   0.0000000   0.0000000
 NQMom=    0.0000000   0.0000000   0.0000000   0.0000000   0.0000000   0.0000000   0.0000000   0.0000000   0.0000000   0.0000000
 NMagM=    2.7928460   0.0000000   0.0000000   0.0000000   0.0000000   0.0000000   0.0000000   2.7928460   2.7928460   0.0000000
 AtZNuc=   1.0000000   8.0000000   8.0000000   8.0000000   8.0000000   8.0000000   6.0000000   1.0000000   1.0000000   8.0000000

  Atom        51          52          53          54          55          56          57          58          59          60
 IAtWgt=          32          16          16          12          12          12          12           1          12           1
 AtmWgt=  31.9720718  15.9949146  15.9949146  12.0000000  12.0000000  12.0000000  12.0000000   1.0078250  12.0000000   1.0078250
 NucSpn=           0           0           0           0           0           0           0           1           0           1
 AtZEff=   0.0000000   0.0000000   0.0000000   0.0000000   0.0000000   0.0000000   0.0000000   0.0000000   0.0000000   0.0000000
 NQMom=    0.0000000   0.0000000   0.0000000   0.0000000   0.0000000   0.0000000   0.0000000   0.0000000   0.0000000   0.0000000
 NMagM=    0.0000000   0.0000000   0.0000000   0.0000000   0.0000000   0.0000000   0.0000000   2.7928460   0.0000000   2.7928460
 AtZNuc=  16.0000000   8.0000000   8.0000000   6.0000000   6.0000000   6.0000000   6.0000000   1.0000000   6.0000000   1.0000000

  Atom        61          62          63          64          65          66          67          68          69          70
 IAtWgt=          12           1          12           1           1           1          12           1           1           1
 AtmWgt=  12.0000000   1.0078250  12.0000000   1.0078250   1.0078250   1.0078250  12.0000000   1.0078250   1.0078250   1.0078250
 NucSpn=           0           1           0           1           1           1           0           1           1           1
 AtZEff=   0.0000000   0.0000000   0.0000000   0.0000000   0.0000000   0.0000000   0.0000000   0.0000000   0.0000000   0.0000000
 NQMom=    0.0000000   0.0000000   0.0000000   0.0000000   0.0000000   0.0000000   0.0000000   0.0000000   0.0000000   0.0000000
 NMagM=    0.0000000   2.7928460   0.0000000   2.7928460   2.7928460   2.7928460   0.0000000   2.7928460   2.7928460   2.7928460
 AtZNuc=   6.0000000   1.0000000   6.0000000   1.0000000   1.0000000   1.0000000   6.0000000   1.0000000   1.0000000   1.0000000

  Atom        71          72          73          74          75          76          77          78          79          80
 IAtWgt=          12           1           1           1          12           1           1           1          12           1
 AtmWgt=  12.0000000   1.0078250   1.0078250   1.0078250  12.0000000   1.0078250   1.0078250   1.0078250  12.0000000   1.0078250
 NucSpn=           0           1           1           1           0           1           1           1           0           1
 AtZEff=   0.0000000   0.0000000   0.0000000   0.0000000   0.0000000   0.0000000   0.0000000   0.0000000   0.0000000   0.0000000
 NQMom=    0.0000000   0.0000000   0.0000000   0.0000000   0.0000000   0.0000000   0.0000000   0.0000000   0.0000000   0.0000000
 NMagM=    0.0000000   2.7928460   2.7928460   2.7928460   0.0000000   2.7928460   2.7928460   2.7928460   0.0000000   2.7928460
 AtZNuc=   6.0000000   1.0000000   1.0000000   1.0000000   6.0000000   1.0000000   1.0000000   1.0000000   6.0000000   1.0000000

  Atom        81          82          83          84          85          86          87          88          89          90
 IAtWgt=           1           1          23          16          12           1           1           1          12           1
 AtmWgt=   1.0078250   1.0078250  22.9897697  15.9949146  12.0000000   1.0078250   1.0078250   1.0078250  12.0000000   1.0078250
 NucSpn=           1           1           3           0           0           1           1           1           0           1
 AtZEff=   0.0000000   0.0000000   0.0000000   0.0000000   0.0000000   0.0000000   0.0000000   0.0000000   0.0000000   0.0000000
 NQMom=    0.0000000   0.0000000  10.4000000   0.0000000   0.0000000   0.0000000   0.0000000   0.0000000   0.0000000   0.0000000
 NMagM=    2.7928460   2.7928460   2.2175200   0.0000000   0.0000000   2.7928460   2.7928460   2.7928460   0.0000000   2.7928460
 AtZNuc=   1.0000000   1.0000000  11.0000000   8.0000000   6.0000000   1.0000000   1.0000000   1.0000000   6.0000000   1.0000000

  Atom        91          92          93          94          95          96          97          98          99         100
 IAtWgt=           1           1          12          19          19          19          12          19          19          19
 AtmWgt=   1.0078250   1.0078250  12.0000000  18.9984033  18.9984033  18.9984033  12.0000000  18.9984033  18.9984033  18.9984033
 NucSpn=           1           1           0           1           1           1           0           1           1           1
 AtZEff=   0.0000000   0.0000000   0.0000000   0.0000000   0.0000000   0.0000000   0.0000000   0.0000000   0.0000000   0.0000000
 NQMom=    0.0000000   0.0000000   0.0000000   0.0000000   0.0000000   0.0000000   0.0000000   0.0000000   0.0000000   0.0000000
 NMagM=    2.7928460   2.7928460   0.0000000   2.6288670   2.6288670   2.6288670   0.0000000   2.6288670   2.6288670   2.6288670
 AtZNuc=   1.0000000   1.0000000   6.0000000   9.0000000   9.0000000   9.0000000   6.0000000   9.0000000   9.0000000   9.0000000
 Leave Link  101 at Mon Jun 17 15:21:07 2019, MaxMem= 12884901888 cpu:              13.7 elap:               0.4
 (Enter /n/sw/g16_nehalem/g16/l103.exe)

 GradGradGradGradGradGradGradGradGradGradGradGradGradGradGradGradGradGrad
 Berny optimization.
 Initialization pass.
                           ----------------------------
                           !    Initial Parameters    !
                           ! (Angstroms and Degrees)  !
 --------------------------                            --------------------------
 ! Name  Definition              Value          Derivative Info.                !
 --------------------------------------------------------------------------------
 ! R1    R(1,2)                  1.5245         calculate D2E/DX2 analytically  !
 ! R2    R(1,5)                  1.5268         calculate D2E/DX2 analytically  !
 ! R3    R(1,8)                  1.097          calculate D2E/DX2 analytically  !
 ! R4    R(1,14)                 1.4182         calculate D2E/DX2 analytically  !
 ! R5    R(2,3)                  1.5278         calculate D2E/DX2 analytically  !
 ! R6    R(2,7)                  1.0982         calculate D2E/DX2 analytically  !
 ! R7    R(2,13)                 1.4103         calculate D2E/DX2 analytically  !
 ! R8    R(3,6)                  1.0985         calculate D2E/DX2 analytically  !
 ! R9    R(3,11)                 1.4132         calculate D2E/DX2 analytically  !
 ! R10   R(3,12)                 1.3908         calculate D2E/DX2 analytically  !
 ! R11   R(4,5)                  1.5294         calculate D2E/DX2 analytically  !
 ! R12   R(4,9)                  1.098          calculate D2E/DX2 analytically  !
 ! R13   R(4,11)                 1.4397         calculate D2E/DX2 analytically  !
 ! R14   R(4,16)                 1.5351         calculate D2E/DX2 analytically  !
 ! R15   R(5,10)                 1.0974         calculate D2E/DX2 analytically  !
 ! R16   R(5,15)                 1.4188         calculate D2E/DX2 analytically  !
 ! R17   R(12,79)                1.4149         calculate D2E/DX2 analytically  !
 ! R18   R(13,20)                1.4129         calculate D2E/DX2 analytically  !
 ! R19   R(14,24)                1.4117         calculate D2E/DX2 analytically  !
 ! R20   R(15,28)                1.4113         calculate D2E/DX2 analytically  !
 ! R21   R(16,17)                1.1083         calculate D2E/DX2 analytically  !
 ! R22   R(16,18)                1.1122         calculate D2E/DX2 analytically  !
 ! R23   R(16,19)                1.3729         calculate D2E/DX2 analytically  !
 ! R24   R(19,37)                2.0719         calculate D2E/DX2 analytically  !
 ! R25   R(19,83)                2.2647         calculate D2E/DX2 analytically  !
 ! R26   R(20,21)                1.0986         calculate D2E/DX2 analytically  !
 ! R27   R(20,22)                1.0936         calculate D2E/DX2 analytically  !
 ! R28   R(20,23)                1.0921         calculate D2E/DX2 analytically  !
 ! R29   R(24,25)                1.0951         calculate D2E/DX2 analytically  !
 ! R30   R(24,26)                1.0981         calculate D2E/DX2 analytically  !
 ! R31   R(24,27)                1.0916         calculate D2E/DX2 analytically  !
 ! R32   R(28,29)                1.0963         calculate D2E/DX2 analytically  !
 ! R33   R(28,30)                1.0966         calculate D2E/DX2 analytically  !
 ! R34   R(28,31)                1.0925         calculate D2E/DX2 analytically  !
 ! R35   R(32,33)                1.5286         calculate D2E/DX2 analytically  !
 ! R36   R(32,36)                1.5282         calculate D2E/DX2 analytically  !
 ! R37   R(32,39)                1.0963         calculate D2E/DX2 analytically  !
 ! R38   R(32,45)                1.408          calculate D2E/DX2 analytically  !
 ! R39   R(33,34)                1.4935         calculate D2E/DX2 analytically  !
 ! R40   R(33,38)                1.1033         calculate D2E/DX2 analytically  !
 ! R41   R(33,44)                1.4013         calculate D2E/DX2 analytically  !
 ! R42   R(34,37)                1.0764         calculate D2E/DX2 analytically  !
 ! R43   R(34,42)                1.2778         calculate D2E/DX2 analytically  !
 ! R44   R(34,53)                2.2462         calculate D2E/DX2 analytically  !
 ! R45   R(35,36)                1.5267         calculate D2E/DX2 analytically  !
 ! R46   R(35,40)                1.0931         calculate D2E/DX2 analytically  !
 ! R47   R(35,42)                1.464          calculate D2E/DX2 analytically  !
 ! R48   R(35,47)                1.5094         calculate D2E/DX2 analytically  !
 ! R49   R(36,41)                1.0959         calculate D2E/DX2 analytically  !
 ! R50   R(36,46)                1.409          calculate D2E/DX2 analytically  !
 ! R51   R(37,52)                2.3437         calculate D2E/DX2 analytically  !
 ! R52   R(43,51)                1.4707         calculate D2E/DX2 analytically  !
 ! R53   R(44,63)                1.4259         calculate D2E/DX2 analytically  !
 ! R54   R(45,67)                1.4173         calculate D2E/DX2 analytically  !
 ! R55   R(46,71)                1.4175         calculate D2E/DX2 analytically  !
 ! R56   R(47,48)                1.0993         calculate D2E/DX2 analytically  !
 ! R57   R(47,49)                1.0998         calculate D2E/DX2 analytically  !
 ! R58   R(47,50)                1.4018         calculate D2E/DX2 analytically  !
 ! R59   R(50,75)                1.4107         calculate D2E/DX2 analytically  !
 ! R60   R(51,52)                1.4877         calculate D2E/DX2 analytically  !
 ! R61   R(51,53)                1.498          calculate D2E/DX2 analytically  !
 ! R62   R(51,54)                1.7945         calculate D2E/DX2 analytically  !
 ! R63   R(52,83)                2.3353         calculate D2E/DX2 analytically  !
 ! R64   R(54,55)                1.3892         calculate D2E/DX2 analytically  !
 ! R65   R(54,56)                1.3902         calculate D2E/DX2 analytically  !
 ! R66   R(55,57)                1.3926         calculate D2E/DX2 analytically  !
 ! R67   R(55,58)                1.0837         calculate D2E/DX2 analytically  !
 ! R68   R(56,59)                1.3901         calculate D2E/DX2 analytically  !
 ! R69   R(56,60)                1.0827         calculate D2E/DX2 analytically  !
 ! R70   R(57,61)                1.3906         calculate D2E/DX2 analytically  !
 ! R71   R(57,93)                1.5025         calculate D2E/DX2 analytically  !
 ! R72   R(59,61)                1.3918         calculate D2E/DX2 analytically  !
 ! R73   R(59,97)                1.5022         calculate D2E/DX2 analytically  !
 ! R74   R(61,62)                1.0833         calculate D2E/DX2 analytically  !
 ! R75   R(63,64)                1.0963         calculate D2E/DX2 analytically  !
 ! R76   R(63,65)                1.0908         calculate D2E/DX2 analytically  !
 ! R77   R(63,66)                1.09           calculate D2E/DX2 analytically  !
 ! R78   R(67,68)                1.0943         calculate D2E/DX2 analytically  !
 ! R79   R(67,69)                1.0967         calculate D2E/DX2 analytically  !
 ! R80   R(67,70)                1.091          calculate D2E/DX2 analytically  !
 ! R81   R(71,72)                1.0946         calculate D2E/DX2 analytically  !
 ! R82   R(71,73)                1.0966         calculate D2E/DX2 analytically  !
 ! R83   R(71,74)                1.0908         calculate D2E/DX2 analytically  !
 ! R84   R(75,76)                1.0904         calculate D2E/DX2 analytically  !
 ! R85   R(75,77)                1.098          calculate D2E/DX2 analytically  !
 ! R86   R(75,78)                1.0982         calculate D2E/DX2 analytically  !
 ! R87   R(79,80)                1.0904         calculate D2E/DX2 analytically  !
 ! R88   R(79,81)                1.0949         calculate D2E/DX2 analytically  !
 ! R89   R(79,82)                1.098          calculate D2E/DX2 analytically  !
 ! R90   R(83,84)                2.3485         calculate D2E/DX2 analytically  !
 ! R91   R(84,85)                1.414          calculate D2E/DX2 analytically  !
 ! R92   R(84,89)                1.4131         calculate D2E/DX2 analytically  !
 ! R93   R(85,86)                1.0972         calculate D2E/DX2 analytically  !
 ! R94   R(85,87)                1.0904         calculate D2E/DX2 analytically  !
 ! R95   R(85,88)                1.0972         calculate D2E/DX2 analytically  !
 ! R96   R(89,90)                1.0972         calculate D2E/DX2 analytically  !
 ! R97   R(89,91)                1.0907         calculate D2E/DX2 analytically  !
 ! R98   R(89,92)                1.0974         calculate D2E/DX2 analytically  !
 ! R99   R(93,94)                1.3472         calculate D2E/DX2 analytically  !
 ! R100  R(93,95)                1.3412         calculate D2E/DX2 analytically  !
 ! R101  R(93,96)                1.3409         calculate D2E/DX2 analytically  !
 ! R102  R(97,98)                1.3438         calculate D2E/DX2 analytically  !
 ! R103  R(97,99)                1.344          calculate D2E/DX2 analytically  !
 ! R104  R(97,100)               1.3437         calculate D2E/DX2 analytically  !
 ! A1    A(2,1,5)              110.5778         calculate D2E/DX2 analytically  !
 ! A2    A(2,1,8)              108.2957         calculate D2E/DX2 analytically  !
 ! A3    A(2,1,14)             108.8925         calculate D2E/DX2 analytically  !
 ! A4    A(5,1,8)              108.9205         calculate D2E/DX2 analytically  !
 ! A5    A(5,1,14)             110.0856         calculate D2E/DX2 analytically  !
 ! A6    A(8,1,14)             110.0459         calculate D2E/DX2 analytically  !
 ! A7    A(1,2,3)              109.8657         calculate D2E/DX2 analytically  !
 ! A8    A(1,2,7)              108.7597         calculate D2E/DX2 analytically  !
 ! A9    A(1,2,13)             112.0598         calculate D2E/DX2 analytically  !
 ! A10   A(3,2,7)              106.6988         calculate D2E/DX2 analytically  !
 ! A11   A(3,2,13)             108.9162         calculate D2E/DX2 analytically  !
 ! A12   A(7,2,13)             110.3979         calculate D2E/DX2 analytically  !
 ! A13   A(2,3,6)              110.3106         calculate D2E/DX2 analytically  !
 ! A14   A(2,3,11)             109.9638         calculate D2E/DX2 analytically  !
 ! A15   A(2,3,12)             108.6931         calculate D2E/DX2 analytically  !
 ! A16   A(6,3,11)             104.9427         calculate D2E/DX2 analytically  !
 ! A17   A(6,3,12)             110.3379         calculate D2E/DX2 analytically  !
 ! A18   A(11,3,12)            112.5596         calculate D2E/DX2 analytically  !
 ! A19   A(5,4,9)              108.137          calculate D2E/DX2 analytically  !
 ! A20   A(5,4,11)             110.0871         calculate D2E/DX2 analytically  !
 ! A21   A(5,4,16)             113.487          calculate D2E/DX2 analytically  !
 ! A22   A(9,4,11)             108.925          calculate D2E/DX2 analytically  !
 ! A23   A(9,4,16)             109.2169         calculate D2E/DX2 analytically  !
 ! A24   A(11,4,16)            106.9107         calculate D2E/DX2 analytically  !
 ! A25   A(1,5,4)              112.3            calculate D2E/DX2 analytically  !
 ! A26   A(1,5,10)             108.053          calculate D2E/DX2 analytically  !
 ! A27   A(1,5,15)             108.9722         calculate D2E/DX2 analytically  !
 ! A28   A(4,5,10)             108.6833         calculate D2E/DX2 analytically  !
 ! A29   A(4,5,15)             108.5355         calculate D2E/DX2 analytically  !
 ! A30   A(10,5,15)            110.2952         calculate D2E/DX2 analytically  !
 ! A31   A(3,11,4)             114.7066         calculate D2E/DX2 analytically  !
 ! A32   A(3,12,79)            113.6008         calculate D2E/DX2 analytically  !
 ! A33   A(2,13,20)            114.0561         calculate D2E/DX2 analytically  !
 ! A34   A(1,14,24)            114.4356         calculate D2E/DX2 analytically  !
 ! A35   A(5,15,28)            114.6477         calculate D2E/DX2 analytically  !
 ! A36   A(4,16,17)            105.346          calculate D2E/DX2 analytically  !
 ! A37   A(4,16,18)            105.4991         calculate D2E/DX2 analytically  !
 ! A38   A(4,16,19)            114.6902         calculate D2E/DX2 analytically  !
 ! A39   A(17,16,18)           105.2053         calculate D2E/DX2 analytically  !
 ! A40   A(17,16,19)           113.5637         calculate D2E/DX2 analytically  !
 ! A41   A(18,16,19)           111.7213         calculate D2E/DX2 analytically  !
 ! A42   A(16,19,37)           130.3602         calculate D2E/DX2 analytically  !
 ! A43   A(16,19,83)           111.9839         calculate D2E/DX2 analytically  !
 ! A44   A(37,19,83)            70.0702         calculate D2E/DX2 analytically  !
 ! A45   A(13,20,21)           111.4792         calculate D2E/DX2 analytically  !
 ! A46   A(13,20,22)           111.7035         calculate D2E/DX2 analytically  !
 ! A47   A(13,20,23)           106.7409         calculate D2E/DX2 analytically  !
 ! A48   A(21,20,22)           108.8462         calculate D2E/DX2 analytically  !
 ! A49   A(21,20,23)           108.6278         calculate D2E/DX2 analytically  !
 ! A50   A(22,20,23)           109.367          calculate D2E/DX2 analytically  !
 ! A51   A(14,24,25)           111.664          calculate D2E/DX2 analytically  !
 ! A52   A(14,24,26)           111.426          calculate D2E/DX2 analytically  !
 ! A53   A(14,24,27)           106.6041         calculate D2E/DX2 analytically  !
 ! A54   A(25,24,26)           108.9039         calculate D2E/DX2 analytically  !
 ! A55   A(25,24,27)           109.1567         calculate D2E/DX2 analytically  !
 ! A56   A(26,24,27)           109.0151         calculate D2E/DX2 analytically  !
 ! A57   A(15,28,29)           111.5313         calculate D2E/DX2 analytically  !
 ! A58   A(15,28,30)           111.9472         calculate D2E/DX2 analytically  !
 ! A59   A(15,28,31)           106.6887         calculate D2E/DX2 analytically  !
 ! A60   A(29,28,30)           108.9557         calculate D2E/DX2 analytically  !
 ! A61   A(29,28,31)           108.872          calculate D2E/DX2 analytically  !
 ! A62   A(30,28,31)           108.749          calculate D2E/DX2 analytically  !
 ! A63   A(33,32,36)           107.5812         calculate D2E/DX2 analytically  !
 ! A64   A(33,32,39)           109.0587         calculate D2E/DX2 analytically  !
 ! A65   A(33,32,45)           109.4222         calculate D2E/DX2 analytically  !
 ! A66   A(36,32,39)           110.1415         calculate D2E/DX2 analytically  !
 ! A67   A(36,32,45)           109.8291         calculate D2E/DX2 analytically  !
 ! A68   A(39,32,45)           110.7439         calculate D2E/DX2 analytically  !
 ! A69   A(32,33,34)           110.9089         calculate D2E/DX2 analytically  !
 ! A70   A(32,33,38)           109.2629         calculate D2E/DX2 analytically  !
 ! A71   A(32,33,44)           115.162          calculate D2E/DX2 analytically  !
 ! A72   A(34,33,38)           102.0616         calculate D2E/DX2 analytically  !
 ! A73   A(34,33,44)           109.3937         calculate D2E/DX2 analytically  !
 ! A74   A(38,33,44)           109.2374         calculate D2E/DX2 analytically  !
 ! A75   A(33,34,37)           120.7957         calculate D2E/DX2 analytically  !
 ! A76   A(33,34,42)           122.8546         calculate D2E/DX2 analytically  !
 ! A77   A(33,34,53)            97.4279         calculate D2E/DX2 analytically  !
 ! A78   A(37,34,42)           114.9824         calculate D2E/DX2 analytically  !
 ! A79   A(37,34,53)            86.0622         calculate D2E/DX2 analytically  !
 ! A80   A(42,34,53)            97.7055         calculate D2E/DX2 analytically  !
 ! A81   A(36,35,40)           109.0064         calculate D2E/DX2 analytically  !
 ! A82   A(36,35,42)           112.6131         calculate D2E/DX2 analytically  !
 ! A83   A(36,35,47)           114.4801         calculate D2E/DX2 analytically  !
 ! A84   A(40,35,42)           104.5753         calculate D2E/DX2 analytically  !
 ! A85   A(40,35,47)           109.1917         calculate D2E/DX2 analytically  !
 ! A86   A(42,35,47)           106.4713         calculate D2E/DX2 analytically  !
 ! A87   A(32,36,35)           111.1782         calculate D2E/DX2 analytically  !
 ! A88   A(32,36,41)           108.6389         calculate D2E/DX2 analytically  !
 ! A89   A(32,36,46)           111.0364         calculate D2E/DX2 analytically  !
 ! A90   A(35,36,41)           109.2692         calculate D2E/DX2 analytically  !
 ! A91   A(35,36,46)           106.0617         calculate D2E/DX2 analytically  !
 ! A92   A(41,36,46)           110.6395         calculate D2E/DX2 analytically  !
 ! A93   A(19,37,34)           100.7395         calculate D2E/DX2 analytically  !
 ! A94   A(19,37,52)           115.0752         calculate D2E/DX2 analytically  !
 ! A95   A(34,37,52)           126.8709         calculate D2E/DX2 analytically  !
 ! A96   A(34,42,35)           122.7879         calculate D2E/DX2 analytically  !
 ! A97   A(33,44,63)           113.6669         calculate D2E/DX2 analytically  !
 ! A98   A(32,45,67)           114.0506         calculate D2E/DX2 analytically  !
 ! A99   A(36,46,71)           114.1132         calculate D2E/DX2 analytically  !
 ! A100  A(35,47,48)           107.7534         calculate D2E/DX2 analytically  !
 ! A101  A(35,47,49)           109.1581         calculate D2E/DX2 analytically  !
 ! A102  A(35,47,50)           108.9988         calculate D2E/DX2 analytically  !
 ! A103  A(48,47,49)           107.8702         calculate D2E/DX2 analytically  !
 ! A104  A(48,47,50)           111.6729         calculate D2E/DX2 analytically  !
 ! A105  A(49,47,50)           111.295          calculate D2E/DX2 analytically  !
 ! A106  A(47,50,75)           112.3786         calculate D2E/DX2 analytically  !
 ! A107  A(43,51,52)           114.2383         calculate D2E/DX2 analytically  !
 ! A108  A(43,51,53)           113.8043         calculate D2E/DX2 analytically  !
 ! A109  A(43,51,54)           106.6525         calculate D2E/DX2 analytically  !
 ! A110  A(52,51,53)           111.7426         calculate D2E/DX2 analytically  !
 ! A111  A(52,51,54)           104.3798         calculate D2E/DX2 analytically  !
 ! A112  A(53,51,54)           104.9607         calculate D2E/DX2 analytically  !
 ! A113  A(37,52,51)            92.7534         calculate D2E/DX2 analytically  !
 ! A114  A(37,52,83)            64.4327         calculate D2E/DX2 analytically  !
 ! A115  A(51,52,83)           142.4115         calculate D2E/DX2 analytically  !
 ! A116  A(34,53,51)           115.4903         calculate D2E/DX2 analytically  !
 ! A117  A(51,54,55)           119.3216         calculate D2E/DX2 analytically  !
 ! A118  A(51,54,56)           119.5918         calculate D2E/DX2 analytically  !
 ! A119  A(55,54,56)           120.9742         calculate D2E/DX2 analytically  !
 ! A120  A(54,55,57)           119.1053         calculate D2E/DX2 analytically  !
 ! A121  A(54,55,58)           120.1447         calculate D2E/DX2 analytically  !
 ! A122  A(57,55,58)           120.7493         calculate D2E/DX2 analytically  !
 ! A123  A(54,56,59)           119.2435         calculate D2E/DX2 analytically  !
 ! A124  A(54,56,60)           120.0858         calculate D2E/DX2 analytically  !
 ! A125  A(59,56,60)           120.6701         calculate D2E/DX2 analytically  !
 ! A126  A(55,57,61)           120.6769         calculate D2E/DX2 analytically  !
 ! A127  A(55,57,93)           119.4001         calculate D2E/DX2 analytically  !
 ! A128  A(61,57,93)           119.8434         calculate D2E/DX2 analytically  !
 ! A129  A(56,59,61)           120.6006         calculate D2E/DX2 analytically  !
 ! A130  A(56,59,97)           120.1581         calculate D2E/DX2 analytically  !
 ! A131  A(61,59,97)           119.2166         calculate D2E/DX2 analytically  !
 ! A132  A(57,61,59)           119.3971         calculate D2E/DX2 analytically  !
 ! A133  A(57,61,62)           120.2248         calculate D2E/DX2 analytically  !
 ! A134  A(59,61,62)           120.3781         calculate D2E/DX2 analytically  !
 ! A135  A(44,63,64)           110.335          calculate D2E/DX2 analytically  !
 ! A136  A(44,63,65)           111.0954         calculate D2E/DX2 analytically  !
 ! A137  A(44,63,66)           106.0805         calculate D2E/DX2 analytically  !
 ! A138  A(64,63,65)           109.7744         calculate D2E/DX2 analytically  !
 ! A139  A(64,63,66)           109.4653         calculate D2E/DX2 analytically  !
 ! A140  A(65,63,66)           110.0219         calculate D2E/DX2 analytically  !
 ! A141  A(45,67,68)           111.452          calculate D2E/DX2 analytically  !
 ! A142  A(45,67,69)           111.1508         calculate D2E/DX2 analytically  !
 ! A143  A(45,67,70)           106.5399         calculate D2E/DX2 analytically  !
 ! A144  A(68,67,69)           109.2034         calculate D2E/DX2 analytically  !
 ! A145  A(68,67,70)           109.3636         calculate D2E/DX2 analytically  !
 ! A146  A(69,67,70)           109.064          calculate D2E/DX2 analytically  !
 ! A147  A(46,71,72)           111.2861         calculate D2E/DX2 analytically  !
 ! A148  A(46,71,73)           111.2397         calculate D2E/DX2 analytically  !
 ! A149  A(46,71,74)           106.5376         calculate D2E/DX2 analytically  !
 ! A150  A(72,71,73)           109.1832         calculate D2E/DX2 analytically  !
 ! A151  A(72,71,74)           109.3836         calculate D2E/DX2 analytically  !
 ! A152  A(73,71,74)           109.1487         calculate D2E/DX2 analytically  !
 ! A153  A(50,75,76)           107.0587         calculate D2E/DX2 analytically  !
 ! A154  A(50,75,77)           111.3735         calculate D2E/DX2 analytically  !
 ! A155  A(50,75,78)           111.3529         calculate D2E/DX2 analytically  !
 ! A156  A(76,75,77)           109.1466         calculate D2E/DX2 analytically  !
 ! A157  A(76,75,78)           109.2122         calculate D2E/DX2 analytically  !
 ! A158  A(77,75,78)           108.6495         calculate D2E/DX2 analytically  !
 ! A159  A(12,79,80)           106.8328         calculate D2E/DX2 analytically  !
 ! A160  A(12,79,81)           111.6564         calculate D2E/DX2 analytically  !
 ! A161  A(12,79,82)           110.8873         calculate D2E/DX2 analytically  !
 ! A162  A(80,79,81)           109.3005         calculate D2E/DX2 analytically  !
 ! A163  A(80,79,82)           109.1498         calculate D2E/DX2 analytically  !
 ! A164  A(81,79,82)           108.9597         calculate D2E/DX2 analytically  !
 ! A165  A(19,83,52)           108.2872         calculate D2E/DX2 analytically  !
 ! A166  A(19,83,84)           133.5934         calculate D2E/DX2 analytically  !
 ! A167  A(52,83,84)           116.3134         calculate D2E/DX2 analytically  !
 ! A168  A(83,84,85)           124.1705         calculate D2E/DX2 analytically  !
 ! A169  A(83,84,89)           123.5815         calculate D2E/DX2 analytically  !
 ! A170  A(85,84,89)           112.2473         calculate D2E/DX2 analytically  !
 ! A171  A(84,85,86)           110.9162         calculate D2E/DX2 analytically  !
 ! A172  A(84,85,87)           107.4758         calculate D2E/DX2 analytically  !
 ! A173  A(84,85,88)           110.9485         calculate D2E/DX2 analytically  !
 ! A174  A(86,85,87)           109.2302         calculate D2E/DX2 analytically  !
 ! A175  A(86,85,88)           108.9016         calculate D2E/DX2 analytically  !
 ! A176  A(87,85,88)           109.3344         calculate D2E/DX2 analytically  !
 ! A177  A(84,89,90)           110.9963         calculate D2E/DX2 analytically  !
 ! A178  A(84,89,91)           107.4821         calculate D2E/DX2 analytically  !
 ! A179  A(84,89,92)           110.9467         calculate D2E/DX2 analytically  !
 ! A180  A(90,89,91)           109.2547         calculate D2E/DX2 analytically  !
 ! A181  A(90,89,92)           108.884          calculate D2E/DX2 analytically  !
 ! A182  A(91,89,92)           109.2411         calculate D2E/DX2 analytically  !
 ! A183  A(57,93,94)           111.2373         calculate D2E/DX2 analytically  !
 ! A184  A(57,93,95)           111.922          calculate D2E/DX2 analytically  !
 ! A185  A(57,93,96)           111.7586         calculate D2E/DX2 analytically  !
 ! A186  A(94,93,95)           106.9712         calculate D2E/DX2 analytically  !
 ! A187  A(94,93,96)           106.9292         calculate D2E/DX2 analytically  !
 ! A188  A(95,93,96)           107.749          calculate D2E/DX2 analytically  !
 ! A189  A(59,97,98)           112.0563         calculate D2E/DX2 analytically  !
 ! A190  A(59,97,99)           111.5675         calculate D2E/DX2 analytically  !
 ! A191  A(59,97,100)          111.5572         calculate D2E/DX2 analytically  !
 ! A192  A(98,97,99)           107.0094         calculate D2E/DX2 analytically  !
 ! A193  A(98,97,100)          107.551          calculate D2E/DX2 analytically  !
 ! A194  A(99,97,100)          106.8084         calculate D2E/DX2 analytically  !
 ! D1    D(5,1,2,3)            -52.7497         calculate D2E/DX2 analytically  !
 ! D2    D(5,1,2,7)             63.6982         calculate D2E/DX2 analytically  !
 ! D3    D(5,1,2,13)          -173.9711         calculate D2E/DX2 analytically  !
 ! D4    D(8,1,2,3)             66.5205         calculate D2E/DX2 analytically  !
 ! D5    D(8,1,2,7)           -177.0317         calculate D2E/DX2 analytically  !
 ! D6    D(8,1,2,13)           -54.7009         calculate D2E/DX2 analytically  !
 ! D7    D(14,1,2,3)          -173.8274         calculate D2E/DX2 analytically  !
 ! D8    D(14,1,2,7)           -57.3795         calculate D2E/DX2 analytically  !
 ! D9    D(14,1,2,13)           64.9512         calculate D2E/DX2 analytically  !
 ! D10   D(2,1,5,4)             50.15           calculate D2E/DX2 analytically  !
 ! D11   D(2,1,5,10)           -69.7072         calculate D2E/DX2 analytically  !
 ! D12   D(2,1,5,15)           170.4364         calculate D2E/DX2 analytically  !
 ! D13   D(8,1,5,4)            -68.7419         calculate D2E/DX2 analytically  !
 ! D14   D(8,1,5,10)           171.4009         calculate D2E/DX2 analytically  !
 ! D15   D(8,1,5,15)            51.5445         calculate D2E/DX2 analytically  !
 ! D16   D(14,1,5,4)           170.5172         calculate D2E/DX2 analytically  !
 ! D17   D(14,1,5,10)           50.66           calculate D2E/DX2 analytically  !
 ! D18   D(14,1,5,15)          -69.1964         calculate D2E/DX2 analytically  !
 ! D19   D(2,1,14,24)         -133.9274         calculate D2E/DX2 analytically  !
 ! D20   D(5,1,14,24)          104.6941         calculate D2E/DX2 analytically  !
 ! D21   D(8,1,14,24)          -15.3683         calculate D2E/DX2 analytically  !
 ! D22   D(1,2,3,6)            173.0906         calculate D2E/DX2 analytically  !
 ! D23   D(1,2,3,11)            57.8149         calculate D2E/DX2 analytically  !
 ! D24   D(1,2,3,12)           -65.8138         calculate D2E/DX2 analytically  !
 ! D25   D(7,2,3,6)             55.3547         calculate D2E/DX2 analytically  !
 ! D26   D(7,2,3,11)           -59.921          calculate D2E/DX2 analytically  !
 ! D27   D(7,2,3,12)           176.4502         calculate D2E/DX2 analytically  !
 ! D28   D(13,2,3,6)           -63.8193         calculate D2E/DX2 analytically  !
 ! D29   D(13,2,3,11)         -179.095          calculate D2E/DX2 analytically  !
 ! D30   D(13,2,3,12)           57.2763         calculate D2E/DX2 analytically  !
 ! D31   D(1,2,13,20)         -100.0826         calculate D2E/DX2 analytically  !
 ! D32   D(3,2,13,20)          138.1505         calculate D2E/DX2 analytically  !
 ! D33   D(7,2,13,20)           21.3107         calculate D2E/DX2 analytically  !
 ! D34   D(2,3,11,4)           -61.888          calculate D2E/DX2 analytically  !
 ! D35   D(6,3,11,4)           179.4807         calculate D2E/DX2 analytically  !
 ! D36   D(12,3,11,4)           59.4545         calculate D2E/DX2 analytically  !
 ! D37   D(2,3,12,79)         -170.3746         calculate D2E/DX2 analytically  !
 ! D38   D(6,3,12,79)          -49.2958         calculate D2E/DX2 analytically  !
 ! D39   D(11,3,12,79)          67.5614         calculate D2E/DX2 analytically  !
 ! D40   D(9,4,5,1)             68.1454         calculate D2E/DX2 analytically  !
 ! D41   D(9,4,5,10)          -172.3648         calculate D2E/DX2 analytically  !
 ! D42   D(9,4,5,15)           -52.3937         calculate D2E/DX2 analytically  !
 ! D43   D(11,4,5,1)           -50.7479         calculate D2E/DX2 analytically  !
 ! D44   D(11,4,5,10)           68.7419         calculate D2E/DX2 analytically  !
 ! D45   D(11,4,5,15)         -171.2869         calculate D2E/DX2 analytically  !
 ! D46   D(16,4,5,1)          -170.5236         calculate D2E/DX2 analytically  !
 ! D47   D(16,4,5,10)          -51.0338         calculate D2E/DX2 analytically  !
 ! D48   D(16,4,5,15)           68.9373         calculate D2E/DX2 analytically  !
 ! D49   D(5,4,11,3)            57.8404         calculate D2E/DX2 analytically  !
 ! D50   D(9,4,11,3)           -60.5694         calculate D2E/DX2 analytically  !
 ! D51   D(16,4,11,3)         -178.4688         calculate D2E/DX2 analytically  !
 ! D52   D(5,4,16,17)          -58.3049         calculate D2E/DX2 analytically  !
 ! D53   D(5,4,16,18)         -169.3032         calculate D2E/DX2 analytically  !
 ! D54   D(5,4,16,19)           67.3166         calculate D2E/DX2 analytically  !
 ! D55   D(9,4,16,17)           62.4192         calculate D2E/DX2 analytically  !
 ! D56   D(9,4,16,18)          -48.5791         calculate D2E/DX2 analytically  !
 ! D57   D(9,4,16,19)         -171.9593         calculate D2E/DX2 analytically  !
 ! D58   D(11,4,16,17)        -179.8727         calculate D2E/DX2 analytically  !
 ! D59   D(11,4,16,18)          69.1289         calculate D2E/DX2 analytically  !
 ! D60   D(11,4,16,19)         -54.2513         calculate D2E/DX2 analytically  !
 ! D61   D(1,5,15,28)          115.9467         calculate D2E/DX2 analytically  !
 ! D62   D(4,5,15,28)         -121.4735         calculate D2E/DX2 analytically  !
 ! D63   D(10,5,15,28)          -2.5121         calculate D2E/DX2 analytically  !
 ! D64   D(3,12,79,80)         175.5465         calculate D2E/DX2 analytically  !
 ! D65   D(3,12,79,81)         -65.0029         calculate D2E/DX2 analytically  !
 ! D66   D(3,12,79,82)          56.712          calculate D2E/DX2 analytically  !
 ! D67   D(2,13,20,21)         -61.3259         calculate D2E/DX2 analytically  !
 ! D68   D(2,13,20,22)          60.6958         calculate D2E/DX2 analytically  !
 ! D69   D(2,13,20,23)        -179.8032         calculate D2E/DX2 analytically  !
 ! D70   D(1,14,24,25)         -57.1005         calculate D2E/DX2 analytically  !
 ! D71   D(1,14,24,26)          64.9295         calculate D2E/DX2 analytically  !
 ! D72   D(1,14,24,27)        -176.2379         calculate D2E/DX2 analytically  !
 ! D73   D(5,15,28,29)         -58.6909         calculate D2E/DX2 analytically  !
 ! D74   D(5,15,28,30)          63.6851         calculate D2E/DX2 analytically  !
 ! D75   D(5,15,28,31)        -177.4608         calculate D2E/DX2 analytically  !
 ! D76   D(4,16,19,37)         -36.8076         calculate D2E/DX2 analytically  !
 ! D77   D(4,16,19,83)          45.1836         calculate D2E/DX2 analytically  !
 ! D78   D(17,16,19,37)         84.4094         calculate D2E/DX2 analytically  !
 ! D79   D(17,16,19,83)        166.4007         calculate D2E/DX2 analytically  !
 ! D80   D(18,16,19,37)       -156.7906         calculate D2E/DX2 analytically  !
 ! D81   D(18,16,19,83)        -74.7994         calculate D2E/DX2 analytically  !
 ! D82   D(16,19,37,34)       -129.8124         calculate D2E/DX2 analytically  !
 ! D83   D(16,19,37,52)         90.4578         calculate D2E/DX2 analytically  !
 ! D84   D(83,19,37,34)        127.8059         calculate D2E/DX2 analytically  !
 ! D85   D(83,19,37,52)        -11.924          calculate D2E/DX2 analytically  !
 ! D86   D(16,19,83,52)       -115.21           calculate D2E/DX2 analytically  !
 ! D87   D(16,19,83,84)         81.2045         calculate D2E/DX2 analytically  !
 ! D88   D(37,19,83,52)         11.4085         calculate D2E/DX2 analytically  !
 ! D89   D(37,19,83,84)       -152.1769         calculate D2E/DX2 analytically  !
 ! D90   D(36,32,33,34)        -51.847          calculate D2E/DX2 analytically  !
 ! D91   D(36,32,33,38)         59.8976         calculate D2E/DX2 analytically  !
 ! D92   D(36,32,33,44)       -176.7506         calculate D2E/DX2 analytically  !
 ! D93   D(39,32,33,34)         67.6005         calculate D2E/DX2 analytically  !
 ! D94   D(39,32,33,38)        179.3451         calculate D2E/DX2 analytically  !
 ! D95   D(39,32,33,44)        -57.3031         calculate D2E/DX2 analytically  !
 ! D96   D(45,32,33,34)       -171.1238         calculate D2E/DX2 analytically  !
 ! D97   D(45,32,33,38)        -59.3792         calculate D2E/DX2 analytically  !
 ! D98   D(45,32,33,44)         63.9726         calculate D2E/DX2 analytically  !
 ! D99   D(33,32,36,35)         59.3267         calculate D2E/DX2 analytically  !
 ! D100  D(33,32,36,41)        -60.9502         calculate D2E/DX2 analytically  !
 ! D101  D(33,32,36,46)        177.1604         calculate D2E/DX2 analytically  !
 ! D102  D(39,32,36,35)        -59.4281         calculate D2E/DX2 analytically  !
 ! D103  D(39,32,36,41)       -179.705          calculate D2E/DX2 analytically  !
 ! D104  D(39,32,36,46)         58.4055         calculate D2E/DX2 analytically  !
 ! D105  D(45,32,36,35)        178.3434         calculate D2E/DX2 analytically  !
 ! D106  D(45,32,36,41)         58.0665         calculate D2E/DX2 analytically  !
 ! D107  D(45,32,36,46)        -63.823          calculate D2E/DX2 analytically  !
 ! D108  D(33,32,45,67)       -136.6033         calculate D2E/DX2 analytically  !
 ! D109  D(36,32,45,67)        105.5171         calculate D2E/DX2 analytically  !
 ! D110  D(39,32,45,67)        -16.3527         calculate D2E/DX2 analytically  !
 ! D111  D(32,33,34,37)       -159.8318         calculate D2E/DX2 analytically  !
 ! D112  D(32,33,34,42)         34.1922         calculate D2E/DX2 analytically  !
 ! D113  D(32,33,34,53)        -69.999          calculate D2E/DX2 analytically  !
 ! D114  D(38,33,34,37)         83.8877         calculate D2E/DX2 analytically  !
 ! D115  D(38,33,34,42)        -82.0883         calculate D2E/DX2 analytically  !
 ! D116  D(38,33,34,53)        173.7205         calculate D2E/DX2 analytically  !
 ! D117  D(44,33,34,37)        -31.7329         calculate D2E/DX2 analytically  !
 ! D118  D(44,33,34,42)        162.2912         calculate D2E/DX2 analytically  !
 ! D119  D(44,33,34,53)         58.1            calculate D2E/DX2 analytically  !
 ! D120  D(32,33,44,63)        -89.7194         calculate D2E/DX2 analytically  !
 ! D121  D(34,33,44,63)        144.5916         calculate D2E/DX2 analytically  !
 ! D122  D(38,33,44,63)         33.6459         calculate D2E/DX2 analytically  !
 ! D123  D(33,34,37,19)        -57.5575         calculate D2E/DX2 analytically  !
 ! D124  D(33,34,37,52)         75.4008         calculate D2E/DX2 analytically  !
 ! D125  D(42,34,37,19)        109.4642         calculate D2E/DX2 analytically  !
 ! D126  D(42,34,37,52)       -117.5774         calculate D2E/DX2 analytically  !
 ! D127  D(53,34,37,19)       -153.863          calculate D2E/DX2 analytically  !
 ! D128  D(53,34,37,52)        -20.9046         calculate D2E/DX2 analytically  !
 ! D129  D(33,34,42,35)        -20.3574         calculate D2E/DX2 analytically  !
 ! D130  D(37,34,42,35)        172.9189         calculate D2E/DX2 analytically  !
 ! D131  D(53,34,42,35)         83.6872         calculate D2E/DX2 analytically  !
 ! D132  D(33,34,53,51)       -112.5714         calculate D2E/DX2 analytically  !
 ! D133  D(37,34,53,51)          7.9964         calculate D2E/DX2 analytically  !
 ! D134  D(42,34,53,51)        122.6975         calculate D2E/DX2 analytically  !
 ! D135  D(40,35,36,32)         70.401          calculate D2E/DX2 analytically  !
 ! D136  D(40,35,36,41)       -169.6956         calculate D2E/DX2 analytically  !
 ! D137  D(40,35,36,46)        -50.4059         calculate D2E/DX2 analytically  !
 ! D138  D(42,35,36,32)        -45.181          calculate D2E/DX2 analytically  !
 ! D139  D(42,35,36,41)         74.7224         calculate D2E/DX2 analytically  !
 ! D140  D(42,35,36,46)       -165.9878         calculate D2E/DX2 analytically  !
 ! D141  D(47,35,36,32)       -166.993          calculate D2E/DX2 analytically  !
 ! D142  D(47,35,36,41)        -47.0896         calculate D2E/DX2 analytically  !
 ! D143  D(47,35,36,46)         72.2001         calculate D2E/DX2 analytically  !
 ! D144  D(36,35,42,34)         25.1889         calculate D2E/DX2 analytically  !
 ! D145  D(40,35,42,34)        -93.0293         calculate D2E/DX2 analytically  !
 ! D146  D(47,35,42,34)        151.4347         calculate D2E/DX2 analytically  !
 ! D147  D(36,35,47,48)        -65.1433         calculate D2E/DX2 analytically  !
 ! D148  D(36,35,47,49)        177.9635         calculate D2E/DX2 analytically  !
 ! D149  D(36,35,47,50)         56.2124         calculate D2E/DX2 analytically  !
 ! D150  D(40,35,47,48)         57.3622         calculate D2E/DX2 analytically  !
 ! D151  D(40,35,47,49)        -59.5311         calculate D2E/DX2 analytically  !
 ! D152  D(40,35,47,50)        178.7178         calculate D2E/DX2 analytically  !
 ! D153  D(42,35,47,48)        169.7441         calculate D2E/DX2 analytically  !
 ! D154  D(42,35,47,49)         52.8509         calculate D2E/DX2 analytically  !
 ! D155  D(42,35,47,50)        -68.9003         calculate D2E/DX2 analytically  !
 ! D156  D(32,36,46,71)        111.3316         calculate D2E/DX2 analytically  !
 ! D157  D(35,36,46,71)       -127.7699         calculate D2E/DX2 analytically  !
 ! D158  D(41,36,46,71)         -9.3837         calculate D2E/DX2 analytically  !
 ! D159  D(19,37,52,51)        160.9713         calculate D2E/DX2 analytically  !
 ! D160  D(19,37,52,83)         12.0526         calculate D2E/DX2 analytically  !
 ! D161  D(34,37,52,51)         33.5179         calculate D2E/DX2 analytically  !
 ! D162  D(34,37,52,83)       -115.4008         calculate D2E/DX2 analytically  !
 ! D163  D(33,44,63,64)        -59.2147         calculate D2E/DX2 analytically  !
 ! D164  D(33,44,63,65)         62.7699         calculate D2E/DX2 analytically  !
 ! D165  D(33,44,63,66)       -177.6841         calculate D2E/DX2 analytically  !
 ! D166  D(32,45,67,68)        -59.3692         calculate D2E/DX2 analytically  !
 ! D167  D(32,45,67,69)         62.7008         calculate D2E/DX2 analytically  !
 ! D168  D(32,45,67,70)       -178.5988         calculate D2E/DX2 analytically  !
 ! D169  D(36,46,71,72)        -61.3401         calculate D2E/DX2 analytically  !
 ! D170  D(36,46,71,73)         60.6502         calculate D2E/DX2 analytically  !
 ! D171  D(36,46,71,74)        179.5003         calculate D2E/DX2 analytically  !
 ! D172  D(35,47,50,75)       -179.7467         calculate D2E/DX2 analytically  !
 ! D173  D(48,47,50,75)        -60.8098         calculate D2E/DX2 analytically  !
 ! D174  D(49,47,50,75)         59.8076         calculate D2E/DX2 analytically  !
 ! D175  D(47,50,75,76)        179.9735         calculate D2E/DX2 analytically  !
 ! D176  D(47,50,75,77)        -60.7839         calculate D2E/DX2 analytically  !
 ! D177  D(47,50,75,78)         60.6629         calculate D2E/DX2 analytically  !
 ! D178  D(43,51,52,37)       -149.19           calculate D2E/DX2 analytically  !
 ! D179  D(43,51,52,83)        -99.4196         calculate D2E/DX2 analytically  !
 ! D180  D(53,51,52,37)        -18.1877         calculate D2E/DX2 analytically  !
 ! D181  D(53,51,52,83)         31.5827         calculate D2E/DX2 analytically  !
 ! D182  D(54,51,52,37)         94.7149         calculate D2E/DX2 analytically  !
 ! D183  D(54,51,52,83)        144.4852         calculate D2E/DX2 analytically  !
 ! D184  D(43,51,53,34)        145.2407         calculate D2E/DX2 analytically  !
 ! D185  D(52,51,53,34)         14.0168         calculate D2E/DX2 analytically  !
 ! D186  D(54,51,53,34)        -98.5226         calculate D2E/DX2 analytically  !
 ! D187  D(43,51,54,55)        -35.9861         calculate D2E/DX2 analytically  !
 ! D188  D(43,51,54,56)        147.8293         calculate D2E/DX2 analytically  !
 ! D189  D(52,51,54,55)         85.2824         calculate D2E/DX2 analytically  !
 ! D190  D(52,51,54,56)        -90.9023         calculate D2E/DX2 analytically  !
 ! D191  D(53,51,54,55)       -157.0498         calculate D2E/DX2 analytically  !
 ! D192  D(53,51,54,56)         26.7655         calculate D2E/DX2 analytically  !
 ! D193  D(37,52,83,19)        -10.4997         calculate D2E/DX2 analytically  !
 ! D194  D(37,52,83,84)        156.3021         calculate D2E/DX2 analytically  !
 ! D195  D(51,52,83,19)        -68.2101         calculate D2E/DX2 analytically  !
 ! D196  D(51,52,83,84)         98.5917         calculate D2E/DX2 analytically  !
 ! D197  D(51,54,55,57)       -175.55           calculate D2E/DX2 analytically  !
 ! D198  D(51,54,55,58)          4.7577         calculate D2E/DX2 analytically  !
 ! D199  D(56,54,55,57)          0.5804         calculate D2E/DX2 analytically  !
 ! D200  D(56,54,55,58)       -179.1119         calculate D2E/DX2 analytically  !
 ! D201  D(51,54,56,59)        175.6492         calculate D2E/DX2 analytically  !
 ! D202  D(51,54,56,60)         -4.0621         calculate D2E/DX2 analytically  !
 ! D203  D(55,54,56,59)         -0.4709         calculate D2E/DX2 analytically  !
 ! D204  D(55,54,56,60)        179.8178         calculate D2E/DX2 analytically  !
 ! D205  D(54,55,57,61)         -0.2851         calculate D2E/DX2 analytically  !
 ! D206  D(54,55,57,93)        176.4655         calculate D2E/DX2 analytically  !
 ! D207  D(58,55,57,61)        179.4053         calculate D2E/DX2 analytically  !
 ! D208  D(58,55,57,93)         -3.8441         calculate D2E/DX2 analytically  !
 ! D209  D(54,56,59,61)          0.0628         calculate D2E/DX2 analytically  !
 ! D210  D(54,56,59,97)        178.2404         calculate D2E/DX2 analytically  !
 ! D211  D(60,56,59,61)        179.7723         calculate D2E/DX2 analytically  !
 ! D212  D(60,56,59,97)         -2.05           calculate D2E/DX2 analytically  !
 ! D213  D(55,57,61,59)         -0.1122         calculate D2E/DX2 analytically  !
 ! D214  D(55,57,61,62)        179.854          calculate D2E/DX2 analytically  !
 ! D215  D(93,57,61,59)       -176.8484         calculate D2E/DX2 analytically  !
 ! D216  D(93,57,61,62)          3.1177         calculate D2E/DX2 analytically  !
 ! D217  D(55,57,93,94)        -85.1482         calculate D2E/DX2 analytically  !
 ! D218  D(55,57,93,95)        155.2503         calculate D2E/DX2 analytically  !
 ! D219  D(55,57,93,96)         34.29           calculate D2E/DX2 analytically  !
 ! D220  D(61,57,93,94)         91.6299         calculate D2E/DX2 analytically  !
 ! D221  D(61,57,93,95)        -27.9716         calculate D2E/DX2 analytically  !
 ! D222  D(61,57,93,96)       -148.932          calculate D2E/DX2 analytically  !
 ! D223  D(56,59,61,57)          0.2247         calculate D2E/DX2 analytically  !
 ! D224  D(56,59,61,62)       -179.7414         calculate D2E/DX2 analytically  !
 ! D225  D(97,59,61,57)       -177.97           calculate D2E/DX2 analytically  !
 ! D226  D(97,59,61,62)          2.0639         calculate D2E/DX2 analytically  !
 ! D227  D(56,59,97,98)         19.9935         calculate D2E/DX2 analytically  !
 ! D228  D(56,59,97,99)        -99.9763         calculate D2E/DX2 analytically  !
 ! D229  D(56,59,97,100)       140.6511         calculate D2E/DX2 analytically  !
 ! D230  D(61,59,97,98)       -161.8037         calculate D2E/DX2 analytically  !
 ! D231  D(61,59,97,99)         78.2265         calculate D2E/DX2 analytically  !
 ! D232  D(61,59,97,100)       -41.1461         calculate D2E/DX2 analytically  !
 ! D233  D(19,83,84,85)        161.8389         calculate D2E/DX2 analytically  !
 ! D234  D(19,83,84,89)        -17.8409         calculate D2E/DX2 analytically  !
 ! D235  D(52,83,84,85)         -0.7439         calculate D2E/DX2 analytically  !
 ! D236  D(52,83,84,89)        179.5764         calculate D2E/DX2 analytically  !
 ! D237  D(83,84,85,86)       -119.449          calculate D2E/DX2 analytically  !
 ! D238  D(83,84,85,87)         -0.1093         calculate D2E/DX2 analytically  !
 ! D239  D(83,84,85,88)        119.3759         calculate D2E/DX2 analytically  !
 ! D240  D(89,84,85,86)         60.2627         calculate D2E/DX2 analytically  !
 ! D241  D(89,84,85,87)        179.6024         calculate D2E/DX2 analytically  !
 ! D242  D(89,84,85,88)        -60.9124         calculate D2E/DX2 analytically  !
 ! D243  D(83,84,89,90)       -119.2186         calculate D2E/DX2 analytically  !
 ! D244  D(83,84,89,91)          0.201          calculate D2E/DX2 analytically  !
 ! D245  D(83,84,89,92)        119.5754         calculate D2E/DX2 analytically  !
 ! D246  D(85,84,89,90)         61.0677         calculate D2E/DX2 analytically  !
 ! D247  D(85,84,89,91)       -179.5127         calculate D2E/DX2 analytically  !
 ! D248  D(85,84,89,92)        -60.1383         calculate D2E/DX2 analytically  !
 --------------------------------------------------------------------------------
 Trust Radius=1.00D-02 FncErr=1.00D-07 GrdErr=1.00D-06 EigMax=2.50D+02 EigMin=1.00D-04
 Number of steps in this run=    556 maximum allowed number of steps=    600.
 Search for a saddle point of order  1.
 GradGradGradGradGradGradGradGradGradGradGradGradGradGradGradGradGradGrad

 Leave Link  103 at Mon Jun 17 15:21:07 2019, MaxMem= 12884901888 cpu:               0.7 elap:               0.0
 (Enter /n/sw/g16_nehalem/g16/l202.exe)
 Stoichiometry    C30H47F6NaO15S
 Framework group  C1[X(C30H47F6NaO15S)]
 Deg. of freedom   294
 Full point group                 C1      NOp   1
 Largest Abelian subgroup         C1      NOp   1
 Largest concise Abelian subgroup C1      NOp   1
                         Standard orientation:                         
 ---------------------------------------------------------------------
 Center     Atomic      Atomic             Coordinates (Angstroms)
 Number     Number       Type             X           Y           Z
 ---------------------------------------------------------------------
      1          6           0       -2.183538    1.293637    2.429467
      2          6           0       -2.566814    2.129146    1.213213
      3          6           0       -1.841507    3.473081    1.257099
      4          6           0        0.020308    2.552427    2.464012
      5          6           0       -0.665218    1.187998    2.551116
      6          1           0       -2.014744    4.030411    0.326518
      7          1           0       -2.221148    1.613434    0.307291
      8          1           0       -2.578598    1.788218    3.325361
      9          1           0       -0.242838    3.125156    3.363055
     10          1           0       -0.301181    0.558588    1.729218
     11          8           0       -0.444355    3.266048    1.303133
     12          8           0       -2.309884    4.196955    2.348408
     13          8           0       -3.956276    2.361443    1.146708
     14          8           0       -2.752590    0.001402    2.296694
     15          8           0       -0.342439    0.600065    3.801381
     16          6           0        1.548650    2.463134    2.351163
     17          1           0        1.877496    1.909206    3.253067
     18          1           0        1.918544    3.501975    2.495860
     19          8           0        2.006182    1.919896    1.176221
     20          6           0       -4.639483    1.513766    0.246150
     21          1           0       -4.279737    1.646972   -0.783274
     22          1           0       -4.535146    0.461084    0.523379
     23          1           0       -5.693634    1.796137    0.286561
     24          6           0       -3.388914   -0.478966    3.461642
     25          1           0       -2.705042   -0.499149    4.316770
     26          1           0       -4.264645    0.130718    3.720774
     27          1           0       -3.716678   -1.496538    3.241000
     28          6           0        0.303612   -0.651581    3.713897
     29          1           0       -0.307351   -1.382685    3.171667
     30          1           0        1.282862   -0.574190    3.226378
     31          1           0        0.448146   -1.002342    4.738447
     32          6           0        4.258268   -0.775768   -1.258227
     33          6           0        3.354788    0.337101   -0.727345
     34          6           0        2.118974   -0.229186   -0.108681
     35          6           0        3.139426   -2.362577    0.348705
     36          6           0        4.468470   -1.779577   -0.125329
     37          1           0        1.240362    0.378513    0.022868
     38          1           0        3.843000    0.821982    0.135128
     39          1           0        3.764916   -1.262877   -2.107522
     40          1           0        2.744086   -3.024050   -0.426617
     41          1           0        4.957193   -1.266775    0.710805
     42          8           0        2.106260   -1.340056    0.522578
     43          8           0       -0.270078   -0.085668   -3.854281
     44          8           0        2.999174    1.314627   -1.666228
     45          8           0        5.495866   -0.228547   -1.647235
     46          8           0        5.242674   -2.874727   -0.557118
     47          6           0        3.217584   -3.118143    1.653060
     48          1           0        3.848455   -4.003549    1.490267
     49          1           0        2.211655   -3.466636    1.929136
     50          8           0        3.752345   -2.275319    2.637344
     51         16           0       -0.102636   -0.227353   -2.400043
     52          8           0       -0.274102    1.039503   -1.639227
     53          8           0        1.149161   -0.948076   -2.002923
     54          6           0       -1.442090   -1.275612   -1.827878
     55          6           0       -2.691371   -1.170461   -2.426195
     56          6           0       -1.237033   -2.120961   -0.743475
     57          6           0       -3.750918   -1.917629   -1.917883
     58          1           0       -2.832746   -0.518068   -3.279935
     59          6           0       -2.304050   -2.862146   -0.248889
     60          1           0       -0.256627   -2.193977   -0.290016
     61          6           0       -3.564926   -2.763607   -0.829993
     62          1           0       -4.394854   -3.339698   -0.439030
     63          6           0        3.910763    2.409478   -1.725867
     64          1           0        3.979605    2.901569   -0.748632
     65          1           0        4.900760    2.079240   -2.043331
     66          1           0        3.498149    3.106520   -2.455296
     67          6           0        5.984590   -0.725060   -2.881529
     68          1           0        6.120654   -1.810379   -2.850608
     69          1           0        5.308510   -0.469631   -3.706363
     70          1           0        6.949323   -0.244206   -3.049605
     71          6           0        6.534793   -2.934967    0.022725
     72          1           0        7.126629   -2.050280   -0.232744
     73          1           0        6.476656   -3.026814    1.113962
     74          1           0        7.017362   -3.823726   -0.385935
     75          6           0        3.862648   -2.914794    3.889906
     76          1           0        4.284574   -2.187620    4.584233
     77          1           0        2.881742   -3.239931    4.260963
     78          1           0        4.525009   -3.789119    3.835563
     79          6           0       -1.868895    5.541215    2.367938
     80          1           0       -2.359880    6.022338    3.214383
     81          1           0       -0.783291    5.608540    2.493193
     82          1           0       -2.154195    6.060262    1.443432
     83         11           0        0.927488    2.766739   -0.625998
     84          8           0        1.163551    4.742174   -1.873974
     85          6           0        0.642913    4.926208   -3.175654
     86          1           0        1.446556    5.134080   -3.893209
     87          1           0        0.137712    4.002666   -3.459849
     88          1           0       -0.075891    5.754908   -3.197115
     89          6           0        1.851980    5.884373   -1.406674
     90          1           0        1.182691    6.752129   -1.352841
     91          1           0        2.225689    5.655840   -0.407752
     92          1           0        2.697624    6.128200   -2.062125
     93          6           0       -5.122246   -1.749347   -2.508302
     94          9           0       -5.773587   -0.714741   -1.942413
     95          9           0       -5.883360   -2.838431   -2.325201
     96          9           0       -5.069631   -1.504155   -3.825586
     97          6           0       -2.096810   -3.811534    0.896731
     98          9           0       -0.983937   -3.526056    1.593687
     99          9           0       -1.979465   -5.081026    0.471311
    100          9           0       -3.130637   -3.783212    1.754639
 ---------------------------------------------------------------------
 Rotational constants (GHZ):           0.0542651           0.0419420           0.0358220
 Leave Link  202 at Mon Jun 17 15:21:08 2019, MaxMem= 12884901888 cpu:               0.6 elap:               0.0
 (Enter /n/sw/g16_nehalem/g16/l301.exe)
 Standard basis: 6-31G(d) (6D, 7F)
 Centers:      19     53     43     52
 SP 1 1.00
     Exponent=  8.4500000000D-02 Coefficients=  1.0000000000D+00  1.0000000000D+00
 ****
 Ernie: Thresh=  0.10000D-02 Tol=  0.10000D-05 Strict=F.
 There are   913 symmetry adapted cartesian basis functions of A   symmetry.
 There are   913 symmetry adapted basis functions of A   symmetry.
   913 basis functions,  1736 primitive gaussians,   913 cartesian basis functions
   214 alpha electrons      214 beta electrons
       nuclear repulsion energy      9542.5078808687 Hartrees.
 IExCor=  908 DFT=T Ex+Corr=mPW1PW91 ExCW=0 ScaHFX=  0.250000
 ScaDFX=  0.750000  0.750000  1.000000  1.000000 ScalE2=  1.000000  1.000000
 IRadAn=      5 IRanWt=     -1 IRanGd=            0 ICorTp=0 IEmpDi=  4
 NAtoms=  100 NActive=  100 NUniq=  100 SFac= 1.00D+00 NAtFMM=   60 NAOKFM=T Big=T
 Integral buffers will be    131072 words long.
 Raffenetti 2 integral format.
 Two-electron integral symmetry is turned on.
 Force inversion solution in PCM.
 ------------------------------------------------------------------------------
 Polarizable Continuum Model (PCM)
 =================================
 Model                : PCM.
 Atomic radii         : UFF (Universal Force Field).
 Polarization charges : Total charges.
 Charge compensation  : None.
 Solution method      : Matrix inversion.
 Cavity type          : Scaled VdW (van der Waals Surface) (Alpha=1.100).
 Cavity algorithm     : GePol (No added spheres)
                        Default sphere list used, NSphG=  100.
                        Lebedev-Laikov grids with approx.  5.0 points / Ang**2.
                        Smoothing algorithm: York/Karplus (Gamma=1.0000).
                        Polarization charges: spherical gaussians, with
                                              point-specific exponents (IZeta= 3).
                        Self-potential: point-specific (ISelfS= 7).
                        Self-field    : sphere-specific E.n sum rule (ISelfD= 2).
 1st derivatives      : Analytical E(r).r(x)/FMM algorithm (CHGder, D1EAlg=3).
                        Cavity 1st derivative terms included.
 2nd derivatives      : Analytical E(r).r(xy)/FMM algorithm (CHGder, D2EAlg=3).
                        Cavity 2nd derivative terms included.
 Solvent              : TetraHydroFuran, Eps=   7.425700 Eps(inf)=   1.974025
 ------------------------------------------------------------------------------
 GePol: Number of generator spheres                  =     100
 GePol: Total number of spheres                      =     100
 GePol: Number of exposed spheres                    =     100 (100.00%)
 GePol: Number of points                             =    6708
 GePol: Average weight of points                     =       0.12
 GePol: Minimum weight of points                     =   0.33D-11
 GePol: Maximum weight of points                     =    0.21371
 GePol: Number of points with low weight             =     456
 GePol: Fraction of low-weight points (<1% of avg)   =       6.80%
 GePol: Cavity surface area                          =    835.045 Ang**2
 GePol: Cavity volume                                =    998.222 Ang**3
 Leave Link  301 at Mon Jun 17 15:21:08 2019, MaxMem= 12884901888 cpu:               2.9 elap:               0.1
 (Enter /n/sw/g16_nehalem/g16/l302.exe)
 NPDir=0 NMtPBC=     1 NCelOv=     1 NCel=       1 NClECP=     1 NCelD=      1
         NCelK=      1 NCelE2=     1 NClLst=     1 CellRange=     0.0.
 One-electron integrals computed using PRISM.
 One-electron integral symmetry used in STVInt
 NBasis=   913 RedAO= T EigKep=  3.77D-04  NBF=   913
 NBsUse=   913 1.00D-06 EigRej= -1.00D+00 NBFU=   913
 Precomputing XC quadrature grid using
 IXCGrd= 4 IRadAn=           5 IRanWt=          -1 IRanGd=           0 AccXCQ= 0.00D+00.
 Generated NRdTot=       0 NPtTot=           0 NUsed=           0 NTot=          32
 NSgBfM=   850   850   850   850   850 MxSgAt=   100 MxSgA2=   100.
 Leave Link  302 at Mon Jun 17 15:21:10 2019, MaxMem= 12884901888 cpu:              89.3 elap:               2.5
 (Enter /n/sw/g16_nehalem/g16/l303.exe)
 DipDrv:  MaxL=1.
[...]
 013471,0.00002030,0.00007859,-0.00013885,0.00010756,0.00001360,0.00010
 596,0.00001719,-0.00001835,-0.00008101,0.00001017,-0.00001273,0.000059
 27,-0.00007961,0.00002245,-0.00006839,0.00008685,-0.00005720,0.0033307
 2,0.00191089,-0.00122979,-0.00068101,-0.00120348,-0.00006975,-0.001613
 14,-0.00007786,-0.00006485,-0.00054476,0.00063496,0.00242531,0.0001936
 7,-0.00089244,0.00044369,0.00386303,-0.00075700,0.00093490,-0.00008111
 ,0.00053583,0.00228010,0.00010951,-0.00017915,-0.00018008,0.00519309,-
 0.04579249,-0.00396421,0.00036845,-0.00064847,-0.00103239,-0.00341304,
 -0.00112825,0.00009129,0.00063379,-0.00081298,-0.00088663,0.00007159,0
 .00010510,-0.00001593,-0.00000902,-0.00001259,-0.00000903,-0.00002243,
 -0.00001382,0.00000470,0.00000131,-0.00000847,0.00000208,0.00003265,-0
 .00004138,-0.00007102,-0.00000543,0.00001438,0.00000536,0.00000040,0.0
 0000209,0.00000512,-0.00000966,0.00000074,0.00000974,0.00005963,-0.000
 01060,0.00003338,-0.00000433,0.00000097,-0.00000493,-0.00000331,-0.000
 00646,-0.00000890,-0.00002047,0.00000767,0.00000270,0.00004699,-0.0000
 4905,0.00006179,0.00000072,0.00000393,-0.00000515,0.00000214,-0.000011
 06,0.00000029,-0.00002853,0.00001850,-0.00000081,0.00002651,0.00010570
 ,-0.00000249,0.00000298,-0.00001706,-0.00001072,-0.00001012,-0.0000075
 5,0.00000344,-0.00000456,-0.00001339,0.00000968,0.00010430,0.00021230,
 0.00002082,-0.00003612,-0.00007252,0.00000835,0.00001117,0.00002073,-0
 .00001422,-0.00001101,-0.00000536,0.00000442,-0.00000489,-0.00000361,-
 0.00000998,0.00000269,-0.00000336,-0.00000184,0.00003540,0.00004572,0.
 00001617,0.00000046,-0.00000859,-0.00000138,0.00000294,-0.00000112,-0.
 00000327,-0.00000974,-0.00000843,0.00000647,-0.00283194,-0.00001892,-0
 .00095405,0.00086561,-0.00042387,0.00004505,0.00085368,0.00039785,0.00
 020628,0.00072311,-0.00016370,0.00086498,0.02126898,-0.26653262,-0.039
 36049,-0.02985109,-0.03350237,-0.03361836,-0.02646624,0.36595008,0.000
 06930,0.00017128,0.00000591,-0.00003170,-0.00000287,-0.00008937,-0.000
 00474,0.00001769,-0.00000341,-0.00001392,0.00006598,-0.00004077,-0.000
 02976,0.00006993,-0.00012418,-0.00000023,-0.00002120,0.00000704,0.0000
 0244,-0.00000316,0.00000906,-0.00000627,-0.00001618,-0.00000017,-0.000
 00615,-0.00000582,0.00000602,0.00001106,0.00001048,-0.00001378,0.00001
 330,-0.00004564,0.00006228,0.00000248,-0.00002081,0.00001770,0.0000501
 2,0.00001006,0.00008575,-0.00004990,-0.00025538,0.00005478,0.00003432,
 -0.00031558,0.00005285,0.00005170,-0.00000041,-0.00007533,0.00000986,-
 0.00000120,0.00002479,-0.00001731,-0.00000081,0.00001836,-0.00004491,0
 .00002042,0.00011324,-0.00001426,-0.00002051,-0.00007758,-0.00000629,-
 0.00002819,0.00003456,0.00000644,-0.00000317,-0.00003215,-0.00000027,0
 .00000646,0.00000759,0.00017208,0.00031976,-0.00005293,-0.00001442,-0.
 00002253,0.00001917,-0.00000005,-0.00009812,-0.00000796,-0.00025111,0.
 00006520,0.00019650,0.00016722,0.00038270,0.00016085,-0.00007201,0.000
 03475,0.00006904,-0.00003865,-0.00003659,-0.00002465,-0.00001893,-0.00
 002908,-0.00002983,-0.00002842,-0.00000374,-0.00002286,0.00000016,0.00
 000953,-0.00000198,-0.00015275,-0.00001025,-0.00033346,-0.00004059,0.0
 0000147,-0.00006997,0.00001335,-0.00000537,-0.00000140,0.00000638,-0.0
 0000465,-0.00002171,0.00001025,0.00000152,-0.00000644,-0.00000853,0.00
 000537,0.00001366,0.00000503,0.00000371,-0.00000407,0.00000832,0.00000
 423,0.00000002,0.00003265,-0.00010616,0.00015572,0.00027201,0.00024777
 ,-0.00026749,0.00002729,0.00001065,0.00002136,0.00001164,0.00000201,0.
 00002486,0.00001262,-0.00000439,0.00002278,0.00012576,0.00005804,-0.00
 006155,-0.00002917,-0.00000050,0.00001006,0.00001590,-0.00003959,0.000
 02658,-0.00005858,-0.00001929,0.00004391,-0.00103154,-0.00073061,0.000
 13028,0.00020054,0.00041799,0.00011958,0.00054043,0.00008753,0.0001546
 7,-0.00007882,-0.00057501,-0.00105101,0.00014752,0.00051103,-0.0003692
 3,-0.00155423,-0.00004965,0.00031996,0.00047314,-0.00054353,-0.0003224
 8,-0.00001163,0.00004151,0.00008642,-0.00194444,0.02038802,0.00945432,
 0.00010328,0.00044062,0.00011552,0.00086323,0.00044294,0.00023154,-0.0
 0015326,0.00018059,0.00001735,-0.00001315,-0.00002453,-0.00000018,0.00
 000286,0.00000538,0.00000488,0.00000313,0.00000280,-0.00000113,-0.0000
 0019,-0.00000191,0.00000062,-0.00000347,-0.00000462,-0.00001339,-0.000
 00232,0.00000110,-0.00000174,0.00000222,-0.00000356,0.00000499,0.00000
 248,0.00000202,0.00000085,-0.00001083,0.00000064,-0.00001387,0.0000006
 7,0.00000056,0.00000054,0.00000342,-0.00000024,0.00000625,-0.00000104,
 0.00000103,-0.00000008,0.00005639,0.00001555,-0.00002709,-0.00000477,-
 0.00000477,0.00000198,-0.00001609,-0.00000665,0.00001296,-0.00001219,0
 .00000351,0.00000479,0.00000095,0.00001758,-0.00000435,-0.00000068,0.0
 0000021,-0.00000032,-0.00000036,-0.00000043,-0.00000074,0.00000115,-0.
 00000399,0.00000451,-0.00002127,-0.00005178,-0.00006037,0.00001131,0.0
 0001982,0.00001703,-0.00000738,-0.00000824,-0.00001122,0.00000081,-0.0
 0000036,0.00000158,0.00000417,0.00000271,0.00000143,-0.00000028,0.0000
 0163,0.00000199,-0.00000926,-0.00001442,-0.00001032,-0.00000006,0.0000
 0359,0.00000005,0.00000212,0.00000018,0.00000281,0.00000143,0.00000225
 ,0.00000003,0.00089141,-0.00022192,0.00021223,-0.00027729,0.00018537,0
 .00002326,-0.00026017,-0.00004639,-0.00004432,-0.00021952,0.00007395,-
 0.00017685,0.00320900,-0.03856678,-0.08323712,-0.01960966,-0.04284228,
 -0.01300980,-0.01042442,0.10466529,0.10816262,-0.00019497,-0.00029429,
 -0.00000415,-0.00003502,0.00005450,0.00006461,-0.00012376,0.00001716,-
 0.00000390,0.00004560,0.00000173,-0.00002636,-0.00011422,0.00017110,-0
 .00000168,0.00001288,0.00001736,-0.00000150,-0.00000719,0.00000356,-0.
 00002002,0.00002188,0.00000998,-0.00000546,0.00000160,-0.00001912,-0.0
 0000755,0.00003223,-0.00001588,-0.00004334,0.00008335,-0.00004634,0.00
 001160,0.00004097,-0.00000691,-0.00003030,0.00011174,0.00004762,-0.000
 02561,0.00036861,0.00043506,-0.00013858,0.00018400,-0.00034217,-0.0000
 4866,-0.00007784,0.00004338,0.00012190,0.00001285,0.00000753,-0.000018
 13,0.00001881,-0.00004149,-0.00003545,0.00005009,-0.00015497,-0.000149
 96,-0.00003412,-0.00011554,0.00004029,0.00001257,0.00005108,-0.0000414
 9,-0.00001935,0.00000092,0.00003888,0.00000955,-0.00000483,-0.00000082
 ,-0.00066639,-0.00090603,0.00029803,0.00005990,0.00016673,0.00005695,0
 .00006181,0.00018643,0.00001718,0.00054980,-0.00011635,-0.00064796,0.0
 0011685,0.00044660,0.00018216,-0.00014542,0.00009617,0.00016159,0.0000
 2563,0.00000530,-0.00001585,-0.00003927,-0.00004909,-0.00006359,0.0000
 6326,0.00002606,-0.00004040,-0.00003491,0.00004055,-0.00002800,0.00016
 292,0.00047977,0.00003805,0.00008958,-0.00002070,-0.00001415,0.0000982
 7,-0.00002746,-0.00001520,-0.00000283,0.00005360,0.00000107,-0.0000055
 1,0.00000486,0.00002421,0.00000622,-0.00000136,-0.00001379,0.00003116,
 0.00000307,-0.00003019,-0.00001638,-0.00000176,0.00000017,-0.00017157,
 -0.00030745,0.00011524,-0.00019719,-0.00024973,0.00048288,-0.00005587,
 -0.00010824,0.00003864,-0.00010201,-0.00003426,0.00006487,-0.00012620,
 0.00002056,0.00000258,0.00032591,0.00019717,0.00003842,-0.00005384,-0.
 00001069,0.00000614,0.00005227,-0.00008943,0.00012365,-0.00017088,-0.0
 0008145,-0.00019008,0.00085537,0.00087076,-0.00041624,-0.00014135,-0.0
 0054288,-0.00011209,-0.00038687,-0.00021393,0.00006308,-0.00023577,-0.
 00046576,-0.00034896,0.00039978,0.00013230,0.00016677,0.00131681,-0.00
 068085,0.00175070,0.00103445,-0.00106265,0.00049679,0.00010975,0.00012
 750,0.00004726,-0.00600740,-0.00075509,0.01402105,0.00042382,0.0007560
 6,-0.00033508,-0.00264747,-0.00055420,-0.00243540,0.00162078,0.0009690
 3,0.00070001,0.00005057,0.00007521,-0.00000036,-0.00000779,-0.00000767
 ,-0.00000925,-0.00001073,-0.00000462,0.00000054,-0.00000207,-0.0000085
 4,0.00000465,0.00002154,-0.00001370,-0.00004667,0.00000503,0.00000431,
 0.00000346,0.00000103,0.00000594,0.00000542,-0.00001128,-0.00000332,0.
 00000645,0.00008745,-0.00000427,0.00003637,-0.00001289,-0.00000962,-0.
 00000130,0.00000080,-0.00000003,-0.00000724,-0.00000689,0.00000712,-0.
 00000113,0.00006086,-0.00005334,0.00010821,-0.00001691,-0.00001007,-0.
 00001890,-0.00000392,0.00001594,0.00000887,-0.00001065,0.00002014,-0.0
 0000547,-0.00000904,-0.00000191,0.00000108,0.00000109,-0.00000247,-0.0
 0000216,0.00000470,0.00000298,0.00000214,-0.00000095,0.00000130,-0.000
 00025,-0.00000367,0.00012062,0.00002274,-0.00000172,-0.00003345,-0.000
 00398,-0.00000156,0.00001040,-0.00000263,-0.00000031,0.00000051,0.0000
 0020,-0.00000672,0.00000003,-0.00000144,0.00000238,-0.00000616,-0.0000
 0098,0.00000826,0.00002068,0.00000897,0.00000196,-0.00000639,0.0000002
 7,-0.00000077,0.00000049,-0.00000048,-0.00000189,-0.00000255,0.0000001
 9,-0.00103994,-0.00010821,0.00012922,0.00035152,-0.00017132,-0.0000963
 5,0.00031933,0.00016852,-0.00004388,0.00023925,-0.00003411,0.00011170,
 -0.17526402,-0.00774671,0.10245990,-0.08059198,-0.01116324,0.01530940,
 -0.01345558,0.02851853,0.02895393,0.27270807,0.00008098,0.00018404,0.0
 0000912,-0.00005333,0.00002004,0.00003102,0.00002106,0.00008552,0.0000
 3792,-0.00000172,0.00004110,-0.00000129,0.00000583,0.00001114,0.000081
 22,-0.00000262,-0.00001297,-0.00000008,0.00000521,0.00001800,-0.000020
 07,-0.00000662,-0.00002390,-0.00001194,-0.00000024,-0.00001476,-0.0000
 0857,0.00002496,-0.00001250,-0.00002720,-0.00001739,-0.00004202,-0.000
 01909,-0.00000240,-0.00008984,-0.00003720,0.00001648,-0.00007412,-0.00
 003463,-0.00001749,-0.00023135,-0.00016512,-0.00005227,-0.00001211,-0.
 00006605,0.00000393,-0.00000648,0.00004814,0.00000239,0.00000700,-0.00
 001518,-0.00000879,-0.00002659,-0.00001430,-0.00003288,-0.00005878,-0.
 00006501,-0.00000436,0.00008097,0.00002244,0.00000187,0.00001562,-0.00
 001142,-0.00003152,-0.00000045,0.00003097,0.00001895,-0.00002261,-0.00
 000361,0.00028625,0.00028887,0.00003091,-0.00004138,-0.00008658,-0.000
 04183,-0.00004737,-0.00016166,-0.00006954,-0.00020172,-0.00102001,-0.0
 0027186,0.00006328,0.00003161,0.00005352,0.00000418,-0.00003860,0.0000
 0422,-0.00000919,-0.00000277,-0.00000495,-0.00001412,-0.00000908,-0.00
 003079,0.00004895,-0.00001094,-0.00001108,-0.00000545,0.00000278,-0.00
 001975,0.00019805,0.00009368,0.00026027,0.00010960,-0.00012671,0.00001
 647,0.00002860,-0.00000951,0.00000156,0.00001892,0.00003007,0.00000290
 ,-0.00000878,-0.00000221,0.00001404,0.00000882,-0.00000733,-0.00000921
 ,-0.00000636,-0.00000549,0.00000741,-0.00000221,0.00000141,0.00000037,
 -0.00013451,0.00008322,-0.00008283,-0.00033072,-0.00022345,0.00054032,
 -0.00005733,-0.00003275,0.00000880,-0.00005208,0.00000684,0.00002234,-
 0.00005353,0.00003958,-0.00000148,0.00000611,-0.00000738,0.00001003,-0
 .00001915,0.00000394,-0.00000738,0.00002013,-0.00001524,0.00000921,-0.
 00000961,0.00003538,-0.00003629,0.00164842,0.00068770,-0.00054977,-0.0
 0039042,-0.00060359,-0.00008749,-0.00070324,-0.00003603,-0.00006569,0.
 00021971,-0.00164704,0.00020133,-0.00058310,-0.00043010,0.00042926,0.0
 0189372,0.00048931,0.00185344,0.00001826,-0.00015117,-0.00037608,-0.00
 000877,0.00005961,0.00003148,-0.01711283,0.00529151,0.01986625,-0.0000
 6285,0.00053565,0.00008533,-0.00051698,-0.00053068,0.00062046,0.000074
 87,-0.00019946,0.00065512,0.00002981,0.00004493,-0.00000624,-0.0000040
 2,-0.00000598,-0.00000445,-0.00000914,-0.00000582,0.00000210,0.0000006
 0,-0.00000278,0.00000054,0.00001277,-0.00001366,-0.00002267,-0.0000012
 7,0.00000495,0.00000243,-0.00000036,0.00000166,0.00000062,-0.00000420,
 -0.00000033,0.00000333,0.00002497,-0.00000400,0.00001598,-0.00000181,0
 .00000005,-0.00000195,-0.00000214,-0.00000223,-0.00000489,-0.00000693,
 0.00000256,0.00000093,-0.00000085,-0.00002364,0.00003272,0.00000200,0.
 00000259,-0.00000252,0.00000582,-0.00000139,-0.00000389,-0.00000617,0.
 00000598,-0.00000173,0.00001244,0.00004597,0.00000017,0.00000132,-0.00
 000796,-0.00000484,-0.00000497,-0.00000373,0.00000160,-0.00000243,-0.0
 0000599,0.00000368,0.00005349,0.00009913,0.00001531,-0.00001642,-0.000
 03244,0.00000063,0.00000539,0.00000935,-0.00000392,-0.00000451,-0.0000
 0195,0.00000158,-0.00000273,-0.00000176,-0.00000415,0.00000116,-0.0000
 0169,-0.00000111,0.00001577,0.00002087,0.00000837,0.00000015,-0.000004
 06,-0.00000059,0.00000080,-0.00000042,-0.00000178,-0.00000427,-0.00000
 377,0.00000256,-0.00111814,0.00002894,-0.00045433,0.00034958,-0.000157
 48,0.00002707,0.00035281,0.00014614,0.00008324,0.00024177,-0.00004953,
 0.00028696,-0.00679966,-0.07472458,0.01098705,-0.01091465,0.01058463,0
 .00263747,0.04127145,-0.01696505,-0.04421154,-0.00770363,0.07886416,0.
 00020726,0.00039152,0.00002197,-0.00002641,-0.00005022,-0.00017015,0.0
 0007837,-0.00002135,-0.00000783,-0.00005482,0.00006815,-0.00003420,0.0
 0004871,-0.00005178,-0.00016580,-0.00000943,-0.00003619,0.00000966,0.0
 0000922,-0.00001127,0.00003263,-0.00002338,-0.00001742,0.00001108,-0.0
 0000841,0.00001115,0.00001597,-0.00001667,0.00002888,0.00002531,-0.000
 03379,-0.00000596,0.00007538,-0.00002349,0.00000927,0.00005529,0.00000
 429,0.00002106,0.00014327,-0.00033392,-0.00055917,0.00022441,-0.000088
 33,-0.00009117,0.00013377,0.00011774,-0.00003175,-0.00019468,0.0000012
 8,-0.00000932,0.00004877,-0.00003233,0.00003828,0.00005288,-0.00007256
 ,0.00015647,0.00027173,-0.00000448,-0.00000532,-0.00012758,-0.00001521
 ,-0.00006503,0.00006810,0.00002322,-0.00000836,-0.00007683,-0.00001044
 ,0.00001687,0.00001107,0.00089945,0.00106074,-0.00027481,-0.00006006,-
 0.00012144,0.00001461,-0.00008033,-0.00031628,-0.00002521,-0.00085533,
 -0.00027511,0.00026960,0.00002978,0.00006479,0.00002197,0.00009153,-0.
 00006362,-0.00011408,-0.00006041,-0.00004927,-0.00001468,0.00002243,0.
 00001454,0.00003442,-0.00009688,-0.00000966,0.00001029,0.00002264,-0.0
 0001164,0.00002622,-0.00039468,-0.00036756,-0.00057143,-0.00016584,0.0
 0010554,-0.00007038,-0.00006162,0.00001514,0.00000318,-0.00000047,-0.0
 0005506,-0.00003287,0.00002108,-0.00000009,-0.00003115,-0.00001740,0.0
 0001204,0.00002906,-0.00000724,0.00000485,0.00000833,0.00001868,0.0000
 0400,-0.00000017,0.00022622,0.00001033,0.00015703,0.00068146,0.0005735
 3,-0.00112350,0.00010278,0.00009648,-0.00000376,0.00010517,0.00001662,
 -0.00002802,0.00011864,-0.00004141,0.00002127,-0.00004673,-0.00004481,
 -0.00010324,0.00001069,0.00000301,0.00001327,0.00000540,0.00001390,-0.
 00001767,0.00004187,0.00000935,0.00017519,-0.00307981,-0.00175682,0.00
 077695,0.00063991,0.00136079,0.00034723,0.00136591,0.00022086,0.000168
 95,0.00139677,0.00225240,-0.00030098,0.00030044,0.00046819,-0.00059992
 ,-0.00457228,0.00142069,-0.00567413,0.00000439,0.00049678,0.00004347,-
 0.00002848,-0.00006021,-0.00003785,0.03669388,0.00703194,-0.02626169,-
 0.00001152,-0.00055063,-0.00001628,0.00183407,0.00036663,0.00026630,-0
 .00015918,0.00000787,-0.00144004,-0.00006263,-0.00010090,0.00000464,0.
 00001055,0.00001440,0.00001347,0.00001610,0.00001013,-0.00000268,0.000
 00037,0.00000484,-0.00000251,-0.00002422,0.00001276,0.00002948,-0.0000
 0385,-0.00000478,-0.00000514,0.00000174,-0.00000764,0.00000117,0.00001
 157,0.00000380,-0.00000524,-0.00007522,0.00000488,-0.00004423,0.000009
 01,0.00000617,0.00000222,0.00000423,0.00000074,0.00001303,0.00000728,-
 0.00000463,0.00000046,0.00002396,0.00005846,-0.00010786,0.00000512,0.0
 0000032,0.00001426,-0.00001661,-0.00001675,0.00000978,-0.00000461,-0.0
 0001087,0.00000971,0.00000263,0.00000681,-0.00000561,-0.00000223,0.000
 00443,0.00000243,-0.00000163,-0.00000142,-0.00000292,0.00000266,-0.000
 00392,0.00000449,-0.00004969,-0.00019260,-0.00010459,0.00002153,0.0000
 6058,0.00002083,-0.00000992,-0.00002060,-0.00000807,0.00000341,0.00000
 045,0.00000078,0.00001076,0.00000357,0.00000497,-0.00000233,0.00000693
 ,0.00000326,-0.00002392,-0.00003967,-0.00002209,-0.00000113,0.00001036
 ,0.00000009,0.00000244,-0.00000020,0.00000436,0.00000485,0.00000624,-0
 .00000131,0.00224446,-0.00030253,0.00057139,-0.00075551,0.00044400,0.0
 0006250,-0.00069105,-0.00021350,-0.00010925,-0.00049558,0.00014322,-0.
 00050132,0.09537677,0.01234016,-0.17769057,-0.00018440,0.00066007,0.02
 205723,0.03076984,-0.03236517,-0.02064083,-0.16079609,0.00779715,0.210
 35399\\0.00000098,0.00000079,0.00000067,0.00000129,0.00000067,0.000001
 16,0.00000062,0.00000025,0.00000151,0.00000142,-0.00000028,0.00000038,
 0.00000136,0.00000005,0.00000017,0.00000091,0.00000075,0.00000112,0.00
 000025,0.00000068,0.00000138,0.00000152,0.00000061,0.00000161,0.000001
 92,0.00000002,0.00000065,0.00000059,0.00000017,0.00000048,0.00000150,0
 .00000025,0.00000050,0.00000209,0.00000103,0.00000144,0.00000081,0.000
 00119,0.00000209,0.00000060,0.00000040,0.00000151,0.00000171,-0.000000
 33,0.00000041,0.00000111,-0.00000049,-0.00000061,0.00000175,-0.0000007
 3,-0.00000018,0.00000180,-0.00000038,-0.00000028,0.00000032,-0.0000002
 9,-0.00000047,0.00000071,0.00000159,0.00000188,-0.00000014,0.00000123,
 0.00000213,0.00000013,0.00000098,0.00000211,0.,0.00000163,0.00000266,0
 .00000123,0.00000026,0.00000140,0.00000141,0.00000049,0.00000109,0.000
 00119,0.00000106,0.00000188,0.00000080,0.00000100,0.00000155,0.0000010
 9,-0.00000027,0.00000064,0.00000066,-0.00000012,0.00000014,0.00000092,
 -0.00000042,-0.00000029,0.00000144,-0.00000031,-0.00000059,-0.00000089
 ,-0.00000035,-0.00000096,-0.00000008,-0.00000115,-0.00000151,-0.000000
 45,-0.00000009,-0.00000145,-0.00000039,-0.00000067,-0.00000098,-0.0000
 0069,-0.00000128,-0.00000229,-0.00000012,0.00000019,0.00000006,0.00000
 032,-0.00000087,-0.00000132,-0.00000147,-0.00000076,-0.00000155,-0.000
 00126,-0.00000061,-0.00000145,-0.00000024,-0.00000108,-0.00000186,-0.0
 0000021,-0.00000095,-0.00000047,-0.00000160,0.00000063,0.00000036,-0.0
 0000050,-0.00000011,-0.00000072,-0.00000112,-0.00000118,-0.00000179,-0
 .00000162,-0.00000078,-0.00000221,-0.00000059,-0.00000106,-0.00000117,
 -0.00000078,-0.00000076,-0.00000169,0.00000013,-0.00000041,-0.00000120
 ,0.00000018,-0.00000122,-0.00000155,-0.00000158,0.00000015,0.00000014,
 -0.00000032,0.00000037,0.00000040,-0.00000098,0.00000006,-0.00000022,-
 0.00000080,0.00000072,0.00000072,-0.00000191,0.00000104,0.00000080,-0.
 00000112,0.00000044,0.00000078,-0.00000149,0.00000125,0.00000132,-0.00
 000162,0.00000112,0.00000144,-0.00000031,0.00000042,0.00000135,-0.0000
 0105,0.00000026,-0.00000004,-0.00000180,0.00000120,0.00000125,-0.00000
 113,0.00000133,0.00000156,-0.00000084,-0.00000059,-0.00000151,0.000000
 45,-0.00000063,-0.00000092,-0.00000051,-0.00000106,-0.00000151,-0.0000
 0029,-0.00000073,-0.00000088,-0.00000086,-0.00000103,-0.00000222,-0.00
 000187,-0.00000117,-0.00000242,-0.00000200,-0.00000087,-0.00000229,-0.
 00000165,-0.00000145,-0.00000267,-0.00000089,-0.00000155,-0.00000243,-
 0.00000076,-0.00000150,-0.00000295,-0.00000052,-0.00000162,-0.00000270
 ,-0.00000115,-0.00000175,-0.00000302,0.00000091,-0.00000052,-0.0000012
 4,0.00000095,-0.00000160,-0.00000201,0.00000057,-0.00000100,-0.0000014
 2,0.00000044,-0.00000153,-0.00000200,0.00000167,0.00000007,0.00000146,
 0.00000274,0.00000042,0.00000147,0.00000241,0.00000012,0.00000107,0.00
 000190,0.00000052,0.00000170,0.00000028,0.00000096,-0.00000001,-0.0000
 0031,-0.00000131,0.00000075,0.00000060,0.00000081,0.00000040,-0.000000
 65,0.00000013,0.00000014,-0.00000050,0.00000040,0.00000045,-0.00000010
 ,0.00000058,0.00000075,0.00000116,-0.00000045,-0.00000067,0.00000088,-
 0.00000015,0.00000033,0.00000104,-0.00000025,-0.00000053,0.00000010,-0
 .00000032,-0.00000022,-0.00000178,0.00000191,0.00000223,-0.00000101,0.
 00000155,0.00000226,-0.00000162,0.00000214,0.00000209,-0.00000216,0.00
 000158,0.00000236,-0.00000095,0.00000084,0.00000067,-0.00000052,0.0000
 0033,0.00000016,-0.00000130,0.00000049,0.00000044,-0.00000032,0.000000
 87,0.00000097\\\@


 In the beginning there was nothing, which exploded.
 Job cpu time:       2 days  4 hours 18 minutes 41.3 seconds.
 Elapsed time:       0 days  1 hours 27 minutes 27.7 seconds.
 File lengths (MBytes):  RWF=  10123 Int=      0 D2E=      0 Chk=     89 Scr=      1
 Normal termination of Gaussian 16 at Mon Jun 17 18:15:27 2019.
