 Entering Gaussian System, Link 0=g16
 Input=clay_new-glu_gluC6-BCDR-Na2_1Me2O-bisCF3-ts-m062x-custom-pcm_thf.gjf
 Output=clay_new-glu_gluC6-BCDR-Na2_1Me2O-bisCF3-ts-m062x-custom-pcm_thf.out
 Initial command:
 /home/ekwan/sw/g16/l1.exe "/scratch/users/ekwan/clay_new-glu_gluC6-BCDR-Na2_1Me2O-bisCF3-ts-m062x-custom-pcm_thf/Gau-6888.inp" -scrdir="/scratch/users/ekwan/clay_new-glu_gluC6-BCDR-Na2_1Me2O-bisCF3-ts-m062x-custom-pcm_thf/"
 Entering Link 1 = /home/ekwan/sw/g16/l1.exe PID=      6891.
  
 Copyright (c) 1988,1990,1992,1993,1995,1998,2003,2009,2016,
            Gaussian, Inc.  All Rights Reserved.
  
 This is part of the Gaussian(R) 16 program.  It is based on
 the Gaussian(R) 09 system (copyright 2009, Gaussian, Inc.),
 the Gaussian(R) 03 system (copyright 2003, Gaussian, Inc.),
 the Gaussian(R) 98 system (copyright 1998, Gaussian, Inc.),
 the Gaussian(R) 94 system (copyright 1995, Gaussian, Inc.),
 the Gaussian 92(TM) system (copyright 1992, Gaussian, Inc.),
 the Gaussian 90(TM) system (copyright 1990, Gaussian, Inc.),
 the Gaussian 88(TM) system (copyright 1988, Gaussian, Inc.),
 the Gaussian 86(TM) system (copyright 1986, Carnegie Mellon
 University), and the Gaussian 82(TM) system (copyright 1983,
 Carnegie Mellon University). Gaussian is a federally registered
 trademark of Gaussian, Inc.
  
 This software contains proprietary and confidential information,
 including trade secrets, belonging to Gaussian, Inc.
  
 This software is provided under written license and may be
 used, copied, transmitted, or stored only in accord with that
 written license.
  
 The following legend is applicable only to US Government
 contracts under FAR:
  
                    RESTRICTED RIGHTS LEGEND
  
 Use, reproduction and disclosure by the US Government is
 subject to restrictions as set forth in subparagraphs (a)
 and (c) of the Commercial Computer Software - Restricted
 Rights clause in FAR 52.227-19.
  
 Gaussian, Inc.
 340 Quinnipiac St., Bldg. 40, Wallingford CT 06492
  
  
 ---------------------------------------------------------------
 Warning -- This program may not be used in any manner that
 competes with the business of Gaussian, Inc. or will provide
 assistance to any competitor of Gaussian, Inc.  The licensee
 of this program is prohibited from giving any competitor of
 Gaussian, Inc. access to this program.  By using this program,
 the user acknowledges that Gaussian, Inc. is engaged in the
 business of creating and licensing software in the field of
 computational chemistry and represents and warrants to the
 licensee that it is not a competitor of Gaussian, Inc. and that
 it will not use this program in any manner prohibited above.
 ---------------------------------------------------------------
  

 Cite this work as:
 Gaussian 16, Revision A.03,
 M. J. Frisch, G. W. Trucks, H. B. Schlegel, G. E. Scuseria, 
 M. A. Robb, J. R. Cheeseman, G. Scalmani, V. Barone, 
 G. A. Petersson, H. Nakatsuji, X. Li, M. Caricato, A. V. Marenich, 
 J. Bloino, B. G. Janesko, R. Gomperts, B. Mennucci, H. P. Hratchian, 
 J. V. Ortiz, A. F. Izmaylov, J. L. Sonnenberg, D. Williams-Young, 
 F. Ding, F. Lipparini, F. Egidi, J. Goings, B. Peng, A. Petrone, 
 T. Henderson, D. Ranasinghe, V. G. Zakrzewski, J. Gao, N. Rega, 
 G. Zheng, W. Liang, M. Hada, M. Ehara, K. Toyota, R. Fukuda, 
 J. Hasegawa, M. Ishida, T. Nakajima, Y. Honda, O. Kitao, H. Nakai, 
 T. Vreven, K. Throssell, J. A. Montgomery, Jr., J. E. Peralta, 
 F. Ogliaro, M. J. Bearpark, J. J. Heyd, E. N. Brothers, K. N. Kudin, 
 V. N. Staroverov, T. A. Keith, R. Kobayashi, J. Normand, 
 K. Raghavachari, A. P. Rendell, J. C. Burant, S. S. Iyengar, 
 J. Tomasi, M. Cossi, J. M. Millam, M. Klene, C. Adamo, R. Cammi, 
 J. W. Ochterski, R. L. Martin, K. Morokuma, O. Farkas, 
 J. B. Foresman, and D. J. Fox, Gaussian, Inc., Wallingford CT, 2016.
 
 ******************************************
 Gaussian 16:  AS64L-G16RevA.03 25-Dec-2016
                16-Jun-2019 
 ******************************************
 %mem=48GB
 %nprocshared=32
 Will use up to   32 processors via shared memory.
 ----------------------------------------------------------------------
 #p opt=(ts,calcfc,noeigentest,maxstep=5) freq=noraman pop=none 6-31g* 
 scrf=(pcm,solvent=tetrahydrofuran) m062x extrabasis
 ----------------------------------------------------------------------
 1/5=1,8=5,10=4,11=1,18=20,26=3,38=1/1,3;
 2/9=110,12=2,17=6,18=5,40=1/2;
 3/5=1,6=6,7=1,10=1,11=2,25=1,30=1,70=2201,71=2,72=20,74=-55,140=1/1,2,3;
 4//1;
 5/5=2,38=5,53=20/2;
 8/6=4,10=90,11=11/1;
 11/6=1,8=1,9=11,15=111,16=1/1,2,10;
 10/6=1,13=1/2;
 7/10=1,18=20,25=1/1,2,3,16;
 1/5=1,8=5,10=4,11=1,18=20,26=3/3(2);
 2/9=110/2;
 99//99;
 2/9=110/2;
 3/5=7,6=1,7=1,11=2,25=1,30=1,70=2205,71=1,72=20,74=-55,82=7/1,2,3;
 4/5=5,16=3,69=1/1;
 5/5=2,38=5,53=20/2;
 7//1,2,3,16;
 1/5=1,8=5,11=1,18=20,26=3/3(-5);
 2/9=110/2;
 99/9=1/99;
 Leave Link    1 at Sun Jun 16 16:14:45 2019, MaxMem=  6442450944 cpu:               4.3 elap:               0.2
 (Enter /home/ekwan/sw/g16/l101.exe)
 -----
 title
 -----
 Symbolic Z-matrix:
 Charge =  0 Multiplicity = 1
 6                    -1.47304   1.42335   2.52716 
 6                    -1.92549   2.10022   1.23418 
 6                    -1.07605   3.33868   0.94822 
 6                     0.78916   2.46261   2.15805 
 6                     0.03106   1.17009   2.46638 
 1                    -1.29851   3.7296   -0.05476 
 1                    -1.75947   1.40419   0.39717 
 1                    -1.69538   2.09201   3.37364 
 1                     0.59392   3.17774   2.97079 
 1                     0.2068    0.44063   1.66284 
 8                     0.29686   3.00633   0.92256 
 8                    -1.35508   4.29462   1.92141 
 8                    -3.27424   2.49908   1.28671 
 8                    -2.21205   0.22546   2.65534 
 8                     0.48055   0.64165   3.69871 
 6                     2.29942   2.27734   1.99766 
 1                     2.66158   1.89305   2.97196 
 1                     2.71309   3.30819   1.91037 
 8                     2.65288   1.48863   0.92852 
 6                    -4.17526   1.56311   0.72735 
 1                    -3.92513   1.36028  -0.32396 
 1                    -4.17323   0.62151   1.28545 
 1                    -5.16854   2.01548   0.76906 
 6                    -2.28307  -0.29829   3.97024 
 1                    -1.40502  -0.90286   4.21591 
 1                    -2.36753   0.51016   4.70646 
 1                    -3.17576  -0.92275   4.0166 
 6                     1.27979  -0.51591   3.53989 
 1                     0.68702  -1.34308   3.12052 
 1                     2.13192  -0.3305    2.87483 
 1                     1.63995  -0.79871   4.53208 
 6                     3.56519  -1.69621  -1.49209 
 6                     3.08197  -0.33733  -0.99406 
 6                     1.77764  -0.44866  -0.26506 
 6                     2.0271   -2.77733   0.19251 
 6                     3.45873  -2.67346  -0.32223 
 1                     1.12525   0.39991  -0.15822 
 1                     3.77258   0.01663  -0.20885 
 1                     2.94528  -2.0306   -2.33522 
 1                     1.38672  -3.21279  -0.58208 
 1                     4.10429  -2.30833   0.48723 
 8                     1.45711  -1.45765   0.45166 
 8                    -0.56815   0.22082  -3.86097 
 8                     2.93711   0.66777  -1.96321 
 8                     4.91803  -1.57539  -1.86728 
 8                     3.84397  -3.966    -0.72512 
 6                     1.89241  -3.56335   1.47451 
 1                     2.14152  -4.61351   1.26095 
 1                     0.84721  -3.51957   1.8182 
 8                     2.76329  -3.01317   2.42803 
 16                   -0.38012   0.06185  -2.41646 
 8                    -0.1569    1.33174  -1.67708 
 8                     0.64059  -0.96964  -2.04482 
 6                    -1.90991  -0.59754  -1.76001 
 6                    -3.09666  -0.41324  -2.45377 
 6                    -1.87856  -1.25959  -0.53413 
 6                    -4.27738  -0.90862  -1.90187 
 1                    -3.09642   0.10009  -3.41008 
 6                    -3.06391  -1.75487  -0.01185 
 1                    -0.9418   -1.4001   -0.0017 
 6                    -4.26961  -1.58606  -0.68984 
 1                    -5.19361  -1.9749   -0.27261 
 6                     4.16941   1.20459  -2.44013 
 1                     4.87546   1.33598  -1.61263 
 1                     4.61385   0.55218  -3.1949 
 1                     3.93435   2.17693  -2.87639 
 6                     5.26714  -2.33623  -3.01243 
 1                     5.0611   -3.39982  -2.85845 
 1                     4.71805  -1.98466  -3.89561 
 1                     6.33617  -2.18806  -3.17235 
 6                     4.9527   -4.47725  -0.00134 
 1                     5.84418  -3.86347  -0.17441 
 1                     4.73729  -4.50693   1.07425 
 1                     5.12864  -5.48949  -0.36715 
 6                     2.6733   -3.67576   3.67284 
 1                     3.37081  -3.18292   4.35092 
 1                     1.65648  -3.60553   4.082 
 1                     2.94498  -4.7352    3.57484 
 6                    -0.68433   5.52204   1.69929 
 1                    -1.06579   6.23031   2.43515 
 1                     0.399     5.41252   1.82344 
 1                    -0.89132   5.89946   0.68903 
 11                    1.69546   2.52789  -0.88982 
 8                     3.32199   4.09175  -1.15627 
 6                     3.46706   5.16974  -2.05793 
 1                     4.31109   4.99399  -2.73801 
 1                     2.54468   5.24455  -2.63586 
 1                     3.63607   6.1091   -1.51669 
 6                     4.46959   3.90978  -0.34394 
 1                     4.63515   4.79195   0.28784 
 1                     4.27749   3.02728   0.27224 
 1                     5.35826   3.7496   -0.9698 
 6                    -5.5899   -0.62544  -2.57695 
 9                    -6.13157   0.51068  -2.10795 
 9                    -6.48022  -1.60242  -2.36169 
 9                    -5.44985  -0.48068  -3.89959 
 6                    -3.07881  -2.51583   1.28337 
 9                    -1.89773  -2.48925   1.91153 
 9                    -3.39151  -3.8063    1.07987 
 9                    -4.00875  -2.02618   2.1176 
 
 Add virtual bond connecting atoms H37        and H10        Dist= 3.85D+00.
 Add virtual bond connecting atoms H37        and O19        Dist= 4.10D+00.
 Add virtual bond connecting atoms H38        and O19        Dist= 4.10D+00.
 Add virtual bond connecting atoms O52        and H37        Dist= 4.15D+00.
 Add virtual bond connecting atoms O53        and C34        Dist= 4.11D+00.
 ITRead=  0  0  0  0  0  0  0  0  0  0  0  0  0  0  0  0  0  0  0  0
 ITRead=  0  0  0  0  0  0  0  0  0  0  0  0  0  0  0  0  0  0  0  0
 ITRead=  0  0  0  0  0  0  0  0  0  0  0  0  0  0  0  0  0  0  0  0
 ITRead=  0  0  0  0  0  0  0  0  0  0  0  0  0  0  0  0  0  0  0  0
 ITRead=  0  0  0  0  0  0  0  0  0  0  0  0  0  0  0  0  0  0  0  0
 MicOpt= -1 -1 -1 -1 -1 -1 -1 -1 -1 -1 -1 -1 -1 -1 -1 -1 -1 -1 -1 -1
 MicOpt= -1 -1 -1 -1 -1 -1 -1 -1 -1 -1 -1 -1 -1 -1 -1 -1 -1 -1 -1 -1
 MicOpt= -1 -1 -1 -1 -1 -1 -1 -1 -1 -1 -1 -1 -1 -1 -1 -1 -1 -1 -1 -1
 MicOpt= -1 -1 -1 -1 -1 -1 -1 -1 -1 -1 -1 -1 -1 -1 -1 -1 -1 -1 -1 -1
 MicOpt= -1 -1 -1 -1 -1 -1 -1 -1 -1 -1 -1 -1 -1 -1 -1 -1 -1 -1 -1 -1
 NAtoms=    100 NQM=      100 NQMF=       0 NMMI=      0 NMMIF=      0
                NMic=       0 NMicF=      0.
                    Isotopes and Nuclear Properties:
 (Nuclear quadrupole moments (NQMom) in fm**2, nuclear magnetic moments (NMagM)
  in nuclear magnetons)

  Atom         1           2           3           4           5           6           7           8           9          10
 IAtWgt=          12          12          12          12          12           1           1           1           1           1
 AtmWgt=  12.0000000  12.0000000  12.0000000  12.0000000  12.0000000   1.0078250   1.0078250   1.0078250   1.0078250   1.0078250
 NucSpn=           0           0           0           0           0           1           1           1           1           1
 AtZEff=   0.0000000   0.0000000   0.0000000   0.0000000   0.0000000   0.0000000   0.0000000   0.0000000   0.0000000   0.0000000
 NQMom=    0.0000000   0.0000000   0.0000000   0.0000000   0.0000000   0.0000000   0.0000000   0.0000000   0.0000000   0.0000000
 NMagM=    0.0000000   0.0000000   0.0000000   0.0000000   0.0000000   2.7928460   2.7928460   2.7928460   2.7928460   2.7928460
 AtZNuc=   6.0000000   6.0000000   6.0000000   6.0000000   6.0000000   1.0000000   1.0000000   1.0000000   1.0000000   1.0000000

  Atom        11          12          13          14          15          16          17          18          19          20
 IAtWgt=          16          16          16          16          16          12           1           1          16          12
 AtmWgt=  15.9949146  15.9949146  15.9949146  15.9949146  15.9949146  12.0000000   1.0078250   1.0078250  15.9949146  12.0000000
 NucSpn=           0           0           0           0           0           0           1           1           0           0
 AtZEff=   0.0000000   0.0000000   0.0000000   0.0000000   0.0000000   0.0000000   0.0000000   0.0000000   0.0000000   0.0000000
 NQMom=    0.0000000   0.0000000   0.0000000   0.0000000   0.0000000   0.0000000   0.0000000   0.0000000   0.0000000   0.0000000
 NMagM=    0.0000000   0.0000000   0.0000000   0.0000000   0.0000000   0.0000000   2.7928460   2.7928460   0.0000000   0.0000000
 AtZNuc=   8.0000000   8.0000000   8.0000000   8.0000000   8.0000000   6.0000000   1.0000000   1.0000000   8.0000000   6.0000000

  Atom        21          22          23          24          25          26          27          28          29          30
 IAtWgt=           1           1           1          12           1           1           1          12           1           1
 AtmWgt=   1.0078250   1.0078250   1.0078250  12.0000000   1.0078250   1.0078250   1.0078250  12.0000000   1.0078250   1.0078250
 NucSpn=           1           1           1           0           1           1           1           0           1           1
 AtZEff=   0.0000000   0.0000000   0.0000000   0.0000000   0.0000000   0.0000000   0.0000000   0.0000000   0.0000000   0.0000000
 NQMom=    0.0000000   0.0000000   0.0000000   0.0000000   0.0000000   0.0000000   0.0000000   0.0000000   0.0000000   0.0000000
 NMagM=    2.7928460   2.7928460   2.7928460   0.0000000   2.7928460   2.7928460   2.7928460   0.0000000   2.7928460   2.7928460
 AtZNuc=   1.0000000   1.0000000   1.0000000   6.0000000   1.0000000   1.0000000   1.0000000   6.0000000   1.0000000   1.0000000

  Atom        31          32          33          34          35          36          37          38          39          40
 IAtWgt=           1          12          12          12          12          12           1           1           1           1
 AtmWgt=   1.0078250  12.0000000  12.0000000  12.0000000  12.0000000  12.0000000   1.0078250   1.0078250   1.0078250   1.0078250
 NucSpn=           1           0           0           0           0           0           1           1           1           1
 AtZEff=   0.0000000   0.0000000   0.0000000   0.0000000   0.0000000   0.0000000   0.0000000   0.0000000   0.0000000   0.0000000
 NQMom=    0.0000000   0.0000000   0.0000000   0.0000000   0.0000000   0.0000000   0.0000000   0.0000000   0.0000000   0.0000000
 NMagM=    2.7928460   0.0000000   0.0000000   0.0000000   0.0000000   0.0000000   2.7928460   2.7928460   2.7928460   2.7928460
 AtZNuc=   1.0000000   6.0000000   6.0000000   6.0000000   6.0000000   6.0000000   1.0000000   1.0000000   1.0000000   1.0000000

  Atom        41          42          43          44          45          46          47          48          49          50
 IAtWgt=           1          16          16          16          16          16          12           1           1          16
 AtmWgt=   1.0078250  15.9949146  15.9949146  15.9949146  15.9949146  15.9949146  12.0000000   1.0078250   1.0078250  15.9949146
 NucSpn=           1           0           0           0           0           0           0           1           1           0
 AtZEff=   0.0000000   0.0000000   0.0000000   0.0000000   0.0000000   0.0000000   0.0000000   0.0000000   0.0000000   0.0000000
 NQMom=    0.0000000   0.0000000   0.0000000   0.0000000   0.0000000   0.0000000   0.0000000   0.0000000   0.0000000   0.0000000
 NMagM=    2.7928460   0.0000000   0.0000000   0.0000000   0.0000000   0.0000000   0.0000000   2.7928460   2.7928460   0.0000000
 AtZNuc=   1.0000000   8.0000000   8.0000000   8.0000000   8.0000000   8.0000000   6.0000000   1.0000000   1.0000000   8.0000000

  Atom        51          52          53          54          55          56          57          58          59          60
 IAtWgt=          32          16          16          12          12          12          12           1          12           1
 AtmWgt=  31.9720718  15.9949146  15.9949146  12.0000000  12.0000000  12.0000000  12.0000000   1.0078250  12.0000000   1.0078250
 NucSpn=           0           0           0           0           0           0           0           1           0           1
 AtZEff=   0.0000000   0.0000000   0.0000000   0.0000000   0.0000000   0.0000000   0.0000000   0.0000000   0.0000000   0.0000000
 NQMom=    0.0000000   0.0000000   0.0000000   0.0000000   0.0000000   0.0000000   0.0000000   0.0000000   0.0000000   0.0000000
 NMagM=    0.0000000   0.0000000   0.0000000   0.0000000   0.0000000   0.0000000   0.0000000   2.7928460   0.0000000   2.7928460
 AtZNuc=  16.0000000   8.0000000   8.0000000   6.0000000   6.0000000   6.0000000   6.0000000   1.0000000   6.0000000   1.0000000

  Atom        61          62          63          64          65          66          67          68          69          70
 IAtWgt=          12           1          12           1           1           1          12           1           1           1
 AtmWgt=  12.0000000   1.0078250  12.0000000   1.0078250   1.0078250   1.0078250  12.0000000   1.0078250   1.0078250   1.0078250
 NucSpn=           0           1           0           1           1           1           0           1           1           1
 AtZEff=   0.0000000   0.0000000   0.0000000   0.0000000   0.0000000   0.0000000   0.0000000   0.0000000   0.0000000   0.0000000
 NQMom=    0.0000000   0.0000000   0.0000000   0.0000000   0.0000000   0.0000000   0.0000000   0.0000000   0.0000000   0.0000000
 NMagM=    0.0000000   2.7928460   0.0000000   2.7928460   2.7928460   2.7928460   0.0000000   2.7928460   2.7928460   2.7928460
 AtZNuc=   6.0000000   1.0000000   6.0000000   1.0000000   1.0000000   1.0000000   6.0000000   1.0000000   1.0000000   1.0000000

  Atom        71          72          73          74          75          76          77          78          79          80
 IAtWgt=          12           1           1           1          12           1           1           1          12           1
 AtmWgt=  12.0000000   1.0078250   1.0078250   1.0078250  12.0000000   1.0078250   1.0078250   1.0078250  12.0000000   1.0078250
 NucSpn=           0           1           1           1           0           1           1           1           0           1
 AtZEff=   0.0000000   0.0000000   0.0000000   0.0000000   0.0000000   0.0000000   0.0000000   0.0000000   0.0000000   0.0000000
 NQMom=    0.0000000   0.0000000   0.0000000   0.0000000   0.0000000   0.0000000   0.0000000   0.0000000   0.0000000   0.0000000
 NMagM=    0.0000000   2.7928460   2.7928460   2.7928460   0.0000000   2.7928460   2.7928460   2.7928460   0.0000000   2.7928460
 AtZNuc=   6.0000000   1.0000000   1.0000000   1.0000000   6.0000000   1.0000000   1.0000000   1.0000000   6.0000000   1.0000000

  Atom        81          82          83          84          85          86          87          88          89          90
 IAtWgt=           1           1          23          16          12           1           1           1          12           1
 AtmWgt=   1.0078250   1.0078250  22.9897697  15.9949146  12.0000000   1.0078250   1.0078250   1.0078250  12.0000000   1.0078250
 NucSpn=           1           1           3           0           0           1           1           1           0           1
 AtZEff=   0.0000000   0.0000000   0.0000000   0.0000000   0.0000000   0.0000000   0.0000000   0.0000000   0.0000000   0.0000000
 NQMom=    0.0000000   0.0000000  10.4000000   0.0000000   0.0000000   0.0000000   0.0000000   0.0000000   0.0000000   0.0000000
 NMagM=    2.7928460   2.7928460   2.2175200   0.0000000   0.0000000   2.7928460   2.7928460   2.7928460   0.0000000   2.7928460
 AtZNuc=   1.0000000   1.0000000  11.0000000   8.0000000   6.0000000   1.0000000   1.0000000   1.0000000   6.0000000   1.0000000

  Atom        91          92          93          94          95          96          97          98          99         100
 IAtWgt=           1           1          12          19          19          19          12          19          19          19
 AtmWgt=   1.0078250   1.0078250  12.0000000  18.9984033  18.9984033  18.9984033  12.0000000  18.9984033  18.9984033  18.9984033
 NucSpn=           1           1           0           1           1           1           0           1           1           1
 AtZEff=   0.0000000   0.0000000   0.0000000   0.0000000   0.0000000   0.0000000   0.0000000   0.0000000   0.0000000   0.0000000
 NQMom=    0.0000000   0.0000000   0.0000000   0.0000000   0.0000000   0.0000000   0.0000000   0.0000000   0.0000000   0.0000000
 NMagM=    2.7928460   2.7928460   0.0000000   2.6288670   2.6288670   2.6288670   0.0000000   2.6288670   2.6288670   2.6288670
 AtZNuc=   1.0000000   1.0000000   6.0000000   9.0000000   9.0000000   9.0000000   6.0000000   9.0000000   9.0000000   9.0000000
 Leave Link  101 at Sun Jun 16 16:14:46 2019, MaxMem=  6442450944 cpu:              17.0 elap:               0.6
 (Enter /home/ekwan/sw/g16/l103.exe)

 GradGradGradGradGradGradGradGradGradGradGradGradGradGradGradGradGradGrad
 Berny optimization.
 Initialization pass.
                           ----------------------------
                           !    Initial Parameters    !
                           ! (Angstroms and Degrees)  !
 --------------------------                            --------------------------
 ! Name  Definition              Value          Derivative Info.                !
 --------------------------------------------------------------------------------
 ! R1    R(1,2)                  1.528          calculate D2E/DX2 analytically  !
 ! R2    R(1,5)                  1.5265         calculate D2E/DX2 analytically  !
 ! R3    R(1,8)                  1.1014         calculate D2E/DX2 analytically  !
 ! R4    R(1,14)                 1.4133         calculate D2E/DX2 analytically  !
 ! R5    R(2,3)                  1.5288         calculate D2E/DX2 analytically  !
 ! R6    R(2,7)                  1.1012         calculate D2E/DX2 analytically  !
 ! R7    R(2,13)                 1.4075         calculate D2E/DX2 analytically  !
 ! R8    R(3,6)                  1.0992         calculate D2E/DX2 analytically  !
 ! R9    R(3,11)                 1.4128         calculate D2E/DX2 analytically  !
 ! R10   R(3,12)                 1.3924         calculate D2E/DX2 analytically  !
 ! R11   R(4,5)                  1.5298         calculate D2E/DX2 analytically  !
 ! R12   R(4,9)                  1.1            calculate D2E/DX2 analytically  !
 ! R13   R(4,11)                 1.4368         calculate D2E/DX2 analytically  !
 ! R14   R(4,16)                 1.53           calculate D2E/DX2 analytically  !
 ! R15   R(5,10)                 1.0994         calculate D2E/DX2 analytically  !
 ! R16   R(5,15)                 1.4142         calculate D2E/DX2 analytically  !
 ! R17   R(10,37)                2.04           calculate D2E/DX2 analytically  !
 ! R18   R(12,79)                1.4163         calculate D2E/DX2 analytically  !
 ! R19   R(13,20)                1.4145         calculate D2E/DX2 analytically  !
 ! R20   R(14,24)                1.4171         calculate D2E/DX2 analytically  !
 ! R21   R(15,28)                1.4156         calculate D2E/DX2 analytically  !
 ! R22   R(16,17)                1.1082         calculate D2E/DX2 analytically  !
 ! R23   R(16,18)                1.1142         calculate D2E/DX2 analytically  !
 ! R24   R(16,19)                1.3748         calculate D2E/DX2 analytically  !
 ! R25   R(19,37)                2.1679         calculate D2E/DX2 analytically  !
 ! R26   R(19,38)                2.1712         calculate D2E/DX2 analytically  !
 ! R27   R(19,83)                2.3028         calculate D2E/DX2 analytically  !
 ! R28   R(20,21)                1.0995         calculate D2E/DX2 analytically  !
 ! R29   R(20,22)                1.0946         calculate D2E/DX2 analytically  !
 ! R30   R(20,23)                1.0922         calculate D2E/DX2 analytically  !
 ! R31   R(24,25)                1.094          calculate D2E/DX2 analytically  !
 ! R32   R(24,26)                1.0967         calculate D2E/DX2 analytically  !
 ! R33   R(24,27)                1.0904         calculate D2E/DX2 analytically  !
 ! R34   R(28,29)                1.1007         calculate D2E/DX2 analytically  !
 ! R35   R(28,30)                1.0967         calculate D2E/DX2 analytically  !
 ! R36   R(28,31)                1.0928         calculate D2E/DX2 analytically  !
 ! R37   R(32,33)                1.5258         calculate D2E/DX2 analytically  !
 ! R38   R(32,36)                1.5281         calculate D2E/DX2 analytically  !
 ! R39   R(32,39)                1.0986         calculate D2E/DX2 analytically  !
 ! R40   R(32,45)                1.4091         calculate D2E/DX2 analytically  !
 ! R41   R(33,34)                1.4984         calculate D2E/DX2 analytically  !
 ! R42   R(33,38)                1.104          calculate D2E/DX2 analytically  !
 ! R43   R(33,44)                1.4037         calculate D2E/DX2 analytically  !
 ! R44   R(34,37)                1.0757         calculate D2E/DX2 analytically  !
 ! R45   R(34,42)                1.2785         calculate D2E/DX2 analytically  !
 ! R46   R(34,53)                2.1753         calculate D2E/DX2 analytically  !
 ! R47   R(35,36)                1.5249         calculate D2E/DX2 analytically  !
 ! R48   R(35,40)                1.0953         calculate D2E/DX2 analytically  !
 ! R49   R(35,42)                1.4607         calculate D2E/DX2 analytically  !
 ! R50   R(35,47)                1.5098         calculate D2E/DX2 analytically  !
 ! R51   R(36,41)                1.0979         calculate D2E/DX2 analytically  !
 ! R52   R(36,46)                1.4076         calculate D2E/DX2 analytically  !
 ! R53   R(37,52)                2.1953         calculate D2E/DX2 analytically  !
 ! R54   R(43,51)                1.4653         calculate D2E/DX2 analytically  !
 ! R55   R(44,63)                1.4262         calculate D2E/DX2 analytically  !
 ! R56   R(45,67)                1.4185         calculate D2E/DX2 analytically  !
 ! R57   R(46,71)                1.4193         calculate D2E/DX2 analytically  !
 ! R58   R(47,48)                1.1002         calculate D2E/DX2 analytically  !
 ! R59   R(47,49)                1.1011         calculate D2E/DX2 analytically  !
 ! R60   R(47,50)                1.4037         calculate D2E/DX2 analytically  !
 ! R61   R(50,75)                1.413          calculate D2E/DX2 analytically  !
 ! R62   R(51,52)                1.4863         calculate D2E/DX2 analytically  !
 ! R63   R(51,53)                1.498          calculate D2E/DX2 analytically  !
 ! R64   R(51,54)                1.7905         calculate D2E/DX2 analytically  !
 ! R65   R(54,55)                1.387          calculate D2E/DX2 analytically  !
 ! R66   R(54,56)                1.3936         calculate D2E/DX2 analytically  !
 ! R67   R(55,57)                1.3943         calculate D2E/DX2 analytically  !
 ! R68   R(55,58)                1.0854         calculate D2E/DX2 analytically  !
 ! R69   R(56,59)                1.3868         calculate D2E/DX2 analytically  !
 ! R70   R(56,60)                1.0866         calculate D2E/DX2 analytically  !
 ! R71   R(57,61)                1.3885         calculate D2E/DX2 analytically  !
 ! R72   R(57,93)                1.5029         calculate D2E/DX2 analytically  !
 ! R73   R(59,61)                1.3935         calculate D2E/DX2 analytically  !
 ! R74   R(59,97)                1.5023         calculate D2E/DX2 analytically  !
 ! R75   R(61,62)                1.0858         calculate D2E/DX2 analytically  !
 ! R76   R(63,64)                1.0957         calculate D2E/DX2 analytically  !
 ! R77   R(63,65)                1.0922         calculate D2E/DX2 analytically  !
 ! R78   R(63,66)                1.0913         calculate D2E/DX2 analytically  !
 ! R79   R(67,68)                1.0942         calculate D2E/DX2 analytically  !
 ! R80   R(67,69)                1.0978         calculate D2E/DX2 analytically  !
 ! R81   R(67,70)                1.091          calculate D2E/DX2 analytically  !
 ! R82   R(71,72)                1.0961         calculate D2E/DX2 analytically  !
 ! R83   R(71,73)                1.0974         calculate D2E/DX2 analytically  !
 ! R84   R(71,74)                1.0906         calculate D2E/DX2 analytically  !
 ! R85   R(75,76)                1.0905         calculate D2E/DX2 analytically  !
 ! R86   R(75,77)                1.0983         calculate D2E/DX2 analytically  !
 ! R87   R(75,78)                1.0981         calculate D2E/DX2 analytically  !
 ! R88   R(79,80)                1.0903         calculate D2E/DX2 analytically  !
 ! R89   R(79,81)                1.0959         calculate D2E/DX2 analytically  !
 ! R90   R(79,82)                1.0981         calculate D2E/DX2 analytically  !
 ! R91   R(83,84)                2.2721         calculate D2E/DX2 analytically  !
 ! R92   R(84,85)                1.4128         calculate D2E/DX2 analytically  !
 ! R93   R(84,89)                1.4177         calculate D2E/DX2 analytically  !
 ! R94   R(85,86)                1.0981         calculate D2E/DX2 analytically  !
 ! R95   R(85,87)                1.091          calculate D2E/DX2 analytically  !
 ! R96   R(85,88)                1.0972         calculate D2E/DX2 analytically  !
 ! R97   R(89,90)                1.0976         calculate D2E/DX2 analytically  !
 ! R98   R(89,91)                1.0933         calculate D2E/DX2 analytically  !
 ! R99   R(89,92)                1.0987         calculate D2E/DX2 analytically  !
 ! R100  R(93,94)                1.3432         calculate D2E/DX2 analytically  !
 ! R101  R(93,95)                1.3392         calculate D2E/DX2 analytically  !
 ! R102  R(93,96)                1.3379         calculate D2E/DX2 analytically  !
 ! R103  R(97,98)                1.338          calculate D2E/DX2 analytically  !
 ! R104  R(97,99)                1.3433         calculate D2E/DX2 analytically  !
 ! R105  R(97,100)               1.3418         calculate D2E/DX2 analytically  !
 ! A1    A(2,1,5)              109.3639         calculate D2E/DX2 analytically  !
 ! A2    A(2,1,8)              108.7623         calculate D2E/DX2 analytically  !
 ! A3    A(2,1,14)             107.3003         calculate D2E/DX2 analytically  !
 ! A4    A(5,1,8)              109.2831         calculate D2E/DX2 analytically  !
 ! A5    A(5,1,14)             112.2229         calculate D2E/DX2 analytically  !
 ! A6    A(8,1,14)             109.8344         calculate D2E/DX2 analytically  !
 ! A7    A(1,2,3)              110.6482         calculate D2E/DX2 analytically  !
 ! A8    A(1,2,7)              108.5758         calculate D2E/DX2 analytically  !
 ! A9    A(1,2,13)             112.1921         calculate D2E/DX2 analytically  !
 ! A10   A(3,2,7)              106.6248         calculate D2E/DX2 analytically  !
 ! A11   A(3,2,13)             108.0512         calculate D2E/DX2 analytically  !
 ! A12   A(7,2,13)             110.6071         calculate D2E/DX2 analytically  !
 ! A13   A(2,3,6)              110.2629         calculate D2E/DX2 analytically  !
 ! A14   A(2,3,11)             110.6571         calculate D2E/DX2 analytically  !
 ! A15   A(2,3,12)             108.3058         calculate D2E/DX2 analytically  !
 ! A16   A(6,3,11)             105.2933         calculate D2E/DX2 analytically  !
 ! A17   A(6,3,12)             110.6722         calculate D2E/DX2 analytically  !
 ! A18   A(11,3,12)            111.6501         calculate D2E/DX2 analytically  !
 ! A19   A(5,4,9)              108.2034         calculate D2E/DX2 analytically  !
 ! A20   A(5,4,11)             108.8584         calculate D2E/DX2 analytically  !
 ! A21   A(5,4,16)             114.0777         calculate D2E/DX2 analytically  !
 ! A22   A(9,4,11)             109.1765         calculate D2E/DX2 analytically  !
 ! A23   A(9,4,16)             109.3519         calculate D2E/DX2 analytically  !
 ! A24   A(11,4,16)            107.0912         calculate D2E/DX2 analytically  !
 ! A25   A(1,5,4)              110.8632         calculate D2E/DX2 analytically  !
 ! A26   A(1,5,10)             107.2593         calculate D2E/DX2 analytically  !
 ! A27   A(1,5,15)             109.9061         calculate D2E/DX2 analytically  !
 ! A28   A(4,5,10)             109.5154         calculate D2E/DX2 analytically  !
 ! A29   A(4,5,15)             109.5011         calculate D2E/DX2 analytically  !
 ! A30   A(10,5,15)            109.7644         calculate D2E/DX2 analytically  !
 ! A31   A(5,10,37)            137.5338         calculate D2E/DX2 analytically  !
 ! A32   A(3,11,4)             113.9767         calculate D2E/DX2 analytically  !
 ! A33   A(3,12,79)            112.9837         calculate D2E/DX2 analytically  !
 ! A34   A(2,13,20)            114.0885         calculate D2E/DX2 analytically  !
 ! A35   A(1,14,24)            115.0617         calculate D2E/DX2 analytically  !
 ! A36   A(5,15,28)            112.7832         calculate D2E/DX2 analytically  !
 ! A37   A(4,16,17)            105.8076         calculate D2E/DX2 analytically  !
 ! A38   A(4,16,18)            105.228          calculate D2E/DX2 analytically  !
 ! A39   A(4,16,19)            113.8767         calculate D2E/DX2 analytically  !
 ! A40   A(17,16,18)           105.5684         calculate D2E/DX2 analytically  !
 ! A41   A(17,16,19)           113.625          calculate D2E/DX2 analytically  !
 ! A42   A(18,16,19)           111.9878         calculate D2E/DX2 analytically  !
 ! A43   A(16,19,37)           119.7865         calculate D2E/DX2 analytically  !
 ! A44   A(16,19,38)           158.2656         calculate D2E/DX2 analytically  !
 ! A45   A(16,19,83)           104.3746         calculate D2E/DX2 analytically  !
 ! A46   A(37,19,38)            76.133          calculate D2E/DX2 analytically  !
 ! A47   A(37,19,83)            62.4749         calculate D2E/DX2 analytically  !
 ! A48   A(38,19,83)            96.1274         calculate D2E/DX2 analytically  !
 ! A49   A(13,20,21)           110.8093         calculate D2E/DX2 analytically  !
 ! A50   A(13,20,22)           111.4948         calculate D2E/DX2 analytically  !
 ! A51   A(13,20,23)           106.8651         calculate D2E/DX2 analytically  !
 ! A52   A(21,20,22)           109.1725         calculate D2E/DX2 analytically  !
 ! A53   A(21,20,23)           108.65           calculate D2E/DX2 analytically  !
 ! A54   A(22,20,23)           109.7862         calculate D2E/DX2 analytically  !
 ! A55   A(14,24,25)           111.8618         calculate D2E/DX2 analytically  !
 ! A56   A(14,24,26)           110.7501         calculate D2E/DX2 analytically  !
 ! A57   A(14,24,27)           106.9856         calculate D2E/DX2 analytically  !
 ! A58   A(25,24,26)           108.5686         calculate D2E/DX2 analytically  !
 ! A59   A(25,24,27)           109.3319         calculate D2E/DX2 analytically  !
 ! A60   A(26,24,27)           109.3038         calculate D2E/DX2 analytically  !
 ! A61   A(15,28,29)           110.6837         calculate D2E/DX2 analytically  !
 ! A62   A(15,28,30)           111.621          calculate D2E/DX2 analytically  !
 ! A63   A(15,28,31)           107.2077         calculate D2E/DX2 analytically  !
 ! A64   A(29,28,30)           108.3273         calculate D2E/DX2 analytically  !
 ! A65   A(29,28,31)           109.2061         calculate D2E/DX2 analytically  !
 ! A66   A(30,28,31)           109.7709         calculate D2E/DX2 analytically  !
 ! A67   A(33,32,36)           107.3144         calculate D2E/DX2 analytically  !
 ! A68   A(33,32,39)           110.0522         calculate D2E/DX2 analytically  !
 ! A69   A(33,32,45)           108.3365         calculate D2E/DX2 analytically  !
 ! A70   A(36,32,39)           110.7062         calculate D2E/DX2 analytically  !
 ! A71   A(36,32,45)           108.9999         calculate D2E/DX2 analytically  !
 ! A72   A(39,32,45)           111.3151         calculate D2E/DX2 analytically  !
 ! A73   A(32,33,34)           111.6122         calculate D2E/DX2 analytically  !
 ! A74   A(32,33,38)           108.638          calculate D2E/DX2 analytically  !
 ! A75   A(32,33,44)           116.4242         calculate D2E/DX2 analytically  !
 ! A76   A(34,33,38)           102.8456         calculate D2E/DX2 analytically  !
 ! A77   A(34,33,44)           107.4137         calculate D2E/DX2 analytically  !
 ! A78   A(38,33,44)           109.0286         calculate D2E/DX2 analytically  !
 ! A79   A(33,34,37)           121.1759         calculate D2E/DX2 analytically  !
 ! A80   A(33,34,42)           123.342          calculate D2E/DX2 analytically  !
 ! A81   A(33,34,53)            94.2871         calculate D2E/DX2 analytically  !
 ! A82   A(37,34,42)           114.5092         calculate D2E/DX2 analytically  !
 ! A83   A(37,34,53)            87.3164         calculate D2E/DX2 analytically  !
 ! A84   A(42,34,53)            97.9669         calculate D2E/DX2 analytically  !
 ! A85   A(36,35,40)           109.7103         calculate D2E/DX2 analytically  !
 ! A86   A(36,35,42)           111.3893         calculate D2E/DX2 analytically  !
 ! A87   A(36,35,47)           113.9434         calculate D2E/DX2 analytically  !
 ! A88   A(40,35,42)           104.8632         calculate D2E/DX2 analytically  !
 ! A89   A(40,35,47)           109.9591         calculate D2E/DX2 analytically  !
 ! A90   A(42,35,47)           106.553          calculate D2E/DX2 analytically  !
 ! A91   A(32,36,35)           111.555          calculate D2E/DX2 analytically  !
 ! A92   A(32,36,41)           108.1079         calculate D2E/DX2 analytically  !
 ! A93   A(32,36,46)           110.4298         calculate D2E/DX2 analytically  !
 ! A94   A(35,36,41)           109.0157         calculate D2E/DX2 analytically  !
 ! A95   A(35,36,46)           106.9188         calculate D2E/DX2 analytically  !
 ! A96   A(41,36,46)           110.8242         calculate D2E/DX2 analytically  !
 ! A97   A(10,37,19)            81.9371         calculate D2E/DX2 analytically  !
 ! A98   A(10,37,34)           112.1774         calculate D2E/DX2 analytically  !
 ! A99   A(10,37,52)           110.2557         calculate D2E/DX2 analytically  !
 ! A100  A(19,37,34)            91.0649         calculate D2E/DX2 analytically  !
 ! A101  A(19,37,52)           123.0391         calculate D2E/DX2 analytically  !
 ! A102  A(34,37,52)           128.3417         calculate D2E/DX2 analytically  !
 ! A103  A(19,38,33)           105.5067         calculate D2E/DX2 analytically  !
 ! A104  A(34,42,35)           121.0467         calculate D2E/DX2 analytically  !
 ! A105  A(33,44,63)           114.2802         calculate D2E/DX2 analytically  !
 ! A106  A(32,45,67)           113.9065         calculate D2E/DX2 analytically  !
 ! A107  A(36,46,71)           113.4898         calculate D2E/DX2 analytically  !
 ! A108  A(35,47,48)           108.1738         calculate D2E/DX2 analytically  !
 ! A109  A(35,47,49)           109.2081         calculate D2E/DX2 analytically  !
 ! A110  A(35,47,50)           108.5057         calculate D2E/DX2 analytically  !
 ! A111  A(48,47,49)           108.268          calculate D2E/DX2 analytically  !
 ! A112  A(48,47,50)           111.4386         calculate D2E/DX2 analytically  !
 ! A113  A(49,47,50)           111.1803         calculate D2E/DX2 analytically  !
 ! A114  A(47,50,75)           112.0316         calculate D2E/DX2 analytically  !
 ! A115  A(43,51,52)           114.6432         calculate D2E/DX2 analytically  !
 ! A116  A(43,51,53)           113.9978         calculate D2E/DX2 analytically  !
 ! A117  A(43,51,54)           106.9618         calculate D2E/DX2 analytically  !
 ! A118  A(52,51,53)           111.2583         calculate D2E/DX2 analytically  !
 ! A119  A(52,51,54)           105.1043         calculate D2E/DX2 analytically  !
 ! A120  A(53,51,54)           103.7464         calculate D2E/DX2 analytically  !
 ! A121  A(37,52,51)            93.97           calculate D2E/DX2 analytically  !
 ! A122  A(34,53,51)           113.2184         calculate D2E/DX2 analytically  !
 ! A123  A(51,54,55)           119.916          calculate D2E/DX2 analytically  !
 ! A124  A(51,54,56)           118.57           calculate D2E/DX2 analytically  !
 ! A125  A(55,54,56)           121.4928         calculate D2E/DX2 analytically  !
 ! A126  A(54,55,57)           118.6444         calculate D2E/DX2 analytically  !
 ! A127  A(54,55,58)           120.2235         calculate D2E/DX2 analytically  !
 ! A128  A(57,55,58)           121.1302         calculate D2E/DX2 analytically  !
 ! A129  A(54,56,59)           118.798          calculate D2E/DX2 analytically  !
 ! A130  A(54,56,60)           120.7869         calculate D2E/DX2 analytically  !
 ! A131  A(59,56,60)           120.4087         calculate D2E/DX2 analytically  !
 ! A132  A(55,57,61)           120.938          calculate D2E/DX2 analytically  !
 ! A133  A(55,57,93)           119.6568         calculate D2E/DX2 analytically  !
 ! A134  A(61,57,93)           119.2696         calculate D2E/DX2 analytically  !
 ! A135  A(56,59,61)           120.8681         calculate D2E/DX2 analytically  !
 ! A136  A(56,59,97)           120.9361         calculate D2E/DX2 analytically  !
 ! A137  A(61,59,97)           118.1803         calculate D2E/DX2 analytically  !
 ! A138  A(57,61,59)           119.2508         calculate D2E/DX2 analytically  !
 ! A139  A(57,61,62)           120.3546         calculate D2E/DX2 analytically  !
 ! A140  A(59,61,62)           120.3937         calculate D2E/DX2 analytically  !
 ! A141  A(44,63,64)           110.448          calculate D2E/DX2 analytically  !
 ! A142  A(44,63,65)           110.9679         calculate D2E/DX2 analytically  !
 ! A143  A(44,63,66)           106.4343         calculate D2E/DX2 analytically  !
 ! A144  A(64,63,65)           109.35           calculate D2E/DX2 analytically  !
 ! A145  A(64,63,66)           109.5029         calculate D2E/DX2 analytically  !
 ! A146  A(65,63,66)           110.0966         calculate D2E/DX2 analytically  !
 ! A147  A(45,67,68)           111.1861         calculate D2E/DX2 analytically  !
 ! A148  A(45,67,69)           110.7696         calculate D2E/DX2 analytically  !
 ! A149  A(45,67,70)           106.6564         calculate D2E/DX2 analytically  !
 ! A150  A(68,67,69)           109.2874         calculate D2E/DX2 analytically  !
 ! A151  A(68,67,70)           109.7021         calculate D2E/DX2 analytically  !
 ! A152  A(69,67,70)           109.1891         calculate D2E/DX2 analytically  !
 ! A153  A(46,71,72)           110.6778         calculate D2E/DX2 analytically  !
 ! A154  A(46,71,73)           110.8687         calculate D2E/DX2 analytically  !
 ! A155  A(46,71,74)           106.8159         calculate D2E/DX2 analytically  !
 ! A156  A(72,71,73)           109.2424         calculate D2E/DX2 analytically  !
 ! A157  A(72,71,74)           109.6072         calculate D2E/DX2 analytically  !
 ! A158  A(73,71,74)           109.5933         calculate D2E/DX2 analytically  !
 ! A159  A(50,75,76)           107.165          calculate D2E/DX2 analytically  !
 ! A160  A(50,75,77)           110.9257         calculate D2E/DX2 analytically  !
 ! A161  A(50,75,78)           110.979          calculate D2E/DX2 analytically  !
 ! A162  A(76,75,77)           109.3672         calculate D2E/DX2 analytically  !
 ! A163  A(76,75,78)           109.4675         calculate D2E/DX2 analytically  !
 ! A164  A(77,75,78)           108.9049         calculate D2E/DX2 analytically  !
 ! A165  A(12,79,80)           106.9446         calculate D2E/DX2 analytically  !
 ! A166  A(12,79,81)           111.3334         calculate D2E/DX2 analytically  !
 ! A167  A(12,79,82)           110.6634         calculate D2E/DX2 analytically  !
 ! A168  A(80,79,81)           109.5316         calculate D2E/DX2 analytically  !
 ! A169  A(80,79,82)           109.3722         calculate D2E/DX2 analytically  !
 ! A170  A(81,79,82)           108.9597         calculate D2E/DX2 analytically  !
 ! A171  A(19,83,84)            96.0615         calculate D2E/DX2 analytically  !
 ! A172  A(83,84,85)           132.3398         calculate D2E/DX2 analytically  !
 ! A173  A(83,84,89)           115.0835         calculate D2E/DX2 analytically  !
 ! A174  A(85,84,89)           112.3635         calculate D2E/DX2 analytically  !
 ! A175  A(84,85,86)           110.6134         calculate D2E/DX2 analytically  !
 ! A176  A(84,85,87)           107.6711         calculate D2E/DX2 analytically  !
 ! A177  A(84,85,88)           110.7463         calculate D2E/DX2 analytically  !
 ! A178  A(86,85,87)           109.4347         calculate D2E/DX2 analytically  !
 ! A179  A(86,85,88)           108.9136         calculate D2E/DX2 analytically  !
 ! A180  A(87,85,88)           109.439          calculate D2E/DX2 analytically  !
 ! A181  A(84,89,90)           110.4097         calculate D2E/DX2 analytically  !
 ! A182  A(84,89,91)           106.5169         calculate D2E/DX2 analytically  !
 ! A183  A(84,89,92)           110.3074         calculate D2E/DX2 analytically  !
 ! A184  A(90,89,91)           110.538          calculate D2E/DX2 analytically  !
 ! A185  A(90,89,92)           108.8479         calculate D2E/DX2 analytically  !
 ! A186  A(91,89,92)           110.2111         calculate D2E/DX2 analytically  !
 ! A187  A(57,93,94)           110.777          calculate D2E/DX2 analytically  !
 ! A188  A(57,93,95)           111.7734         calculate D2E/DX2 analytically  !
 ! A189  A(57,93,96)           111.9037         calculate D2E/DX2 analytically  !
 ! A190  A(94,93,95)           107.0276         calculate D2E/DX2 analytically  !
 ! A191  A(94,93,96)           107.2105         calculate D2E/DX2 analytically  !
 ! A192  A(95,93,96)           107.9042         calculate D2E/DX2 analytically  !
 ! A193  A(59,97,98)           112.7027         calculate D2E/DX2 analytically  !
 ! A194  A(59,97,99)           110.9963         calculate D2E/DX2 analytically  !
 ! A195  A(59,97,100)          110.9807         calculate D2E/DX2 analytically  !
 ! A196  A(98,97,99)           107.1984         calculate D2E/DX2 analytically  !
 ! A197  A(98,97,100)          108.2177         calculate D2E/DX2 analytically  !
 ! A198  A(99,97,100)          106.4644         calculate D2E/DX2 analytically  !
 ! D1    D(5,1,2,3)            -52.4979         calculate D2E/DX2 analytically  !
 ! D2    D(5,1,2,7)             64.1937         calculate D2E/DX2 analytically  !
 ! D3    D(5,1,2,13)          -173.2519         calculate D2E/DX2 analytically  !
 ! D4    D(8,1,2,3)             66.7814         calculate D2E/DX2 analytically  !
 ! D5    D(8,1,2,7)           -176.527          calculate D2E/DX2 analytically  !
 ! D6    D(8,1,2,13)           -53.9726         calculate D2E/DX2 analytically  !
 ! D7    D(14,1,2,3)          -174.4594         calculate D2E/DX2 analytically  !
 ! D8    D(14,1,2,7)           -57.7678         calculate D2E/DX2 analytically  !
 ! D9    D(14,1,2,13)           64.7866         calculate D2E/DX2 analytically  !
 ! D10   D(2,1,5,4)             54.1612         calculate D2E/DX2 analytically  !
 ! D11   D(2,1,5,10)           -65.3615         calculate D2E/DX2 analytically  !
 ! D12   D(2,1,5,15)           175.3569         calculate D2E/DX2 analytically  !
 ! D13   D(8,1,5,4)            -64.7957         calculate D2E/DX2 analytically  !
 ! D14   D(8,1,5,10)           175.6816         calculate D2E/DX2 analytically  !
 ! D15   D(8,1,5,15)            56.3999         calculate D2E/DX2 analytically  !
 ! D16   D(14,1,5,4)           173.1141         calculate D2E/DX2 analytically  !
 ! D17   D(14,1,5,10)           53.5914         calculate D2E/DX2 analytically  !
 ! D18   D(14,1,5,15)          -65.6902         calculate D2E/DX2 analytically  !
 ! D19   D(2,1,14,24)         -159.119          calculate D2E/DX2 analytically  !
 ! D20   D(5,1,14,24)           80.7222         calculate D2E/DX2 analytically  !
 ! D21   D(8,1,14,24)          -41.0538         calculate D2E/DX2 analytically  !
 ! D22   D(1,2,3,6)            171.181          calculate D2E/DX2 analytically  !
 ! D23   D(1,2,3,11)            55.0987         calculate D2E/DX2 analytically  !
 ! D24   D(1,2,3,12)           -67.5871         calculate D2E/DX2 analytically  !
 ! D25   D(7,2,3,6)             53.2897         calculate D2E/DX2 analytically  !
 ! D26   D(7,2,3,11)           -62.7926         calculate D2E/DX2 analytically  !
 ! D27   D(7,2,3,12)           174.5216         calculate D2E/DX2 analytically  !
 ! D28   D(13,2,3,6)           -65.6335         calculate D2E/DX2 analytically  !
 ! D29   D(13,2,3,11)          178.2842         calculate D2E/DX2 analytically  !
 ! D30   D(13,2,3,12)           55.5984         calculate D2E/DX2 analytically  !
 ! D31   D(1,2,13,20)          -95.1558         calculate D2E/DX2 analytically  !
 ! D32   D(3,2,13,20)          142.6017         calculate D2E/DX2 analytically  !
 ! D33   D(7,2,13,20)           26.2404         calculate D2E/DX2 analytically  !
 ! D34   D(2,3,11,4)           -60.5481         calculate D2E/DX2 analytically  !
 ! D35   D(6,3,11,4)          -179.6788         calculate D2E/DX2 analytically  !
 ! D36   D(12,3,11,4)           60.1689         calculate D2E/DX2 analytically  !
 ! D37   D(2,3,12,79)         -176.0379         calculate D2E/DX2 analytically  !
 ! D38   D(6,3,12,79)          -55.0592         calculate D2E/DX2 analytically  !
 ! D39   D(11,3,12,79)          61.8822         calculate D2E/DX2 analytically  !
 ! D40   D(9,4,5,1)             61.5105         calculate D2E/DX2 analytically  !
 ! D41   D(9,4,5,10)           179.6712         calculate D2E/DX2 analytically  !
 ! D42   D(9,4,5,15)           -59.9236         calculate D2E/DX2 analytically  !
 ! D43   D(11,4,5,1)           -57.0263         calculate D2E/DX2 analytically  !
 ! D44   D(11,4,5,10)           61.1345         calculate D2E/DX2 analytically  !
 ! D45   D(11,4,5,15)         -178.4603         calculate D2E/DX2 analytically  !
 ! D46   D(16,4,5,1)          -176.5505         calculate D2E/DX2 analytically  !
 ! D47   D(16,4,5,10)          -58.3897         calculate D2E/DX2 analytically  !
 ! D48   D(16,4,5,15)           62.0155         calculate D2E/DX2 analytically  !
 ! D49   D(5,4,11,3)            61.1047         calculate D2E/DX2 analytically  !
 ! D50   D(9,4,11,3)           -56.8189         calculate D2E/DX2 analytically  !
 ! D51   D(16,4,11,3)         -175.1117         calculate D2E/DX2 analytically  !
 ! D52   D(5,4,16,17)          -61.4855         calculate D2E/DX2 analytically  !
 ! D53   D(5,4,16,18)         -172.9643         calculate D2E/DX2 analytically  !
 ! D54   D(5,4,16,19)           64.0214         calculate D2E/DX2 analytically  !
 ! D55   D(9,4,16,17)           59.8193         calculate D2E/DX2 analytically  !
 ! D56   D(9,4,16,18)          -51.6594         calculate D2E/DX2 analytically  !
 ! D57   D(9,4,16,19)         -174.6737         calculate D2E/DX2 analytically  !
 ! D58   D(11,4,16,17)         177.998          calculate D2E/DX2 analytically  !
 ! D59   D(11,4,16,18)          66.5192         calculate D2E/DX2 analytically  !
 ! D60   D(11,4,16,19)         -56.4951         calculate D2E/DX2 analytically  !
 ! D61   D(1,5,10,37)          114.1335         calculate D2E/DX2 analytically  !
 ! D62   D(4,5,10,37)           -6.2492         calculate D2E/DX2 analytically  !
 ! D63   D(15,5,10,37)        -126.4939         calculate D2E/DX2 analytically  !
 ! D64   D(1,5,15,28)          130.6386         calculate D2E/DX2 analytically  !
 ! D65   D(4,5,15,28)         -107.352          calculate D2E/DX2 analytically  !
 ! D66   D(10,5,15,28)          12.9013         calculate D2E/DX2 analytically  !
 ! D67   D(5,10,37,19)          43.6768         calculate D2E/DX2 analytically  !
 ! D68   D(5,10,37,34)         131.5291         calculate D2E/DX2 analytically  !
 ! D69   D(5,10,37,52)         -78.6452         calculate D2E/DX2 analytically  !
 ! D70   D(3,12,79,80)         172.9848         calculate D2E/DX2 analytically  !
 ! D71   D(3,12,79,81)         -67.3982         calculate D2E/DX2 analytically  !
 ! D72   D(3,12,79,82)          53.9393         calculate D2E/DX2 analytically  !
 ! D73   D(2,13,20,21)         -58.1001         calculate D2E/DX2 analytically  !
 ! D74   D(2,13,20,22)          63.7204         calculate D2E/DX2 analytically  !
 ! D75   D(2,13,20,23)        -176.3093         calculate D2E/DX2 analytically  !
 ! D76   D(1,14,24,25)         -83.9473         calculate D2E/DX2 analytically  !
 ! D77   D(1,14,24,26)          37.313          calculate D2E/DX2 analytically  !
 ! D78   D(1,14,24,27)         156.349          calculate D2E/DX2 analytically  !
 ! D79   D(5,15,28,29)         -65.3932         calculate D2E/DX2 analytically  !
 ! D80   D(5,15,28,30)          55.3496         calculate D2E/DX2 analytically  !
 ! D81   D(5,15,28,31)         175.5921         calculate D2E/DX2 analytically  !
 ! D82   D(4,16,19,37)          -9.258          calculate D2E/DX2 analytically  !
 ! D83   D(4,16,19,38)        -142.8963         calculate D2E/DX2 analytically  !
 ! D84   D(4,16,19,83)          56.9759         calculate D2E/DX2 analytically  !
 ! D85   D(17,16,19,37)        111.992          calculate D2E/DX2 analytically  !
 ! D86   D(17,16,19,38)        -21.6463         calculate D2E/DX2 analytically  !
 ! D87   D(17,16,19,83)        178.226          calculate D2E/DX2 analytically  !
 ! D88   D(18,16,19,37)       -128.5007         calculate D2E/DX2 analytically  !
 ! D89   D(18,16,19,38)         97.861          calculate D2E/DX2 analytically  !
 ! D90   D(18,16,19,83)        -62.2667         calculate D2E/DX2 analytically  !
 ! D91   D(16,19,37,10)        -28.9745         calculate D2E/DX2 analytically  !
 ! D92   D(16,19,37,34)       -141.2262         calculate D2E/DX2 analytically  !
 ! D93   D(16,19,37,52)         79.99           calculate D2E/DX2 analytically  !
 ! D94   D(38,19,37,10)        135.0016         calculate D2E/DX2 analytically  !
 ! D95   D(38,19,37,34)         22.7499         calculate D2E/DX2 analytically  !
 ! D96   D(38,19,37,52)       -116.0339         calculate D2E/DX2 analytically  !
 ! D97   D(83,19,37,10)       -120.3656         calculate D2E/DX2 analytically  !
 ! D98   D(83,19,37,34)        127.3827         calculate D2E/DX2 analytically  !
 ! D99   D(83,19,37,52)        -11.4011         calculate D2E/DX2 analytically  !
 ! D100  D(16,19,38,33)        156.7651         calculate D2E/DX2 analytically  !
 ! D101  D(37,19,38,33)         17.0773         calculate D2E/DX2 analytically  !
 ! D102  D(83,19,38,33)        -42.5749         calculate D2E/DX2 analytically  !
 ! D103  D(16,19,83,84)         81.2922         calculate D2E/DX2 analytically  !
 ! D104  D(37,19,83,84)       -162.302          calculate D2E/DX2 analytically  !
 ! D105  D(38,19,83,84)        -91.4347         calculate D2E/DX2 analytically  !
 ! D106  D(36,32,33,34)        -48.3153         calculate D2E/DX2 analytically  !
 ! D107  D(36,32,33,38)         64.3899         calculate D2E/DX2 analytically  !
 ! D108  D(36,32,33,44)       -172.1174         calculate D2E/DX2 analytically  !
 ! D109  D(39,32,33,34)         72.2184         calculate D2E/DX2 analytically  !
 ! D110  D(39,32,33,38)       -175.0763         calculate D2E/DX2 analytically  !
 ! D111  D(39,32,33,44)        -51.5837         calculate D2E/DX2 analytically  !
 ! D112  D(45,32,33,34)       -165.8691         calculate D2E/DX2 analytically  !
 ! D113  D(45,32,33,38)        -53.1638         calculate D2E/DX2 analytically  !
 ! D114  D(45,32,33,44)         70.3288         calculate D2E/DX2 analytically  !
 ! D115  D(33,32,36,35)         59.0845         calculate D2E/DX2 analytically  !
 ! D116  D(33,32,36,41)        -60.7671         calculate D2E/DX2 analytically  !
 ! D117  D(33,32,36,46)        177.8379         calculate D2E/DX2 analytically  !
 ! D118  D(39,32,36,35)        -61.0339         calculate D2E/DX2 analytically  !
 ! D119  D(39,32,36,41)        179.1145         calculate D2E/DX2 analytically  !
 ! D120  D(39,32,36,46)         57.7195         calculate D2E/DX2 analytically  !
 ! D121  D(45,32,36,35)        176.2047         calculate D2E/DX2 analytically  !
 ! D122  D(45,32,36,41)         56.3531         calculate D2E/DX2 analytically  !
 ! D123  D(45,32,36,46)        -65.0419         calculate D2E/DX2 analytically  !
 ! D124  D(33,32,45,67)       -142.8473         calculate D2E/DX2 analytically  !
 ! D125  D(36,32,45,67)        100.6833         calculate D2E/DX2 analytically  !
 ! D126  D(39,32,45,67)        -21.7122         calculate D2E/DX2 analytically  !
 ! D127  D(32,33,34,37)       -157.7839         calculate D2E/DX2 analytically  !
 ! D128  D(32,33,34,42)         34.1269         calculate D2E/DX2 analytically  !
 ! D129  D(32,33,34,53)        -68.3294         calculate D2E/DX2 analytically  !
 ! D130  D(38,33,34,37)         85.9259         calculate D2E/DX2 analytically  !
 ! D131  D(38,33,34,42)        -82.1633         calculate D2E/DX2 analytically  !
 ! D132  D(38,33,34,53)        175.3804         calculate D2E/DX2 analytically  !
 ! D133  D(44,33,34,37)        -29.0346         calculate D2E/DX2 analytically  !
 ! D134  D(44,33,34,42)        162.8762         calculate D2E/DX2 analytically  !
 ! D135  D(44,33,34,53)         60.4199         calculate D2E/DX2 analytically  !
 ! D136  D(32,33,38,19)       -159.0422         calculate D2E/DX2 analytically  !
 ! D137  D(34,33,38,19)        -40.6441         calculate D2E/DX2 analytically  !
 ! D138  D(44,33,38,19)         73.143          calculate D2E/DX2 analytically  !
 ! D139  D(32,33,44,63)        -73.5939         calculate D2E/DX2 analytically  !
 ! D140  D(34,33,44,63)        160.4682         calculate D2E/DX2 analytically  !
 ! D141  D(38,33,44,63)         49.6966         calculate D2E/DX2 analytically  !
 ! D142  D(33,34,37,10)       -142.5938         calculate D2E/DX2 analytically  !
 ! D143  D(33,34,37,19)        -60.8682         calculate D2E/DX2 analytically  !
 ! D144  D(33,34,37,52)         74.3632         calculate D2E/DX2 analytically  !
 ! D145  D(42,34,37,10)         26.4831         calculate D2E/DX2 analytically  !
 ! D146  D(42,34,37,19)        108.2086         calculate D2E/DX2 analytically  !
 ! D147  D(42,34,37,52)       -116.56           calculate D2E/DX2 analytically  !
 ! D148  D(53,34,37,10)        124.0176         calculate D2E/DX2 analytically  !
 ! D149  D(53,34,37,19)       -154.2569         calculate D2E/DX2 analytically  !
 ! D150  D(53,34,37,52)        -19.0255         calculate D2E/DX2 analytically  !
 ! D151  D(33,34,42,35)        -26.1728         calculate D2E/DX2 analytically  !
 ! D152  D(37,34,42,35)        165.0176         calculate D2E/DX2 analytically  !
 ! D153  D(53,34,42,35)         74.3387         calculate D2E/DX2 analytically  !
 ! D154  D(33,34,53,51)       -115.3117         calculate D2E/DX2 analytically  !
 ! D155  D(37,34,53,51)          5.7644         calculate D2E/DX2 analytically  !
 ! D156  D(42,34,53,51)        120.1442         calculate D2E/DX2 analytically  !
 ! D157  D(40,35,36,32)         64.9783         calculate D2E/DX2 analytically  !
 ! D158  D(40,35,36,41)       -175.7071         calculate D2E/DX2 analytically  !
 ! D159  D(40,35,36,46)        -55.8483         calculate D2E/DX2 analytically  !
 ! D160  D(42,35,36,32)        -50.6768         calculate D2E/DX2 analytically  !
 ! D161  D(42,35,36,41)         68.6378         calculate D2E/DX2 analytically  !
 ! D162  D(42,35,36,46)       -171.5034         calculate D2E/DX2 analytically  !
 ! D163  D(47,35,36,32)       -171.2548         calculate D2E/DX2 analytically  !
 ! D164  D(47,35,36,41)        -51.9402         calculate D2E/DX2 analytically  !
 ! D165  D(47,35,36,46)         67.9185         calculate D2E/DX2 analytically  !
 ! D166  D(36,35,42,34)         33.3382         calculate D2E/DX2 analytically  !
 ! D167  D(40,35,42,34)        -85.2623         calculate D2E/DX2 analytically  !
 ! D168  D(47,35,42,34)        158.1662         calculate D2E/DX2 analytically  !
 ! D169  D(36,35,47,48)        -66.9735         calculate D2E/DX2 analytically  !
 ! D170  D(36,35,47,49)        175.3978         calculate D2E/DX2 analytically  !
 ! D171  D(36,35,47,50)         54.0606         calculate D2E/DX2 analytically  !
 ! D172  D(40,35,47,48)         56.6589         calculate D2E/DX2 analytically  !
 ! D173  D(40,35,47,49)        -60.9699         calculate D2E/DX2 analytically  !
 ! D174  D(40,35,47,50)        177.6929         calculate D2E/DX2 analytically  !
 ! D175  D(42,35,47,48)        169.7778         calculate D2E/DX2 analytically  !
 ! D176  D(42,35,47,49)         52.1491         calculate D2E/DX2 analytically  !
 ! D177  D(42,35,47,50)        -69.1882         calculate D2E/DX2 analytically  !
 ! D178  D(32,36,46,71)        119.808          calculate D2E/DX2 analytically  !
 ! D179  D(35,36,46,71)       -118.6519         calculate D2E/DX2 analytically  !
 ! D180  D(41,36,46,71)          0.0377         calculate D2E/DX2 analytically  !
 ! D181  D(10,37,52,51)       -113.2569         calculate D2E/DX2 analytically  !
 ! D182  D(19,37,52,51)        153.2077         calculate D2E/DX2 analytically  !
 ! D183  D(34,37,52,51)         30.3419         calculate D2E/DX2 analytically  !
 ! D184  D(33,44,63,64)        -40.887          calculate D2E/DX2 analytically  !
 ! D185  D(33,44,63,65)         80.5513         calculate D2E/DX2 analytically  !
 ! D186  D(33,44,63,66)       -159.6679         calculate D2E/DX2 analytically  !
 ! D187  D(32,45,67,68)        -58.2905         calculate D2E/DX2 analytically  !
 ! D188  D(32,45,67,69)         63.4364         calculate D2E/DX2 analytically  !
 ! D189  D(32,45,67,70)       -177.8524         calculate D2E/DX2 analytically  !
 ! D190  D(36,46,71,72)        -63.1791         calculate D2E/DX2 analytically  !
 ! D191  D(36,46,71,73)         58.2121         calculate D2E/DX2 analytically  !
 ! D192  D(36,46,71,74)        177.5616         calculate D2E/DX2 analytically  !
 ! D193  D(35,47,50,75)        178.5648         calculate D2E/DX2 analytically  !
 ! D194  D(48,47,50,75)        -62.4367         calculate D2E/DX2 analytically  !
 ! D195  D(49,47,50,75)         58.448          calculate D2E/DX2 analytically  !
 ! D196  D(47,50,75,76)       -179.525          calculate D2E/DX2 analytically  !
 ! D197  D(47,50,75,77)        -60.2042         calculate D2E/DX2 analytically  !
 ! D198  D(47,50,75,78)         61.0022         calculate D2E/DX2 analytically  !
 ! D199  D(43,51,52,37)       -148.627          calculate D2E/DX2 analytically  !
 ! D200  D(53,51,52,37)        -17.4339         calculate D2E/DX2 analytically  !
 ! D201  D(54,51,52,37)         94.2265         calculate D2E/DX2 analytically  !
 ! D202  D(43,51,53,34)        144.9472         calculate D2E/DX2 analytically  !
 ! D203  D(52,51,53,34)         13.4228         calculate D2E/DX2 analytically  !
 ! D204  D(54,51,53,34)        -99.0981         calculate D2E/DX2 analytically  !
 ! D205  D(43,51,54,55)        -23.062          calculate D2E/DX2 analytically  !
 ! D206  D(43,51,54,56)        158.5904         calculate D2E/DX2 analytically  !
 ! D207  D(52,51,54,55)         99.2039         calculate D2E/DX2 analytically  !
 ! D208  D(52,51,54,56)        -79.1438         calculate D2E/DX2 analytically  !
 ! D209  D(53,51,54,55)       -143.8824         calculate D2E/DX2 analytically  !
 ! D210  D(53,51,54,56)         37.7699         calculate D2E/DX2 analytically  !
 ! D211  D(51,54,55,57)       -178.4098         calculate D2E/DX2 analytically  !
 ! D212  D(51,54,55,58)          2.082          calculate D2E/DX2 analytically  !
 ! D213  D(56,54,55,57)         -0.1116         calculate D2E/DX2 analytically  !
 ! D214  D(56,54,55,58)       -179.6198         calculate D2E/DX2 analytically  !
 ! D215  D(51,54,56,59)        179.0585         calculate D2E/DX2 analytically  !
 ! D216  D(51,54,56,60)         -1.8552         calculate D2E/DX2 analytically  !
 ! D217  D(55,54,56,59)          0.738          calculate D2E/DX2 analytically  !
 ! D218  D(55,54,56,60)        179.8244         calculate D2E/DX2 analytically  !
 ! D219  D(54,55,57,61)         -0.686          calculate D2E/DX2 analytically  !
 ! D220  D(54,55,57,93)        175.0503         calculate D2E/DX2 analytically  !
 ! D221  D(58,55,57,61)        178.8177         calculate D2E/DX2 analytically  !
 ! D222  D(58,55,57,93)         -5.4461         calculate D2E/DX2 analytically  !
 ! D223  D(54,56,59,61)         -0.5831         calculate D2E/DX2 analytically  !
 ! D224  D(54,56,59,97)        177.9578         calculate D2E/DX2 analytically  !
 ! D225  D(60,56,59,61)       -179.673          calculate D2E/DX2 analytically  !
 ! D226  D(60,56,59,97)         -1.1321         calculate D2E/DX2 analytically  !
 ! D227  D(55,57,61,59)          0.8361         calculate D2E/DX2 analytically  !
 ! D228  D(55,57,61,62)       -179.5036         calculate D2E/DX2 analytically  !
 ! D229  D(93,57,61,59)       -174.9165         calculate D2E/DX2 analytically  !
 ! D230  D(93,57,61,62)          4.7438         calculate D2E/DX2 analytically  !
 ! D231  D(55,57,93,94)        -90.2588         calculate D2E/DX2 analytically  !
 ! D232  D(55,57,93,95)        150.479          calculate D2E/DX2 analytically  !
 ! D233  D(55,57,93,96)         29.3209         calculate D2E/DX2 analytically  !
 ! D234  D(61,57,93,94)         85.549          calculate D2E/DX2 analytically  !
 ! D235  D(61,57,93,95)        -33.7132         calculate D2E/DX2 analytically  !
 ! D236  D(61,57,93,96)       -154.8713         calculate D2E/DX2 analytically  !
 ! D237  D(56,59,61,57)         -0.1892         calculate D2E/DX2 analytically  !
 ! D238  D(56,59,61,62)       -179.8493         calculate D2E/DX2 analytically  !
 ! D239  D(97,59,61,57)       -178.7694         calculate D2E/DX2 analytically  !
 ! D240  D(97,59,61,62)          1.5705         calculate D2E/DX2 analytically  !
 ! D241  D(56,59,97,98)          8.1926         calculate D2E/DX2 analytically  !
 ! D242  D(56,59,97,99)       -112.0639         calculate D2E/DX2 analytically  !
 ! D243  D(56,59,97,100)       129.752          calculate D2E/DX2 analytically  !
 ! D244  D(61,59,97,98)       -173.2282         calculate D2E/DX2 analytically  !
 ! D245  D(61,59,97,99)         66.5153         calculate D2E/DX2 analytically  !
 ! D246  D(61,59,97,100)       -51.6688         calculate D2E/DX2 analytically  !
 ! D247  D(19,83,84,85)       -177.7143         calculate D2E/DX2 analytically  !
 ! D248  D(19,83,84,89)          8.095          calculate D2E/DX2 analytically  !
 ! D249  D(83,84,85,86)       -113.4758         calculate D2E/DX2 analytically  !
 ! D250  D(83,84,85,87)          6.0576         calculate D2E/DX2 analytically  !
 ! D251  D(83,84,85,88)        125.6733         calculate D2E/DX2 analytically  !
 ! D252  D(89,84,85,86)         60.8353         calculate D2E/DX2 analytically  !
 ! D253  D(89,84,85,87)       -179.6313         calculate D2E/DX2 analytically  !
 ! D254  D(89,84,85,88)        -60.0156         calculate D2E/DX2 analytically  !
 ! D255  D(83,84,89,90)       -121.6832         calculate D2E/DX2 analytically  !
 ! D256  D(83,84,89,91)         -1.6318         calculate D2E/DX2 analytically  !
 ! D257  D(83,84,89,92)        117.9698         calculate D2E/DX2 analytically  !
 ! D258  D(85,84,89,90)         62.9572         calculate D2E/DX2 analytically  !
 ! D259  D(85,84,89,91)       -176.9915         calculate D2E/DX2 analytically  !
 ! D260  D(85,84,89,92)        -57.3898         calculate D2E/DX2 analytically  !
 --------------------------------------------------------------------------------
 Trust Radius=5.00D-02 FncErr=1.00D-07 GrdErr=1.00D-06 EigMax=2.50D+02 EigMin=1.00D-04
 Number of steps in this run=    573 maximum allowed number of steps=    600.
 Search for a saddle point of order  1.
 GradGradGradGradGradGradGradGradGradGradGradGradGradGradGradGradGradGrad

 Leave Link  103 at Sun Jun 16 16:14:46 2019, MaxMem=  6442450944 cpu:               3.5 elap:               0.2
 (Enter /home/ekwan/sw/g16/l202.exe)
 Stoichiometry    C30H47F6NaO15S
 Framework group  C1[X(C30H47F6NaO15S)]
 Deg. of freedom   294
 Full point group                 C1      NOp   1
 Largest Abelian subgroup         C1      NOp   1
 Largest concise Abelian subgroup C1      NOp   1
                         Standard orientation:                         
 ---------------------------------------------------------------------
 Center     Atomic      Atomic             Coordinates (Angstroms)
 Number     Number       Type             X           Y           Z
 ---------------------------------------------------------------------
      1          6           0       -1.473044    1.423348    2.527160
      2          6           0       -1.925487    2.100220    1.234181
      3          6           0       -1.076048    3.338683    0.948220
      4          6           0        0.789161    2.462605    2.158049
      5          6           0        0.031057    1.170094    2.466376
      6          1           0       -1.298514    3.729604   -0.054756
      7          1           0       -1.759471    1.404187    0.397172
      8          1           0       -1.695383    2.092007    3.373639
      9          1           0        0.593916    3.177742    2.970792
     10          1           0        0.206802    0.440634    1.662840
     11          8           0        0.296855    3.006329    0.922557
     12          8           0       -1.355077    4.294624    1.921412
     13          8           0       -3.274242    2.499076    1.286705
     14          8           0       -2.212051    0.225456    2.655340
     15          8           0        0.480550    0.641647    3.698710
     16          6           0        2.299423    2.277338    1.997657
     17          1           0        2.661581    1.893045    2.971955
     18          1           0        2.713086    3.308187    1.910365
     19          8           0        2.652878    1.488628    0.928522
     20          6           0       -4.175262    1.563106    0.727353
     21          1           0       -3.925134    1.360284   -0.323960
     22          1           0       -4.173230    0.621507    1.285450
     23          1           0       -5.168536    2.015484    0.769060
     24          6           0       -2.283073   -0.298286    3.970239
     25          1           0       -1.405022   -0.902861    4.215905
     26          1           0       -2.367528    0.510160    4.706458
     27          1           0       -3.175760   -0.922749    4.016603
     28          6           0        1.279789   -0.515913    3.539892
     29          1           0        0.687023   -1.343077    3.120518
     30          1           0        2.131923   -0.330502    2.874832
     31          1           0        1.639949   -0.798712    4.532076
     32          6           0        3.565187   -1.696210   -1.492094
     33          6           0        3.081969   -0.337332   -0.994059
     34          6           0        1.777642   -0.448656   -0.265063
     35          6           0        2.027095   -2.777326    0.192509
     36          6           0        3.458734   -2.673463   -0.322229
     37          1           0        1.125246    0.399912   -0.158217
     38          1           0        3.772575    0.016625   -0.208846
     39          1           0        2.945279   -2.030605   -2.335223
     40          1           0        1.386716   -3.212786   -0.582076
     41          1           0        4.104293   -2.308331    0.487225
     42          8           0        1.457108   -1.457645    0.451656
     43          8           0       -0.568147    0.220823   -3.860974
     44          8           0        2.937111    0.667770   -1.963206
     45          8           0        4.918032   -1.575386   -1.867275
     46          8           0        3.843972   -3.966001   -0.725123
     47          6           0        1.892409   -3.563354    1.474513
     48          1           0        2.141522   -4.613514    1.260945
     49          1           0        0.847211   -3.519566    1.818195
     50          8           0        2.763287   -3.013170    2.428032
     51         16           0       -0.380121    0.061850   -2.416461
     52          8           0       -0.156899    1.331740   -1.677080
     53          8           0        0.640586   -0.969643   -2.044824
     54          6           0       -1.909913   -0.597541   -1.760012
     55          6           0       -3.096664   -0.413240   -2.453773
     56          6           0       -1.878555   -1.259594   -0.534127
     57          6           0       -4.277384   -0.908621   -1.901870
     58          1           0       -3.096416    0.100094   -3.410084
     59          6           0       -3.063911   -1.754867   -0.011854
     60          1           0       -0.941795   -1.400095   -0.001699
     61          6           0       -4.269610   -1.586056   -0.689837
     62          1           0       -5.193612   -1.974901   -0.272609
     63          6           0        4.169411    1.204586   -2.440125
     64          1           0        4.875456    1.335983   -1.612628
     65          1           0        4.613847    0.552175   -3.194895
     66          1           0        3.934350    2.176925   -2.876391
     67          6           0        5.267142   -2.336230   -3.012432
     68          1           0        5.061102   -3.399815   -2.858450
     69          1           0        4.718045   -1.984664   -3.895614
     70          1           0        6.336166   -2.188055   -3.172348
     71          6           0        4.952702   -4.477254   -0.001339
     72          1           0        5.844184   -3.863468   -0.174407
     73          1           0        4.737287   -4.506929    1.074254
     74          1           0        5.128642   -5.489491   -0.367151
     75          6           0        2.673299   -3.675761    3.672838
     76          1           0        3.370806   -3.182923    4.350919
     77          1           0        1.656479   -3.605526    4.081995
     78          1           0        2.944979   -4.735204    3.574835
     79          6           0       -0.684325    5.522041    1.699287
     80          1           0       -1.065789    6.230308    2.435149
     81          1           0        0.398995    5.412524    1.823441
     82          1           0       -0.891320    5.899462    0.689032
     83         11           0        1.695460    2.527889   -0.889817
     84          8           0        3.321988    4.091745   -1.156273
     85          6           0        3.467064    5.169737   -2.057934
     86          1           0        4.311087    4.993986   -2.738009
     87          1           0        2.544683    5.244546   -2.635855
     88          1           0        3.636066    6.109102   -1.516692
     89          6           0        4.469592    3.909775   -0.343944
     90          1           0        4.635146    4.791947    0.287837
     91          1           0        4.277493    3.027276    0.272244
     92          1           0        5.358262    3.749597   -0.969799
     93          6           0       -5.589895   -0.625435   -2.576951
     94          9           0       -6.131567    0.510684   -2.107952
     95          9           0       -6.480220   -1.602421   -2.361690
     96          9           0       -5.449854   -0.480675   -3.899586
     97          6           0       -3.078811   -2.515830    1.283365
     98          9           0       -1.897725   -2.489254    1.911527
     99          9           0       -3.391507   -3.806296    1.079867
    100          9           0       -4.008746   -2.026176    2.117604
 ---------------------------------------------------------------------
 Rotational constants (GHZ):           0.0600447           0.0424411           0.0383414
 Leave Link  202 at Sun Jun 16 16:14:46 2019, MaxMem=  6442450944 cpu:               3.8 elap:               0.2
 (Enter /home/ekwan/sw/g16/l301.exe)
 Standard basis: 6-31G(d) (6D, 7F)
 Centers:      19     53     43     52
 SP 1 1.00
     Exponent=  8.4500000000D-02 Coefficients=  1.0000000000D+00  1.0000000000D+00
 ****
 Ernie: Thresh=  0.10000D-02 Tol=  0.10000D-05 Strict=F.
 There are   913 symmetry adapted cartesian basis functions of A   symmetry.
 There are   913 symmetry adapted basis functions of A   symmetry.
   913 basis functions,  1736 primitive gaussians,   913 cartesian basis functions
   214 alpha electrons      214 beta electrons
       nuclear repulsion energy      9817.7157004461 Hartrees.
 IExCor= 4336 DFT=T Ex+Corr=M062X ExCW=0 ScaHFX=  0.540000
 ScaDFX=  1.000000  1.000000  1.000000  1.000000 ScalE2=  1.000000  1.000000
 IRadAn=      5 IRanWt=     -1 IRanGd=            0 ICorTp=0 IEmpDi=  4
 NAtoms=  100 NActive=  100 NUniq=  100 SFac= 1.00D+00 NAtFMM=   60 NAOKFM=T Big=T
 Integral buffers will be    131072 words long.
 Raffenetti 2 integral format.
 Two-electron integral symmetry is turned on.
 Force inversion solution in PCM.
 ------------------------------------------------------------------------------
 Polarizable Continuum Model (PCM)
 =================================
 Model                : PCM.
 Atomic radii         : UFF (Universal Force Field).
 Polarization charges : Total charges.
 Charge compensation  : None.
 Solution method      : Matrix inversion.
 Cavity type          : Scaled VdW (van der Waals Surface) (Alpha=1.100).
 Cavity algorithm     : GePol (No added spheres)
                        Default sphere list used, NSphG=  100.
                        Lebedev-Laikov grids with approx.  5.0 points / Ang**2.
                        Smoothing algorithm: York/Karplus (Gamma=1.0000).
                        Polarization charges: spherical gaussians, with
                                              point-specific exponents (IZeta= 3).
                        Self-potential: point-specific (ISelfS= 7).
                        Self-field    : sphere-specific E.n sum rule (ISelfD= 2).
 1st derivatives      : Analytical E(r).r(x)/FMM algorithm (CHGder, D1EAlg=3).
                        Cavity 1st derivative terms included.
 2nd derivatives      : Analytical E(r).r(xy)/FMM algorithm (CHGder, D2EAlg=3).
                        Cavity 2nd derivative terms included.
 Solvent              : TetraHydroFuran, Eps=   7.425700 Eps(inf)=   1.974025
 ------------------------------------------------------------------------------
 GePol: Number of generator spheres                  =     100
 GePol: Total number of spheres                      =     100
 GePol: Number of exposed spheres                    =     100 (100.00%)
[...]
 0,-0.00018434,-0.00003585,0.00006958,-0.00012266,0.00007661,0.00007865
 ,-0.00009711,0.00016283,0.00000587,0.00011787,-0.00003518,-0.00004262,
 -0.00009335,0.00004480,0.00000160,0.00007725,-0.00015553,0.00001148,-0
 .00002935,0.00015006,-0.00007188,0.00351372,0.00099958,-0.00124969,-0.
 00092972,-0.00088362,-0.00001393,-0.00153313,0.00037965,-0.00004754,-0
 .00104029,0.00075264,0.00209696,-0.00026848,-0.00077220,0.00049907,0.0
 0376607,-0.00222431,0.00260798,0.00007940,0.00082198,0.00114148,0.0001
 0530,-0.00011662,-0.00015478,-0.01391444,-0.04093046,0.00243490,0.0004
 1713,-0.00066048,-0.00074752,-0.00264783,0.00033966,0.00036146,0.00061
 345,-0.00089217,-0.00047875,0.00011908,0.00005637,-0.00006434,-0.00001
 997,-0.00000578,-0.00000120,-0.00002241,0.00000185,0.00001677,-0.00000
 369,-0.00000940,0.00000764,0.00002025,-0.00005821,-0.00006887,-0.00000
 157,0.00001366,0.00000352,0.00000172,0.00000141,0.00000525,-0.00000871
 ,0.00000507,0.00001004,0.00005141,-0.00003566,0.00004202,-0.00000332,0
 .00000496,-0.00000651,-0.00000172,-0.00000753,-0.00001133,-0.00001753,
 0.00001409,0.00000285,0.00001886,-0.00008192,0.00008488,0.00000704,0.0
 0000688,-0.00000675,0.00000398,-0.00002471,-0.00000367,-0.00002544,0.0
 0003108,0.00000172,0.00009092,0.00017737,-0.00004468,-0.00000452,-0.00
 003676,-0.00001051,-0.00002589,-0.00001249,0.00000524,-0.00001061,-0.0
 0001840,0.00002302,0.00019797,0.00015651,-0.00002657,-0.00005856,-0.00
 003793,0.00000716,0.00001685,0.00003280,-0.00002704,-0.00000854,-0.000
 00018,0.00000694,-0.00000007,0.00000427,-0.00000362,-0.00000243,-0.000
 00788,-0.00000132,0.00003299,0.00000070,0.00001221,-0.00000266,-0.0000
 0849,-0.00000147,0.00002668,0.00000496,-0.00000225,-0.00000996,-0.0000
 0310,0.00001035,-0.00239931,0.00004061,-0.00104567,0.00070707,-0.00042
 644,0.00012379,0.00080963,0.00031975,0.00020069,0.00054078,-0.00011589
 ,0.00074531,-0.04670954,-0.28502566,-0.00582365,-0.03798960,-0.0170372
 8,-0.02138582,0.07668531,0.39951889,0.00026758,0.00046937,-0.00021947,
 0.00000121,-0.00007254,-0.00026677,0.00000288,-0.00003075,0.00000299,-
 0.00006505,0.00008235,-0.00007479,-0.00001086,-0.00004048,-0.00010589,
 -0.00000803,-0.00002862,0.00001634,-0.00001429,-0.00002201,0.00002033,
 -0.00005469,-0.00009371,0.00001998,-0.00000299,0.00000159,0.00001242,-
 0.00001548,0.00001815,-0.00001731,0.00002526,-0.00000638,0.00009588,0.
 00000848,0.00002757,0.00004778,-0.00000429,0.00004496,0.00021085,-0.00
 021717,-0.00071172,0.00015162,-0.00005448,-0.00011349,0.00009375,0.000
 04705,-0.00005227,-0.00007780,0.00000942,0.00000414,0.00002511,-0.0000
 1683,0.00001066,0.00001966,0.00000107,0.00007958,0.00014740,0.00003489
 ,0.00009925,-0.00030682,0.00000337,-0.00013344,0.00010669,-0.00002766,
 0.00012996,-0.00010072,-0.00001400,0.00000890,0.00005882,0.00024065,0.
 00031731,0.00001739,0.00003976,0.00000049,0.00009338,-0.00007231,-0.00
 015861,0.00000229,-0.00015899,0.00002675,0.00034926,0.00006791,0.00013
 341,0.00005511,0.00004199,-0.00006447,-0.00002372,-0.00003512,-0.00002
 858,-0.00001543,-0.00000869,-0.00001028,-0.00000808,-0.00005210,0.0000
 1865,-0.00001242,0.00001016,0.00000748,0.00001855,-0.00031590,-0.00006
 964,-0.00045394,-0.00008454,0.00010731,-0.00007684,-0.00000734,-0.0000
 0019,0.00000354,-0.00001760,-0.00000889,-0.00001103,0.00001590,-0.0000
 0639,-0.00002363,-0.00000427,0.00001079,0.00001779,-0.00000284,0.00000
 577,-0.00000477,0.00001132,0.00000102,-0.00000159,0.00012299,-0.000149
 51,0.00018265,0.00049826,0.00029606,-0.00057324,0.00007218,0.00001732,
 0.00000442,0.00004134,-0.00001365,0.00000604,0.00003681,-0.00003757,0.
 00002473,0.00015444,0.00001977,-0.00008902,-0.00002604,0.00000420,0.00
 001946,0.00002395,-0.00004332,0.00002311,-0.00006897,-0.00001530,0.000
 07035,-0.00188825,-0.00074142,0.00038533,0.00048625,0.00054744,0.00013
 397,0.00085148,-0.00011015,0.00016951,0.00010501,-0.00070966,-0.001763
 64,0.00074116,0.00061817,-0.00049211,-0.00254018,0.00072885,-0.0002945
 2,0.00025621,-0.00082296,0.00026588,-0.00001420,0.00004074,0.00011261,
 0.00783435,0.03026049,0.00583277,0.00007029,0.00060830,0.00016411,0.00
 079461,0.00042134,-0.00059861,-0.00002873,0.00020078,-0.00001044,-0.00
 004228,-0.00002605,0.00001936,0.00001095,0.00000247,0.00000243,0.00000
 590,0.00000096,-0.00000409,-0.00000010,0.00000119,-0.00000401,-0.00000
 990,0.00000810,0.00000409,-0.00000149,-0.00000130,-0.00000301,-0.00000
 019,-0.00000409,0.00000329,0.00000517,0.00000013,-0.00000156,-0.000023
 39,0.00001189,-0.00002828,0.00000307,0.00000037,0.00000267,0.00000443,
 -0.00000169,0.00000760,0.00000193,-0.00000150,0.00000075,0.00005968,0.
 00000402,-0.00004621,-0.00000713,-0.00000285,0.00000482,-0.00001535,0.
 00000195,0.00001322,-0.00000738,0.00000343,0.00000555,-0.00000395,0.00
 000436,-0.00000270,-0.00000021,0.00000469,0.00000089,0.00000125,0.0000
 0045,-0.00000160,0.00000184,-0.00000327,0.00000378,-0.00007174,-0.0000
 7795,-0.00006156,0.00001924,0.00001038,0.00001670,-0.00000547,-0.00000
 590,-0.00000194,-0.00000004,-0.00000045,-0.00000054,0.00000205,-0.0000
 0386,0.00000139,0.00000147,0.00000311,0.00000234,-0.00001443,0.0000012
 2,-0.00001355,0.00000240,0.00000497,0.00000182,-0.00000294,-0.00000311
 ,-0.00000197,0.00000161,-0.00000055,0.00000088,0.00120746,-0.00033973,
 0.00050744,-0.00037142,0.00030131,-0.00003255,-0.00038947,-0.00005348,
 -0.00010563,-0.00027044,0.00010046,-0.00031578,-0.00373847,-0.00765045
 ,-0.07819441,-0.02499533,-0.03078566,-0.00070996,0.01248717,0.05640479
 ,0.08354591,0.00009555,-0.00011210,-0.00013473,-0.00039973,0.00018338,
 0.00015976,-0.00009568,0.00007373,0.00002560,0.00004247,0.00003558,-0.
 00005539,-0.00005636,0.00019220,0.00011187,0.00000417,-0.00000166,-0.0
 0000154,0.00000895,0.00001251,-0.00004675,-0.00004185,-0.00007697,-0.0
 0000226,-0.00000653,-0.00003301,-0.00000721,0.00005380,-0.00000611,-0.
 00003185,0.00009794,-0.00007997,-0.00000394,0.00003928,-0.00007780,-0.
 00004177,0.00058244,0.00029159,-0.00009369,-0.00009741,-0.00083111,-0.
 00061213,0.00011474,-0.00021988,-0.00007458,-0.00003127,0.00006919,0.0
 0010751,0.00000956,0.00000065,-0.00002339,-0.00000579,-0.00004699,-0.0
 0001566,-0.00005056,-0.00018056,-0.00013486,-0.00023444,-0.00086559,0.
 00045358,0.00002231,0.00021316,-0.00015657,-0.00021033,-0.00028737,-0.
 00004885,0.00001643,0.00005878,-0.00007061,-0.00080365,-0.00062121,0.0
 0007475,0.00036086,0.00021941,0.00019155,0.00007478,-0.00006960,0.0000
 9104,-0.00125198,-0.00136975,-0.00254949,0.00005193,0.00035963,0.00014
 262,0.00003111,-0.00010722,0.00000952,-0.00001605,-0.00003349,-0.00002
 647,-0.00003419,-0.00004079,-0.00003874,0.00006512,0.00000324,-0.00004
 919,-0.00001009,0.00004662,-0.00004324,0.00034918,0.00043610,0.0000287
 8,0.00006263,-0.00004993,-0.00005488,0.00010957,-0.00007570,-0.0000146
 6,0.00000719,0.00002864,-0.00000505,-0.00000281,0.00000689,0.00003423,
 -0.00000133,-0.00000628,-0.00001250,0.00002232,-0.00000467,-0.00002329
 ,-0.00001326,0.00000583,0.00000118,-0.00026056,-0.00022335,0.00015446,
 -0.00031030,-0.00021243,0.00058281,-0.00010864,-0.00008723,0.00006586,
 -0.00012157,0.00000829,0.00008146,-0.00012565,0.00007381,0.00000746,0.
 00057245,0.00008968,-0.00002201,-0.00009433,0.00001115,0.00002331,0.00
 006689,-0.00015344,0.00013397,-0.00028840,-0.00001310,-0.00022330,0.00
 127431,0.00071350,-0.00054963,-0.00033901,-0.00052389,-0.00008454,-0.0
 0052425,-0.00006943,0.00008548,-0.00014852,-0.00081587,-0.00037064,0.0
 0039900,-0.00000411,0.00035232,0.00100932,-0.00070334,0.00178499,0.000
 66636,-0.00136826,0.00056176,0.00009438,0.00015513,0.00002659,-0.00656
 419,0.00699748,0.01716719,0.00045337,0.00079893,-0.00025524,-0.0022365
 1,-0.00075126,-0.00120801,0.00093404,0.00082875,0.00085718,0.00008519,
 0.00004731,-0.00003433,-0.00001298,-0.00000071,-0.00000199,-0.00001364
 ,0.00000177,0.00000668,-0.00000466,-0.00000981,0.00000821,0.00002155,-
 0.00003218,-0.00005524,0.00000489,0.00000407,0.00000255,0.00000364,0.0
 0000448,0.00000619,-0.00001206,0.00000163,0.00000754,0.00008581,-0.000
 03573,0.00003883,-0.00001648,-0.00000521,-0.00000127,0.00000761,-0.000
 00369,-0.00000518,-0.00000598,0.00001059,-0.00000028,0.00005587,-0.000
 09638,0.00012782,-0.00002193,-0.00000192,-0.00002026,0.00000288,0.0000
 1781,0.00001260,-0.00000340,0.00002710,-0.00000463,-0.00000112,0.00001
 596,-0.00000148,0.00000001,-0.00000842,-0.00000364,0.00000433,0.000002
 14,0.00000183,-0.00000271,-0.00000109,0.00000220,0.00005168,0.00012253
 ,0.00001222,-0.00001339,-0.00003209,0.00000133,0.00000279,0.00002248,-
 0.00001253,-0.00000096,-0.00000110,0.00000248,0.00000011,0.00000264,0.
 00000141,-0.00000266,-0.00000640,-0.00000174,0.00000770,0.00000682,0.0
 0000489,-0.00000140,-0.00000787,-0.00000066,0.00001277,0.00000581,0.00
 000105,-0.00000109,-0.00000092,0.00000226,-0.00121170,0.00013465,-0.00
 003618,0.00037173,-0.00026628,-0.00005940,0.00037609,0.00010852,-0.000
 00266,0.00026595,-0.00006850,0.00020985,-0.16893486,0.04332161,0.10389
 325,-0.07690465,0.02146775,0.01775082,0.00840008,0.02085255,0.00906910
 ,0.24419781,0.00040977,0.00085437,-0.00054613,0.00022607,-0.00001403,-
 0.00006630,0.00022360,0.00024121,0.00000873,-0.00008889,0.00014372,0.0
 0003354,0.00012631,-0.00025076,0.00002021,-0.00002096,-0.00005750,0.00
 001424,0.00002320,0.00003391,-0.00002346,-0.00014329,-0.00020144,0.000
 01216,0.00000291,-0.00000503,-0.00000659,0.00002002,0.00000788,0.00002
 226,-0.00016839,-0.00007672,-0.00000585,-0.00009548,-0.00023899,-0.000
 00519,-0.00054056,-0.00065359,-0.00001724,-0.00156985,-0.00158168,-0.0
 0042805,-0.00034005,0.00016231,-0.00004058,0.00009973,-0.00008038,-0.0
 0002780,-0.00000855,0.00000957,-0.00000508,-0.00004402,-0.00001141,0.0
 0001603,-0.00010249,0.00005901,0.00006712,0.00026964,0.00114167,-0.000
 36687,-0.00000558,-0.00018109,0.00016242,-0.00022292,0.00000734,0.0003
 2300,0.00006204,-0.00023390,0.00011859,0.00095960,-0.00031681,-0.00038
 375,-0.00035671,-0.00003147,-0.00013550,-0.00045393,-0.00027446,-0.000
 07567,-0.00155414,-0.00126889,-0.00068340,0.00012896,-0.00029046,-0.00
 004101,0.00000289,0.00003267,-0.00000553,-0.00001466,0.00002087,0.0000
 1716,-0.00000940,0.00003332,-0.00001425,0.00001468,-0.00003260,0.00000
 495,0.00000834,-0.00000766,-0.00001242,0.00005462,-0.00015608,0.000138
 91,0.00003705,-0.00016454,0.00001499,-0.00001070,0.00000756,0.00000598
 ,0.00003120,-0.00001010,-0.00001974,-0.00000166,-0.00000734,0.00000001
 ,0.00000169,-0.00000251,-0.00000062,-0.00001259,-0.00000208,0.00001998
 ,0.00000648,0.00000031,0.00000049,-0.00002371,0.00022768,-0.00010201,-
 0.00014852,0.00000406,0.00019478,-0.00002913,0.00002116,0.00000651,-0.
 00000303,0.00002674,0.00000011,0.00000734,0.00003457,-0.00000269,-0.00
 018599,-0.00004894,-0.00000765,0.00000929,0.00001120,-0.00001002,0.000
 00579,0.00000622,-0.00003250,0.00010223,0.00006898,0.00005183,0.000737
 56,-0.00011426,-0.00030844,-0.00022952,-0.00003671,0.00006916,-0.00030
 152,0.00015702,-0.00004079,0.00053383,-0.00099278,0.00032038,-0.000614
 87,-0.00024414,0.00025595,0.00066977,0.00071462,-0.00044008,-0.0000712
 3,0.00012263,-0.00059167,-0.00002783,0.00004516,-0.00001126,-0.0055602
 5,0.01052301,0.00880794,-0.00014365,0.00024017,0.00019670,0.00011732,-
 0.00029810,0.00111834,-0.00021801,-0.00025387,0.00008200,0.00001580,0.
 00000448,-0.00001271,-0.00000218,-0.00000210,0.00000016,-0.00000358,0.
 00000055,0.00000438,0.00000042,-0.00000035,-0.00000054,0.00000042,-0.0
 0000992,-0.00000628,-0.00000203,0.00000358,0.00000072,-0.00000057,-0.0
 0000081,-0.00000040,0.00000067,0.00000109,0.00000106,-0.00001005,-0.00
 000117,0.00000335,0.00000438,0.00000337,-0.00000225,-0.00000387,-0.000
 00124,-0.00000271,-0.00000392,0.00000142,0.00000111,-0.00002109,0.0000
 0317,-0.00000715,0.00001285,0.00000241,0.00000467,0.00000216,-0.000018
 01,-0.00000724,-0.00000677,0.00000200,0.00000237,0.00006018,0.00011527
 ,-0.00002704,-0.00000364,-0.00002082,-0.00000560,-0.00001932,-0.000010
 46,0.00000257,-0.00000621,-0.00001388,0.00001524,0.00007054,0.00000993
 ,-0.00004711,-0.00002266,-0.00000532,0.00000636,0.00000664,0.00000776,
 -0.00000947,-0.00000402,0.00000021,0.00000273,0.00000026,0.00000043,-0
 .00000218,0.00000017,-0.00000115,0.00000024,0.00001181,-0.00000137,0.0
 0000262,-0.00000027,-0.00000049,-0.00000031,0.00000901,-0.00000065,-0.
 00000222,-0.00000463,-0.00000156,0.00000496,-0.00041577,-0.00007842,-0
 .00035910,0.00009927,-0.00000530,0.00007448,0.00015709,0.00007823,0.00
 006168,0.00007856,0.00000322,0.00014880,0.04367293,-0.09219661,-0.0433
 9235,0.01802754,0.00725934,-0.00110536,0.03412040,-0.05319882,-0.04898
 130,-0.08739036,0.13125340,0.00059539,0.00103136,-0.00035998,-0.000006
 46,-0.00016013,-0.00046149,0.00012363,-0.00002906,0.00000461,-0.000160
 56,0.00016673,-0.00008630,0.00006984,-0.00022791,-0.00025308,-0.000026
 15,-0.00006898,0.00003282,0.00000180,-0.00002935,0.00004885,-0.0001184
 3,-0.00014112,0.00007100,0.00000088,0.00001887,0.00002191,-0.00004317,
 0.00003135,0.00000947,-0.00003201,0.00000864,0.00015696,-0.00002665,0.
 00000543,0.00009439,-0.00009309,0.00001951,0.00038416,-0.00070197,-0.0
 0069473,0.00054761,-0.00037655,-0.00000933,0.00021670,0.00012022,-0.00
 014367,-0.00017793,0.00000851,0.00000841,0.00004888,-0.00003901,0.0000
 3499,0.00004317,-0.00000281,0.00022741,0.00031427,0.00007975,0.0003938
 0,-0.00057689,-0.00001500,-0.00023711,0.00021014,-0.00002678,0.0005395
 2,-0.00058780,-0.00001409,-0.00000508,0.00009679,0.00249273,0.00045287
 ,-0.00244967,-0.00047828,-0.00012029,0.00003194,-0.00097289,-0.0006915
 4,0.00007779,-0.00324056,-0.00235690,-0.00085469,0.00013796,-0.0001919
 6,-0.00001961,0.00002576,-0.00000159,-0.00005253,-0.00004931,-0.000005
 87,0.00000427,0.00000887,0.00002698,0.00000642,-0.00010180,0.00002220,
 0.00001450,0.00002042,-0.00000907,0.00004497,-0.00063317,-0.00037717,-
 0.00064850,-0.00014352,0.00018052,-0.00006075,-0.00007139,0.00004179,0
 .00000827,-0.00002603,-0.00002969,-0.00002658,0.00002518,-0.00001535,-
 0.00005324,-0.00000460,0.00001909,0.00003054,-0.00001506,0.00001281,0.
 00000715,0.00002136,-0.00000249,-0.00000248,0.00032445,-0.00005891,0.0
 0015949,0.00084836,0.00039311,-0.00123411,0.00016049,0.00007172,-0.000
 02689,0.00012005,-0.00002279,-0.00003813,0.00011416,-0.00008825,0.0000
 2545,-0.00010268,-0.00002401,-0.00012183,0.00001643,-0.00000005,0.0000
 1581,0.00000607,0.00001055,-0.00001020,0.00007035,0.00000367,0.0002087
 5,-0.00365671,-0.00108366,0.00097922,0.00101602,0.00118323,0.00032302,
 0.00151361,-0.00015719,0.00016449,0.00114044,0.00255244,-0.00067775,0.
 00066171,0.00052366,-0.00078861,-0.00403158,0.00050753,-0.00545003,-0.
 00005084,0.00034007,0.00033518,-0.00004364,-0.00013036,0.00002579,0.03
 808626,-0.01108022,-0.03121135,-0.00007098,-0.00070536,-0.00013861,0.0
 0180869,0.00070534,0.00005422,-0.00012579,-0.00039879,-0.00083991,-0.0
 0010238,-0.00006105,0.00004517,0.00002270,0.00000370,0.00000396,0.0000
 1593,0.00000072,-0.00000895,0.00000235,0.00000682,-0.00001016,-0.00002
 402,0.00002897,0.00003663,-0.00000405,-0.00000424,-0.00000491,-0.00000
 218,-0.00000712,0.00000046,0.00001285,-0.00000110,-0.00000636,-0.00007
 469,0.00003310,-0.00005567,0.00001266,0.00000335,0.00000354,0.00000135
 ,-0.00000061,0.00001182,0.00000591,-0.00000765,0.00000168,0.00004196,0
 .00005136,-0.00011811,0.00000710,-0.00000210,0.00001638,-0.00002017,-0
 .00001354,0.00000756,-0.00001034,-0.00000748,0.00001075,0.00001172,0.0
 0002926,-0.00001052,-0.00000174,0.00000500,0.00000112,-0.00000431,-0.0
 0000261,-0.00000280,0.00000197,-0.00000878,0.00000935,-0.00012332,-0.0
 0017549,-0.00011561,0.00003004,0.00002941,0.00002540,-0.00000792,-0.00
 001744,0.00000137,-0.00000029,-0.00000013,-0.00000131,0.00000301,-0.00
 000673,0.00000096,0.00000354,0.00000727,0.00000408,-0.00002277,-0.0000
 0113,-0.00002181,0.00000432,0.00001093,0.00000284,-0.00000764,-0.00000
 764,-0.00000409,0.00000191,-0.00000084,0.00000161,0.00233425,-0.000545
 58,0.00079152,-0.00072037,0.00055698,-0.00002035,-0.00076160,-0.000152
 72,-0.00015724,-0.00049398,0.00016230,-0.00059193,0.09791031,-0.040496
 19,-0.18719542,0.00222167,0.00178220,0.02118322,0.01277021,-0.03741427
 ,-0.00797484,-0.14715179,0.08598748,0.21653063\\0.00000165,0.00000180,
 0.00000032,0.00000067,0.00000202,-0.00000032,0.00000160,0.00000044,-0.
 00000015,0.00000137,0.,-0.00000028,0.00000052,0.00000154,-0.00000166,0
 .00000149,0.00000069,-0.00000129,0.00000064,0.00000103,-0.00000014,0.0
 0000134,0.00000202,-0.00000029,0.00000176,0.00000080,-0.00000069,0.000
 00102,0.00000123,0.00000098,0.00000157,0.00000062,-0.00000124,0.000002
 32,0.00000127,-0.00000086,0.00000126,0.00000185,0.00000009,0.00000036,
 0.00000135,0.00000074,0.00000085,0.00000074,0.00000015,0.00000175,0.00
 000176,-0.00000093,0.00000088,0.00000011,-0.00000093,0.00000154,-0.000
 00063,-0.00000149,-0.00000153,-0.00000280,-0.00000131,0.00000036,0.000
 00299,0.00000022,0.00000039,0.00000166,0.00000041,0.00000039,0.0000021
 1,0.00000093,0.00000116,0.00000246,0.00000040,0.00000066,0.00000291,0.
 00000059,0.00000027,0.00000217,0.00000070,0.00000094,0.00000253,0.0000
 0034,0.00000019,0.00000285,0.00000104,0.00000096,0.00000112,0.00000032
 ,-0.00000035,0.00000076,0.00000014,0.00000084,-0.00000095,0.00000008,0
 .00000036,0.00000095,0.00000001,-0.00000157,-0.00000189,-0.00000053,-0
 .00000071,-0.00000157,0.00000167,0.00000162,0.00000077,-0.00000172,-0.
 00000141,-0.00000072,0.00000010,-0.00000159,-0.00000122,-0.00000014,-0
 .00000049,-0.00000075,-0.00000048,-0.00000055,-0.00000078,-0.00000180,
 -0.00000116,-0.00000182,0.00000063,-0.00000127,-0.00000049,0.00000122,
 -0.00000100,-0.00000148,0.00000058,-0.00000045,-0.00000064,0.00000095,
 -0.00000085,-0.00000108,0.00000037,-0.00000060,-0.00000174,-0.00000051
 ,-0.00000146,-0.00000245,0.00000017,-0.00000190,-0.00000190,0.00000110
 ,-0.00000094,-0.00000022,0.00000103,-0.00000191,-0.00000036,0.00000128
 ,-0.00000165,0.00000040,0.00000120,-0.00000072,0.00000014,0.00000081,-
 0.00000037,0.00000075,-0.00000018,0.00000042,-0.00000128,-0.00000013,-
 0.00000106,-0.00000111,0.00000067,-0.00000042,0.00000011,0.00000140,-0
 .00000033,0.00000066,0.00000051,-0.00000132,0.00000078,0.00000080,-0.0
 0000171,0.00000142,0.00000087,-0.00000086,0.00000040,0.00000080,0.0000
 0044,0.00000165,0.00000155,-0.00000094,0.00000042,0.00000090,-0.000001
 25,0.00000198,0.00000155,-0.00000114,0.00000227,0.00000185,-0.00000003
 ,-0.00000197,-0.00000165,0.00000035,-0.00000256,-0.00000094,-0.0000002
 5,-0.00000309,-0.00000099,0.00000030,-0.00000281,-0.00000107,-0.000001
 12,-0.00000318,-0.00000045,-0.00000226,-0.00000300,0.00000041,-0.00000
 169,-0.00000330,-0.00000001,-0.00000203,-0.00000364,-0.00000033,-0.000
 00214,-0.00000286,0.00000054,-0.00000154,-0.00000223,0.00000048,-0.000
 00219,-0.00000133,0.00000068,-0.00000264,-0.00000163,0.00000112,-0.000
 00116,0.00000005,0.00000097,-0.00000047,0.00000023,0.00000065,-0.00000
 113,0.00000131,0.00000111,-0.00000144,0.00000008,0.00000105,0.00000250
 ,0.00000087,-0.00000205,0.00000302,0.00000160,-0.00000151,0.00000277,0
 .00000062,-0.00000160,0.00000255,0.00000080,-0.00000156,0.00000013,0.0
 0000127,-0.00000079,0.00000372,-0.00000282,-0.00000200,0.00000169,-0.0
 0000194,-0.00000125,0.00000137,-0.00000247,-0.00000220,0.00000146,-0.0
 0000182,-0.00000233,0.00000218,-0.00000195,-0.00000260,0.00000043,-0.0
 0000206,-0.00000219,0.00000180,-0.00000185,-0.00000260,0.00000137,-0.0
 0000142,-0.00000209,0.00000133,-0.00000244,-0.00000210,-0.00000017,0.0
 0000209,0.00000133,-0.00000029,0.00000201,0.00000097,-0.00000142,0.000
 00188,0.00000200,-0.00000121,0.00000134,0.00000190,-0.00000113,0.00000
 183,0.00000086,-0.00000030,0.00000199,0.00000160,-0.00000159,0.0000019
 3,0.00000216,-0.00000082,0.00000285,0.00000209\\\@


 FESTINA LENTE!
     - IMPERATOR AUGUSTUS 
 Job cpu time:       8 days  3 hours 49 minutes 47.7 seconds.
 Elapsed time:       0 days  6 hours 26 minutes 14.2 seconds.
 File lengths (MBytes):  RWF=   9921 Int=      0 D2E=      0 Chk=     86 Scr=      1
 Normal termination of Gaussian 16 at Mon Jun 17 05:05:27 2019.
