 Entering Gaussian System, Link 0=g16
 Input=clay_new-glu_gluC6-bisCF3-sm-m062x_d3-custom-pcm_thf.gjf
 Output=clay_new-glu_gluC6-bisCF3-sm-m062x_d3-custom-pcm_thf.out
 Initial command:
 /home/ekwan/sw/g16/l1.exe "/scratch/users/ekwan/clay_new-glu_gluC6-bisCF3-sm-m062x_d3-custom-pcm_thf/Gau-9936.inp" -scrdir="/scratch/users/ekwan/clay_new-glu_gluC6-bisCF3-sm-m062x_d3-custom-pcm_thf/"
 Entering Link 1 = /home/ekwan/sw/g16/l1.exe PID=      9937.
  
 Copyright (c) 1988,1990,1992,1993,1995,1998,2003,2009,2016,
            Gaussian, Inc.  All Rights Reserved.
  
 This is part of the Gaussian(R) 16 program.  It is based on
 the Gaussian(R) 09 system (copyright 2009, Gaussian, Inc.),
 the Gaussian(R) 03 system (copyright 2003, Gaussian, Inc.),
 the Gaussian(R) 98 system (copyright 1998, Gaussian, Inc.),
 the Gaussian(R) 94 system (copyright 1995, Gaussian, Inc.),
 the Gaussian 92(TM) system (copyright 1992, Gaussian, Inc.),
 the Gaussian 90(TM) system (copyright 1990, Gaussian, Inc.),
 the Gaussian 88(TM) system (copyright 1988, Gaussian, Inc.),
 the Gaussian 86(TM) system (copyright 1986, Carnegie Mellon
 University), and the Gaussian 82(TM) system (copyright 1983,
 Carnegie Mellon University). Gaussian is a federally registered
 trademark of Gaussian, Inc.
  
 This software contains proprietary and confidential information,
 including trade secrets, belonging to Gaussian, Inc.
  
 This software is provided under written license and may be
 used, copied, transmitted, or stored only in accord with that
 written license.
  
 The following legend is applicable only to US Government
 contracts under FAR:
  
                    RESTRICTED RIGHTS LEGEND
  
 Use, reproduction and disclosure by the US Government is
 subject to restrictions as set forth in subparagraphs (a)
 and (c) of the Commercial Computer Software - Restricted
 Rights clause in FAR 52.227-19.
  
 Gaussian, Inc.
 340 Quinnipiac St., Bldg. 40, Wallingford CT 06492
  
  
 ---------------------------------------------------------------
 Warning -- This program may not be used in any manner that
 competes with the business of Gaussian, Inc. or will provide
 assistance to any competitor of Gaussian, Inc.  The licensee
 of this program is prohibited from giving any competitor of
 Gaussian, Inc. access to this program.  By using this program,
 the user acknowledges that Gaussian, Inc. is engaged in the
 business of creating and licensing software in the field of
 computational chemistry and represents and warrants to the
 licensee that it is not a competitor of Gaussian, Inc. and that
 it will not use this program in any manner prohibited above.
 ---------------------------------------------------------------
  

 Cite this work as:
 Gaussian 16, Revision A.03,
 M. J. Frisch, G. W. Trucks, H. B. Schlegel, G. E. Scuseria, 
 M. A. Robb, J. R. Cheeseman, G. Scalmani, V. Barone, 
 G. A. Petersson, H. Nakatsuji, X. Li, M. Caricato, A. V. Marenich, 
 J. Bloino, B. G. Janesko, R. Gomperts, B. Mennucci, H. P. Hratchian, 
 J. V. Ortiz, A. F. Izmaylov, J. L. Sonnenberg, D. Williams-Young, 
 F. Ding, F. Lipparini, F. Egidi, J. Goings, B. Peng, A. Petrone, 
 T. Henderson, D. Ranasinghe, V. G. Zakrzewski, J. Gao, N. Rega, 
 G. Zheng, W. Liang, M. Hada, M. Ehara, K. Toyota, R. Fukuda, 
 J. Hasegawa, M. Ishida, T. Nakajima, Y. Honda, O. Kitao, H. Nakai, 
 T. Vreven, K. Throssell, J. A. Montgomery, Jr., J. E. Peralta, 
 F. Ogliaro, M. J. Bearpark, J. J. Heyd, E. N. Brothers, K. N. Kudin, 
 V. N. Staroverov, T. A. Keith, R. Kobayashi, J. Normand, 
 K. Raghavachari, A. P. Rendell, J. C. Burant, S. S. Iyengar, 
 J. Tomasi, M. Cossi, J. M. Millam, M. Klene, C. Adamo, R. Cammi, 
 J. W. Ochterski, R. L. Martin, K. Morokuma, O. Farkas, 
 J. B. Foresman, and D. J. Fox, Gaussian, Inc., Wallingford CT, 2016.
 
 ******************************************
 Gaussian 16:  AS64L-G16RevA.03 25-Dec-2016
                15-Jun-2019 
 ******************************************
 %nprocshared=32
 Will use up to   32 processors via shared memory.
 %mem=48GB
 ----------------------------------------------------------------------
 #p opt freq=noraman 6-31g(d) scrf=(solvent=tetrahydrofuran,pcm) pop=no
 ne empiricaldispersion=gd3 m062x extrabasis
 ----------------------------------------------------------------------
 1/18=20,19=15,26=3,38=1/1,3;
 2/9=110,12=2,17=6,18=5,40=1/2;
 3/5=1,6=6,7=1,10=1,11=2,25=1,30=1,70=2201,71=1,72=20,74=-55,124=31/1,2,3;
 4//1;
 5/5=2,38=5,53=20/2;
 7//1,2,3,16;
 1/18=20,19=15,26=3/3(2);
 2/9=110/2;
 99//99;
 2/9=110/2;
 3/5=7,6=1,7=1,11=2,25=1,30=1,70=2205,71=1,72=20,74=-55,82=7,124=31/1,2,3;
 4/5=5,16=3,69=1/1;
 5/5=2,38=5,53=20/2;
 7//1,2,3,16;
 1/18=20,19=15,26=3/3(-5);
 2/9=110/2;
 99/9=1/99;
 Leave Link    1 at Sat Jun 15 07:59:57 2019, MaxMem=  6442450944 cpu:               6.5 elap:               0.2
 (Enter /home/ekwan/sw/g16/l101.exe)
 -----
 title
 -----
 Symbolic Z-matrix:
 Charge =  0 Multiplicity = 1
 6                     3.35283   0.35726   0.62676 
 6                     3.31167  -0.48108  -0.6482 
 6                     1.86553  -0.80958  -1.04351 
 6                     1.00588   1.09414   0.09814 
 6                     2.4079    1.54502   0.49999 
 1                     1.80336  -1.29153  -2.02085 
 1                     3.72145   0.12628  -1.4731 
 1                     3.02913  -0.25951   1.47911 
 1                     0.58212   0.48167   0.90801 
 1                     2.794     2.22141  -0.27555 
 8                     1.05475   0.31091  -1.10498 
 8                     1.38756  -1.74487  -0.04398 
 8                     4.09056  -1.6274   -0.45004 
 8                     4.64978   0.86141   0.84583 
 8                     2.30083   2.21192   1.73601 
 6                     0.07634   2.27863  -0.13138 
 1                    -0.17179   2.69876   0.8463 
 1                    -0.84704   1.92146  -0.60981 
 8                     0.64597   3.32761  -0.8768 
 16                    0.09994  -2.6475   -0.39273 
 8                     0.07771  -3.66205   0.63888 
 8                     0.15298  -3.00043  -1.80034 
 6                    -1.26556  -1.54087  -0.13556 
 6                    -1.73002  -1.34681   1.16078 
 6                    -1.80812  -0.87674  -1.22797 
 6                    -2.77376  -0.44907   1.35633 
 1                    -1.28756  -1.88382   1.99399 
 6                    -2.85326   0.01274  -1.00215 
 1                    -1.42446  -1.05131  -2.228 
 6                    -3.33808   0.2343    0.2829 
 1                    -4.1503    0.93493   0.44752 
 6                     4.29384  -2.4023   -1.61837 
 1                     3.38444  -2.94354  -1.90764 
 1                     4.62194  -1.77169  -2.4547 
 1                     5.07374  -3.12727  -1.38462 
 6                     5.42078   0.10667   1.76366 
 1                     6.38725   0.6068    1.84706 
 1                     4.94058   0.08792   2.75055 
 1                     5.56693  -0.91894   1.41243 
 6                     2.94638   3.47327   1.75882 
 1                     2.79183   3.88958   2.7558 
 1                     4.01957   3.36509   1.56949 
 1                     2.50663   4.14436   1.01084 
 6                     0.77743   3.0522   -2.25945 
 1                     0.96753   4.0052   -2.75637 
 1                    -0.14567   2.61139  -2.65762 
 1                     1.60739   2.36587  -2.46223 
 6                    -3.34098  -0.24736   2.7366 
 9                    -2.44551  -0.54691   3.68366 
 9                    -4.41412  -1.023     2.93891 
 9                    -3.7296    1.02049   2.91996 
 6                    -3.40666   0.80368  -2.15653 
 9                    -2.71119   1.93992  -2.33939 
 9                    -4.68063   1.1513   -1.95086 
 9                    -3.34161   0.11436  -3.29993 
 
 ITRead=  0  0  0  0  0  0  0  0  0  0  0  0  0  0  0  0  0  0  0  0
 ITRead=  0  0  0  0  0  0  0  0  0  0  0  0  0  0  0  0  0  0  0  0
 ITRead=  0  0  0  0  0  0  0  0  0  0  0  0  0  0  0
 MicOpt= -1 -1 -1 -1 -1 -1 -1 -1 -1 -1 -1 -1 -1 -1 -1 -1 -1 -1 -1 -1
 MicOpt= -1 -1 -1 -1 -1 -1 -1 -1 -1 -1 -1 -1 -1 -1 -1 -1 -1 -1 -1 -1
 MicOpt= -1 -1 -1 -1 -1 -1 -1 -1 -1 -1 -1 -1 -1 -1 -1
 NAtoms=     55 NQM=       55 NQMF=       0 NMMI=      0 NMMIF=      0
                NMic=       0 NMicF=      0.
                    Isotopes and Nuclear Properties:
 (Nuclear quadrupole moments (NQMom) in fm**2, nuclear magnetic moments (NMagM)
  in nuclear magnetons)

  Atom         1           2           3           4           5           6           7           8           9          10
 IAtWgt=          12          12          12          12          12           1           1           1           1           1
 AtmWgt=  12.0000000  12.0000000  12.0000000  12.0000000  12.0000000   1.0078250   1.0078250   1.0078250   1.0078250   1.0078250
 NucSpn=           0           0           0           0           0           1           1           1           1           1
 AtZEff=   0.0000000   0.0000000   0.0000000   0.0000000   0.0000000   0.0000000   0.0000000   0.0000000   0.0000000   0.0000000
 NQMom=    0.0000000   0.0000000   0.0000000   0.0000000   0.0000000   0.0000000   0.0000000   0.0000000   0.0000000   0.0000000
 NMagM=    0.0000000   0.0000000   0.0000000   0.0000000   0.0000000   2.7928460   2.7928460   2.7928460   2.7928460   2.7928460
 AtZNuc=   6.0000000   6.0000000   6.0000000   6.0000000   6.0000000   1.0000000   1.0000000   1.0000000   1.0000000   1.0000000

  Atom        11          12          13          14          15          16          17          18          19          20
 IAtWgt=          16          16          16          16          16          12           1           1          16          32
 AtmWgt=  15.9949146  15.9949146  15.9949146  15.9949146  15.9949146  12.0000000   1.0078250   1.0078250  15.9949146  31.9720718
 NucSpn=           0           0           0           0           0           0           1           1           0           0
 AtZEff=   0.0000000   0.0000000   0.0000000   0.0000000   0.0000000   0.0000000   0.0000000   0.0000000   0.0000000   0.0000000
 NQMom=    0.0000000   0.0000000   0.0000000   0.0000000   0.0000000   0.0000000   0.0000000   0.0000000   0.0000000   0.0000000
 NMagM=    0.0000000   0.0000000   0.0000000   0.0000000   0.0000000   0.0000000   2.7928460   2.7928460   0.0000000   0.0000000
 AtZNuc=   8.0000000   8.0000000   8.0000000   8.0000000   8.0000000   6.0000000   1.0000000   1.0000000   8.0000000  16.0000000

  Atom        21          22          23          24          25          26          27          28          29          30
 IAtWgt=          16          16          12          12          12          12           1          12           1          12
 AtmWgt=  15.9949146  15.9949146  12.0000000  12.0000000  12.0000000  12.0000000   1.0078250  12.0000000   1.0078250  12.0000000
 NucSpn=           0           0           0           0           0           0           1           0           1           0
 AtZEff=   0.0000000   0.0000000   0.0000000   0.0000000   0.0000000   0.0000000   0.0000000   0.0000000   0.0000000   0.0000000
 NQMom=    0.0000000   0.0000000   0.0000000   0.0000000   0.0000000   0.0000000   0.0000000   0.0000000   0.0000000   0.0000000
 NMagM=    0.0000000   0.0000000   0.0000000   0.0000000   0.0000000   0.0000000   2.7928460   0.0000000   2.7928460   0.0000000
 AtZNuc=   8.0000000   8.0000000   6.0000000   6.0000000   6.0000000   6.0000000   1.0000000   6.0000000   1.0000000   6.0000000

  Atom        31          32          33          34          35          36          37          38          39          40
 IAtWgt=           1          12           1           1           1          12           1           1           1          12
 AtmWgt=   1.0078250  12.0000000   1.0078250   1.0078250   1.0078250  12.0000000   1.0078250   1.0078250   1.0078250  12.0000000
 NucSpn=           1           0           1           1           1           0           1           1           1           0
 AtZEff=   0.0000000   0.0000000   0.0000000   0.0000000   0.0000000   0.0000000   0.0000000   0.0000000   0.0000000   0.0000000
 NQMom=    0.0000000   0.0000000   0.0000000   0.0000000   0.0000000   0.0000000   0.0000000   0.0000000   0.0000000   0.0000000
 NMagM=    2.7928460   0.0000000   2.7928460   2.7928460   2.7928460   0.0000000   2.7928460   2.7928460   2.7928460   0.0000000
 AtZNuc=   1.0000000   6.0000000   1.0000000   1.0000000   1.0000000   6.0000000   1.0000000   1.0000000   1.0000000   6.0000000

  Atom        41          42          43          44          45          46          47          48          49          50
 IAtWgt=           1           1           1          12           1           1           1          12          19          19
 AtmWgt=   1.0078250   1.0078250   1.0078250  12.0000000   1.0078250   1.0078250   1.0078250  12.0000000  18.9984033  18.9984033
 NucSpn=           1           1           1           0           1           1           1           0           1           1
 AtZEff=   0.0000000   0.0000000   0.0000000   0.0000000   0.0000000   0.0000000   0.0000000   0.0000000   0.0000000   0.0000000
 NQMom=    0.0000000   0.0000000   0.0000000   0.0000000   0.0000000   0.0000000   0.0000000   0.0000000   0.0000000   0.0000000
 NMagM=    2.7928460   2.7928460   2.7928460   0.0000000   2.7928460   2.7928460   2.7928460   0.0000000   2.6288670   2.6288670
 AtZNuc=   1.0000000   1.0000000   1.0000000   6.0000000   1.0000000   1.0000000   1.0000000   6.0000000   9.0000000   9.0000000

  Atom        51          52          53          54          55
 IAtWgt=          19          12          19          19          19
 AtmWgt=  18.9984033  12.0000000  18.9984033  18.9984033  18.9984033
 NucSpn=           1           0           1           1           1
 AtZEff=   0.0000000   0.0000000   0.0000000   0.0000000   0.0000000
 NQMom=    0.0000000   0.0000000   0.0000000   0.0000000   0.0000000
 NMagM=    2.6288670   0.0000000   2.6288670   2.6288670   2.6288670
 AtZNuc=   9.0000000   6.0000000   9.0000000   9.0000000   9.0000000
 Leave Link  101 at Sat Jun 15 07:59:57 2019, MaxMem=  6442450944 cpu:              16.9 elap:               0.6
 (Enter /home/ekwan/sw/g16/l103.exe)

 GradGradGradGradGradGradGradGradGradGradGradGradGradGradGradGradGradGrad
 Berny optimization.
 Initialization pass.
                           ----------------------------
                           !    Initial Parameters    !
                           ! (Angstroms and Degrees)  !
 --------------------------                            --------------------------
 ! Name  Definition              Value          Derivative Info.                !
 --------------------------------------------------------------------------------
 ! R1    R(1,2)                  1.5264         estimate D2E/DX2                !
 ! R2    R(1,5)                  1.5231         estimate D2E/DX2                !
 ! R3    R(1,8)                  1.1008         estimate D2E/DX2                !
 ! R4    R(1,14)                 1.4086         estimate D2E/DX2                !
 ! R5    R(2,3)                  1.5348         estimate D2E/DX2                !
 ! R6    R(2,7)                  1.1033         estimate D2E/DX2                !
 ! R7    R(2,13)                 1.4            estimate D2E/DX2                !
 ! R8    R(3,6)                  1.0915         estimate D2E/DX2                !
 ! R9    R(3,11)                 1.3844         estimate D2E/DX2                !
 ! R10   R(3,12)                 1.4499         estimate D2E/DX2                !
 ! R11   R(4,5)                  1.5266         estimate D2E/DX2                !
 ! R12   R(4,9)                  1.1003         estimate D2E/DX2                !
 ! R13   R(4,11)                 1.4364         estimate D2E/DX2                !
 ! R14   R(4,16)                 1.5231         estimate D2E/DX2                !
 ! R15   R(5,10)                 1.0991         estimate D2E/DX2                !
 ! R16   R(5,15)                 1.4085         estimate D2E/DX2                !
 ! R17   R(12,20)                1.6107         estimate D2E/DX2                !
 ! R18   R(13,32)                1.4166         estimate D2E/DX2                !
 ! R19   R(14,36)                1.4165         estimate D2E/DX2                !
 ! R20   R(15,40)                1.4171         estimate D2E/DX2                !
 ! R21   R(16,17)                1.0927         estimate D2E/DX2                !
 ! R22   R(16,18)                1.0996         estimate D2E/DX2                !
 ! R23   R(16,19)                1.4073         estimate D2E/DX2                !
 ! R24   R(19,44)                1.4159         estimate D2E/DX2                !
 ! R25   R(20,21)                1.4471         estimate D2E/DX2                !
 ! R26   R(20,22)                1.4522         estimate D2E/DX2                !
 ! R27   R(20,23)                1.7763         estimate D2E/DX2                !
 ! R28   R(23,24)                1.3906         estimate D2E/DX2                !
 ! R29   R(23,25)                1.3888         estimate D2E/DX2                !
 ! R30   R(24,26)                1.3905         estimate D2E/DX2                !
 ! R31   R(24,27)                1.0855         estimate D2E/DX2                !
 ! R32   R(25,28)                1.3909         estimate D2E/DX2                !
 ! R33   R(25,29)                1.0852         estimate D2E/DX2                !
 ! R34   R(26,30)                1.392          estimate D2E/DX2                !
 ! R35   R(26,48)                1.5059         estimate D2E/DX2                !
 ! R36   R(28,30)                1.3912         estimate D2E/DX2                !
 ! R37   R(28,52)                1.5048         estimate D2E/DX2                !
 ! R38   R(30,31)                1.0852         estimate D2E/DX2                !
 ! R39   R(32,33)                1.0971         estimate D2E/DX2                !
 ! R40   R(32,34)                1.0976         estimate D2E/DX2                !
 ! R41   R(32,35)                1.0902         estimate D2E/DX2                !
 ! R42   R(36,37)                1.0914         estimate D2E/DX2                !
 ! R43   R(36,38)                1.0977         estimate D2E/DX2                !
 ! R44   R(36,39)                1.0939         estimate D2E/DX2                !
 ! R45   R(40,41)                1.0914         estimate D2E/DX2                !
 ! R46   R(40,42)                1.0951         estimate D2E/DX2                !
 ! R47   R(40,43)                1.0969         estimate D2E/DX2                !
 ! R48   R(44,45)                1.0915         estimate D2E/DX2                !
 ! R49   R(44,46)                1.0977         estimate D2E/DX2                !
 ! R50   R(44,47)                1.0959         estimate D2E/DX2                !
 ! R51   R(48,49)                1.3374         estimate D2E/DX2                !
 ! R52   R(48,50)                1.3395         estimate D2E/DX2                !
 ! R53   R(48,51)                1.3387         estimate D2E/DX2                !
 ! R54   R(52,53)                1.3447         estimate D2E/DX2                !
 ! R55   R(52,54)                1.3365         estimate D2E/DX2                !
 ! R56   R(52,55)                1.3367         estimate D2E/DX2                !
 ! A1    A(2,1,5)              110.0016         estimate D2E/DX2                !
 ! A2    A(2,1,8)              109.3353         estimate D2E/DX2                !
 ! A3    A(2,1,14)             110.5661         estimate D2E/DX2                !
 ! A4    A(5,1,8)              108.6002         estimate D2E/DX2                !
 ! A5    A(5,1,14)             107.7618         estimate D2E/DX2                !
 ! A6    A(8,1,14)             110.5405         estimate D2E/DX2                !
 ! A7    A(1,2,3)              110.9837         estimate D2E/DX2                !
 ! A8    A(1,2,7)              108.1884         estimate D2E/DX2                !
 ! A9    A(1,2,13)             108.4496         estimate D2E/DX2                !
 ! A10   A(3,2,7)              105.9749         estimate D2E/DX2                !
 ! A11   A(3,2,13)             112.6699         estimate D2E/DX2                !
 ! A12   A(7,2,13)             110.4831         estimate D2E/DX2                !
 ! A13   A(2,3,6)              112.2608         estimate D2E/DX2                !
 ! A14   A(2,3,11)             112.9558         estimate D2E/DX2                !
 ! A15   A(2,3,12)             105.7312         estimate D2E/DX2                !
 ! A16   A(6,3,11)             106.5145         estimate D2E/DX2                !
 ! A17   A(6,3,12)             108.2806         estimate D2E/DX2                !
 ! A18   A(11,3,12)            111.0775         estimate D2E/DX2                !
 ! A19   A(5,4,9)              108.9275         estimate D2E/DX2                !
 ! A20   A(5,4,11)             110.5041         estimate D2E/DX2                !
 ! A21   A(5,4,16)             111.7452         estimate D2E/DX2                !
 ! A22   A(9,4,11)             109.0321         estimate D2E/DX2                !
 ! A23   A(9,4,16)             107.986          estimate D2E/DX2                !
 ! A24   A(11,4,16)            108.5777         estimate D2E/DX2                !
 ! A25   A(1,5,4)              111.1845         estimate D2E/DX2                !
 ! A26   A(1,5,10)             108.7054         estimate D2E/DX2                !
 ! A27   A(1,5,15)             110.0814         estimate D2E/DX2                !
 ! A28   A(4,5,10)             108.5814         estimate D2E/DX2                !
 ! A29   A(4,5,15)             107.519          estimate D2E/DX2                !
 ! A30   A(10,5,15)            110.7637         estimate D2E/DX2                !
 ! A31   A(3,11,4)             115.0902         estimate D2E/DX2                !
 ! A32   A(3,12,20)            118.4085         estimate D2E/DX2                !
 ! A33   A(2,13,32)            114.2675         estimate D2E/DX2                !
 ! A34   A(1,14,36)            114.2812         estimate D2E/DX2                !
 ! A35   A(5,15,40)            113.6355         estimate D2E/DX2                !
 ! A36   A(4,16,17)            107.6243         estimate D2E/DX2                !
 ! A37   A(4,16,18)            108.9936         estimate D2E/DX2                !
 ! A38   A(4,16,19)            114.3609         estimate D2E/DX2                !
 ! A39   A(17,16,18)           108.8749         estimate D2E/DX2                !
 ! A40   A(17,16,19)           106.2155         estimate D2E/DX2                !
 ! A41   A(18,16,19)           110.5827         estimate D2E/DX2                !
 ! A42   A(16,19,44)           114.1937         estimate D2E/DX2                !
 ! A43   A(12,20,21)           104.5259         estimate D2E/DX2                !
 ! A44   A(12,20,22)           108.4744         estimate D2E/DX2                !
 ! A45   A(12,20,23)           103.5358         estimate D2E/DX2                !
 ! A46   A(21,20,22)           121.4125         estimate D2E/DX2                !
 ! A47   A(21,20,23)           108.7697         estimate D2E/DX2                !
 ! A48   A(22,20,23)           108.6523         estimate D2E/DX2                !
 ! A49   A(20,23,24)           118.5967         estimate D2E/DX2                !
 ! A50   A(20,23,25)           118.9694         estimate D2E/DX2                !
 ! A51   A(24,23,25)           122.4139         estimate D2E/DX2                !
 ! A52   A(23,24,26)           118.1563         estimate D2E/DX2                !
 ! A53   A(23,24,27)           120.6863         estimate D2E/DX2                !
 ! A54   A(26,24,27)           121.1574         estimate D2E/DX2                !
 ! A55   A(23,25,28)           118.1421         estimate D2E/DX2                !
 ! A56   A(23,25,29)           120.6498         estimate D2E/DX2                !
 ! A57   A(28,25,29)           121.208          estimate D2E/DX2                !
 ! A58   A(24,26,30)           120.8504         estimate D2E/DX2                !
 ! A59   A(24,26,48)           119.8754         estimate D2E/DX2                !
 ! A60   A(30,26,48)           119.2331         estimate D2E/DX2                !
 ! A61   A(25,28,30)           120.9096         estimate D2E/DX2                !
 ! A62   A(25,28,52)           119.2041         estimate D2E/DX2                !
 ! A63   A(30,28,52)           119.7838         estimate D2E/DX2                !
 ! A64   A(26,30,28)           119.5267         estimate D2E/DX2                !
 ! A65   A(26,30,31)           120.2243         estimate D2E/DX2                !
 ! A66   A(28,30,31)           120.249          estimate D2E/DX2                !
 ! A67   A(13,32,33)           111.6149         estimate D2E/DX2                !
 ! A68   A(13,32,34)           110.9177         estimate D2E/DX2                !
 ! A69   A(13,32,35)           106.8331         estimate D2E/DX2                !
 ! A70   A(33,32,34)           109.2879         estimate D2E/DX2                !
 ! A71   A(33,32,35)           108.7513         estimate D2E/DX2                !
 ! A72   A(34,32,35)           109.3659         estimate D2E/DX2                !
 ! A73   A(14,36,37)           106.6992         estimate D2E/DX2                !
 ! A74   A(14,36,38)           110.7044         estimate D2E/DX2                !
 ! A75   A(14,36,39)           111.3602         estimate D2E/DX2                !
 ! A76   A(37,36,38)           109.0582         estimate D2E/DX2                !
 ! A77   A(37,36,39)           109.6249         estimate D2E/DX2                !
 ! A78   A(38,36,39)           109.3359         estimate D2E/DX2                !
 ! A79   A(15,40,41)           106.8404         estimate D2E/DX2                !
 ! A80   A(15,40,42)           110.837          estimate D2E/DX2                !
 ! A81   A(15,40,43)           110.5456         estimate D2E/DX2                !
 ! A82   A(41,40,42)           109.5342         estimate D2E/DX2                !
 ! A83   A(41,40,43)           109.4363         estimate D2E/DX2                !
 ! A84   A(42,40,43)           109.5981         estimate D2E/DX2                !
 ! A85   A(19,44,45)           106.9129         estimate D2E/DX2                !
 ! A86   A(19,44,46)           110.7466         estimate D2E/DX2                !
 ! A87   A(19,44,47)           111.8893         estimate D2E/DX2                !
 ! A88   A(45,44,46)           109.3878         estimate D2E/DX2                !
 ! A89   A(45,44,47)           109.3097         estimate D2E/DX2                !
 ! A90   A(46,44,47)           108.5572         estimate D2E/DX2                !
 ! A91   A(26,48,49)           111.5231         estimate D2E/DX2                !
 ! A92   A(26,48,50)           111.2633         estimate D2E/DX2                !
 ! A93   A(26,48,51)           111.2082         estimate D2E/DX2                !
 ! A94   A(49,48,50)           107.4448         estimate D2E/DX2                !
 ! A95   A(49,48,51)           108.0304         estimate D2E/DX2                !
 ! A96   A(50,48,51)           107.1676         estimate D2E/DX2                !
 ! A97   A(28,52,53)           110.9929         estimate D2E/DX2                !
 ! A98   A(28,52,54)           111.6671         estimate D2E/DX2                !
 ! A99   A(28,52,55)           111.5466         estimate D2E/DX2                !
 ! A100  A(53,52,54)           107.107          estimate D2E/DX2                !
 ! A101  A(53,52,55)           107.1135         estimate D2E/DX2                !
 ! A102  A(54,52,55)           108.189          estimate D2E/DX2                !
 ! D1    D(5,1,2,3)            -50.2017         estimate D2E/DX2                !
 ! D2    D(5,1,2,7)             65.6651         estimate D2E/DX2                !
 ! D3    D(5,1,2,13)          -174.4734         estimate D2E/DX2                !
 ! D4    D(8,1,2,3)             68.9714         estimate D2E/DX2                !
 ! D5    D(8,1,2,7)           -175.1618         estimate D2E/DX2                !
 ! D6    D(8,1,2,13)           -55.3003         estimate D2E/DX2                !
 ! D7    D(14,1,2,3)          -169.1037         estimate D2E/DX2                !
 ! D8    D(14,1,2,7)           -53.2369         estimate D2E/DX2                !
 ! D9    D(14,1,2,13)           66.6246         estimate D2E/DX2                !
 ! D10   D(2,1,5,4)             52.7416         estimate D2E/DX2                !
 ! D11   D(2,1,5,10)           -66.7323         estimate D2E/DX2                !
 ! D12   D(2,1,5,15)           171.7817         estimate D2E/DX2                !
 ! D13   D(8,1,5,4)            -66.8799         estimate D2E/DX2                !
 ! D14   D(8,1,5,10)           173.6462         estimate D2E/DX2                !
 ! D15   D(8,1,5,15)            52.1602         estimate D2E/DX2                !
 ! D16   D(14,1,5,4)           173.3487         estimate D2E/DX2                !
 ! D17   D(14,1,5,10)           53.8748         estimate D2E/DX2                !
 ! D18   D(14,1,5,15)          -67.6112         estimate D2E/DX2                !
 ! D19   D(2,1,14,36)          -98.0017         estimate D2E/DX2                !
 ! D20   D(5,1,14,36)          141.7464         estimate D2E/DX2                !
 ! D21   D(8,1,14,36)           23.2117         estimate D2E/DX2                !
 ! D22   D(1,2,3,6)            172.2925         estimate D2E/DX2                !
 ! D23   D(1,2,3,11)            51.832          estimate D2E/DX2                !
 ! D24   D(1,2,3,12)           -69.8407         estimate D2E/DX2                !
 ! D25   D(7,2,3,6)             55.0642         estimate D2E/DX2                !
 ! D26   D(7,2,3,11)           -65.3963         estimate D2E/DX2                !
 ! D27   D(7,2,3,12)           172.931          estimate D2E/DX2                !
 ! D28   D(13,2,3,6)           -65.8689         estimate D2E/DX2                !
 ! D29   D(13,2,3,11)          173.6706         estimate D2E/DX2                !
 ! D30   D(13,2,3,12)           51.9979         estimate D2E/DX2                !
 ! D31   D(1,2,13,32)         -171.5282         estimate D2E/DX2                !
 ! D32   D(3,2,13,32)           65.2103         estimate D2E/DX2                !
 ! D33   D(7,2,13,32)          -53.1112         estimate D2E/DX2                !
 ! D34   D(2,3,11,4)           -56.0456         estimate D2E/DX2                !
 ! D35   D(6,3,11,4)          -179.7348         estimate D2E/DX2                !
 ! D36   D(12,3,11,4)           62.5617         estimate D2E/DX2                !
 ! D37   D(2,3,12,20)         -160.8923         estimate D2E/DX2                !
 ! D38   D(6,3,12,20)          -40.3928         estimate D2E/DX2                !
 ! D39   D(11,3,12,20)          76.2323         estimate D2E/DX2                !
 ! D40   D(9,4,5,1)             64.936          estimate D2E/DX2                !
 ! D41   D(9,4,5,10)          -175.5162         estimate D2E/DX2                !
 ! D42   D(9,4,5,15)           -55.6273         estimate D2E/DX2                !
 ! D43   D(11,4,5,1)           -54.819          estimate D2E/DX2                !
 ! D44   D(11,4,5,10)           64.7288         estimate D2E/DX2                !
 ! D45   D(11,4,5,15)         -175.3823         estimate D2E/DX2                !
 ! D46   D(16,4,5,1)          -175.8405         estimate D2E/DX2                !
 ! D47   D(16,4,5,10)          -56.2927         estimate D2E/DX2                !
 ! D48   D(16,4,5,15)           63.5962         estimate D2E/DX2                !
 ! D49   D(5,4,11,3)            57.2388         estimate D2E/DX2                !
 ! D50   D(9,4,11,3)           -62.4532         estimate D2E/DX2                !
 ! D51   D(16,4,11,3)         -179.875          estimate D2E/DX2                !
 ! D52   D(5,4,16,17)          -73.4132         estimate D2E/DX2                !
 ! D53   D(5,4,16,18)          168.6611         estimate D2E/DX2                !
 ! D54   D(5,4,16,19)           44.3286         estimate D2E/DX2                !
 ! D55   D(9,4,16,17)           46.3657         estimate D2E/DX2                !
 ! D56   D(9,4,16,18)          -71.56           estimate D2E/DX2                !
 ! D57   D(9,4,16,19)          164.1075         estimate D2E/DX2                !
 ! D58   D(11,4,16,17)         164.453          estimate D2E/DX2                !
 ! D59   D(11,4,16,18)          46.5272         estimate D2E/DX2                !
 ! D60   D(11,4,16,19)         -77.8053         estimate D2E/DX2                !
 ! D61   D(1,5,15,40)          108.464          estimate D2E/DX2                !
 ! D62   D(4,5,15,40)         -130.279          estimate D2E/DX2                !
 ! D63   D(10,5,15,40)         -11.7867         estimate D2E/DX2                !
 ! D64   D(3,12,20,21)         166.9392         estimate D2E/DX2                !
 ! D65   D(3,12,20,22)          36.0783         estimate D2E/DX2                !
 ! D66   D(3,12,20,23)         -79.2159         estimate D2E/DX2                !
 ! D67   D(2,13,32,33)         -73.131          estimate D2E/DX2                !
 ! D68   D(2,13,32,34)          48.997          estimate D2E/DX2                !
 ! D69   D(2,13,32,35)         168.1096         estimate D2E/DX2                !
 ! D70   D(1,14,36,37)        -179.4605         estimate D2E/DX2                !
 ! D71   D(1,14,36,38)         -60.9168         estimate D2E/DX2                !
 ! D72   D(1,14,36,39)          60.9462         estimate D2E/DX2                !
 ! D73   D(5,15,40,41)         179.7622         estimate D2E/DX2                !
 ! D74   D(5,15,40,42)         -60.9627         estimate D2E/DX2                !
 ! D75   D(5,15,40,43)          60.7674         estimate D2E/DX2                !
 ! D76   D(4,16,19,44)          73.9442         estimate D2E/DX2                !
 ! D77   D(17,16,19,44)       -167.5128         estimate D2E/DX2                !
 ! D78   D(18,16,19,44)        -49.5376         estimate D2E/DX2                !
 ! D79   D(16,19,44,45)        165.0724         estimate D2E/DX2                !
 ! D80   D(16,19,44,46)         45.9808         estimate D2E/DX2                !
 ! D81   D(16,19,44,47)        -75.2812         estimate D2E/DX2                !
 ! D82   D(12,20,23,24)        -81.5753         estimate D2E/DX2                !
 ! D83   D(12,20,23,25)         96.8383         estimate D2E/DX2                !
 ! D84   D(21,20,23,24)         29.1744         estimate D2E/DX2                !
 ! D85   D(21,20,23,25)       -152.412          estimate D2E/DX2                !
 ! D86   D(22,20,23,24)        163.2573         estimate D2E/DX2                !
 ! D87   D(22,20,23,25)        -18.3292         estimate D2E/DX2                !
 ! D88   D(20,23,24,26)        178.1604         estimate D2E/DX2                !
 ! D89   D(20,23,24,27)         -1.8756         estimate D2E/DX2                !
 ! D90   D(25,23,24,26)         -0.1956         estimate D2E/DX2                !
 ! D91   D(25,23,24,27)        179.7685         estimate D2E/DX2                !
 ! D92   D(20,23,25,28)       -178.3082         estimate D2E/DX2                !
 ! D93   D(20,23,25,29)          1.7594         estimate D2E/DX2                !
 ! D94   D(24,23,25,28)          0.0418         estimate D2E/DX2                !
 ! D95   D(24,23,25,29)       -179.8906         estimate D2E/DX2                !
 ! D96   D(23,24,26,30)          0.0832         estimate D2E/DX2                !
 ! D97   D(23,24,26,48)        177.7339         estimate D2E/DX2                !
 ! D98   D(27,24,26,30)       -179.8807         estimate D2E/DX2                !
 ! D99   D(27,24,26,48)         -2.23           estimate D2E/DX2                !
 ! D100  D(23,25,28,30)          0.2283         estimate D2E/DX2                !
 ! D101  D(23,25,28,52)        176.539          estimate D2E/DX2                !
 ! D102  D(29,25,28,30)       -179.8396         estimate D2E/DX2                !
 ! D103  D(29,25,28,52)         -3.529          estimate D2E/DX2                !
 ! D104  D(24,26,30,28)          0.1775         estimate D2E/DX2                !
 ! D105  D(24,26,30,31)       -179.8138         estimate D2E/DX2                !
 ! D106  D(48,26,30,28)       -177.4881         estimate D2E/DX2                !
 ! D107  D(48,26,30,31)          2.5206         estimate D2E/DX2                !
 ! D108  D(24,26,48,49)         25.1176         estimate D2E/DX2                !
 ! D109  D(24,26,48,50)        -94.834          estimate D2E/DX2                !
 ! D110  D(24,26,48,51)        145.7766         estimate D2E/DX2                !
 ! D111  D(30,26,48,49)       -157.1936         estimate D2E/DX2                !
 ! D112  D(30,26,48,50)         82.8548         estimate D2E/DX2                !
 ! D113  D(30,26,48,51)        -36.5346         estimate D2E/DX2                !
 ! D114  D(25,28,30,26)         -0.3376         estimate D2E/DX2                !
 ! D115  D(25,28,30,31)        179.6537         estimate D2E/DX2                !
 ! D116  D(52,28,30,26)       -176.6271         estimate D2E/DX2                !
 ! D117  D(52,28,30,31)          3.3642         estimate D2E/DX2                !
 ! D118  D(25,28,52,53)        -86.8253         estimate D2E/DX2                !
 ! D119  D(25,28,52,54)        153.7375         estimate D2E/DX2                !
 ! D120  D(25,28,52,55)         32.5402         estimate D2E/DX2                !
 ! D121  D(30,28,52,53)         89.5276         estimate D2E/DX2                !
 ! D122  D(30,28,52,54)        -29.9096         estimate D2E/DX2                !
 ! D123  D(30,28,52,55)       -151.1069         estimate D2E/DX2                !
 --------------------------------------------------------------------------------
 Trust Radius=3.00D-01 FncErr=1.00D-07 GrdErr=1.00D-06 EigMax=2.50D+02 EigMin=1.00D-04
 Number of steps in this run=    291 maximum allowed number of steps=    330.
 GradGradGradGradGradGradGradGradGradGradGradGradGradGradGradGradGradGrad

 Leave Link  103 at Sat Jun 15 07:59:58 2019, MaxMem=  6442450944 cpu:               2.6 elap:               0.1
 (Enter /home/ekwan/sw/g16/l202.exe)
 Stoichiometry    C18H22F6O8S
 Framework group  C1[X(C18H22F6O8S)]
 Deg. of freedom   159
 Full point group                 C1      NOp   1
 Largest Abelian subgroup         C1      NOp   1
 Largest concise Abelian subgroup C1      NOp   1
                         Standard orientation:                         
 ---------------------------------------------------------------------
 Center     Atomic      Atomic             Coordinates (Angstroms)
 Number     Number       Type             X           Y           Z
 ---------------------------------------------------------------------
      1          6           0        3.352828    0.357260    0.626761
      2          6           0        3.311665   -0.481076   -0.648198
      3          6           0        1.865531   -0.809584   -1.043509
      4          6           0        1.005875    1.094139    0.098142
      5          6           0        2.407895    1.545020    0.499988
      6          1           0        1.803356   -1.291534   -2.020846
      7          1           0        3.721445    0.126279   -1.473103
      8          1           0        3.029130   -0.259508    1.479106
      9          1           0        0.582118    0.481672    0.908010
     10          1           0        2.794004    2.221413   -0.275551
     11          8           0        1.054750    0.310913   -1.104979
     12          8           0        1.387561   -1.744869   -0.043975
     13          8           0        4.090559   -1.627398   -0.450042
     14          8           0        4.649777    0.861413    0.845826
     15          8           0        2.300825    2.211923    1.736014
     16          6           0        0.076342    2.278629   -0.131384
     17          1           0       -0.171789    2.698761    0.846303
     18          1           0       -0.847042    1.921463   -0.609811
     19          8           0        0.645968    3.327613   -0.876797
     20         16           0        0.099936   -2.647504   -0.392728
     21          8           0        0.077712   -3.662050    0.638880
     22          8           0        0.152975   -3.000431   -1.800340
     23          6           0       -1.265555   -1.540865   -0.135556
     24          6           0       -1.730024   -1.346811    1.160783
     25          6           0       -1.808118   -0.876740   -1.227973
     26          6           0       -2.773759   -0.449066    1.356326
     27          1           0       -1.287555   -1.883816    1.993994
     28          6           0       -2.853260    0.012740   -1.002145
     29          1           0       -1.424456   -1.051311   -2.227999
     30          6           0       -3.338077    0.234299    0.282900
     31          1           0       -4.150296    0.934934    0.447523
     32          6           0        4.293843   -2.402302   -1.618372
     33          1           0        3.384439   -2.943544   -1.907640
     34          1           0        4.621940   -1.771693   -2.454696
     35          1           0        5.073739   -3.127272   -1.384617
     36          6           0        5.420779    0.106674    1.763663
     37          1           0        6.387254    0.606797    1.847055
     38          1           0        4.940578    0.087923    2.750549
     39          1           0        5.566926   -0.918943    1.412432
     40          6           0        2.946378    3.473268    1.758818
     41          1           0        2.791832    3.889578    2.755800
     42          1           0        4.019570    3.365090    1.569493
     43          1           0        2.506627    4.144364    1.010842
     44          6           0        0.777427    3.052201   -2.259451
     45          1           0        0.967526    4.005202   -2.756372
     46          1           0       -0.145668    2.611385   -2.657616
     47          1           0        1.607391    2.365871   -2.462233
     48          6           0       -3.340984   -0.247356    2.736602
     49          9           0       -2.445509   -0.546914    3.683659
     50          9           0       -4.414117   -1.023002    2.938905
     51          9           0       -3.729598    1.020489    2.919961
     52          6           0       -3.406655    0.803677   -2.156531
     53          9           0       -2.711186    1.939923   -2.339387
     54          9           0       -4.680625    1.151295   -1.950862
     55          9           0       -3.341613    0.114363   -3.299926
 ---------------------------------------------------------------------
 Rotational constants (GHZ):           0.1518616           0.0859387           0.0842691
 Leave Link  202 at Sat Jun 15 07:59:58 2019, MaxMem=  6442450944 cpu:               4.5 elap:               0.2
 (Enter /home/ekwan/sw/g16/l301.exe)
 Standard basis: 6-31G(d) (6D, 7F)
 Centers:      12     22     21
 SP 1 1.00
     Exponent=  8.4500000000D-02 Coefficients=  1.0000000000D+00  1.0000000000D+00
 ****
 Ernie: Thresh=  0.10000D-02 Tol=  0.10000D-05 Strict=F.
 There are   555 symmetry adapted cartesian basis functions of A   symmetry.
 There are   555 symmetry adapted basis functions of A   symmetry.
   555 basis functions,  1048 primitive gaussians,   555 cartesian basis functions
   132 alpha electrons      132 beta electrons
       nuclear repulsion energy      4368.5597450097 Hartrees.
 IExCor= 4336 DFT=T Ex+Corr=M062X ExCW=0 ScaHFX=  0.540000
 ScaDFX=  1.000000  1.000000  1.000000  1.000000 ScalE2=  1.000000  1.000000
 IRadAn=      5 IRanWt=     -1 IRanGd=            0 ICorTp=0 IEmpDi=131
 NAtoms=   55 NActive=   55 NUniq=   55 SFac= 1.00D+00 NAtFMM=   60 NAOKFM=F Big=F
 Integral buffers will be    131072 words long.
 Raffenetti 2 integral format.
 Two-electron integral symmetry is turned on.
 R6Disp:  Grimme-D3 Dispersion energy=       -0.0059135181 Hartrees.
 Nuclear repulsion after empirical dispersion term =     4368.5538314916 Hartrees.
 ------------------------------------------------------------------------------
 Polarizable Continuum Model (PCM)
 =================================
 Model                : PCM.
 Atomic radii         : UFF (Universal Force Field).
 Polarization charges : Total charges.
 Charge compensation  : None.
 Solution method      : On-the-fly selection.
 Cavity type          : Scaled VdW (van der Waals Surface) (Alpha=1.100).
 Cavity algorithm     : GePol (No added spheres)
                        Default sphere list used, NSphG=   55.
                        Lebedev-Laikov grids with approx.  5.0 points / Ang**2.
                        Smoothing algorithm: York/Karplus (Gamma=1.0000).
                        Polarization charges: spherical gaussians, with
                                              point-specific exponents (IZeta= 3).
                        Self-potential: point-specific (ISelfS= 7).
                        Self-field    : sphere-specific E.n sum rule (ISelfD= 2).
 1st derivatives      : Analytical E(r).r(x)/FMM algorithm (CHGder, D1EAlg=3).
                        Cavity 1st derivative terms included.
 Solvent              : TetraHydroFuran, Eps=   7.425700 Eps(inf)=   1.974025
 ------------------------------------------------------------------------------
 GePol: Number of generator spheres                  =      55
 GePol: Total number of spheres                      =      55
 GePol: Number of exposed spheres                    =      55 (100.00%)
 GePol: Number of points                             =    3890
 GePol: Average weight of points                     =       0.13
 GePol: Minimum weight of points                     =   0.61D-11
 GePol: Maximum weight of points                     =    0.20577
 GePol: Number of points with low weight             =     230
 GePol: Fraction of low-weight points (<1% of avg)   =       5.91%
 GePol: Cavity surface area                          =    486.825 Ang**2
 GePol: Cavity volume                                =    570.280 Ang**3
 Leave Link  301 at Sat Jun 15 07:59:58 2019, MaxMem=  6442450944 cpu:               7.5 elap:               0.3
 (Enter /home/ekwan/sw/g16/l302.exe)
 NPDir=0 NMtPBC=     1 NCelOv=     1 NCel=       1 NClECP=     1 NCelD=      1
         NCelK=      1 NCelE2=     1 NClLst=     1 CellRange=     0.0.
 One-electron integrals computed using PRISM.
 One-electron integral symmetry used in STVInt
 NBasis=   555 RedAO= T EigKep=  4.01D-04  NBF=   555
 NBsUse=   555 1.00D-06 EigRej= -1.00D+00 NBFU=   555
 Precomputing XC quadrature grid using
 IXCGrd= 4 IRadAn=           5 IRanWt=          -1 IRanGd=           0 AccXCQ= 0.00D+00.
 Generated NRdTot=       0 NPtTot=           0 NUsed=           0 NTot=          32
 NSgBfM=   543   543   543   543   543 MxSgAt=    55 MxSgA2=    55.
 Leave Link  302 at Sat Jun 15 08:00:06 2019, MaxMem=  6442450944 cpu:             212.3 elap:               7.4
 (Enter /home/ekwan/sw/g16/l303.exe)
 DipDrv:  MaxL=1.
 Leave Link  303 at Sat Jun 15 08:00:06 2019, MaxMem=  6442450944 cpu:              10.0 elap:               0.4
 (Enter /home/ekwan/sw/g16/l401.exe)
 ExpMin= 8.45D-02 ExpMax= 2.19D+04 ExpMxC= 3.30D+03 IAcc=3 IRadAn=         5 AccDes= 0.00D+00
 Harris functional with IExCor= 1009 and IRadAn=       5 diagonalized for initial guess.
 HarFok:  IExCor= 1009 AccDes= 0.00D+00 IRadAn=         5 IDoV= 1 UseB2=F ITyADJ=14
 ICtDFT=  3500011 ScaDFX=  1.000000  1.000000  1.000000  1.000000
 FoFCou: FMM=F IPFlag=           0 FMFlag=      100000 FMFlg1=           0
         NFxFlg=           0 DoJE=T BraDBF=F KetDBF=T FulRan=T
         wScrn=  0.000000 ICntrl=       500 IOpCl=  0 I1Cent=   200000004 NGrid=           0
         NMat0=    1 NMatS0=      1 NMatT0=    0 NMatD0=    1 NMtDS0=    0 NMtDT0=    0
 Petite list used in FoFCou.
 Harris En= -2296.15804322819    
 JPrj=0 DoOrth=F DoCkMO=F.
 Leave Link  401 at Sat Jun 15 08:00:14 2019, MaxMem=  6442450944 cpu:             257.9 elap:               8.4
 (Enter /home/ekwan/sw/g16/l502.exe)
 Integral symmetry usage will be decided dynamically.
 Closed shell SCF:
 Using DIIS extrapolation, IDIIS=  1040.
 NGot=  6442450944 LenX=  6441811192 LenY=  6441502612
 Requested convergence on RMS density matrix=1.00D-08 within 128 cycles.
 Requested convergence on MAX density matrix=1.00D-06.
 Requested convergence on             energy=1.00D-06.
 No special actions if energy rises.
 Fock matrices will be formed incrementally for  20 cycles.

 Cycle   1  Pass 1  IDiag  1:
 FoFJK:  IHMeth= 1 ICntrl=       0 DoSepK=F KAlg= 0 I1Cent=           0 FoldK=F
 IRaf= 720000000 NMat=       1 IRICut=       1 DoRegI=T DoRafI=F ISym2E= 0 IDoP0=0 IntGTp=1.
 FoFCou: FMM=F IPFlag=           0 FMFlag=      100000 FMFlg1=           0
         NFxFlg=           0 DoJE=F BraDBF=F KetDBF=F FulRan=T
         wScrn=  0.000000 ICntrl=         0 IOpCl=  0 I1Cent=           0 NGrid=           0
         NMat0=    1 NMatS0=      1 NMatT0=    0 NMatD0=    1 NMtDS0=    0 NMtDT0=    0
 Symmetry not used in FoFCou.
 Inv3:  Mode=1 IEnd=    45396300.
 Iteration    1 A*A^-1 deviation from unit magnitude is 6.00D-15 for   3890.
 Iteration    1 A*A^-1 deviation from orthogonality  is 3.30D-15 for   3432    211.
 Iteration    1 A^-1*A deviation from unit magnitude is 6.00D-15 for   3890.
 Iteration    1 A^-1*A deviation from orthogonality  is 1.55D-14 for   3402   3320.
 E= -2296.70701969499    
 DIIS: error= 2.20D-02 at cycle   1 NSaved=   1.
 NSaved= 1 IEnMin= 1 EnMin= -2296.70701969499     IErMin= 1 ErrMin= 2.20D-02
 ErrMax= 2.20D-02  0.00D+00 EMaxC= 1.00D-01 BMatC= 9.25D-01 BMatP= 9.25D-01
 IDIUse=3 WtCom= 7.80D-01 WtEn= 2.20D-01
 Coeff-Com:  0.100D+01
 Coeff-En:   0.100D+01
 Coeff:      0.100D+01
 Gap=     0.283 Goal=   None    Shift=    0.000
 GapD=    0.283 DampG=1.000 DampE=0.500 DampFc=0.5000 IDamp=-1.
 Damping current iteration by 5.00D-01
 RMSDP=3.17D-03 MaxDP=3.70D-01              OVMax= 1.34D-01

 Cycle   2  Pass 1  IDiag  1:
 RMSU=  1.58D-03    CP:  9.96D-01
 E= -2297.01328307772     Delta-E=       -0.306263382731 Rises=F Damp=T
 DIIS: error= 9.16D-03 at cycle   2 NSaved=   2.
 NSaved= 2 IEnMin= 2 EnMin= -2297.01328307772     IErMin= 2 ErrMin= 9.16D-03
 ErrMax= 9.16D-03  0.00D+00 EMaxC= 1.00D-01 BMatC= 8.50D-02 BMatP= 9.25D-01
 IDIUse=3 WtCom= 9.08D-01 WtEn= 9.16D-02
 Coeff-Com: -0.193D-01 0.102D+01
 Coeff-En:   0.880D-02 0.991D+00
 Coeff:     -0.167D-01 0.102D+01
 Gap=     0.304 Goal=   None    Shift=    0.000
 RMSDP=9.01D-04 MaxDP=9.30D-02 DE=-3.06D-01 OVMax= 9.69D-02

 Cycle   3  Pass 1  IDiag  1:
 RMSU=  8.61D-04    CP:  9.89D-01  8.48D-01
 E= -2297.33916350916     Delta-E=       -0.325880431436 Rises=F Damp=F
 DIIS: error= 5.59D-03 at cycle   3 NSaved=   3.
 NSaved= 3 IEnMin= 3 EnMin= -2297.33916350916     IErMin= 3 ErrMin= 5.59D-03
 ErrMax= 5.59D-03  0.00D+00 EMaxC= 1.00D-01 BMatC= 4.09D-02 BMatP= 8.50D-02
 IDIUse=3 WtCom= 9.44D-01 WtEn= 5.59D-02
 Coeff-Com: -0.938D-01 0.422D+00 0.672D+00
 Coeff-En:   0.000D+00 0.000D+00 0.100D+01
 Coeff:     -0.885D-01 0.399D+00 0.690D+00
 Gap=     0.270 Goal=   None    Shift=    0.000
 RMSDP=5.22D-04 MaxDP=4.25D-02 DE=-3.26D-01 OVMax= 4.30D-02

 Cycle   4  Pass 1  IDiag  1:
 RMSU=  3.19D-04    CP:  9.91D-01  1.01D+00  6.31D-01
 E= -2297.36423123651     Delta-E=       -0.025067727350 Rises=F Damp=F
 DIIS: error= 2.00D-03 at cycle   4 NSaved=   4.
 NSaved= 4 IEnMin= 4 EnMin= -2297.36423123651     IErMin= 4 ErrMin= 2.00D-03
 ErrMax= 2.00D-03  0.00D+00 EMaxC= 1.00D-01 BMatC= 8.12D-03 BMatP= 4.09D-02
 IDIUse=3 WtCom= 9.80D-01 WtEn= 2.00D-02
 Coeff-Com: -0.425D-01 0.105D+00 0.360D+00 0.577D+00
 Coeff-En:   0.000D+00 0.000D+00 0.147D+00 0.853D+00
 Coeff:     -0.416D-01 0.103D+00 0.356D+00 0.582D+00
 Gap=     0.273 Goal=   None    Shift=    0.000
 RMSDP=1.88D-04 MaxDP=1.15D-02 DE=-2.51D-02 OVMax= 1.53D-02

 Cycle   5  Pass 1  IDiag  1:
 RMSU=  6.83D-05    CP:  9.91D-01  9.87D-01  7.50D-01  5.76D-01
 E= -2297.37067647490     Delta-E=       -0.006445238393 Rises=F Damp=F
 DIIS: error= 4.06D-04 at cycle   5 NSaved=   5.
 NSaved= 5 IEnMin= 5 EnMin= -2297.37067647490     IErMin= 5 ErrMin= 4.06D-04
 ErrMax= 4.06D-04  0.00D+00 EMaxC= 1.00D-01 BMatC= 2.93D-04 BMatP= 8.12D-03
 IDIUse=3 WtCom= 9.96D-01 WtEn= 4.06D-03
 Coeff-Com: -0.133D-01 0.259D-01 0.116D+00 0.253D+00 0.619D+00
 Coeff-En:   0.000D+00 0.000D+00 0.000D+00 0.000D+00 0.100D+01
 Coeff:     -0.132D-01 0.258D-01 0.115D+00 0.252D+00 0.620D+00
 Gap=     0.272 Goal=   None    Shift=    0.000
 RMSDP=3.25D-05 MaxDP=2.37D-03 DE=-6.45D-03 OVMax= 3.63D-03

 Cycle   6  Pass 1  IDiag  1:
 RMSU=  2.05D-05    CP:  9.90D-01  9.92D-01  7.52D-01  6.26D-01  7.41D-01
 E= -2297.37090790984     Delta-E=       -0.000231434939 Rises=F Damp=F
 DIIS: error= 1.45D-04 at cycle   6 NSaved=   6.
 NSaved= 6 IEnMin= 6 EnMin= -2297.37090790984     IErMin= 6 ErrMin= 1.45D-04
 ErrMax= 1.45D-04  0.00D+00 EMaxC= 1.00D-01 BMatC= 1.82D-05 BMatP= 2.93D-04
 IDIUse=3 WtCom= 9.99D-01 WtEn= 1.45D-03
 Coeff-Com: -0.188D-02 0.198D-02 0.137D-01 0.489D-01 0.242D+00 0.695D+00
 Coeff-En:   0.000D+00 0.000D+00 0.000D+00 0.000D+00 0.000D+00 0.100D+01
 Coeff:     -0.188D-02 0.198D-02 0.136D-01 0.488D-01 0.242D+00 0.696D+00
 Gap=     0.273 Goal=   None    Shift=    0.000
 RMSDP=8.96D-06 MaxDP=5.56D-04 DE=-2.31D-04 OVMax= 1.18D-03

 Cycle   7  Pass 1  IDiag  1:
 RMSU=  6.57D-06    CP:  9.90D-01  9.91D-01  7.53D-01  6.32D-01  7.90D-01
                    CP:  7.90D-01
 E= -2297.37092348546     Delta-E=       -0.000015575616 Rises=F Damp=F
 DIIS: error= 3.70D-05 at cycle   7 NSaved=   7.
 NSaved= 7 IEnMin= 7 EnMin= -2297.37092348546     IErMin= 7 ErrMin= 3.70D-05
 ErrMax= 3.70D-05  0.00D+00 EMaxC= 1.00D-01 BMatC= 1.09D-06 BMatP= 1.82D-05
 IDIUse=1 WtCom= 1.00D+00 WtEn= 0.00D+00
 Coeff-Com:  0.700D-03-0.196D-02-0.808D-02-0.102D-01 0.143D-01 0.197D+00
 Coeff-Com:  0.809D+00
 Coeff:      0.700D-03-0.196D-02-0.808D-02-0.102D-01 0.143D-01 0.197D+00
 Coeff:      0.809D+00
 Gap=     0.273 Goal=   None    Shift=    0.000
 RMSDP=3.19D-06 MaxDP=2.10D-04 DE=-1.56D-05 OVMax= 4.28D-04

 Cycle   8  Pass 1  IDiag  1:
 RMSU=  2.19D-06    CP:  9.90D-01  9.91D-01  7.53D-01  6.33D-01  8.09D-01
                    CP:  8.78D-01  9.38D-01
 E= -2297.37092460029     Delta-E=       -0.000001114838 Rises=F Damp=F
 DIIS: error= 8.49D-06 at cycle   8 NSaved=   8.
 NSaved= 8 IEnMin= 8 EnMin= -2297.37092460029     IErMin= 8 ErrMin= 8.49D-06
 ErrMax= 8.49D-06  0.00D+00 EMaxC= 1.00D-01 BMatC= 1.98D-07 BMatP= 1.09D-06
 IDIUse=1 WtCom= 1.00D+00 WtEn= 0.00D+00
 Coeff-Com:  0.448D-03-0.913D-03-0.467D-02-0.912D-02-0.182D-01 0.123D-01
 Coeff-Com:  0.348D+00 0.672D+00
 Coeff:      0.448D-03-0.913D-03-0.467D-02-0.912D-02-0.182D-01 0.123D-01
 Coeff:      0.348D+00 0.672D+00
 Gap=     0.273 Goal=   None    Shift=    0.000
 RMSDP=1.03D-06 MaxDP=5.19D-05 DE=-1.11D-06 OVMax= 8.53D-05

 Cycle   9  Pass 1  IDiag  1:
 RMSU=  6.85D-07    CP:  9.90D-01  9.91D-01  7.53D-01  6.33D-01  8.12D-01
                    CP:  8.86D-01  1.03D+00  8.28D-01
 E= -2297.37092478156     Delta-E=       -0.000000181261 Rises=F Damp=F
 DIIS: error= 4.57D-06 at cycle   9 NSaved=   9.
 NSaved= 9 IEnMin= 9 EnMin= -2297.37092478156     IErMin= 9 ErrMin= 4.57D-06
 ErrMax= 4.57D-06  0.00D+00 EMaxC= 1.00D-01 BMatC= 1.87D-08 BMatP= 1.98D-07
 IDIUse=1 WtCom= 1.00D+00 WtEn= 0.00D+00
 Coeff-Com:  0.120D-03-0.192D-03-0.118D-02-0.287D-02-0.929D-02-0.116D-01
 Coeff-Com:  0.745D-01 0.274D+00 0.677D+00
 Coeff:      0.120D-03-0.192D-03-0.118D-02-0.287D-02-0.929D-02-0.116D-01
 Coeff:      0.745D-01 0.274D+00 0.677D+00
 Gap=     0.273 Goal=   None    Shift=    0.000
 RMSDP=3.74D-07 MaxDP=2.30D-05 DE=-1.81D-07 OVMax= 5.35D-05

 Cycle  10  Pass 1  IDiag  1:
 RMSU=  2.72D-07    CP:  9.90D-01  9.91D-01  7.53D-01  6.33D-01  8.13D-01
                    CP:  8.90D-01  1.05D+00  8.90D-01  8.57D-01
 E= -2297.37092479845     Delta-E=       -0.000000016898 Rises=F Damp=F
 DIIS: error= 1.36D-06 at cycle  10 NSaved=  10.
 NSaved=10 IEnMin=10 EnMin= -2297.37092479845     IErMin=10 ErrMin= 1.36D-06
 ErrMax= 1.36D-06  0.00D+00 EMaxC= 1.00D-01 BMatC= 3.08D-09 BMatP= 1.87D-08
 IDIUse=1 WtCom= 1.00D+00 WtEn= 0.00D+00
 Coeff-Com: -0.191D-04 0.567D-04 0.257D-03 0.277D-03-0.121D-02-0.664D-02
 Coeff-Com: -0.271D-01-0.367D-02 0.289D+00 0.749D+00
 Coeff:     -0.191D-04 0.567D-04 0.257D-03 0.277D-03-0.121D-02-0.664D-02
 Coeff:     -0.271D-01-0.367D-02 0.289D+00 0.749D+00
 Gap=     0.273 Goal=   None    Shift=    0.000
 RMSDP=1.62D-07 MaxDP=9.76D-06 DE=-1.69D-08 OVMax= 3.33D-05

 Cycle  11  Pass 1  IDiag  1:
 RMSU=  9.00D-08    CP:  9.90D-01  9.91D-01  7.53D-01  6.33D-01  8.13D-01
                    CP:  8.92D-01  1.05D+00  9.13D-01  1.00D+00  8.67D-01
 E= -2297.37092480192     Delta-E=       -0.000000003464 Rises=F Damp=F
 DIIS: error= 7.55D-07 at cycle  11 NSaved=  11.
 NSaved=11 IEnMin=11 EnMin= -2297.37092480192     IErMin=11 ErrMin= 7.55D-07
 ErrMax= 7.55D-07  0.00D+00 EMaxC= 1.00D-01 BMatC= 3.50D-10 BMatP= 3.08D-09
 IDIUse=1 WtCom= 1.00D+00 WtEn= 0.00D+00
 Coeff-Com: -0.183D-04 0.389D-04 0.224D-03 0.409D-03 0.416D-03-0.134D-02
 Coeff-Com: -0.186D-01-0.319D-01 0.449D-01 0.309D+00 0.696D+00
 Coeff:     -0.183D-04 0.389D-04 0.224D-03 0.409D-03 0.416D-03-0.134D-02
 Coeff:     -0.186D-01-0.319D-01 0.449D-01 0.309D+00 0.696D+00
 Gap=     0.273 Goal=   None    Shift=    0.000
 RMSDP=4.97D-08 MaxDP=3.11D-06 DE=-3.46D-09 OVMax= 7.58D-06

 Cycle  12  Pass 1  IDiag  1:
 RMSU=  3.48D-08    CP:  9.90D-01  9.91D-01  7.53D-01  6.33D-01  8.13D-01
                    CP:  8.93D-01  1.06D+00  9.20D-01  1.02D+00  9.54D-01
                    CP:  8.66D-01
 E= -2297.37092480231     Delta-E=       -0.000000000388 Rises=F Damp=F
 DIIS: error= 2.10D-07 at cycle  12 NSaved=  12.
 NSaved=12 IEnMin=12 EnMin= -2297.37092480231     IErMin=12 ErrMin= 2.10D-07
 ErrMax= 2.10D-07  0.00D+00 EMaxC= 1.00D-01 BMatC= 4.90D-11 BMatP= 3.50D-10
 IDIUse=1 WtCom= 1.00D+00 WtEn= 0.00D+00
 Coeff-Com: -0.423D-05 0.736D-05 0.570D-04 0.129D-03 0.320D-03 0.425D-03
 Coeff-Com: -0.363D-02-0.128D-01-0.213D-01 0.243D-01 0.302D+00 0.711D+00
 Coeff:     -0.423D-05 0.736D-05 0.570D-04 0.129D-03 0.320D-03 0.425D-03
 Coeff:     -0.363D-02-0.128D-01-0.213D-01 0.243D-01 0.302D+00 0.711D+00
 Gap=     0.273 Goal=   None    Shift=    0.000
 RMSDP=1.80D-08 MaxDP=9.39D-07 DE=-3.88D-10 OVMax= 2.59D-06

 Cycle  13  Pass 1  IDiag  1:
 RMSU=  1.10D-08    CP:  9.90D-01  9.91D-01  7.53D-01  6.33D-01  8.13D-01
                    CP:  8.93D-01  1.06D+00  9.20D-01  1.03D+00  9.74D-01
                    CP:  9.67D-01  8.26D-01
 E= -2297.37092480230     Delta-E=        0.000000000005 Rises=F Damp=F
 DIIS: error= 5.23D-08 at cycle  13 NSaved=  13.
 NSaved=13 IEnMin=12 EnMin= -2297.37092480231     IErMin=13 ErrMin= 5.23D-08
 ErrMax= 5.23D-08  0.00D+00 EMaxC= 1.00D-01 BMatC= 4.61D-12 BMatP= 4.90D-11
 IDIUse=1 WtCom= 1.00D+00 WtEn= 0.00D+00
 Coeff-Com:  0.273D-06-0.111D-05 0.130D-05 0.100D-04 0.820D-04 0.302D-03
 Coeff-Com:  0.349D-03-0.183D-02-0.119D-01-0.218D-01 0.440D-01 0.280D+00
 Coeff-Com:  0.711D+00
 Coeff:      0.273D-06-0.111D-05 0.130D-05 0.100D-04 0.820D-04 0.302D-03
 Coeff:      0.349D-03-0.183D-02-0.119D-01-0.218D-01 0.440D-01 0.280D+00
 Coeff:      0.711D+00
 Gap=     0.273 Goal=   None    Shift=    0.000
 RMSDP=5.55D-09 MaxDP=2.66D-07 DE= 5.46D-12 OVMax= 1.08D-06

 Error on total polarization charges =  0.01003
 SCF Done:  E(RM062X) =  -2297.37092480     A.U. after   13 cycles
            NFock= 13  Conv=0.56D-08     -V/T= 2.0069
 KE= 2.281604498467D+03 PE=-1.414184992899D+04 EE= 5.194320674226D+03
 Leave Link  502 at Sat Jun 15 08:06:56 2019, MaxMem=  6442450944 cpu:           12190.0 elap:             401.9
 (Enter /home/ekwan/sw/g16/l701.exe)
 ... and contract with generalized density number  0.
 Compute integral first derivatives.
 R6Disp: Adding Grimme-D3 dispersion energy 1st derivatives to the gradient.
 D1PCM: PCM CHGder 1st derivatives, ID1Alg=3 FixD1E=F DoIter=F DoCFld=F I1PDM=0.
 GePol: Maximum number of non-zero 1st derivatives   =     216
 Leave Link  701 at Sat Jun 15 08:07:08 2019, MaxMem=  6442450944 cpu:             321.9 elap:              11.2
 (Enter /home/ekwan/sw/g16/l702.exe)
 L702 exits ... SP integral derivatives will be done elsewhere.
 Leave Link  702 at Sat Jun 15 08:07:08 2019, MaxMem=  6442450944 cpu:               2.6 elap:               0.3
 (Enter /home/ekwan/sw/g16/l703.exe)
 Integral derivatives from FoFJK, PRISM(SPDF).
 Compute integral first derivatives, UseDBF=F ICtDFT=           0.
 Calling FoFJK, ICntrl=      2127 FMM=F ISym2X=0 I1Cent= 0 IOpClX= 0 NMat=1 NMatS=1 NMatT=0.
 FoFJK:  IHMeth= 1 ICntrl=    2127 DoSepK=F KAlg= 0 I1Cent=           0 FoldK=F
 IRaf=         0 NMat=       1 IRICut=       1 DoRegI=T DoRafI=F ISym2E= 0 IDoP0=0 IntGTp=1.
 FoFCou: FMM=F IPFlag=           0 FMFlag=      100000 FMFlg1=         800
         NFxFlg=           0 DoJE=F BraDBF=F KetDBF=F FulRan=T
         wScrn=  0.000000 ICntrl=      2127 IOpCl=  0 I1Cent=           0 NGrid=           0
         NMat0=    1 NMatS0=      1 NMatT0=    0 NMatD0=    1 NMtDS0=    0 NMtDT0=    0
 Symmetry not used in FoFCou.
 Leave Link  703 at Sat Jun 15 08:07:56 2019, MaxMem=  6442450944 cpu:            1450.3 elap:              47.8
 (Enter /home/ekwan/sw/g16/l716.exe)
 Dipole        = 3.31993319D-01 1.25415819D+00-6.92730729D-01
 ***** Axes restored to original set *****
 -------------------------------------------------------------------
 Center     Atomic                   Forces (Hartrees/Bohr)
 Number     Number              X              Y              Z
 -------------------------------------------------------------------
      1        6           0.000004464   -0.000000307    0.000009246
      2        6           0.000013025   -0.000013308    0.000002095
      3        6           0.000004436    0.000016109   -0.000013129
      4        6           0.000001065   -0.000002106   -0.000004676
      5        6          -0.000000255    0.000002434    0.000002803
      6        1           0.000000789   -0.000000595    0.000001109
      7        1           0.000000099   -0.000000413    0.000000742
      8        1          -0.000000106   -0.000000852   -0.000003689
      9        1           0.000000693    0.000001196   -0.000001414
     10        1           0.000001337   -0.000000854    0.000001189
     11        8          -0.000010018   -0.000003235    0.000004924
     12        8          -0.000017000   -0.000019709    0.000009130
     13        8          -0.000016145    0.000007701    0.000000526
     14        8          -0.000001758   -0.000005610   -0.000003511
     15        8           0.000006633   -0.000006756    0.000001902
     16        6           0.000005194    0.000002415   -0.000006172
     17        1          -0.000000839   -0.000000005    0.000002431
     18        1           0.000001852   -0.000000574    0.000000828
     19        8          -0.000001123   -0.000002756    0.000005029
     20       16           0.000018072    0.000008307   -0.000002601
     21        8          -0.000005890   -0.000002442    0.000002322
     22        8          -0.000003136    0.000003839   -0.000000484
     23        6           0.000000765    0.000002247   -0.000006489
     24        6          -0.000002285    0.000008462    0.000001597
     25        6          -0.000003855   -0.000000061    0.000001160
     26        6           0.000004459   -0.000002392    0.000004631
     27        1          -0.000001064    0.000000620    0.000000510
     28        6          -0.000000248    0.000004473    0.000001566
     29        1           0.000003113    0.000000728    0.000001050
     30        6          -0.000001419    0.000002978   -0.000005121
     31        1           0.000000996    0.000003900   -0.000001056
     32        6           0.000001039   -0.000004279   -0.000004105
     33        1          -0.000002488   -0.000000958    0.000001329
     34        1          -0.000002094   -0.000001540    0.000001276
     35        1          -0.000000522    0.000000281    0.000000332
     36        6          -0.000002280    0.000001069    0.000000389
     37        1           0.000000060   -0.000003029    0.000002215
     38        1          -0.000000756   -0.000002577    0.000000372
     39        1           0.000000344   -0.000003352    0.000000983
     40        6          -0.000004172    0.000000216    0.000000000
     41        1           0.000001338   -0.000001030    0.000000278
     42        1           0.000002105   -0.000001857    0.000000599
     43        1           0.000002824    0.000000459    0.000000098
     44        6           0.000004594   -0.000000596   -0.000002695
     45        1           0.000001934    0.000000174    0.000000227
     46        1          -0.000001064    0.000000671   -0.000000326
     47        1          -0.000000112    0.000000930   -0.000000321
     48        6          -0.000001645   -0.000002857   -0.000002805
     49        9          -0.000003701   -0.000000380   -0.000001359
     50        9           0.000000624    0.000002319   -0.000000439
     51        9           0.000000392    0.000005097    0.000000464
     52        6           0.000000408    0.000001468   -0.000000147
     53        9           0.000000012   -0.000000247    0.000000238
     54        9          -0.000001020    0.000002774   -0.000001356
     55        9           0.000002328    0.000003814   -0.000001694
 -------------------------------------------------------------------
 Cartesian Forces:  Max     0.000019709 RMS     0.000004586
 Leave Link  716 at Sat Jun 15 08:07:56 2019, MaxMem=  6442450944 cpu:               2.7 elap:               0.1
 (Enter /home/ekwan/sw/g16/l103.exe)

 GradGradGradGradGradGradGradGradGradGradGradGradGradGradGradGradGradGrad
 Berny optimization.
 FormGI is forming the generalized inverse of G from B-inverse, IUseBI=4.
 GSVD:  received Info=                   1 from GESDD.
 Internal  Forces:  Max     0.000028587 RMS     0.000003247
 Search for a local minimum.
 Step number   1 out of a maximum of  291
 All quantities printed in internal units (Hartrees-Bohrs-Radians)
 RMS Force = .32472D-05 SwitMx=.10000D-02 MixMth= 2
 Mixed Optimization -- En-DIIS/RFO-DIIS
 Second derivative matrix not updated -- first step.
 ITU=  0
     Eigenvalues ---    0.00461   0.00613   0.00683   0.00689   0.00702
     Eigenvalues ---    0.00708   0.01031   0.01424   0.01465   0.01472
     Eigenvalues ---    0.01473   0.01481   0.01578   0.01579   0.01580
     Eigenvalues ---    0.01595   0.01638   0.01651   0.01692   0.02199
     Eigenvalues ---    0.02203   0.02210   0.02213   0.02221   0.02226
     Eigenvalues ---    0.02477   0.02955   0.03359   0.04507   0.04646
     Eigenvalues ---    0.04759   0.04879   0.04949   0.05251   0.05290
     Eigenvalues ---    0.05825   0.06036   0.06577   0.07001   0.07074
     Eigenvalues ---    0.07202   0.07781   0.09322   0.10089   0.10106
     Eigenvalues ---    0.10138   0.10198   0.10563   0.10590   0.10616
     Eigenvalues ---    0.10620   0.10686   0.10784   0.10853   0.10870
     Eigenvalues ---    0.10967   0.11005   0.11410   0.11817   0.11941
     Eigenvalues ---    0.14102   0.14828   0.16000   0.16000   0.16000
     Eigenvalues ---    0.16000   0.16000   0.16000   0.16000   0.16000
     Eigenvalues ---    0.16000   0.16000   0.16000   0.16000   0.16000
     Eigenvalues ---    0.16000   0.16000   0.16397   0.16958   0.17435
     Eigenvalues ---    0.18631   0.19604   0.19781   0.20815   0.22148
     Eigenvalues ---    0.23477   0.23489   0.23502   0.24948   0.24979
     Eigenvalues ---    0.24991   0.25000   0.25000   0.25000   0.25000
     Eigenvalues ---    0.25000   0.25000   0.25000   0.25000   0.25000
     Eigenvalues ---    0.25000   0.25000   0.25000   0.27365   0.28074
     Eigenvalues ---    0.28913   0.29261   0.29431   0.30073   0.31771
     Eigenvalues ---    0.31879   0.33320   0.33598   0.33653   0.33728
     Eigenvalues ---    0.33780   0.33937   0.33941   0.33948   0.34005
     Eigenvalues ---    0.34026   0.34139   0.34228   0.34366   0.34505
     Eigenvalues ---    0.34642   0.34645   0.34650   0.34651   0.34794
     Eigenvalues ---    0.35333   0.35370   0.35372   0.38255   0.38661
     Eigenvalues ---    0.42896   0.42910   0.42974   0.42990   0.43047
     Eigenvalues ---    0.43079   0.44220   0.44234   0.44432   0.45621
     Eigenvalues ---    0.46355   0.47060   0.47161   0.47199   0.47396
     Eigenvalues ---    0.49203   0.56169   0.57325   0.57501   0.57801
     Eigenvalues ---    0.57953   0.58005   0.94985   0.97260
 RFO step:  Lambda=-3.05941693D-08 EMin= 4.60827253D-03
 Linear search not attempted -- first point.
 Iteration  1 RMS(Cart)=  0.00079746 RMS(Int)=  0.00000007
 Iteration  2 RMS(Cart)=  0.00000016 RMS(Int)=  0.00000000
 ITry= 1 IFail=0 DXMaxC= 3.79D-03 DCOld= 1.00D+10 DXMaxT= 3.00D-01 DXLimC= 3.00D+00 Rises=F
 Variable       Old X    -DE/DX   Delta X   Delta X   Delta X     New X
                                 (Linear)    (Quad)   (Total)
    R1        2.88456   0.00000   0.00000   0.00001   0.00001   2.88457
    R2        2.87819   0.00000   0.00000   0.00001   0.00001   2.87819
    R3        2.08014   0.00000   0.00000  -0.00001  -0.00001   2.08013
    R4        2.66192   0.00000   0.00000  -0.00001  -0.00001   2.66192
    R5        2.90028   0.00000   0.00000   0.00001   0.00001   2.90028
    R6        2.08493   0.00000   0.00000   0.00000   0.00000   2.08493
    R7        2.64561  -0.00002   0.00000  -0.00003  -0.00003   2.64558
    R8        2.06260   0.00000   0.00000   0.00000   0.00000   2.06260
    R9        2.61620   0.00000   0.00000  -0.00001  -0.00001   2.61619
   R10        2.73996   0.00001   0.00000   0.00003   0.00003   2.73999
   R11        2.88481   0.00001   0.00000   0.00001   0.00001   2.88482
   R12        2.07919   0.00000   0.00000  -0.00001  -0.00001   2.07918
   R13        2.71446  -0.00001   0.00000  -0.00002  -0.00002   2.71444
   R14        2.87818   0.00000   0.00000   0.00000   0.00000   2.87817
   R15        2.07702   0.00000   0.00000   0.00000   0.00000   2.07702
   R16        2.66175   0.00000   0.00000   0.00000   0.00000   2.66175
   R17        3.04378  -0.00002   0.00000  -0.00004  -0.00004   3.04374
   R18        2.67701   0.00000   0.00000   0.00000   0.00000   2.67702
   R19        2.67682   0.00000   0.00000   0.00000   0.00000   2.67681
   R20        2.67798   0.00000   0.00000   0.00000   0.00000   2.67799
   R21        2.06487   0.00000   0.00000   0.00001   0.00001   2.06487
   R22        2.07792   0.00000   0.00000   0.00000   0.00000   2.07792
   R23        2.65940   0.00000   0.00000  -0.00001  -0.00001   2.65939
   R24        2.67572   0.00000   0.00000   0.00001   0.00001   2.67573
   R25        2.73457   0.00000   0.00000   0.00000   0.00000   2.73457
   R26        2.74417   0.00000   0.00000   0.00000   0.00000   2.74417
   R27        3.35678   0.00000   0.00000   0.00000   0.00000   3.35678
   R28        2.62793   0.00000   0.00000   0.00001   0.00001   2.62794
   R29        2.62448   0.00000   0.00000  -0.00001  -0.00001   2.62447
   R30        2.62772   0.00000   0.00000  -0.00001  -0.00001   2.62771
   R31        2.05137   0.00000   0.00000   0.00000   0.00000   2.05137
   R32        2.62835   0.00000   0.00000   0.00000   0.00000   2.62835
   R33        2.05079   0.00000   0.00000   0.00000   0.00000   2.05079
   R34        2.63051   0.00001   0.00000   0.00001   0.00001   2.63053
   R35        2.84565   0.00000   0.00000   0.00000   0.00000   2.84565
   R36        2.62901   0.00000   0.00000   0.00000   0.00000   2.62901
   R37        2.84367   0.00000   0.00000   0.00000   0.00000   2.84367
   R38        2.05076   0.00000   0.00000   0.00000   0.00000   2.05076
   R39        2.07322   0.00000   0.00000   0.00000   0.00000   2.07323
   R40        2.07419   0.00000   0.00000   0.00000   0.00000   2.07418
   R41        2.06011   0.00000   0.00000   0.00000   0.00000   2.06011
   R42        2.06244   0.00000   0.00000   0.00000   0.00000   2.06245
   R43        2.07430   0.00000   0.00000   0.00000   0.00000   2.07430
   R44        2.06717   0.00000   0.00000   0.00000   0.00000   2.06717
   R45        2.06246   0.00000   0.00000   0.00000   0.00000   2.06246
   R46        2.06948   0.00000   0.00000   0.00000   0.00000   2.06948
   R47        2.07287   0.00000   0.00000   0.00000   0.00000   2.07287
   R48        2.06256   0.00000   0.00000   0.00000   0.00000   2.06256
   R49        2.07436   0.00000   0.00000   0.00001   0.00001   2.07437
   R50        2.07096   0.00000   0.00000   0.00000   0.00000   2.07096
   R51        2.52724   0.00000   0.00000   0.00000   0.00000   2.52724
   R52        2.53122   0.00000   0.00000   0.00000   0.00000   2.53122
   R53        2.52974   0.00000   0.00000   0.00001   0.00001   2.52975
   R54        2.54108   0.00000   0.00000   0.00000   0.00000   2.54108
   R55        2.52555   0.00000   0.00000   0.00000   0.00000   2.52555
   R56        2.52598   0.00000   0.00000   0.00000   0.00000   2.52598
    A1        1.91989   0.00000   0.00000   0.00001   0.00001   1.91990
    A2        1.90826   0.00000   0.00000  -0.00001  -0.00001   1.90825
    A3        1.92974   0.00000   0.00000   0.00001   0.00001   1.92975
    A4        1.89543   0.00000   0.00000  -0.00001  -0.00001   1.89542
    A5        1.88080   0.00000   0.00000   0.00000   0.00000   1.88079
    A6        1.92930   0.00000   0.00000   0.00001   0.00001   1.92931
    A7        1.93703   0.00000   0.00000   0.00003   0.00003   1.93706
    A8        1.88824   0.00000   0.00000  -0.00001  -0.00001   1.88823
    A9        1.89280   0.00000   0.00000   0.00001   0.00001   1.89281
   A10        1.84961   0.00000   0.00000  -0.00001  -0.00001   1.84960
   A11        1.96646   0.00000   0.00000  -0.00004  -0.00004   1.96642
   A12        1.92829   0.00000   0.00000   0.00002   0.00002   1.92831
   A13        1.95932   0.00000   0.00000  -0.00001  -0.00001   1.95931
   A14        1.97145   0.00001   0.00000   0.00007   0.00007   1.97152
   A15        1.84536   0.00000   0.00000   0.00002   0.00002   1.84538
   A16        1.85903   0.00000   0.00000  -0.00002  -0.00002   1.85901
   A17        1.88985   0.00000   0.00000  -0.00003  -0.00003   1.88982
   A18        1.93867  -0.00001   0.00000  -0.00004  -0.00004   1.93863
   A19        1.90114   0.00000   0.00000  -0.00002  -0.00002   1.90113
   A20        1.92866   0.00000   0.00000   0.00000   0.00000   1.92866
   A21        1.95032   0.00001   0.00000   0.00004   0.00004   1.95036
   A22        1.90297   0.00000   0.00000   0.00001   0.00001   1.90298
   A23        1.88471   0.00000   0.00000  -0.00002  -0.00002   1.88469
   A24        1.89504  -0.00001   0.00000  -0.00002  -0.00002   1.89502
   A25        1.94054   0.00000   0.00000  -0.00001  -0.00001   1.94052
   A26        1.89727   0.00000   0.00000   0.00002   0.00002   1.89729
   A27        1.92128   0.00000   0.00000  -0.00001  -0.00001   1.92127
   A28        1.89510   0.00000   0.00000   0.00000   0.00000   1.89511
   A29        1.87656   0.00000   0.00000   0.00000   0.00000   1.87656
   A30        1.93319   0.00000   0.00000   0.00000   0.00000   1.93319
   A31        2.00870   0.00000   0.00000  -0.00001  -0.00001   2.00869
   A32        2.06662  -0.00003   0.00000  -0.00011  -0.00011   2.06650
   A33        1.99434   0.00000   0.00000  -0.00001  -0.00001   1.99434
   A34        1.99458   0.00000   0.00000   0.00000   0.00000   1.99459
   A35        1.98331   0.00000   0.00000  -0.00001  -0.00001   1.98331
   A36        1.87840   0.00000   0.00000  -0.00001  -0.00001   1.87839
   A37        1.90230   0.00000   0.00000  -0.00002  -0.00002   1.90228
   A38        1.99597   0.00001   0.00000   0.00003   0.00003   1.99600
   A39        1.90022   0.00000   0.00000  -0.00001  -0.00001   1.90021
   A40        1.85381   0.00000   0.00000   0.00002   0.00002   1.85383
   A41        1.93003   0.00000   0.00000  -0.00001  -0.00001   1.93002
   A42        1.99306   0.00000   0.00000   0.00000   0.00000   1.99306
   A43        1.82432   0.00001   0.00000   0.00005   0.00005   1.82437
   A44        1.89324   0.00000   0.00000  -0.00001  -0.00001   1.89323
   A45        1.80704  -0.00001   0.00000  -0.00005  -0.00005   1.80699
   A46        2.11905   0.00000   0.00000   0.00002   0.00002   2.11907
   A47        1.89839   0.00000   0.00000   0.00000   0.00000   1.89839
   A48        1.89634   0.00000   0.00000  -0.00002  -0.00002   1.89632
   A49        2.06990   0.00000   0.00000   0.00001   0.00001   2.06992
   A50        2.07641   0.00000   0.00000  -0.00001  -0.00001   2.07640
   A51        2.13653   0.00000   0.00000   0.00000   0.00000   2.13652
   A52        2.06222   0.00000   0.00000   0.00000   0.00000   2.06222
   A53        2.10637   0.00000   0.00000   0.00000   0.00000   2.10638
   A54        2.11459   0.00000   0.00000   0.00000   0.00000   2.11459
   A55        2.06197   0.00000   0.00000   0.00001   0.00001   2.06198
   A56        2.10574   0.00000   0.00000  -0.00002  -0.00002   2.10571
   A57        2.11548   0.00000   0.00000   0.00002   0.00002   2.11550
   A58        2.10924   0.00000   0.00000   0.00000   0.00000   2.10924
   A59        2.09222   0.00000   0.00000   0.00000   0.00000   2.09222
   A60        2.08101   0.00000   0.00000   0.00000   0.00000   2.08101
   A61        2.11027   0.00000   0.00000   0.00000   0.00000   2.11027
   A62        2.08050   0.00000   0.00000   0.00000   0.00000   2.08050
   A63        2.09062   0.00000   0.00000   0.00001   0.00001   2.09063
   A64        2.08613   0.00000   0.00000   0.00000   0.00000   2.08613
   A65        2.09831   0.00000   0.00000   0.00000   0.00000   2.09831
   A66        2.09874   0.00000   0.00000   0.00000   0.00000   2.09874
   A67        1.94805   0.00000   0.00000  -0.00001  -0.00001   1.94803
   A68        1.93588   0.00000   0.00000   0.00000   0.00000   1.93587
   A69        1.86459   0.00000   0.00000   0.00000   0.00000   1.86459
   A70        1.90743   0.00000   0.00000   0.00000   0.00000   1.90744
   A71        1.89807   0.00000   0.00000   0.00001   0.00001   1.89808
   A72        1.90880   0.00000   0.00000   0.00000   0.00000   1.90880
   A73        1.86225   0.00000   0.00000   0.00001   0.00001   1.86226
   A74        1.93216   0.00000   0.00000  -0.00001  -0.00001   1.93215
   A75        1.94360   0.00000   0.00000   0.00001   0.00001   1.94361
   A76        1.90343   0.00000   0.00000  -0.00001  -0.00001   1.90342
   A77        1.91332   0.00000   0.00000   0.00000   0.00000   1.91331
   A78        1.90827   0.00000   0.00000   0.00000   0.00000   1.90827
   A79        1.86472   0.00000   0.00000   0.00000   0.00000   1.86472
   A80        1.93447   0.00000   0.00000  -0.00001  -0.00001   1.93446
   A81        1.92938   0.00000   0.00000   0.00002   0.00002   1.92940
   A82        1.91173   0.00000   0.00000   0.00000   0.00000   1.91173
   A83        1.91002   0.00000   0.00000   0.00000   0.00000   1.91002
   A84        1.91285   0.00000   0.00000  -0.00001  -0.00001   1.91284
   A85        1.86598   0.00000   0.00000   0.00000   0.00000   1.86598
   A86        1.93289   0.00000   0.00000  -0.00001  -0.00001   1.93288
   A87        1.95284   0.00000   0.00000   0.00001   0.00001   1.95285
   A88        1.90918   0.00000   0.00000  -0.00001  -0.00001   1.90917
   A89        1.90781   0.00000   0.00000   0.00000   0.00000   1.90781
   A90        1.89468   0.00000   0.00000   0.00000   0.00000   1.89468
   A91        1.94645   0.00000   0.00000   0.00000   0.00000   1.94645
   A92        1.94191   0.00000   0.00000   0.00000   0.00000   1.94191
   A93        1.94095   0.00000   0.00000   0.00001   0.00001   1.94095
[...]
 02016,0.00001076,-0.00014525,-0.00028656,0.00001272,0.00000301,0.00002
 980,0.00001725,0.00004470,0.00002539,-0.00000917,-0.00000562,0.0000215
 0,-0.00001704,0.00023679,0.00026047,0.00091395,-0.00001957,0.00003574,
 -0.00009208,-0.00006220,-0.00000280,-0.00008356,-0.00005445,-0.0000816
 9,-0.00004659,0.00200325,-0.00005694,-0.00534200,0.00006724,-0.0000940
 4,0.00178792,-0.00138774,-0.00053927,0.00134391,-0.00060504,0.00073025
 ,0.00144963,0.01056930,-0.01641106,0.62066368,0.00006990,-0.00015523,0
 .00001527,0.00008188,-0.00003118,-0.00004913,0.00014362,-0.00064526,0.
 00020895,-0.00015958,-0.00070622,-0.00018144,0.00006511,0.00029957,0.0
 0012721,-0.00001707,0.00003069,-0.00000775,0.00001487,0.00000557,0.000
 00002,-0.00000977,0.00001114,-0.00001077,-0.00001411,0.00004713,-0.000
 04175,0.00005250,-0.00000636,0.00001088,-0.00028038,0.00051979,-0.0000
 0290,0.00035907,0.00041464,-0.00015352,-0.00010428,0.00012700,0.000021
 23,-0.00020411,0.00007695,-0.00009886,-0.00015735,-0.00006673,-0.00011
 721,0.00173486,0.00129722,0.00033489,-0.00027989,-0.00005434,-0.000215
 04,-0.00194577,-0.00037929,-0.00066010,-0.00079600,-0.00076147,-0.0003
 9037,-0.00057627,-0.00017333,0.00016750,0.00013695,-0.00004297,-0.0000
 0218,0.00013728,0.00003397,-0.00004446,0.00076259,-0.00055766,0.000622
 14,0.00034079,-0.00028410,-0.00049798,-0.00054551,-0.00062825,0.001043
 27,-0.00050401,0.00020496,-0.00023376,0.00000304,-0.00003682,0.0000066
 8,0.00922305,-0.00203165,-0.00185452,-0.00018993,-0.00024494,-0.000012
 06,0.00016420,0.00069181,0.00060064,-0.00008273,0.00003860,-0.00043620
 ,0.00000837,-0.00003608,-0.00005109,0.00000232,-0.00000070,0.00001180,
 0.00000603,0.00000351,0.00000550,-0.00000969,0.00000957,0.00000329,0.0
 0004135,-0.00005849,0.00008655,-0.00001650,0.00000405,-0.00001160,0.00
 000193,0.00000635,-0.00001469,-0.00000577,0.00001413,-0.00000706,0.000
 09288,0.00010513,0.00004651,-0.00000726,-0.00001581,-0.00002508,-0.000
 02648,-0.00001296,-0.00000120,0.00001677,0.00003196,0.00001259,0.00121
 272,0.00058476,0.00086565,-0.00023551,-0.00016294,-0.00002430,-0.00118
 819,-0.00011328,-0.00042997,-0.00032818,-0.00010000,-0.00005440,-0.000
 18449,-0.00010712,-0.00010059,0.00007317,0.00001520,0.00005349,0.00003
 478,0.00002195,0.00002499,0.00003431,0.00002685,0.00003326,-0.11665058
 ,-0.08267044,0.01958384,0.17334048,-0.00002404,-0.00018296,-0.00005460
 ,-0.00009996,0.00000368,-0.00006830,-0.00025359,-0.00077356,0.00055034
 ,-0.00025059,-0.00088336,-0.00022410,-0.00000533,0.00017959,0.00000819
 ,-0.00003517,0.00004821,-0.00002261,0.00006392,0.00002025,0.00000048,-
 0.00001561,0.00001789,-0.00002587,-0.00008220,0.00004420,-0.00011300,0
 .00008844,0.00001011,0.00001749,0.00018561,0.00078234,0.00001162,0.001
 33076,0.00056602,-0.00027928,0.00006131,0.00006128,-0.00001016,-0.0000
 3040,0.00010369,-0.00001534,-0.00006488,0.00012176,-0.00000526,0.00113
 677,0.00070227,0.00055285,-0.00015323,-0.00000952,-0.00013984,0.000174
 88,-0.00094036,0.00074563,-0.00048354,-0.00010145,-0.00057291,-0.00293
 412,0.00154699,0.00049281,0.00070835,-0.00087296,0.00027125,0.00075308
 ,-0.00054393,-0.00050096,0.00118786,0.00067149,0.00045912,-0.00007528,
 -0.00037212,0.00095055,-0.00096185,0.00070464,0.00193537,0.00169811,0.
 00065166,0.00167790,-0.00018655,-0.00009830,-0.00010105,-0.01895245,-0
 .03221598,0.01598702,-0.00079223,-0.00050818,-0.00031575,0.00230795,-0
 .00285918,-0.00099569,-0.00082969,-0.00072590,-0.00010339,-0.00005320,
 -0.00001338,0.00002161,0.00000235,0.00001282,0.00001017,0.00000874,0.0
 0001030,-0.00000937,0.00000588,0.00000129,0.00000274,-0.00000217,-0.00
 002127,0.00003148,0.00000104,0.00000470,-0.00000344,0.00000203,-0.0000
 0242,-0.00000557,-0.00000966,0.00000817,-0.00000305,0.00003506,-0.0000
 4002,0.00005365,0.00000042,0.00000005,-0.00000975,-0.00001360,0.000002
 60,-0.00000613,0.00001796,0.00004427,-0.00000534,0.00107281,0.00076231
 ,0.00100295,-0.00018169,-0.00011686,-0.00004050,0.00036133,-0.00027420
 ,-0.00063406,-0.00042828,-0.00012708,-0.00009117,0.00124988,-0.0006776
 1,-0.00209739,0.00002877,0.00001174,0.00101406,-0.00055272,-0.00013886
 ,0.00052690,-0.00028922,0.00054057,0.00053913,-0.08432356,-0.23712355,
 0.04362652,0.15246909,0.32180601,0.00005595,-0.00001748,0.00002536,0.0
 0011845,-0.00003079,0.00000640,0.00026952,0.00021287,-0.00034244,0.000
 00537,-0.00011460,-0.00016717,0.00004266,0.00014333,0.00007428,-0.0000
 0856,0.00000655,0.00001344,-0.00004584,-0.00001327,0.00000005,0.000006
 53,-0.00000436,0.00001637,0.00005048,0.00000282,0.00007753,-0.00003329
 ,-0.00001958,-0.00000398,-0.00028573,-0.00016116,0.00014175,-0.0008643
 4,-0.00015712,0.00022176,-0.00010604,0.00004840,0.00005559,-0.00012765
 ,-0.00000283,-0.00004425,-0.00007531,-0.00010198,-0.00004103,0.0005156
 8,0.00085561,-0.00016378,-0.00007218,-0.00004166,-0.00002572,-0.001299
 34,0.00014555,-0.00132216,-0.00025327,-0.00042924,0.00058982,0.0018373
 3,-0.00144048,-0.00071470,-0.00045390,0.00067610,-0.00014534,-0.000451
 07,0.00043743,0.00052356,-0.00131549,-0.00036633,-0.00125370,-0.000659
 05,0.00081272,-0.00016483,0.00190150,-0.00017833,-0.00197206,-0.000904
 18,-0.00095961,0.00008443,0.00012578,0.00006145,0.00010571,0.01105414,
 0.03241973,-0.00144914,0.00025122,0.00074578,-0.00000563,-0.00128232,0
 .00045938,0.00096689,0.00049478,0.00027963,0.00016682,0.00004077,-0.00
 002166,-0.00007253,0.00000469,-0.00000540,-0.00000220,-0.00000765,-0.0
 0000949,0.00001350,-0.00000872,0.00000500,0.00000342,0.00002805,-0.000
 02618,0.00003158,-0.00001235,-0.00000040,-0.00000648,-0.00000124,0.000
 00561,-0.00000337,0.00000133,0.00000584,-0.00000375,0.00004557,0.00009
 501,-0.00000428,-0.00000175,-0.00000979,-0.00000561,-0.00001342,-0.000
 00842,0.00000274,0.00000196,-0.00000825,0.00000613,-0.00020883,-0.0002
 0448,-0.00054908,0.00004912,0.00001750,0.00005849,0.00016417,0.0000695
 8,0.00008757,0.00009324,0.00005063,0.00004924,-0.00069770,0.00020051,0
 .00137894,0.00000445,0.00001298,-0.00055505,0.00038033,0.00014376,-0.0
 0035403,0.00017535,-0.00024216,-0.00035355,0.02038170,0.04462102,-0.08
 579517,-0.02459690,-0.03570770,0.08117967,0.00011867,-0.00002241,0.000
 07665,0.00020264,-0.00007536,0.00002072,0.00038859,-0.00001373,-0.0002
 7706,0.00006298,-0.00001031,0.00004429,0.00009253,0.00017407,0.0001702
 7,0.00001130,-0.00000945,0.00001276,-0.00004455,-0.00001416,-0.0000038
 5,-0.00000015,0.00000064,0.00000776,0.00004430,0.00002689,0.00004492,-
 0.00000019,-0.00001366,-0.00000293,-0.00046357,-0.00006052,-0.00003905
 ,-0.00092779,-0.00006660,0.00008599,-0.00019110,0.00011850,0.00003356,
 -0.00023774,0.00000811,-0.00012435,-0.00013786,-0.00017370,-0.00015473
 ,0.00074151,0.00056686,0.00020314,-0.00010623,-0.00003993,-0.00010061,
 -0.00003359,-0.00005617,0.00017550,-0.00040866,-0.00039401,-0.00010882
 ,0.00217571,-0.00168493,-0.00054664,-0.00065622,0.00115695,-0.00046069
 ,-0.00054932,0.00061396,0.00046741,-0.00092674,0.00148971,0.00096838,-
 0.00009677,-0.00006304,-0.00057090,-0.00088313,0.00151469,-0.00692216,
 0.00018931,0.00065495,-0.00089781,0.00006636,-0.00014127,-0.00002564,-
 0.03392360,0.01490558,0.00347188,0.00035260,-0.00068109,0.00008362,-0.
 00113939,0.00105210,0.00348355,-0.00021464,-0.00058624,-0.00191537,0.0
 0006031,-0.00003922,-0.00008304,0.00000176,-0.00001384,0.00000696,0.00
 000125,-0.00000249,0.00001423,-0.00002045,0.00001190,0.00000098,0.0000
 6139,-0.00006292,0.00009207,-0.00002192,0.00000091,-0.00001190,0.00000
 114,0.00001039,-0.00001687,0.00000099,0.00001178,-0.00000570,0.0000876
 8,0.00014838,0.00002267,-0.00000761,-0.00001973,-0.00002394,-0.0000226
 6,-0.00001661,0.00000392,0.00000471,0.00000811,0.00001605,0.00051089,0
 .00030997,0.00034622,-0.00011233,-0.00009630,-0.00000110,0.00010576,-0
 .00001729,-0.00025261,-0.00012697,-0.00003672,-0.00003124,-0.00120400,
 0.00039132,0.00147225,0.00007958,-0.00001585,-0.00056777,0.00058620,0.
 00017388,-0.00041990,0.00032104,-0.00038990,-0.00039162,-0.28847230,0.
 07158730,0.00724791,-0.06855753,-0.02764508,0.01501595,0.41161706,-0.0
 0004511,-0.00004511,-0.00004138,-0.00009793,0.00002309,-0.00002760,-0.
 00020228,-0.00024629,0.00026651,-0.00009523,-0.00024660,-0.00006754,-0
 .00002969,-0.00001269,-0.00005890,-0.00001436,0.00001615,-0.00001186,0
 .00003424,0.00001181,0.00000120,-0.00000464,0.00000488,-0.00001092,-0.
 00004057,0.00000554,-0.00005254,0.00002740,0.00000804,0.00000636,0.000
 18965,0.00025527,0.00001761,0.00068477,0.00020550,-0.00010703,0.000079
 97,-0.00001701,-0.00001356,0.00006902,0.00002937,0.00003635,0.00002398
 ,0.00009794,0.00005172,0.00008508,-0.00003292,0.00005873,-0.00000639,0
 .00001402,-0.00000033,0.00002558,-0.00019202,0.00013939,-0.00003259,0.
 00010976,-0.00014125,-0.00177886,0.00085252,0.00038319,0.00054884,-0.0
 0069235,0.00027156,0.00042204,-0.00034156,-0.00032823,0.00009271,-0.00
 154568,0.00013841,0.00054844,-0.00031586,0.00007313,0.00058923,0.00024
 780,0.00386821,-0.00030108,-0.00012928,0.00011659,-0.00002793,0.000075
 51,-0.00000800,0.02998681,-0.00093825,-0.00039447,-0.00011566,0.000628
 97,-0.00012546,0.00052642,-0.00116148,-0.00067095,0.00015378,-0.000019
 14,0.00103344,-0.00003668,0.00000710,0.00003298,0.00000071,0.00000842,
 0.00000105,0.00000266,0.00000437,-0.00000758,0.00000817,-0.00000332,0.
 00000046,-0.00001977,0.00001334,-0.00002067,0.00000759,0.00000104,0.00
 000292,0.00000019,-0.00000425,0.00000390,-0.00000341,-0.00000113,0.000
 00112,-0.00001811,-0.00006423,0.00000898,0.00000345,0.00000680,0.00000
 568,0.00000277,0.00000668,-0.00000308,0.00000409,0.00001125,-0.0000080
 9,0.00016501,0.00009181,0.00018940,-0.00001649,0.,-0.00001384,0.000080
 96,-0.00003244,-0.00010195,-0.00007797,-0.00002169,-0.00001549,0.00062
 823,-0.00035432,-0.00106905,-0.00001656,0.00002973,0.00039390,-0.00029
 201,-0.00005734,0.00027607,-0.00018945,0.00030719,0.00028168,0.0692244
 9,-0.09652541,0.00030098,-0.04536304,0.00709911,0.00617965,-0.08777564
 ,0.10286203,0.00003780,0.00002229,0.00002049,0.00007646,-0.00002362,0.
 00002082,0.00017124,0.00021624,-0.00028367,0.00008726,0.00013041,-0.00
 000255,0.00002742,0.00001358,0.00003809,-0.00000250,-0.00000211,0.0000
 1107,-0.00003420,-0.00001104,-0.00000143,0.00000436,-0.00000358,0.0000
 1173,0.00003453,-0.00000191,0.00005109,-0.00002243,-0.00000950,-0.0000
 0353,-0.00015016,-0.00016716,0.00006078,-0.00067188,-0.00014922,0.0001
 6066,-0.00006696,0.00002638,0.00003608,-0.00005951,-0.00001387,-0.0000
 1960,-0.00003065,-0.00005752,-0.00002031,-0.00001395,0.00007055,-0.000
 06681,0.00002341,-0.00000448,0.00002015,0.00002112,0.00008095,-0.00007
 929,-0.00002726,-0.00007300,0.00020294,0.00157731,-0.00094417,-0.00064
 667,-0.00046674,0.00063501,-0.00017947,-0.00034863,0.00032233,0.000456
 69,-0.00088609,0.00156302,0.00006303,-0.00054561,0.00043193,-0.0001551
 9,-0.00036614,0.00027151,-0.00404801,-0.00050995,0.00019661,0.00094339
 ,-0.00005124,0.00004280,0.00006337,-0.02412075,0.01045449,0.00861977,-
 0.00035802,0.00004348,-0.00002544,-0.00086159,-0.00016189,-0.00241211,
 -0.00167127,0.00129893,-0.00055580,0.00002729,-0.00001519,-0.00004730,
 0.00000397,-0.00000381,-0.00000263,-0.00000553,-0.00000671,0.00000874,
 -0.00000572,0.00000280,0.00000175,0.00001683,-0.00001237,0.00001187,-0
 .00000618,-0.00000107,-0.00000285,-0.00000121,0.00000310,-0.00000099,0
 .00000173,0.00000254,-0.00000134,0.00001909,0.00004352,-0.00000618,0.0
 0000020,-0.00000405,-0.00000103,-0.00000607,-0.00000342,0.00000183,-0.
 00000010,-0.00000634,0.00000209,-0.00011394,-0.00008946,-0.00020634,0.
 00001627,0.00000218,0.00001536,-0.00000445,0.00002773,0.00005080,0.000
 03535,0.00002132,0.00001255,-0.00037919,-0.00003787,0.00119250,-0.0000
 5375,0.00002932,-0.00041050,0.00028287,0.00011797,-0.00027981,0.000109
 35,-0.00013652,-0.00031183,0.01519636,-0.00258899,-0.08213591,0.018379
 31,0.00399365,0.00944534,-0.05407459,0.01432811,0.09054483,0.00003827,
 -0.00000298,0.00002921,0.00006776,-0.00002661,0.00000269,0.00013994,-0
 .00003495,-0.00004559,0.00000929,0.00002274,0.00004948,0.00003345,0.00
 005149,0.00004955,0.00001369,-0.00000589,0.00000193,-0.00001022,-0.000
 00269,-0.00000099,-0.00000025,-0.00000001,0.00000088,0.00001327,0.0000
 0811,0.00000605,0.00000088,-0.00000289,-0.00000112,-0.00014816,-0.0000
 2427,-0.00004853,-0.00025435,0.00001983,-0.00001215,-0.00006393,0.0000
 4087,0.00000554,-0.00007728,0.00000184,-0.00004335,-0.00004461,-0.0000
 5777,-0.00005303,0.00020067,0.00016265,0.00005526,-0.00002706,-0.00001
 265,-0.00002816,0.00000102,-0.00004474,0.00007982,-0.00011055,-0.00011
 105,-0.00004546,0.00063314,-0.00064729,0.00013079,-0.00012298,0.000263
 28,-0.00014381,-0.00018535,0.00022125,0.00006296,0.00048343,-0.0004819
 2,-0.00025543,-0.00003529,0.00007450,-0.00026626,-0.00162372,0.0001131
 6,-0.00051261,0.00043966,-0.00031452,-0.00098850,0.00005560,-0.0000137
 5,-0.00004745,0.01014191,-0.00353538,-0.01191767,0.00013964,-0.0001725
 2,-0.00145255,-0.00176318,0.00173160,-0.00096215,0.00008771,0.00003033
 ,-0.00037464,0.00001913,-0.00001295,-0.00002296,0.00000041,-0.00000539
 ,0.00000331,0.00000217,0.00000058,0.00000389,-0.00000741,0.00000412,-0
 .00000050,0.00002103,-0.00002141,0.00003142,-0.00000708,0.00000032,-0.
 00000381,0.00000051,0.00000333,-0.00000600,0.00000035,0.00000386,-0.00
 000158,0.00002767,0.00004711,0.00000697,-0.00000223,-0.00000654,-0.000
 00768,-0.00000716,-0.00000534,0.00000156,0.00000112,0.00000244,0.00000
 499,0.00013081,0.00007190,0.00008075,-0.00003016,-0.00003048,-0.000001
 51,0.00000111,0.00001752,-0.00003059,-0.00001484,-0.00000289,-0.000004
 22,-0.00052106,0.00020588,0.00054542,-0.00000262,-0.00000344,-0.000318
 03,0.00024385,0.00007570,-0.00016951,0.00011326,-0.00013096,-0.0001369
 9,-0.07600207,0.00408347,-0.00041523,0.00492213,-0.02522254,-0.0193299
 2,-0.01839926,0.03238515,0.04976673,0.08147792,0.00000823,-0.00006749,
 -0.00001830,-0.00000937,-0.00000610,-0.00001901,-0.00002300,-0.0002534
 5,0.00007925,-0.00005289,-0.00029762,-0.00011713,0.00001342,0.00007073
 ,0.00002062,-0.00002338,0.00001912,-0.00000206,0.00000897,0.00000385,-
 0.00000045,-0.00000381,0.00000509,-0.00000443,-0.00001624,0.00001423,-
 0.00001269,0.00002069,-0.00000132,0.00000439,-0.00002925,0.00026670,0.
 00006083,0.00021836,0.00018842,0.00000692,-0.00000785,0.00004355,0.000
 02145,-0.00003757,0.00003866,-0.00000992,-0.00004291,0.00002923,-0.000
 00350,0.00048343,0.00031311,0.00015105,-0.00005622,-0.00000698,-0.0000
 3885,0.00006469,-0.00027067,0.00018227,-0.00025413,-0.00007678,-0.0000
 6284,-0.00053977,0.00010438,-0.00038667,0.00008962,-0.00005937,0.00009
 592,0.00019227,-0.00005673,0.00012148,-0.00058990,0.00082922,-0.000236
 37,-0.00035327,0.00023754,0.00073315,0.00251663,-0.00155839,0.00087055
 ,0.00011177,-0.00093925,0.00064498,-0.00007908,0.00002358,0.00005954,0
 .00111072,0.00949917,0.00620967,-0.00079089,0.00001893,0.00115283,0.00
 080874,0.00036586,-0.00051489,0.00000402,0.00015923,0.00033542,-0.0000
 1262,-0.00001791,-0.00002144,0.00000458,0.00000506,0.00000244,-0.00000
 002,0.00000023,0.00000098,0.00000040,0.00000184,0.00000282,0.00000625,
 -0.00001405,0.00001503,-0.00000208,0.00000136,-0.00000263,-0.00000008,
 0.00000023,-0.00000160,-0.00000359,0.00000493,-0.00000195,0.00002288,0
 .00000124,0.00001778,0.00000103,-0.00000143,-0.00000308,-0.00000895,-0
 .00000022,-0.00000176,0.00000753,0.00001465,-0.00000258,0.00032900,0.0
 0015337,0.00017448,-0.00004747,-0.00003123,-0.00000401,0.00011854,-0.0
 0004862,-0.00015916,-0.00013037,-0.00002642,-0.00002358,0.00016065,-0.
 00036447,-0.00031869,-0.00001080,0.00004256,0.00006518,-0.00010028,0.0
 0003701,0.00010642,-0.00007500,0.00015755,0.00006597,0.00205130,-0.120
 13771,-0.09231173,-0.02164495,-0.05691697,-0.04843169,0.02530123,-0.01
 003468,-0.02986384,-0.00870922,0.17853724,0.00009885,-0.00002369,0.000
 02910,0.00016496,-0.00004638,0.00000815,0.00039955,0.00011708,-0.00046
 226,0.00013430,-0.00001194,-0.00013482,0.00008131,0.00011334,0.0001233
 4,-0.00002113,0.00001645,0.00001763,-0.00005889,-0.00001803,-0.0000014
 4,0.00000533,-0.00000282,0.00002032,0.00007465,0.00001196,0.00010173,-
 0.00002888,-0.00002274,-0.00000322,-0.00045683,-0.00008475,0.00018431,
 -0.00108759,-0.00004906,0.00025475,-0.00016219,0.00010463,0.00009312,-
 0.00018257,0.00000853,-0.00006031,-0.00012054,-0.00011754,-0.00006435,
 0.00054679,0.00049598,0.00003573,-0.00002635,-0.00001881,-0.00001631,0
 .00001411,0.00002125,-0.00001142,-0.00035412,-0.00030052,0.00033329,0.
 00252014,-0.00212068,-0.00097095,-0.00065038,0.00093211,-0.00019092,-0
 .00059036,0.00068019,0.00086792,0.00022602,0.00108358,-0.00003206,-0.0
 0030018,0.00004484,-0.00076236,0.00233641,-0.00112479,-0.00123923,0.00
 175930,0.00051874,-0.00221782,-0.00008518,-0.00006786,0.00011564,0.000
 80714,-0.02445334,-0.04620828,-0.00194822,0.00065515,-0.00096095,-0.00
 660667,0.00495534,-0.00288205,-0.00029402,-0.00050472,0.00070063,0.000
 04986,-0.00004814,-0.00012196,0.00001168,-0.00000433,-0.00000189,-0.00
 001085,-0.00001368,0.00002014,-0.00001272,0.00000853,0.00000632,0.0000
 4615,-0.00004377,0.00004703,-0.00001723,-0.00000084,-0.00000941,-0.000
 00236,0.00000783,-0.00000480,0.00000034,0.00001086,-0.00000543,0.00007
 134,0.00011398,0.00000593,-0.00000043,-0.00001204,-0.00000872,-0.00002
 322,-0.00001014,0.00000254,0.00000696,0.00000060,0.00000551,0.00015618
 ,0.00002748,-0.00017755,-0.00003389,-0.00004199,0.00002600,0.00010291,
 -0.00001986,-0.00010749,-0.00007305,0.00000796,-0.00000321,-0.00157161
 ,0.00079805,0.00236239,-0.00014713,0.00000207,-0.00125085,0.00084678,0
 .00026116,-0.00064396,0.00029700,-0.00039306,-0.00060006,-0.00512302,-
 0.08532412,-0.26942972,-0.01193856,-0.03232191,0.00019465,0.03444128,-
 0.02516953,-0.02016125,-0.01327120,0.16137339,0.34318885\\0.00000379,-
 0.00000141,0.00000065,0.00000432,-0.00000124,-0.00000327,0.00000200,-0
 .00000805,0.00000683,-0.00000262,-0.00000211,-0.00000007,0.00000288,0.
 00000162,0.00000183,0.00000131,0.00000153,-0.00000068,-0.00000032,0.00
 000104,-0.00000018,0.00000081,0.00000245,-0.00000170,-0.00000038,0.000
 00047,-0.00000106,-0.00000248,0.00000220,-0.00000124,-0.00000437,0.000
 00779,0.00000139,0.00000386,0.00000296,-0.00000165,-0.00000450,0.00000
 321,-0.00000016,-0.00000203,0.00000354,-0.00000006,-0.00000540,0.00000
 158,-0.00000242,-0.00000030,-0.00000175,-0.00000296,-0.00000064,-0.000
 00134,0.00000098,-0.00000111,-0.00000244,-0.00000044,-0.00000138,-0.00
 000084,0.00000211,0.00000179,-0.00000578,-0.00000049,0.00000082,0.0000
 0202,0.00000006,0.00000026,0.00000066,0.00000121,0.00000171,-0.0000013
 0,-0.00000051,0.00000114,0.00000124,0.00000127,0.00000081,0.00000131,0
 .00000054,0.00000105,-0.00000087,0.00000118,0.00000174,-0.00000091,0.0
 0000085,-0.00000065,0.00000036,0.00000194,0.00000103,-0.00000180,0.000
 00070,-0.00000082,-0.00000367,0.00000002,0.00000070,-0.00000135,0.0000
 0037,0.00000143,0.00000247,-0.00000106,0.00000064,0.00000123,-0.000000
 26,0.00000052,0.00000158,0.00000036,0.00000107,0.00000204,0.00000039,0
 .00000120,0.00000116,-0.00000185,0.00000024,0.00000280,-0.00000052,0.0
 0000035,0.00000266,-0.00000051,0.00000086,0.00000265,0.00000028,0.0000
 0254,-0.00000065,0.00000056,-0.00000163,0.00000160,-0.00000103,-0.0000
 0200,0.00000186,-0.00000118,-0.00000203,0.00000212,-0.00000097,-0.0000
 0030,-0.00000079,-0.00000167,-0.00000208,0.00000003,-0.00000090,-0.000
 00005,-0.00000064,-0.00000048,-0.00000198,0.00000115,-0.00000083,0.000
 00005,-0.00000199,-0.00000068,-0.00000036,-0.00000194,0.00000035,0.000
 00202,-0.00000315,0.00000174,0.00000046,-0.00000193,0.00000118,-0.0000
 0127,-0.00000261,0.00000099,-0.00000310,-0.00000382,0.00000097,-0.0000
 0018,-0.00000256,0.00000059,0.00000058,-0.00000243,-0.00000052\\\@


 ONLY A FOOL KNOWS EVERYTHING.

               -- THE CHEMIST ANALYST, SEPTEMBER 1946
 Job cpu time:       1 days 13 hours 55 minutes 34.9 seconds.
 Elapsed time:       0 days  1 hours 12 minutes 59.6 seconds.
 File lengths (MBytes):  RWF=   2313 Int=      0 D2E=      0 Chk=     40 Scr=      1
 Normal termination of Gaussian 16 at Sat Jun 15 09:34:48 2019.
