 Entering Gaussian System, Link 0=g16
 Input=clay_new-glu_gluC6-bisCF3-sm-lcwpbe_d3bj-custom-pcm_thf.gjf
 Output=clay_new-glu_gluC6-bisCF3-sm-lcwpbe_d3bj-custom-pcm_thf.out
 Initial command:
 /home/ekwan/sw/g16/l1.exe "/scratch/users/ekwan/clay_new-glu_gluC6-bisCF3-sm-lcwpbe_d3bj-custom-pcm_thf/Gau-17028.inp" -scrdir="/scratch/users/ekwan/clay_new-glu_gluC6-bisCF3-sm-lcwpbe_d3bj-custom-pcm_thf/"
 Entering Link 1 = /home/ekwan/sw/g16/l1.exe PID=     17029.
  
 Copyright (c) 1988,1990,1992,1993,1995,1998,2003,2009,2016,
            Gaussian, Inc.  All Rights Reserved.
  
 This is part of the Gaussian(R) 16 program.  It is based on
 the Gaussian(R) 09 system (copyright 2009, Gaussian, Inc.),
 the Gaussian(R) 03 system (copyright 2003, Gaussian, Inc.),
 the Gaussian(R) 98 system (copyright 1998, Gaussian, Inc.),
 the Gaussian(R) 94 system (copyright 1995, Gaussian, Inc.),
 the Gaussian 92(TM) system (copyright 1992, Gaussian, Inc.),
 the Gaussian 90(TM) system (copyright 1990, Gaussian, Inc.),
 the Gaussian 88(TM) system (copyright 1988, Gaussian, Inc.),
 the Gaussian 86(TM) system (copyright 1986, Carnegie Mellon
 University), and the Gaussian 82(TM) system (copyright 1983,
 Carnegie Mellon University). Gaussian is a federally registered
 trademark of Gaussian, Inc.
  
 This software contains proprietary and confidential information,
 including trade secrets, belonging to Gaussian, Inc.
  
 This software is provided under written license and may be
 used, copied, transmitted, or stored only in accord with that
 written license.
  
 The following legend is applicable only to US Government
 contracts under FAR:
  
                    RESTRICTED RIGHTS LEGEND
  
 Use, reproduction and disclosure by the US Government is
 subject to restrictions as set forth in subparagraphs (a)
 and (c) of the Commercial Computer Software - Restricted
 Rights clause in FAR 52.227-19.
  
 Gaussian, Inc.
 340 Quinnipiac St., Bldg. 40, Wallingford CT 06492
  
  
 ---------------------------------------------------------------
 Warning -- This program may not be used in any manner that
 competes with the business of Gaussian, Inc. or will provide
 assistance to any competitor of Gaussian, Inc.  The licensee
 of this program is prohibited from giving any competitor of
 Gaussian, Inc. access to this program.  By using this program,
 the user acknowledges that Gaussian, Inc. is engaged in the
 business of creating and licensing software in the field of
 computational chemistry and represents and warrants to the
 licensee that it is not a competitor of Gaussian, Inc. and that
 it will not use this program in any manner prohibited above.
 ---------------------------------------------------------------
  

 Cite this work as:
 Gaussian 16, Revision A.03,
 M. J. Frisch, G. W. Trucks, H. B. Schlegel, G. E. Scuseria, 
 M. A. Robb, J. R. Cheeseman, G. Scalmani, V. Barone, 
 G. A. Petersson, H. Nakatsuji, X. Li, M. Caricato, A. V. Marenich, 
 J. Bloino, B. G. Janesko, R. Gomperts, B. Mennucci, H. P. Hratchian, 
 J. V. Ortiz, A. F. Izmaylov, J. L. Sonnenberg, D. Williams-Young, 
 F. Ding, F. Lipparini, F. Egidi, J. Goings, B. Peng, A. Petrone, 
 T. Henderson, D. Ranasinghe, V. G. Zakrzewski, J. Gao, N. Rega, 
 G. Zheng, W. Liang, M. Hada, M. Ehara, K. Toyota, R. Fukuda, 
 J. Hasegawa, M. Ishida, T. Nakajima, Y. Honda, O. Kitao, H. Nakai, 
 T. Vreven, K. Throssell, J. A. Montgomery, Jr., J. E. Peralta, 
 F. Ogliaro, M. J. Bearpark, J. J. Heyd, E. N. Brothers, K. N. Kudin, 
 V. N. Staroverov, T. A. Keith, R. Kobayashi, J. Normand, 
 K. Raghavachari, A. P. Rendell, J. C. Burant, S. S. Iyengar, 
 J. Tomasi, M. Cossi, J. M. Millam, M. Klene, C. Adamo, R. Cammi, 
 J. W. Ochterski, R. L. Martin, K. Morokuma, O. Farkas, 
 J. B. Foresman, and D. J. Fox, Gaussian, Inc., Wallingford CT, 2016.
 
 ******************************************
 Gaussian 16:  AS64L-G16RevA.03 25-Dec-2016
                15-Jun-2019 
 ******************************************
 %nprocshared=32
 Will use up to   32 processors via shared memory.
 %mem=48GB
 ----------------------------------------------------------------------
 #p opt freq=noraman pop=none 6-31g* scrf=(pcm,solvent=tetrahydrofuran)
  lc-wpbe empiricaldispersion=gd3bj extrabasis
 ----------------------------------------------------------------------
 1/18=20,19=15,26=3,38=1/1,3;
 2/9=110,12=2,17=6,18=5,40=1/2;
 3/5=1,6=6,7=1,10=1,11=2,25=1,30=1,70=2201,71=1,72=20,74=-41,124=41/1,2,3;
 4//1;
 5/5=2,38=5,53=20/2;
 7//1,2,3,16;
 1/18=20,19=15,26=3/3(2);
 2/9=110/2;
 99//99;
 2/9=110/2;
 3/5=7,6=1,7=1,11=2,25=1,30=1,70=2205,71=1,72=20,74=-41,82=7,124=41/1,2,3;
 4/5=5,16=3,69=1/1;
 5/5=2,38=5,53=20/2;
 7//1,2,3,16;
 1/18=20,19=15,26=3/3(-5);
 2/9=110/2;
 99/9=1/99;
 Leave Link    1 at Sat Jun 15 07:58:25 2019, MaxMem=  6442450944 cpu:               4.8 elap:               0.2
 (Enter /home/ekwan/sw/g16/l101.exe)
 -----
 title
 -----
 Symbolic Z-matrix:
 Charge =  0 Multiplicity = 1
 6                     3.35027   0.38614   0.58188 
 6                     3.29275  -0.51514  -0.64093 
 6                     1.84702  -0.85607  -0.99898 
 6                     1.00964   1.1059    0.03191 
 6                     2.4105    1.56541   0.40566 
 1                     1.77486  -1.39712  -1.94314 
 1                     3.69719   0.04639  -1.49709 
 1                     3.03615  -0.18163   1.46793 
 1                     0.58472   0.54337   0.87321 
 1                     2.79336   2.20514  -0.39861 
 8                     1.0469    0.26077  -1.12265 
 8                     1.37206  -1.72281   0.05583 
 8                     4.06502  -1.6534   -0.39341 
 8                     4.65011   0.89394   0.75732 
 8                     2.31132   2.28547   1.60993 
 6                     0.08852   2.27707  -0.25503 
 1                    -0.12671   2.76348   0.69857 
 1                    -0.8527    1.90096  -0.67477 
 8                     0.64162   3.2645   -1.08701 
 16                    0.10139  -2.65595  -0.2308 
 8                     0.09317  -3.60597   0.85776 
 8                     0.14751  -3.09541  -1.61162 
 6                    -1.26219  -1.55287  -0.03572 
 6                    -1.70839  -1.26334   1.24274 
 6                    -1.82297  -0.97255  -1.16088 
 6                    -2.74959  -0.36049   1.38948 
 1                    -1.25043  -1.733     2.10677 
 6                    -2.86261  -0.07525  -0.9895 
 1                    -1.45211  -1.21778  -2.14932 
 6                    -3.3275    0.23572   0.27993 
 1                    -4.13861   0.9449    0.40432 
 6                     4.37235  -2.40959  -1.54603 
 1                     3.4947   -2.93843  -1.9354 
 1                     4.78848  -1.7719   -2.33568 
 1                     5.11903  -3.14712  -1.25075 
 6                     5.41506   0.20708   1.72532 
 1                     6.38811   0.69971   1.76644 
 1                     4.94384   0.26888   2.71436 
 1                     5.55091  -0.84402   1.45557 
 6                     2.961     3.53979   1.57576 
 1                     2.81079   4.00184   2.55309 
 1                     4.03341   3.42112   1.39184 
 1                     2.52589   4.18317   0.80192 
 6                     0.64702   2.93182  -2.4596 
 1                     0.86827   3.849    -3.00851 
 1                    -0.33323   2.55293  -2.77367 
 1                     1.40473   2.17843  -2.6969 
 6                    -3.28873  -0.06422   2.76137 
 9                    -2.33713  -0.18851   3.69664 
 9                    -4.28178  -0.90628   3.08436 
 9                    -3.78      1.18077   2.83378 
 6                    -3.44273   0.63073  -2.1819 
 9                    -2.85778   1.83119  -2.35961 
 9                    -4.75477   0.85153  -2.0316 
 9                    -3.26422  -0.06989  -3.30797 
 
 ITRead=  0  0  0  0  0  0  0  0  0  0  0  0  0  0  0  0  0  0  0  0
 ITRead=  0  0  0  0  0  0  0  0  0  0  0  0  0  0  0  0  0  0  0  0
 ITRead=  0  0  0  0  0  0  0  0  0  0  0  0  0  0  0
 MicOpt= -1 -1 -1 -1 -1 -1 -1 -1 -1 -1 -1 -1 -1 -1 -1 -1 -1 -1 -1 -1
 MicOpt= -1 -1 -1 -1 -1 -1 -1 -1 -1 -1 -1 -1 -1 -1 -1 -1 -1 -1 -1 -1
 MicOpt= -1 -1 -1 -1 -1 -1 -1 -1 -1 -1 -1 -1 -1 -1 -1
 NAtoms=     55 NQM=       55 NQMF=       0 NMMI=      0 NMMIF=      0
                NMic=       0 NMicF=      0.
                    Isotopes and Nuclear Properties:
 (Nuclear quadrupole moments (NQMom) in fm**2, nuclear magnetic moments (NMagM)
  in nuclear magnetons)

  Atom         1           2           3           4           5           6           7           8           9          10
 IAtWgt=          12          12          12          12          12           1           1           1           1           1
 AtmWgt=  12.0000000  12.0000000  12.0000000  12.0000000  12.0000000   1.0078250   1.0078250   1.0078250   1.0078250   1.0078250
 NucSpn=           0           0           0           0           0           1           1           1           1           1
 AtZEff=   0.0000000   0.0000000   0.0000000   0.0000000   0.0000000   0.0000000   0.0000000   0.0000000   0.0000000   0.0000000
 NQMom=    0.0000000   0.0000000   0.0000000   0.0000000   0.0000000   0.0000000   0.0000000   0.0000000   0.0000000   0.0000000
 NMagM=    0.0000000   0.0000000   0.0000000   0.0000000   0.0000000   2.7928460   2.7928460   2.7928460   2.7928460   2.7928460
 AtZNuc=   6.0000000   6.0000000   6.0000000   6.0000000   6.0000000   1.0000000   1.0000000   1.0000000   1.0000000   1.0000000

  Atom        11          12          13          14          15          16          17          18          19          20
 IAtWgt=          16          16          16          16          16          12           1           1          16          32
 AtmWgt=  15.9949146  15.9949146  15.9949146  15.9949146  15.9949146  12.0000000   1.0078250   1.0078250  15.9949146  31.9720718
 NucSpn=           0           0           0           0           0           0           1           1           0           0
 AtZEff=   0.0000000   0.0000000   0.0000000   0.0000000   0.0000000   0.0000000   0.0000000   0.0000000   0.0000000   0.0000000
 NQMom=    0.0000000   0.0000000   0.0000000   0.0000000   0.0000000   0.0000000   0.0000000   0.0000000   0.0000000   0.0000000
 NMagM=    0.0000000   0.0000000   0.0000000   0.0000000   0.0000000   0.0000000   2.7928460   2.7928460   0.0000000   0.0000000
 AtZNuc=   8.0000000   8.0000000   8.0000000   8.0000000   8.0000000   6.0000000   1.0000000   1.0000000   8.0000000  16.0000000

  Atom        21          22          23          24          25          26          27          28          29          30
 IAtWgt=          16          16          12          12          12          12           1          12           1          12
 AtmWgt=  15.9949146  15.9949146  12.0000000  12.0000000  12.0000000  12.0000000   1.0078250  12.0000000   1.0078250  12.0000000
 NucSpn=           0           0           0           0           0           0           1           0           1           0
 AtZEff=   0.0000000   0.0000000   0.0000000   0.0000000   0.0000000   0.0000000   0.0000000   0.0000000   0.0000000   0.0000000
 NQMom=    0.0000000   0.0000000   0.0000000   0.0000000   0.0000000   0.0000000   0.0000000   0.0000000   0.0000000   0.0000000
 NMagM=    0.0000000   0.0000000   0.0000000   0.0000000   0.0000000   0.0000000   2.7928460   0.0000000   2.7928460   0.0000000
 AtZNuc=   8.0000000   8.0000000   6.0000000   6.0000000   6.0000000   6.0000000   1.0000000   6.0000000   1.0000000   6.0000000

  Atom        31          32          33          34          35          36          37          38          39          40
 IAtWgt=           1          12           1           1           1          12           1           1           1          12
 AtmWgt=   1.0078250  12.0000000   1.0078250   1.0078250   1.0078250  12.0000000   1.0078250   1.0078250   1.0078250  12.0000000
 NucSpn=           1           0           1           1           1           0           1           1           1           0
 AtZEff=   0.0000000   0.0000000   0.0000000   0.0000000   0.0000000   0.0000000   0.0000000   0.0000000   0.0000000   0.0000000
 NQMom=    0.0000000   0.0000000   0.0000000   0.0000000   0.0000000   0.0000000   0.0000000   0.0000000   0.0000000   0.0000000
 NMagM=    2.7928460   0.0000000   2.7928460   2.7928460   2.7928460   0.0000000   2.7928460   2.7928460   2.7928460   0.0000000
 AtZNuc=   1.0000000   6.0000000   1.0000000   1.0000000   1.0000000   6.0000000   1.0000000   1.0000000   1.0000000   6.0000000

  Atom        41          42          43          44          45          46          47          48          49          50
 IAtWgt=           1           1           1          12           1           1           1          12          19          19
 AtmWgt=   1.0078250   1.0078250   1.0078250  12.0000000   1.0078250   1.0078250   1.0078250  12.0000000  18.9984033  18.9984033
 NucSpn=           1           1           1           0           1           1           1           0           1           1
 AtZEff=   0.0000000   0.0000000   0.0000000   0.0000000   0.0000000   0.0000000   0.0000000   0.0000000   0.0000000   0.0000000
 NQMom=    0.0000000   0.0000000   0.0000000   0.0000000   0.0000000   0.0000000   0.0000000   0.0000000   0.0000000   0.0000000
 NMagM=    2.7928460   2.7928460   2.7928460   0.0000000   2.7928460   2.7928460   2.7928460   0.0000000   2.6288670   2.6288670
 AtZNuc=   1.0000000   1.0000000   1.0000000   6.0000000   1.0000000   1.0000000   1.0000000   6.0000000   9.0000000   9.0000000

  Atom        51          52          53          54          55
 IAtWgt=          19          12          19          19          19
 AtmWgt=  18.9984033  12.0000000  18.9984033  18.9984033  18.9984033
 NucSpn=           1           0           1           1           1
 AtZEff=   0.0000000   0.0000000   0.0000000   0.0000000   0.0000000
 NQMom=    0.0000000   0.0000000   0.0000000   0.0000000   0.0000000
 NMagM=    2.6288670   0.0000000   2.6288670   2.6288670   2.6288670
 AtZNuc=   9.0000000   6.0000000   9.0000000   9.0000000   9.0000000
 Leave Link  101 at Sat Jun 15 07:58:26 2019, MaxMem=  6442450944 cpu:              17.1 elap:               0.6
 (Enter /home/ekwan/sw/g16/l103.exe)

 GradGradGradGradGradGradGradGradGradGradGradGradGradGradGradGradGradGrad
 Berny optimization.
 Initialization pass.
                           ----------------------------
                           !    Initial Parameters    !
                           ! (Angstroms and Degrees)  !
 --------------------------                            --------------------------
 ! Name  Definition              Value          Derivative Info.                !
 --------------------------------------------------------------------------------
 ! R1    R(1,2)                  1.5202         estimate D2E/DX2                !
 ! R2    R(1,5)                  1.5182         estimate D2E/DX2                !
 ! R3    R(1,8)                  1.0982         estimate D2E/DX2                !
 ! R4    R(1,14)                 1.4065         estimate D2E/DX2                !
 ! R5    R(2,3)                  1.5279         estimate D2E/DX2                !
 ! R6    R(2,7)                  1.1009         estimate D2E/DX2                !
 ! R7    R(2,13)                 1.3976         estimate D2E/DX2                !
 ! R8    R(3,6)                  1.0906         estimate D2E/DX2                !
 ! R9    R(3,11)                 1.3794         estimate D2E/DX2                !
 ! R10   R(3,12)                 1.4455         estimate D2E/DX2                !
 ! R11   R(4,5)                  1.5209         estimate D2E/DX2                !
 ! R12   R(4,9)                  1.0976         estimate D2E/DX2                !
 ! R13   R(4,11)                 1.4313         estimate D2E/DX2                !
 ! R14   R(4,16)                 1.5174         estimate D2E/DX2                !
 ! R15   R(5,10)                 1.0967         estimate D2E/DX2                !
 ! R16   R(5,15)                 1.4066         estimate D2E/DX2                !
 ! R17   R(12,20)                1.6023         estimate D2E/DX2                !
 ! R18   R(13,32)                1.4124         estimate D2E/DX2                !
 ! R19   R(14,36)                1.4121         estimate D2E/DX2                !
 ! R20   R(15,40)                1.413          estimate D2E/DX2                !
 ! R21   R(16,17)                1.0919         estimate D2E/DX2                !
 ! R22   R(16,18)                1.0971         estimate D2E/DX2                !
 ! R23   R(16,19)                1.4047         estimate D2E/DX2                !
 ! R24   R(19,44)                1.4124         estimate D2E/DX2                !
 ! R25   R(20,21)                1.4448         estimate D2E/DX2                !
 ! R26   R(20,22)                1.4498         estimate D2E/DX2                !
 ! R27   R(20,23)                1.7647         estimate D2E/DX2                !
 ! R28   R(23,24)                1.3847         estimate D2E/DX2                !
 ! R29   R(23,25)                1.3846         estimate D2E/DX2                !
 ! R30   R(24,26)                1.3859         estimate D2E/DX2                !
 ! R31   R(24,27)                1.0848         estimate D2E/DX2                !
 ! R32   R(25,28)                1.384          estimate D2E/DX2                !
 ! R33   R(25,29)                1.0838         estimate D2E/DX2                !
 ! R34   R(26,30)                1.3858         estimate D2E/DX2                !
 ! R35   R(26,48)                1.5035         estimate D2E/DX2                !
 ! R36   R(28,30)                1.3872         estimate D2E/DX2                !
 ! R37   R(28,52)                1.5023         estimate D2E/DX2                !
 ! R38   R(30,31)                1.0846         estimate D2E/DX2                !
 ! R39   R(32,33)                1.0962         estimate D2E/DX2                !
 ! R40   R(32,34)                1.097          estimate D2E/DX2                !
 ! R41   R(32,35)                1.0903         estimate D2E/DX2                !
 ! R42   R(36,37)                1.0914         estimate D2E/DX2                !
 ! R43   R(36,38)                1.0973         estimate D2E/DX2                !
 ! R44   R(36,39)                1.0936         estimate D2E/DX2                !
 ! R45   R(40,41)                1.0914         estimate D2E/DX2                !
 ! R46   R(40,42)                1.0945         estimate D2E/DX2                !
 ! R47   R(40,43)                1.0964         estimate D2E/DX2                !
 ! R48   R(44,45)                1.0915         estimate D2E/DX2                !
 ! R49   R(44,46)                1.0969         estimate D2E/DX2                !
 ! R50   R(44,47)                1.0945         estimate D2E/DX2                !
 ! R51   R(48,49)                1.3401         estimate D2E/DX2                !
 ! R52   R(48,50)                1.3415         estimate D2E/DX2                !
 ! R53   R(48,51)                1.3404         estimate D2E/DX2                !
 ! R54   R(52,53)                1.3472         estimate D2E/DX2                !
 ! R55   R(52,54)                1.339          estimate D2E/DX2                !
 ! R56   R(52,55)                1.3382         estimate D2E/DX2                !
 ! A1    A(2,1,5)              110.1051         estimate D2E/DX2                !
 ! A2    A(2,1,8)              109.3684         estimate D2E/DX2                !
 ! A3    A(2,1,14)             110.4484         estimate D2E/DX2                !
 ! A4    A(5,1,8)              108.5521         estimate D2E/DX2                !
 ! A5    A(5,1,14)             107.8248         estimate D2E/DX2                !
 ! A6    A(8,1,14)             110.5089         estimate D2E/DX2                !
 ! A7    A(1,2,3)              110.8914         estimate D2E/DX2                !
 ! A8    A(1,2,7)              108.0149         estimate D2E/DX2                !
 ! A9    A(1,2,13)             108.6329         estimate D2E/DX2                !
 ! A10   A(3,2,7)              106.2112         estimate D2E/DX2                !
 ! A11   A(3,2,13)             112.496          estimate D2E/DX2                !
 ! A12   A(7,2,13)             110.4972         estimate D2E/DX2                !
 ! A13   A(2,3,6)              112.0973         estimate D2E/DX2                !
 ! A14   A(2,3,11)             112.9043         estimate D2E/DX2                !
 ! A15   A(2,3,12)             105.884          estimate D2E/DX2                !
 ! A16   A(6,3,11)             106.5993         estimate D2E/DX2                !
 ! A17   A(6,3,12)             108.2117         estimate D2E/DX2                !
 ! A18   A(11,3,12)            111.1187         estimate D2E/DX2                !
 ! A19   A(5,4,9)              108.8472         estimate D2E/DX2                !
 ! A20   A(5,4,11)             110.6491         estimate D2E/DX2                !
 ! A21   A(5,4,16)             111.8639         estimate D2E/DX2                !
 ! A22   A(9,4,11)             109.0106         estimate D2E/DX2                !
 ! A23   A(9,4,16)             107.7879         estimate D2E/DX2                !
 ! A24   A(11,4,16)            108.6028         estimate D2E/DX2                !
 ! A25   A(1,5,4)              111.3452         estimate D2E/DX2                !
 ! A26   A(1,5,10)             108.7918         estimate D2E/DX2                !
 ! A27   A(1,5,15)             109.9927         estimate D2E/DX2                !
 ! A28   A(4,5,10)             108.5159         estimate D2E/DX2                !
 ! A29   A(4,5,15)             107.4641         estimate D2E/DX2                !
 ! A30   A(10,5,15)            110.7244         estimate D2E/DX2                !
 ! A31   A(3,11,4)             114.8876         estimate D2E/DX2                !
 ! A32   A(3,12,20)            118.6347         estimate D2E/DX2                !
 ! A33   A(2,13,32)            114.3155         estimate D2E/DX2                !
 ! A34   A(1,14,36)            114.2384         estimate D2E/DX2                !
 ! A35   A(5,15,40)            113.6593         estimate D2E/DX2                !
 ! A36   A(4,16,17)            107.3583         estimate D2E/DX2                !
 ! A37   A(4,16,18)            109.1811         estimate D2E/DX2                !
 ! A38   A(4,16,19)            114.5537         estimate D2E/DX2                !
 ! A39   A(17,16,18)           108.5268         estimate D2E/DX2                !
 ! A40   A(17,16,19)           106.3635         estimate D2E/DX2                !
 ! A41   A(18,16,19)           110.622          estimate D2E/DX2                !
 ! A42   A(16,19,44)           114.3017         estimate D2E/DX2                !
 ! A43   A(12,20,21)           104.6347         estimate D2E/DX2                !
 ! A44   A(12,20,22)           108.764          estimate D2E/DX2                !
 ! A45   A(12,20,23)           103.2359         estimate D2E/DX2                !
 ! A46   A(21,20,22)           121.2271         estimate D2E/DX2                !
 ! A47   A(21,20,23)           108.8641         estimate D2E/DX2                !
 ! A48   A(22,20,23)           108.623          estimate D2E/DX2                !
 ! A49   A(20,23,24)           118.8001         estimate D2E/DX2                !
 ! A50   A(20,23,25)           119.0183         estimate D2E/DX2                !
 ! A51   A(24,23,25)           122.1486         estimate D2E/DX2                !
 ! A52   A(23,24,26)           118.4282         estimate D2E/DX2                !
 ! A53   A(23,24,27)           120.5841         estimate D2E/DX2                !
 ! A54   A(26,24,27)           120.9876         estimate D2E/DX2                !
 ! A55   A(23,25,28)           118.3814         estimate D2E/DX2                !
 ! A56   A(23,25,29)           120.509          estimate D2E/DX2                !
 ! A57   A(28,25,29)           121.1096         estimate D2E/DX2                !
 ! A58   A(24,26,30)           120.5828         estimate D2E/DX2                !
 ! A59   A(24,26,48)           119.6288         estimate D2E/DX2                !
 ! A60   A(30,26,48)           119.7511         estimate D2E/DX2                !
 ! A61   A(25,28,30)           120.6918         estimate D2E/DX2                !
 ! A62   A(25,28,52)           119.7676         estimate D2E/DX2                !
 ! A63   A(30,28,52)           119.4457         estimate D2E/DX2                !
 ! A64   A(26,30,28)           119.7668         estimate D2E/DX2                !
 ! A65   A(26,30,31)           120.0898         estimate D2E/DX2                !
 ! A66   A(28,30,31)           120.1432         estimate D2E/DX2                !
 ! A67   A(13,32,33)           111.9607         estimate D2E/DX2                !
 ! A68   A(13,32,34)           111.0239         estimate D2E/DX2                !
 ! A69   A(13,32,35)           106.8695         estimate D2E/DX2                !
 ! A70   A(33,32,34)           109.1767         estimate D2E/DX2                !
 ! A71   A(33,32,35)           108.553          estimate D2E/DX2                !
 ! A72   A(34,32,35)           109.1717         estimate D2E/DX2                !
 ! A73   A(14,36,37)           106.8126         estimate D2E/DX2                !
 ! A74   A(14,36,38)           110.9686         estimate D2E/DX2                !
 ! A75   A(14,36,39)           111.4515         estimate D2E/DX2                !
 ! A76   A(37,36,38)           108.8736         estimate D2E/DX2                !
 ! A77   A(37,36,39)           109.4118         estimate D2E/DX2                !
 ! A78   A(38,36,39)           109.2559         estimate D2E/DX2                !
 ! A79   A(15,40,41)           106.9095         estimate D2E/DX2                !
 ! A80   A(15,40,42)           110.9964         estimate D2E/DX2                !
 ! A81   A(15,40,43)           110.825          estimate D2E/DX2                !
 ! A82   A(41,40,42)           109.3426         estimate D2E/DX2                !
 ! A83   A(41,40,43)           109.2065         estimate D2E/DX2                !
 ! A84   A(42,40,43)           109.5041         estimate D2E/DX2                !
 ! A85   A(19,44,45)           106.9516         estimate D2E/DX2                !
 ! A86   A(19,44,46)           110.8682         estimate D2E/DX2                !
 ! A87   A(19,44,47)           112.0541         estimate D2E/DX2                !
 ! A88   A(45,44,46)           109.1115         estimate D2E/DX2                !
 ! A89   A(45,44,47)           109.2099         estimate D2E/DX2                !
 ! A90   A(46,44,47)           108.5919         estimate D2E/DX2                !
 ! A91   A(26,48,49)           111.3407         estimate D2E/DX2                !
 ! A92   A(26,48,50)           111.1904         estimate D2E/DX2                !
 ! A93   A(26,48,51)           111.3308         estimate D2E/DX2                !
 ! A94   A(49,48,50)           107.4227         estimate D2E/DX2                !
 ! A95   A(49,48,51)           107.9819         estimate D2E/DX2                !
 ! A96   A(50,48,51)           107.3806         estimate D2E/DX2                !
 ! A97   A(28,52,53)           110.8422         estimate D2E/DX2                !
 ! A98   A(28,52,54)           111.5183         estimate D2E/DX2                !
 ! A99   A(28,52,55)           111.7381         estimate D2E/DX2                !
 ! A100  A(53,52,54)           107.0584         estimate D2E/DX2                !
 ! A101  A(53,52,55)           107.3148         estimate D2E/DX2                !
 ! A102  A(54,52,55)           108.1502         estimate D2E/DX2                !
 ! D1    D(5,1,2,3)            -50.1504         estimate D2E/DX2                !
 ! D2    D(5,1,2,7)             65.8487         estimate D2E/DX2                !
 ! D3    D(5,1,2,13)          -174.2681         estimate D2E/DX2                !
 ! D4    D(8,1,2,3)             69.0468         estimate D2E/DX2                !
 ! D5    D(8,1,2,7)           -174.9541         estimate D2E/DX2                !
 ! D6    D(8,1,2,13)           -55.0709         estimate D2E/DX2                !
 ! D7    D(14,1,2,3)          -169.1221         estimate D2E/DX2                !
 ! D8    D(14,1,2,7)           -53.1229         estimate D2E/DX2                !
 ! D9    D(14,1,2,13)           66.7602         estimate D2E/DX2                !
 ! D10   D(2,1,5,4)             52.1429         estimate D2E/DX2                !
 ! D11   D(2,1,5,10)           -67.4036         estimate D2E/DX2                !
 ! D12   D(2,1,5,15)           171.1589         estimate D2E/DX2                !
 ! D13   D(8,1,5,4)            -67.5511         estimate D2E/DX2                !
 ! D14   D(8,1,5,10)           172.9025         estimate D2E/DX2                !
 ! D15   D(8,1,5,15)            51.4649         estimate D2E/DX2                !
 ! D16   D(14,1,5,4)           172.7064         estimate D2E/DX2                !
 ! D17   D(14,1,5,10)           53.1599         estimate D2E/DX2                !
 ! D18   D(14,1,5,15)          -68.2776         estimate D2E/DX2                !
 ! D19   D(2,1,14,36)          -99.4382         estimate D2E/DX2                !
 ! D20   D(5,1,14,36)          140.214          estimate D2E/DX2                !
 ! D21   D(8,1,14,36)           21.7176         estimate D2E/DX2                !
 ! D22   D(1,2,3,6)            172.8433         estimate D2E/DX2                !
 ! D23   D(1,2,3,11)            52.4288         estimate D2E/DX2                !
 ! D24   D(1,2,3,12)           -69.3671         estimate D2E/DX2                !
 ! D25   D(7,2,3,6)             55.7329         estimate D2E/DX2                !
 ! D26   D(7,2,3,11)           -64.6816         estimate D2E/DX2                !
 ! D27   D(7,2,3,12)           173.5225         estimate D2E/DX2                !
 ! D28   D(13,2,3,6)           -65.2712         estimate D2E/DX2                !
 ! D29   D(13,2,3,11)          174.3143         estimate D2E/DX2                !
 ! D30   D(13,2,3,12)           52.5184         estimate D2E/DX2                !
 ! D31   D(1,2,13,32)         -164.9983         estimate D2E/DX2                !
 ! D32   D(3,2,13,32)           71.8435         estimate D2E/DX2                !
 ! D33   D(7,2,13,32)          -46.6729         estimate D2E/DX2                !
 ! D34   D(2,3,11,4)           -56.604          estimate D2E/DX2                !
 ! D35   D(6,3,11,4)           179.8858         estimate D2E/DX2                !
 ! D36   D(12,3,11,4)           62.1924         estimate D2E/DX2                !
 ! D37   D(2,3,12,20)         -159.5634         estimate D2E/DX2                !
 ! D38   D(6,3,12,20)          -39.2081         estimate D2E/DX2                !
 ! D39   D(11,3,12,20)          77.5017         estimate D2E/DX2                !
 ! D40   D(9,4,5,1)             65.5387         estimate D2E/DX2                !
 ! D41   D(9,4,5,10)          -174.7511         estimate D2E/DX2                !
 ! D42   D(9,4,5,15)           -54.9765         estimate D2E/DX2                !
 ! D43   D(11,4,5,1)           -54.2278         estimate D2E/DX2                !
 ! D44   D(11,4,5,10)           65.4824         estimate D2E/DX2                !
 ! D45   D(11,4,5,15)         -174.7429         estimate D2E/DX2                !
 ! D46   D(16,4,5,1)          -175.4625         estimate D2E/DX2                !
 ! D47   D(16,4,5,10)          -55.7523         estimate D2E/DX2                !
 ! D48   D(16,4,5,15)           64.0223         estimate D2E/DX2                !
 ! D49   D(5,4,11,3)            57.1804         estimate D2E/DX2                !
 ! D50   D(9,4,11,3)           -62.4878         estimate D2E/DX2                !
 ! D51   D(16,4,11,3)         -179.675          estimate D2E/DX2                !
 ! D52   D(5,4,16,17)          -71.6583         estimate D2E/DX2                !
 ! D53   D(5,4,16,18)          170.8762         estimate D2E/DX2                !
 ! D54   D(5,4,16,19)           46.2025         estimate D2E/DX2                !
 ! D55   D(9,4,16,17)           47.9652         estimate D2E/DX2                !
 ! D56   D(9,4,16,18)          -69.5003         estimate D2E/DX2                !
 ! D57   D(9,4,16,19)          165.8259         estimate D2E/DX2                !
 ! D58   D(11,4,16,17)         165.9311         estimate D2E/DX2                !
 ! D59   D(11,4,16,18)          48.4656         estimate D2E/DX2                !
 ! D60   D(11,4,16,19)         -76.2082         estimate D2E/DX2                !
 ! D61   D(1,5,15,40)          108.3176         estimate D2E/DX2                !
 ! D62   D(4,5,15,40)         -130.316          estimate D2E/DX2                !
 ! D63   D(10,5,15,40)         -11.9579         estimate D2E/DX2                !
 ! D64   D(3,12,20,21)         166.237          estimate D2E/DX2                !
 ! D65   D(3,12,20,22)          35.3474         estimate D2E/DX2                !
 ! D66   D(3,12,20,23)         -79.8904         estimate D2E/DX2                !
 ! D67   D(2,13,32,33)         -71.6277         estimate D2E/DX2                !
 ! D68   D(2,13,32,34)          50.6768         estimate D2E/DX2                !
 ! D69   D(2,13,32,35)         169.6361         estimate D2E/DX2                !
 ! D70   D(1,14,36,37)        -179.6711         estimate D2E/DX2                !
 ! D71   D(1,14,36,38)         -61.1366         estimate D2E/DX2                !
 ! D72   D(1,14,36,39)          60.8722         estimate D2E/DX2                !
 ! D73   D(5,15,40,41)         179.6459         estimate D2E/DX2                !
 ! D74   D(5,15,40,42)         -61.1792         estimate D2E/DX2                !
 ! D75   D(5,15,40,43)          60.7314         estimate D2E/DX2                !
 ! D76   D(4,16,19,44)          78.0693         estimate D2E/DX2                !
 ! D77   D(17,16,19,44)       -163.5062         estimate D2E/DX2                !
 ! D78   D(18,16,19,44)        -45.8394         estimate D2E/DX2                !
 ! D79   D(16,19,44,45)        166.6781         estimate D2E/DX2                !
 ! D80   D(16,19,44,46)         47.8286         estimate D2E/DX2                !
 ! D81   D(16,19,44,47)        -73.6775         estimate D2E/DX2                !
 ! D82   D(12,20,23,24)        -80.4386         estimate D2E/DX2                !
 ! D83   D(12,20,23,25)         97.5189         estimate D2E/DX2                !
 ! D84   D(21,20,23,24)         30.3332         estimate D2E/DX2                !
 ! D85   D(21,20,23,25)       -151.7093         estimate D2E/DX2                !
 ! D86   D(22,20,23,24)        164.2226         estimate D2E/DX2                !
 ! D87   D(22,20,23,25)        -17.8199         estimate D2E/DX2                !
 ! D88   D(20,23,24,26)        177.8022         estimate D2E/DX2                !
 ! D89   D(20,23,24,27)         -2.1138         estimate D2E/DX2                !
 ! D90   D(25,23,24,26)         -0.0883         estimate D2E/DX2                !
 ! D91   D(25,23,24,27)        179.9957         estimate D2E/DX2                !
 ! D92   D(20,23,25,28)       -177.8765         estimate D2E/DX2                !
 ! D93   D(20,23,25,29)          2.0551         estimate D2E/DX2                !
 ! D94   D(24,23,25,28)          0.0095         estimate D2E/DX2                !
 ! D95   D(24,23,25,29)        179.9411         estimate D2E/DX2                !
 ! D96   D(23,24,26,30)          0.0118         estimate D2E/DX2                !
 ! D97   D(23,24,26,48)        177.7824         estimate D2E/DX2                !
 ! D98   D(27,24,26,30)        179.9274         estimate D2E/DX2                !
 ! D99   D(27,24,26,48)         -2.3019         estimate D2E/DX2                !
 ! D100  D(23,25,28,30)          0.1472         estimate D2E/DX2                !
 ! D101  D(23,25,28,52)        176.5872         estimate D2E/DX2                !
 ! D102  D(29,25,28,30)       -179.7839         estimate D2E/DX2                !
 ! D103  D(29,25,28,52)         -3.3439         estimate D2E/DX2                !
 ! D104  D(24,26,30,28)          0.1412         estimate D2E/DX2                !
 ! D105  D(24,26,30,31)       -179.6953         estimate D2E/DX2                !
 ! D106  D(48,26,30,28)       -177.6267         estimate D2E/DX2                !
 ! D107  D(48,26,30,31)          2.5368         estimate D2E/DX2                !
 ! D108  D(24,26,48,49)         30.1747         estimate D2E/DX2                !
 ! D109  D(24,26,48,50)        -89.5769         estimate D2E/DX2                !
 ! D110  D(24,26,48,51)        150.7313         estimate D2E/DX2                !
 ! D111  D(30,26,48,49)       -152.0359         estimate D2E/DX2                !
 ! D112  D(30,26,48,50)         88.2125         estimate D2E/DX2                !
 ! D113  D(30,26,48,51)        -31.4793         estimate D2E/DX2                !
 ! D114  D(25,28,30,26)         -0.2228         estimate D2E/DX2                !
 ! D115  D(25,28,30,31)        179.6136         estimate D2E/DX2                !
 ! D116  D(52,28,30,26)       -176.6742         estimate D2E/DX2                !
 ! D117  D(52,28,30,31)          3.1622         estimate D2E/DX2                !
 ! D118  D(25,28,52,53)        -94.1413         estimate D2E/DX2                !
 ! D119  D(25,28,52,54)        146.6818         estimate D2E/DX2                !
 ! D120  D(25,28,52,55)         25.5044         estimate D2E/DX2                !
 ! D121  D(30,28,52,53)         82.3433         estimate D2E/DX2                !
 ! D122  D(30,28,52,54)        -36.8336         estimate D2E/DX2                !
 ! D123  D(30,28,52,55)       -158.011          estimate D2E/DX2                !
 --------------------------------------------------------------------------------
 Trust Radius=3.00D-01 FncErr=1.00D-07 GrdErr=1.00D-06 EigMax=2.50D+02 EigMin=1.00D-04
 Number of steps in this run=    291 maximum allowed number of steps=    330.
 GradGradGradGradGradGradGradGradGradGradGradGradGradGradGradGradGradGrad

 Leave Link  103 at Sat Jun 15 07:58:26 2019, MaxMem=  6442450944 cpu:               2.4 elap:               0.1
 (Enter /home/ekwan/sw/g16/l202.exe)
 Stoichiometry    C18H22F6O8S
 Framework group  C1[X(C18H22F6O8S)]
 Deg. of freedom   159
 Full point group                 C1      NOp   1
 Largest Abelian subgroup         C1      NOp   1
 Largest concise Abelian subgroup C1      NOp   1
                         Standard orientation:                         
 ---------------------------------------------------------------------
 Center     Atomic      Atomic             Coordinates (Angstroms)
 Number     Number       Type             X           Y           Z
 ---------------------------------------------------------------------
      1          6           0        3.350272    0.386142    0.581880
      2          6           0        3.292750   -0.515143   -0.640925
      3          6           0        1.847021   -0.856068   -0.998984
      4          6           0        1.009640    1.105901    0.031908
      5          6           0        2.410498    1.565409    0.405663
      6          1           0        1.774863   -1.397120   -1.943142
      7          1           0        3.697186    0.046393   -1.497086
      8          1           0        3.036150   -0.181629    1.467927
      9          1           0        0.584717    0.543374    0.873214
     10          1           0        2.793359    2.205137   -0.398611
     11          8           0        1.046895    0.260766   -1.122653
     12          8           0        1.372056   -1.722814    0.055832
     13          8           0        4.065023   -1.653402   -0.393411
     14          8           0        4.650112    0.893942    0.757319
     15          8           0        2.311324    2.285471    1.609931
     16          6           0        0.088522    2.277065   -0.255025
     17          1           0       -0.126713    2.763482    0.698573
     18          1           0       -0.852700    1.900956   -0.674769
     19          8           0        0.641617    3.264501   -1.087006
     20         16           0        0.101387   -2.655945   -0.230797
     21          8           0        0.093167   -3.605969    0.857762
     22          8           0        0.147505   -3.095414   -1.611615
     23          6           0       -1.262187   -1.552869   -0.035719
     24          6           0       -1.708388   -1.263336    1.242742
     25          6           0       -1.822965   -0.972546   -1.160883
     26          6           0       -2.749587   -0.360487    1.389481
     27          1           0       -1.250432   -1.733002    2.106772
     28          6           0       -2.862608   -0.075245   -0.989497
     29          1           0       -1.452112   -1.217781   -2.149321
     30          6           0       -3.327503    0.235721    0.279932
     31          1           0       -4.138611    0.944903    0.404315
     32          6           0        4.372353   -2.409589   -1.546025
     33          1           0        3.494699   -2.938434   -1.935399
     34          1           0        4.788481   -1.771897   -2.335675
     35          1           0        5.119034   -3.147120   -1.250754
     36          6           0        5.415060    0.207083    1.725317
     37          1           0        6.388107    0.699709    1.766436
     38          1           0        4.943840    0.268883    2.714362
     39          1           0        5.550910   -0.844019    1.455574
     40          6           0        2.961004    3.539794    1.575755
     41          1           0        2.810792    4.001843    2.553093
     42          1           0        4.033410    3.421115    1.391841
     43          1           0        2.525891    4.183172    0.801922
     44          6           0        0.647024    2.931816   -2.459604
     45          1           0        0.868267    3.848998   -3.008508
     46          1           0       -0.333233    2.552925   -2.773669
     47          1           0        1.404726    2.178432   -2.696897
     48          6           0       -3.288735   -0.064224    2.761366
     49          9           0       -2.337126   -0.188514    3.696636
     50          9           0       -4.281781   -0.906276    3.084362
     51          9           0       -3.780002    1.180774    2.833779
     52          6           0       -3.442727    0.630731   -2.181902
     53          9           0       -2.857776    1.831186   -2.359609
     54          9           0       -4.754770    0.851527   -2.031601
     55          9           0       -3.264218   -0.069893   -3.307967
 ---------------------------------------------------------------------
 Rotational constants (GHZ):           0.1525405           0.0858979           0.0846983
 Leave Link  202 at Sat Jun 15 07:58:27 2019, MaxMem=  6442450944 cpu:               4.3 elap:               0.2
 (Enter /home/ekwan/sw/g16/l301.exe)
 Standard basis: 6-31G(d) (6D, 7F)
 Centers:      12     22     21
 SP 1 1.00
     Exponent=  8.4500000000D-02 Coefficients=  1.0000000000D+00  1.0000000000D+00
 ****
 Ernie: Thresh=  0.10000D-02 Tol=  0.10000D-05 Strict=F.
 There are   555 symmetry adapted cartesian basis functions of A   symmetry.
 There are   555 symmetry adapted basis functions of A   symmetry.
   555 basis functions,  1048 primitive gaussians,   555 cartesian basis functions
   132 alpha electrons      132 beta electrons
       nuclear repulsion energy      4373.8229563362 Hartrees.
 IExCor=32609 DFT=T Ex+Corr=LC-wPBE ExCW=0 ScaHFX=  1.000000
 ScaDFX=  1.000000  0.000000  1.000000  1.000000 ScalE2=  1.000000  1.000000
 IRadAn=      5 IRanWt=     -1 IRanGd=            0 ICorTp=0 IEmpDi=141
 HFx  wShort=  0.000000 wLong=  0.400000 cFull=  0.000000 cShort=  0.000000 cLong=  1.000000
 DFx  wShort=  0.000000 wLong=  0.400000 cFull=  0.000000 cShort=  0.000000 cLong=  1.000000
 NAtoms=   55 NActive=   55 NUniq=   55 SFac= 1.00D+00 NAtFMM=   60 NAOKFM=F Big=F
 Integral buffers will be    131072 words long.
 Raffenetti 2 integral format.
 Two-electron integral symmetry is turned on.
 R6Disp:  Grimme-D3(BJ) Dispersion energy=       -0.0729875179 Hartrees.
 Nuclear repulsion after empirical dispersion term =     4373.7499688183 Hartrees.
 ------------------------------------------------------------------------------
 Polarizable Continuum Model (PCM)
 =================================
 Model                : PCM.
 Atomic radii         : UFF (Universal Force Field).
 Polarization charges : Total charges.
 Charge compensation  : None.
 Solution method      : On-the-fly selection.
 Cavity type          : Scaled VdW (van der Waals Surface) (Alpha=1.100).
 Cavity algorithm     : GePol (No added spheres)
                        Default sphere list used, NSphG=   55.
                        Lebedev-Laikov grids with approx.  5.0 points / Ang**2.
                        Smoothing algorithm: York/Karplus (Gamma=1.0000).
                        Polarization charges: spherical gaussians, with
                                              point-specific exponents (IZeta= 3).
                        Self-potential: point-specific (ISelfS= 7).
                        Self-field    : sphere-specific E.n sum rule (ISelfD= 2).
 1st derivatives      : Analytical E(r).r(x)/FMM algorithm (CHGder, D1EAlg=3).
                        Cavity 1st derivative terms included.
 Solvent              : TetraHydroFuran, Eps=   7.425700 Eps(inf)=   1.974025
 ------------------------------------------------------------------------------
 GePol: Number of generator spheres                  =      55
 GePol: Total number of spheres                      =      55
 GePol: Number of exposed spheres                    =      55 (100.00%)
 GePol: Number of points                             =    3886
 GePol: Average weight of points                     =       0.13
 GePol: Minimum weight of points                     =   0.34D-11
 GePol: Maximum weight of points                     =    0.20577
 GePol: Number of points with low weight             =     254
 GePol: Fraction of low-weight points (<1% of avg)   =       6.54%
 GePol: Cavity surface area                          =    491.128 Ang**2
 GePol: Cavity volume                                =    572.329 Ang**3
 Leave Link  301 at Sat Jun 15 07:58:27 2019, MaxMem=  6442450944 cpu:               7.1 elap:               0.3
 (Enter /home/ekwan/sw/g16/l302.exe)
 NPDir=0 NMtPBC=     1 NCelOv=     1 NCel=       1 NClECP=     1 NCelD=      1
         NCelK=      1 NCelE2=     1 NClLst=     1 CellRange=     0.0.
 One-electron integrals computed using PRISM.
 One-electron integral symmetry used in STVInt
 NBasis=   555 RedAO= T EigKep=  3.81D-04  NBF=   555
 NBsUse=   555 1.00D-06 EigRej= -1.00D+00 NBFU=   555
 Precomputing XC quadrature grid using
 IXCGrd= 4 IRadAn=           5 IRanWt=          -1 IRanGd=           0 AccXCQ= 0.00D+00.
 Generated NRdTot=       0 NPtTot=           0 NUsed=           0 NTot=          32
 NSgBfM=   545   544   544   544   545 MxSgAt=    55 MxSgA2=    55.
 Leave Link  302 at Sat Jun 15 07:58:33 2019, MaxMem=  6442450944 cpu:             197.7 elap:               6.7
 (Enter /home/ekwan/sw/g16/l303.exe)
 DipDrv:  MaxL=1.
 Leave Link  303 at Sat Jun 15 07:58:36 2019, MaxMem=  6442450944 cpu:              63.7 elap:               2.3
 (Enter /home/ekwan/sw/g16/l401.exe)
 ExpMin= 8.45D-02 ExpMax= 2.19D+04 ExpMxC= 3.30D+03 IAcc=3 IRadAn=         5 AccDes= 0.00D+00
 Harris functional with IExCor=32609 and IRadAn=       5 diagonalized for initial guess.
 HarFok:  IExCor=32609 AccDes= 0.00D+00 IRadAn=         5 IDoV= 1 UseB2=F ITyADJ=14
 ICtDFT=  3500011 ScaDFX=  1.000000  1.000000  1.000000  1.000000
 FoFCou: FMM=F IPFlag=           0 FMFlag=      100000 FMFlg1=           0
         NFxFlg=           0 DoJE=T BraDBF=F KetDBF=T FulRan=T
         wScrn=  0.000000 ICntrl=       500 IOpCl=  0 I1Cent=   200000004 NGrid=           0
         NMat0=    1 NMatS0=      1 NMatT0=    0 NMatD0=    1 NMtDS0=    0 NMtDT0=    0
 Petite list used in FoFCou.
 Harris En= -2296.50256241602    
 JPrj=0 DoOrth=F DoCkMO=F.
 Leave Link  401 at Sat Jun 15 07:58:42 2019, MaxMem=  6442450944 cpu:             204.8 elap:               6.6
 (Enter /home/ekwan/sw/g16/l502.exe)
 Integral symmetry usage will be decided dynamically.
 Closed shell SCF:
 Using DIIS extrapolation, IDIIS=  1040.
 NGot=  6442450944 LenX=  6441811192 LenY=  6441502612
 Requested convergence on RMS density matrix=1.00D-08 within 128 cycles.
 Requested convergence on MAX density matrix=1.00D-06.
 Requested convergence on             energy=1.00D-06.
 No special actions if energy rises.
 Fock matrices will be formed incrementally for  20 cycles.

 Cycle   1  Pass 1  IDiag  1:
 FoFJK:  IHMeth= 1 ICntrl=       0 DoSepK=T KAlg= 0 I1Cent=           0 FoldK=F
 IRaf=         1 NMat=       1 IRICut=       1 DoRegI=T DoRafI=F ISym2E= 0 IDoP0=0 IntGTp=1.
 FoFCou: FMM=F IPFlag=           0 FMFlag=      100000 FMFlg1=           0
         NFxFlg=           0 DoJE=T BraDBF=F KetDBF=F FulRan=T
         wScrn=  0.000000 ICntrl=       500 IOpCl=  0 I1Cent=           0 NGrid=           0
         NMat0=    1 NMatS0=      1 NMatT0=    0 NMatD0=    1 NMtDS0=    0 NMtDT0=    0
 Symmetry not used in FoFCou.
 Inv3:  Mode=1 IEnd=    45302988.
 Iteration    1 A*A^-1 deviation from unit magnitude is 5.77D-15 for   3876.
 Iteration    1 A*A^-1 deviation from orthogonality  is 3.00D-15 for   3876   2722.
 Iteration    1 A^-1*A deviation from unit magnitude is 5.77D-15 for   3876.
 Iteration    1 A^-1*A deviation from orthogonality  is 4.68D-15 for   3875   2466.
 E= -2296.31043710073    
 DIIS: error= 1.91D-02 at cycle   1 NSaved=   1.
 NSaved= 1 IEnMin= 1 EnMin= -2296.31043710073     IErMin= 1 ErrMin= 1.91D-02
 ErrMax= 1.91D-02  0.00D+00 EMaxC= 1.00D-01 BMatC= 7.56D-01 BMatP= 7.56D-01
 IDIUse=3 WtCom= 8.09D-01 WtEn= 1.91D-01
 Coeff-Com:  0.100D+01
 Coeff-En:   0.100D+01
 Coeff:      0.100D+01
 Gap=     0.361 Goal=   None    Shift=    0.000
 GapD=    0.361 DampG=1.000 DampE=0.500 DampFc=0.5000 IDamp=-1.
 Damping current iteration by 5.00D-01
 RMSDP=2.78D-03 MaxDP=3.85D-01              OVMax= 1.27D-01

 Cycle   2  Pass 1  IDiag  1:
 RMSU=  1.39D-03    CP:  9.96D-01
 E= -2296.61128738772     Delta-E=       -0.300850286990 Rises=F Damp=T
 DIIS: error= 6.06D-03 at cycle   2 NSaved=   2.
 NSaved= 2 IEnMin= 2 EnMin= -2296.61128738772     IErMin= 2 ErrMin= 6.06D-03
 ErrMax= 6.06D-03  0.00D+00 EMaxC= 1.00D-01 BMatC= 4.04D-02 BMatP= 7.56D-01
 IDIUse=3 WtCom= 9.39D-01 WtEn= 6.06D-02
 Coeff-Com: -0.365D-01 0.104D+01
 Coeff-En:   0.000D+00 0.100D+01
 Coeff:     -0.343D-01 0.103D+01
 Gap=     0.389 Goal=   None    Shift=    0.000
 RMSDP=7.00D-04 MaxDP=5.52D-02 DE=-3.01D-01 OVMax= 7.99D-02

 Cycle   3  Pass 1  IDiag  1:
 RMSU=  6.88D-04    CP:  9.90D-01  1.06D+00
 E= -2296.91032765987     Delta-E=       -0.299040272151 Rises=F Damp=F
 DIIS: error= 3.53D-03 at cycle   3 NSaved=   3.
 NSaved= 3 IEnMin= 3 EnMin= -2296.91032765987     IErMin= 3 ErrMin= 3.53D-03
 ErrMax= 3.53D-03  0.00D+00 EMaxC= 1.00D-01 BMatC= 1.75D-02 BMatP= 4.04D-02
 IDIUse=3 WtCom= 9.65D-01 WtEn= 3.53D-02
 Coeff-Com: -0.624D-01 0.402D+00 0.660D+00
 Coeff-En:   0.000D+00 0.000D+00 0.100D+01
 Coeff:     -0.602D-01 0.388D+00 0.672D+00
 Gap=     0.363 Goal=   None    Shift=    0.000
 RMSDP=2.79D-04 MaxDP=2.15D-02 DE=-2.99D-01 OVMax= 2.28D-02

 Cycle   4  Pass 1  IDiag  1:
 RMSU=  2.17D-04    CP:  9.92D-01  1.14D+00  8.07D-01
 E= -2296.92228302113     Delta-E=       -0.011955361258 Rises=F Damp=F
 DIIS: error= 1.10D-03 at cycle   4 NSaved=   4.
 NSaved= 4 IEnMin= 4 EnMin= -2296.92228302113     IErMin= 4 ErrMin= 1.10D-03
 ErrMax= 1.10D-03  0.00D+00 EMaxC= 1.00D-01 BMatC= 1.75D-03 BMatP= 1.75D-02
 IDIUse=3 WtCom= 9.89D-01 WtEn= 1.10D-02
 Coeff-Com: -0.187D-01 0.496D-01 0.258D+00 0.711D+00
 Coeff-En:   0.000D+00 0.000D+00 0.000D+00 0.100D+01
 Coeff:     -0.185D-01 0.491D-01 0.255D+00 0.714D+00
 Gap=     0.365 Goal=   None    Shift=    0.000
 RMSDP=8.37D-05 MaxDP=5.39D-03 DE=-1.20D-02 OVMax= 6.58D-03

 Cycle   5  Pass 1  IDiag  1:
 RMSU=  5.38D-05    CP:  9.91D-01  1.14D+00  8.75D-01  8.02D-01
 E= -2296.92358840666     Delta-E=       -0.001305385533 Rises=F Damp=F
 DIIS: error= 3.47D-04 at cycle   5 NSaved=   5.
 NSaved= 5 IEnMin= 5 EnMin= -2296.92358840666     IErMin= 5 ErrMin= 3.47D-04
 ErrMax= 3.47D-04  0.00D+00 EMaxC= 1.00D-01 BMatC= 1.60D-04 BMatP= 1.75D-03
 IDIUse=3 WtCom= 9.97D-01 WtEn= 3.47D-03
 Coeff-Com: -0.285D-02-0.450D-02 0.529D-01 0.283D+00 0.672D+00
 Coeff-En:   0.000D+00 0.000D+00 0.000D+00 0.000D+00 0.100D+01
 Coeff:     -0.284D-02-0.448D-02 0.527D-01 0.282D+00 0.673D+00
 Gap=     0.365 Goal=   None    Shift=    0.000
 RMSDP=2.41D-05 MaxDP=2.11D-03 DE=-1.31D-03 OVMax= 2.66D-03

 Cycle   6  Pass 1  IDiag  1:
 RMSU=  1.91D-05    CP:  9.91D-01  1.14D+00  8.83D-01  8.52D-01  9.08D-01
 E= -2296.92372051453     Delta-E=       -0.000132107871 Rises=F Damp=F
 DIIS: error= 1.49D-04 at cycle   6 NSaved=   6.
 NSaved= 6 IEnMin= 6 EnMin= -2296.92372051453     IErMin= 6 ErrMin= 1.49D-04
 ErrMax= 1.49D-04  0.00D+00 EMaxC= 1.00D-01 BMatC= 1.34D-05 BMatP= 1.60D-04
 IDIUse=3 WtCom= 9.99D-01 WtEn= 1.49D-03
 Coeff-Com:  0.114D-02-0.677D-02-0.132D-01 0.559D-02 0.211D+00 0.803D+00
 Coeff-En:   0.000D+00 0.000D+00 0.000D+00 0.000D+00 0.000D+00 0.100D+01
 Coeff:      0.113D-02-0.676D-02-0.132D-01 0.558D-02 0.210D+00 0.803D+00
 Gap=     0.365 Goal=   None    Shift=    0.000
 RMSDP=1.01D-05 MaxDP=5.20D-04 DE=-1.32D-04 OVMax= 1.39D-03

 Cycle   7  Pass 1  IDiag  1:
 RMSU=  6.22D-06    CP:  9.91D-01  1.14D+00  8.88D-01  8.71D-01  1.01D+00
                    CP:  1.02D+00
 E= -2296.92373736986     Delta-E=       -0.000016855327 Rises=F Damp=F
 DIIS: error= 7.46D-05 at cycle   7 NSaved=   7.
 NSaved= 7 IEnMin= 7 EnMin= -2296.92373736986     IErMin= 7 ErrMin= 7.46D-05
 ErrMax= 7.46D-05  0.00D+00 EMaxC= 1.00D-01 BMatC= 1.23D-06 BMatP= 1.34D-05
 IDIUse=1 WtCom= 1.00D+00 WtEn= 0.00D+00
 Coeff-Com:  0.601D-03-0.120D-02-0.926D-02-0.313D-01-0.356D-01 0.135D+00
 Coeff-Com:  0.942D+00
 Coeff:      0.601D-03-0.120D-02-0.926D-02-0.313D-01-0.356D-01 0.135D+00
 Coeff:      0.942D+00
 Gap=     0.366 Goal=   None    Shift=    0.000
 RMSDP=4.91D-06 MaxDP=2.08D-04 DE=-1.69D-05 OVMax= 8.91D-04

 Cycle   8  Pass 1  IDiag  1:
 RMSU=  2.78D-06    CP:  9.91D-01  1.14D+00  8.90D-01  8.73D-01  1.06D+00
                    CP:  1.16D+00  1.17D+00
 E= -2296.92374064356     Delta-E=       -0.000003273705 Rises=F Damp=F
 DIIS: error= 2.27D-05 at cycle   8 NSaved=   8.
 NSaved= 8 IEnMin= 8 EnMin= -2296.92374064356     IErMin= 8 ErrMin= 2.27D-05
 ErrMax= 2.27D-05  0.00D+00 EMaxC= 1.00D-01 BMatC= 4.01D-07 BMatP= 1.23D-06
 IDIUse=1 WtCom= 1.00D+00 WtEn= 0.00D+00
 Coeff-Com:  0.532D-04 0.683D-03-0.123D-02-0.124D-01-0.482D-01-0.776D-01
 Coeff-Com:  0.381D+00 0.757D+00
 Coeff:      0.532D-04 0.683D-03-0.123D-02-0.124D-01-0.482D-01-0.776D-01
 Coeff:      0.381D+00 0.757D+00
 Gap=     0.365 Goal=   None    Shift=    0.000
 RMSDP=1.95D-06 MaxDP=9.48D-05 DE=-3.27D-06 OVMax= 5.01D-04

 Cycle   9  Pass 1  IDiag  1:
 RMSU=  1.10D-06    CP:  9.91D-01  1.14D+00  8.90D-01  8.74D-01  1.07D+00
                    CP:  1.20D+00  1.36D+00  1.06D+00
 E= -2296.92374152862     Delta-E=       -0.000000885058 Rises=F Damp=F
 DIIS: error= 1.76D-05 at cycle   9 NSaved=   9.
 NSaved= 9 IEnMin= 9 EnMin= -2296.92374152862     IErMin= 9 ErrMin= 1.76D-05
 ErrMax= 1.76D-05  0.00D+00 EMaxC= 1.00D-01 BMatC= 5.49D-08 BMatP= 4.01D-07
 IDIUse=1 WtCom= 1.00D+00 WtEn= 0.00D+00
 Coeff-Com: -0.104D-03 0.470D-03 0.191D-02 0.371D-02-0.768D-02-0.533D-01
 Coeff-Com: -0.954D-01 0.188D+00 0.963D+00
 Coeff:     -0.104D-03 0.470D-03 0.191D-02 0.371D-02-0.768D-02-0.533D-01
 Coeff:     -0.954D-01 0.188D+00 0.963D+00
 Gap=     0.365 Goal=   None    Shift=    0.000
 RMSDP=1.10D-06 MaxDP=5.07D-05 DE=-8.85D-07 OVMax= 2.55D-04

 Cycle  10  Pass 1  IDiag  1:
 RMSU=  5.05D-07    CP:  9.91D-01  1.14D+00  8.90D-01  8.75D-01  1.07D+00
                    CP:  1.22D+00  1.46D+00  1.28D+00  1.19D+00
 E= -2296.92374169953     Delta-E=       -0.000000170912 Rises=F Damp=F
 DIIS: error= 3.28D-06 at cycle  10 NSaved=  10.
 NSaved=10 IEnMin=10 EnMin= -2296.92374169953     IErMin=10 ErrMin= 3.28D-06
 ErrMax= 3.28D-06  0.00D+00 EMaxC= 1.00D-01 BMatC= 7.56D-09 BMatP= 5.49D-08
 IDIUse=1 WtCom= 1.00D+00 WtEn= 0.00D+00
 Coeff-Com: -0.175D-04-0.425D-04 0.671D-03 0.297D-02 0.546D-02-0.481D-03
 Coeff-Com: -0.860D-01-0.732D-01 0.278D+00 0.872D+00
 Coeff:     -0.175D-04-0.425D-04 0.671D-03 0.297D-02 0.546D-02-0.481D-03
 Coeff:     -0.860D-01-0.732D-01 0.278D+00 0.872D+00
 Gap=     0.365 Goal=   None    Shift=    0.000
 RMSDP=3.61D-07 MaxDP=1.79D-05 DE=-1.71D-07 OVMax= 9.07D-05

 Cycle  11  Pass 1  IDiag  1:
 RMSU=  1.64D-07    CP:  9.91D-01  1.14D+00  8.90D-01  8.75D-01  1.07D+00
                    CP:  1.22D+00  1.48D+00  1.35D+00  1.37D+00  1.08D+00
 E= -2296.92374172202     Delta-E=       -0.000000022485 Rises=F Damp=F
 DIIS: error= 1.09D-06 at cycle  11 NSaved=  11.
 NSaved=11 IEnMin=11 EnMin= -2296.92374172202     IErMin=11 ErrMin= 1.09D-06
 ErrMax= 1.09D-06  0.00D+00 EMaxC= 1.00D-01 BMatC= 8.43D-10 BMatP= 7.56D-09
 IDIUse=1 WtCom= 1.00D+00 WtEn= 0.00D+00
 Coeff-Com:  0.582D-05-0.560D-04 0.649D-04 0.608D-03 0.220D-02 0.386D-02
 Coeff-Com: -0.178D-01-0.375D-01 0.195D-02 0.260D+00 0.787D+00
 Coeff:      0.582D-05-0.560D-04 0.649D-04 0.608D-03 0.220D-02 0.386D-02
 Coeff:     -0.178D-01-0.375D-01 0.195D-02 0.260D+00 0.787D+00
 Gap=     0.365 Goal=   None    Shift=    0.000
 RMSDP=9.66D-08 MaxDP=5.78D-06 DE=-2.25D-08 OVMax= 2.00D-05

 Cycle  12  Pass 1  IDiag  1:
 RMSU=  6.30D-08    CP:  9.91D-01  1.14D+00  8.90D-01  8.75D-01  1.07D+00
                    CP:  1.22D+00  1.48D+00  1.36D+00  1.41D+00  1.18D+00
                    CP:  1.04D+00
 E= -2296.92374172320     Delta-E=       -0.000000001183 Rises=F Damp=F
 DIIS: error= 6.21D-07 at cycle  12 NSaved=  12.
 NSaved=12 IEnMin=12 EnMin= -2296.92374172320     IErMin=12 ErrMin= 6.21D-07
 ErrMax= 6.21D-07  0.00D+00 EMaxC= 1.00D-01 BMatC= 2.50D-10 BMatP= 8.43D-10
 IDIUse=1 WtCom= 1.00D+00 WtEn= 0.00D+00
 Coeff-Com:  0.652D-05-0.182D-04-0.859D-04-0.267D-03-0.219D-05 0.175D-02
 Coeff-Com:  0.813D-02-0.337D-02-0.537D-01-0.476D-01 0.379D+00 0.716D+00
 Coeff:      0.652D-05-0.182D-04-0.859D-04-0.267D-03-0.219D-05 0.175D-02
 Coeff:      0.813D-02-0.337D-02-0.537D-01-0.476D-01 0.379D+00 0.716D+00
 Gap=     0.365 Goal=   None    Shift=    0.000
 RMSDP=4.40D-08 MaxDP=2.46D-06 DE=-1.18D-09 OVMax= 5.61D-06

 Cycle  13  Pass 1  IDiag  1:
 RMSU=  1.95D-08    CP:  9.91D-01  1.14D+00  8.90D-01  8.75D-01  1.07D+00
                    CP:  1.22D+00  1.49D+00  1.36D+00  1.42D+00  1.22D+00
                    CP:  1.21D+00  8.76D-01
 E= -2296.92374172346     Delta-E=       -0.000000000262 Rises=F Damp=F
 DIIS: error= 8.57D-08 at cycle  13 NSaved=  13.
 NSaved=13 IEnMin=13 EnMin= -2296.92374172346     IErMin=13 ErrMin= 8.57D-08
 ErrMax= 8.57D-08  0.00D+00 EMaxC= 1.00D-01 BMatC= 1.10D-11 BMatP= 2.50D-10
 IDIUse=1 WtCom= 1.00D+00 WtEn= 0.00D+00
 Coeff-Com:  0.104D-05 0.822D-06-0.249D-04-0.121D-03-0.204D-03 0.148D-04
 Coeff-Com:  0.374D-02 0.320D-02-0.132D-01-0.380D-01 0.185D-01 0.183D+00
 Coeff-Com:  0.843D+00
 Coeff:      0.104D-05 0.822D-06-0.249D-04-0.121D-03-0.204D-03 0.148D-04
 Coeff:      0.374D-02 0.320D-02-0.132D-01-0.380D-01 0.185D-01 0.183D+00
 Coeff:      0.843D+00
 Gap=     0.365 Goal=   None    Shift=    0.000
 RMSDP=1.30D-08 MaxDP=6.15D-07 DE=-2.62D-10 OVMax= 1.10D-06

 Cycle  14  Pass 1  IDiag  1:
 RMSU=  6.77D-09    CP:  9.91D-01  1.14D+00  8.90D-01  8.75D-01  1.07D+00
                    CP:  1.22D+00  1.48D+00  1.36D+00  1.42D+00  1.23D+00
                    CP:  1.26D+00  9.76D-01  1.09D+00
 E= -2296.92374172350     Delta-E=       -0.000000000033 Rises=F Damp=F
 DIIS: error= 2.57D-08 at cycle  14 NSaved=  14.
 NSaved=14 IEnMin=14 EnMin= -2296.92374172350     IErMin=14 ErrMin= 2.57D-08
 ErrMax= 2.57D-08  0.00D+00 EMaxC= 1.00D-01 BMatC= 1.36D-12 BMatP= 1.10D-11
 IDIUse=1 WtCom= 1.00D+00 WtEn= 0.00D+00
 Coeff-Com: -0.456D-06 0.212D-05 0.136D-05-0.787D-05-0.657D-04-0.213D-03
 Coeff-Com:  0.264D-03 0.143D-02 0.171D-02-0.686D-02-0.350D-01-0.218D-01
 Coeff-Com:  0.251D+00 0.810D+00
 Coeff:     -0.456D-06 0.212D-05 0.136D-05-0.787D-05-0.657D-04-0.213D-03
 Coeff:      0.264D-03 0.143D-02 0.171D-02-0.686D-02-0.350D-01-0.218D-01
 Coeff:      0.251D+00 0.810D+00
 Gap=     0.365 Goal=   None    Shift=    0.000
 RMSDP=4.27D-09 MaxDP=1.86D-07 DE=-3.27D-11 OVMax= 5.44D-07

 Error on total polarization charges =  0.01000
 SCF Done:  E(RLC-wPBE) =  -2296.92374172     A.U. after   14 cycles
            NFock= 14  Conv=0.43D-08     -V/T= 2.0080
 KE= 2.278793077951D+03 PE=-1.415115981803D+04 EE= 5.201693029540D+03
 Leave Link  502 at Sat Jun 15 08:03:52 2019, MaxMem=  6442450944 cpu:            9598.8 elap:             309.4
 (Enter /home/ekwan/sw/g16/l701.exe)
 ... and contract with generalized density number  0.
 Compute integral first derivatives.
 R6Disp: Adding Grimme-D3(BJ) dispersion energy 1st derivatives to the gradient.
 D1PCM: PCM CHGder 1st derivatives, ID1Alg=3 FixD1E=F DoIter=F DoCFld=F I1PDM=0.
 GePol: Maximum number of non-zero 1st derivatives   =     222
 Leave Link  701 at Sat Jun 15 08:04:03 2019, MaxMem=  6442450944 cpu:             326.1 elap:              11.4
 (Enter /home/ekwan/sw/g16/l702.exe)
 L702 exits ... SP integral derivatives will be done elsewhere.
 Leave Link  702 at Sat Jun 15 08:04:03 2019, MaxMem=  6442450944 cpu:               2.1 elap:               0.2
 (Enter /home/ekwan/sw/g16/l703.exe)
 Integral derivatives from FoFJK, PRISM(SPDF).
 Compute integral first derivatives, UseDBF=F ICtDFT=           0.
 Calling FoFJK, ICntrl=      2127 FMM=F ISym2X=0 I1Cent= 0 IOpClX= 0 NMat=1 NMatS=1 NMatT=0.
 FoFJK:  IHMeth= 1 ICntrl=    2127 DoSepK=T KAlg= 0 I1Cent=           0 FoldK=F
 IRaf=         1 NMat=       1 IRICut=       1 DoRegI=T DoRafI=F ISym2E= 0 IDoP0=0 IntGTp=1.
 FoFCou: FMM=F IPFlag=           0 FMFlag=      100000 FMFlg1=         800
         NFxFlg=           0 DoJE=F BraDBF=F KetDBF=F FulRan=T
         wScrn=  0.000000 ICntrl=      2527 IOpCl=  0 I1Cent=           0 NGrid=           0
         NMat0=    1 NMatS0=      1 NMatT0=    0 NMatD0=    1 NMtDS0=    0 NMtDT0=    0
 Symmetry not used in FoFCou.
 Leave Link  703 at Sat Jun 15 08:05:24 2019, MaxMem=  6442450944 cpu:            2585.8 elap:              81.0
 (Enter /home/ekwan/sw/g16/l716.exe)
 Dipole        = 2.86965904D-01 1.28700952D+00-7.90443359D-01
 ***** Axes restored to original set *****
 -------------------------------------------------------------------
 Center     Atomic                   Forces (Hartrees/Bohr)
 Number     Number              X              Y              Z
 -------------------------------------------------------------------
      1        6           0.000001181   -0.000001557   -0.000001737
      2        6          -0.000001761    0.000002241    0.000001185
      3        6           0.000000520   -0.000003245    0.000001746
      4        6           0.000000551    0.000001442    0.000000633
      5        6           0.000000141    0.000000785   -0.000001934
      6        1           0.000000979   -0.000000294    0.000001274
      7        1           0.000000428    0.000000695    0.000001190
      8        1          -0.000000693    0.000002396    0.000001471
      9        1          -0.000000801   -0.000000352   -0.000000224
     10        1          -0.000000433    0.000000165   -0.000000121
     11        8           0.000000373   -0.000002331   -0.000000048
     12        8           0.000001198    0.000006006    0.000001823
     13        8           0.000000561   -0.000001510    0.000002506
     14        8          -0.000000734    0.000003426    0.000002817
     15        8          -0.000001476    0.000002127   -0.000000139
     16        6          -0.000000852   -0.000001564   -0.000002671
     17        1          -0.000000544    0.000000257   -0.000000759
     18        1          -0.000000324   -0.000000324   -0.000000807
     19        8          -0.000000397   -0.000000284   -0.000001364
     20       16           0.000000943    0.000003039   -0.000000617
     21        8          -0.000000237   -0.000003256    0.000005268
     22        8           0.000000061   -0.000002089   -0.000002141
     23        6           0.000000210   -0.000000112    0.000001084
     24        6           0.000001153    0.000000270    0.000001409
     25        6           0.000001481   -0.000003898   -0.000000326
     26        6           0.000001574   -0.000001745   -0.000000536
     27        1          -0.000000731    0.000001124    0.000000051
     28        6          -0.000001135   -0.000000377    0.000002415
     29        1           0.000000608   -0.000001503    0.000000668
     30        6           0.000000006   -0.000001111   -0.000003272
     31        1          -0.000000354   -0.000000579   -0.000000848
     32        6           0.000000790    0.000000633    0.000001130
     33        1           0.000001239   -0.000000356    0.000002300
     34        1           0.000000738   -0.000000465    0.000001598
     35        1           0.000001512    0.000000140    0.000002589
     36        6           0.000001552    0.000000559   -0.000000329
     37        1          -0.000000791    0.000002542    0.000001070
     38        1          -0.000000625    0.000002236    0.000001006
     39        1          -0.000000301    0.000002354    0.000001610
     40        6          -0.000000731    0.000000083   -0.000001576
     41        1          -0.000001336    0.000001909   -0.000001072
     42        1          -0.000000976    0.000001736   -0.000001133
     43        1          -0.000001192    0.000000835   -0.000001710
     44        6           0.000000204   -0.000001761   -0.000001776
     45        1          -0.000000408   -0.000001187   -0.000001888
     46        1          -0.000000078   -0.000001318   -0.000001417
     47        1          -0.000000253   -0.000000875   -0.000000809
     48        6           0.000001812    0.000002346    0.000001299
     49        9          -0.000001932    0.000001131   -0.000001291
     50        9          -0.000001523   -0.000000128   -0.000000613
     51        9          -0.000000662    0.000000254   -0.000001340
     52        6           0.000001453    0.000001041   -0.000001941
     53        9          -0.000001944   -0.000004061   -0.000000992
     54        9           0.000001337   -0.000002332   -0.000001252
     55        9           0.000000619   -0.000003159   -0.000001459
 -------------------------------------------------------------------
 Cartesian Forces:  Max     0.000006006 RMS     0.000001585
 Leave Link  716 at Sat Jun 15 08:05:25 2019, MaxMem=  6442450944 cpu:               2.6 elap:               0.1
 (Enter /home/ekwan/sw/g16/l103.exe)

 GradGradGradGradGradGradGradGradGradGradGradGradGradGradGradGradGradGrad
 Berny optimization.
 FormGI is forming the generalized inverse of G from B-inverse, IUseBI=4.
 GSVD:  received Info=                   1 from GESDD.
 Internal  Forces:  Max     0.000004902 RMS     0.000000785
 Search for a local minimum.
 Step number   1 out of a maximum of  291
 All quantities printed in internal units (Hartrees-Bohrs-Radians)
 RMS Force = .78549D-06 SwitMx=.10000D-02 MixMth= 2
 Mixed Optimization -- En-DIIS/RFO-DIIS
 Second derivative matrix not updated -- first step.
 ITU=  0
     Eigenvalues ---    0.00536   0.00699   0.00720   0.00736   0.00771
     Eigenvalues ---    0.00837   0.01090   0.01500   0.01520   0.01528
     Eigenvalues ---    0.01528   0.01532   0.01604   0.01606   0.01630
     Eigenvalues ---    0.01639   0.01693   0.01723   0.01743   0.02266
     Eigenvalues ---    0.02272   0.02282   0.02283   0.02292   0.02297
     Eigenvalues ---    0.02588   0.03018   0.03423   0.04558   0.04702
     Eigenvalues ---    0.04770   0.04929   0.05001   0.05318   0.05345
     Eigenvalues ---    0.05868   0.06091   0.06623   0.07045   0.07120
     Eigenvalues ---    0.07257   0.07823   0.09345   0.10065   0.10091
     Eigenvalues ---    0.10126   0.10176   0.10573   0.10595   0.10616
     Eigenvalues ---    0.10621   0.10720   0.10801   0.10902   0.10973
     Eigenvalues ---    0.10983   0.11050   0.11475   0.11847   0.12059
     Eigenvalues ---    0.14127   0.14871   0.16000   0.16000   0.16000
     Eigenvalues ---    0.16000   0.16000   0.16000   0.16000   0.16000
     Eigenvalues ---    0.16000   0.16000   0.16000   0.16000   0.16000
     Eigenvalues ---    0.16000   0.16000   0.16438   0.16935   0.17452
     Eigenvalues ---    0.18672   0.19632   0.19790   0.20803   0.22139
     Eigenvalues ---    0.23477   0.23487   0.23497   0.24952   0.24981
     Eigenvalues ---    0.24985   0.25000   0.25000   0.25000   0.25000
     Eigenvalues ---    0.25000   0.25000   0.25000   0.25000   0.25000
     Eigenvalues ---    0.25000   0.25000   0.25000   0.27840   0.29107
     Eigenvalues ---    0.29443   0.29711   0.29997   0.30621   0.32013
     Eigenvalues ---    0.32142   0.33587   0.33878   0.33946   0.33982
     Eigenvalues ---    0.34009   0.34019   0.34032   0.34053   0.34084
     Eigenvalues ---    0.34110   0.34294   0.34296   0.34396   0.34592
     Eigenvalues ---    0.34635   0.34647   0.34649   0.34745   0.34782
     Eigenvalues ---    0.35417   0.35447   0.35536   0.38840   0.39333
     Eigenvalues ---    0.43532   0.43609   0.43630   0.43634   0.43677
     Eigenvalues ---    0.43822   0.44540   0.44561   0.44853   0.46020
     Eigenvalues ---    0.47181   0.47932   0.48120   0.48180   0.48313
     Eigenvalues ---    0.50768   0.55630   0.56879   0.57121   0.57193
     Eigenvalues ---    0.57440   0.57612   0.96029   0.98279
 RFO step:  Lambda= 0.00000000D+00 EMin= 5.36165638D-03
 Linear search not attempted -- first point.
 Iteration  1 RMS(Cart)=  0.00016117 RMS(Int)=  0.00000000
 Iteration  2 RMS(Cart)=  0.00000001 RMS(Int)=  0.00000000
 ITry= 1 IFail=0 DXMaxC= 8.24D-04 DCOld= 1.00D+10 DXMaxT= 3.00D-01 DXLimC= 3.00D+00 Rises=F
 Variable       Old X    -DE/DX   Delta X   Delta X   Delta X     New X
                                 (Linear)    (Quad)   (Total)
    R1        2.87268   0.00000   0.00000   0.00000   0.00000   2.87268
    R2        2.86896   0.00000   0.00000   0.00000   0.00000   2.86896
    R3        2.07536   0.00000   0.00000   0.00000   0.00000   2.07536
    R4        2.65789   0.00000   0.00000   0.00000   0.00000   2.65789
    R5        2.88737   0.00000   0.00000   0.00000   0.00000   2.88737
    R6        2.08033   0.00000   0.00000   0.00000   0.00000   2.08033
    R7        2.64109   0.00000   0.00000   0.00000   0.00000   2.64110
    R8        2.06091   0.00000   0.00000   0.00000   0.00000   2.06091
    R9        2.60674   0.00000   0.00000   0.00000   0.00000   2.60673
   R10        2.73160   0.00000   0.00000  -0.00001  -0.00001   2.73160
   R11        2.87415   0.00000   0.00000   0.00000   0.00000   2.87415
   R12        2.07422   0.00000   0.00000   0.00000   0.00000   2.07422
   R13        2.70479   0.00000   0.00000   0.00000   0.00000   2.70479
   R14        2.86742   0.00000   0.00000   0.00000   0.00000   2.86742
   R15        2.07241   0.00000   0.00000   0.00000   0.00000   2.07241
   R16        2.65813   0.00000   0.00000   0.00000   0.00000   2.65813
   R17        3.02798   0.00000   0.00000   0.00000   0.00000   3.02799
   R18        2.66899   0.00000   0.00000   0.00000   0.00000   2.66900
   R19        2.66843   0.00000   0.00000   0.00000   0.00000   2.66843
   R20        2.67019   0.00000   0.00000   0.00000   0.00000   2.67019
   R21        2.06342   0.00000   0.00000   0.00000   0.00000   2.06342
   R22        2.07314   0.00000   0.00000   0.00000   0.00000   2.07314
   R23        2.65447   0.00000   0.00000   0.00000   0.00000   2.65447
   R24        2.66896   0.00000   0.00000   0.00000   0.00000   2.66896
   R25        2.73036   0.00000   0.00000   0.00000   0.00000   2.73036
   R26        2.73972   0.00000   0.00000   0.00000   0.00000   2.73973
   R27        3.33480   0.00000   0.00000   0.00000   0.00000   3.33480
   R28        2.61670   0.00000   0.00000   0.00000   0.00000   2.61670
   R29        2.61660   0.00000   0.00000   0.00000   0.00000   2.61660
   R30        2.61900   0.00000   0.00000   0.00000   0.00000   2.61900
   R31        2.05003   0.00000   0.00000   0.00000   0.00000   2.05003
   R32        2.61533   0.00000   0.00000   0.00000   0.00000   2.61533
   R33        2.04814   0.00000   0.00000   0.00000   0.00000   2.04814
   R34        2.61886   0.00000   0.00000   0.00000   0.00000   2.61886
   R35        2.84121   0.00000   0.00000   0.00000   0.00000   2.84121
   R36        2.62140   0.00000   0.00000   0.00000   0.00000   2.62139
   R37        2.83885   0.00000   0.00000   0.00000   0.00000   2.83885
   R38        2.04955   0.00000   0.00000   0.00000   0.00000   2.04955
   R39        2.07144   0.00000   0.00000   0.00000   0.00000   2.07144
   R40        2.07299   0.00000   0.00000   0.00000   0.00000   2.07299
   R41        2.06030   0.00000   0.00000   0.00000   0.00000   2.06030
   R42        2.06248   0.00000   0.00000   0.00000   0.00000   2.06248
   R43        2.07361   0.00000   0.00000   0.00000   0.00000   2.07361
   R44        2.06667   0.00000   0.00000   0.00000   0.00000   2.06666
   R45        2.06252   0.00000   0.00000   0.00000   0.00000   2.06252
   R46        2.06833   0.00000   0.00000   0.00000   0.00000   2.06833
   R47        2.07188   0.00000   0.00000   0.00000   0.00000   2.07188
   R48        2.06272   0.00000   0.00000   0.00000   0.00000   2.06272
   R49        2.07276   0.00000   0.00000   0.00000   0.00000   2.07276
   R50        2.06837   0.00000   0.00000   0.00000   0.00000   2.06837
   R51        2.53233   0.00000   0.00000   0.00000   0.00000   2.53233
   R52        2.53499   0.00000   0.00000   0.00000   0.00000   2.53500
   R53        2.53294   0.00000   0.00000   0.00000   0.00000   2.53294
   R54        2.54576   0.00000   0.00000   0.00000   0.00000   2.54576
   R55        2.53026   0.00000   0.00000   0.00000   0.00000   2.53025
   R56        2.52882   0.00000   0.00000   0.00000   0.00000   2.52882
    A1        1.92170   0.00000   0.00000  -0.00001  -0.00001   1.92169
    A2        1.90884   0.00000   0.00000   0.00001   0.00001   1.90884
    A3        1.92769   0.00000   0.00000   0.00001   0.00001   1.92770
    A4        1.89459   0.00000   0.00000   0.00000   0.00000   1.89459
    A5        1.88190   0.00000   0.00000  -0.00001  -0.00001   1.88189
    A6        1.92874   0.00000   0.00000   0.00000   0.00000   1.92874
    A7        1.93542   0.00000   0.00000   0.00000   0.00000   1.93542
    A8        1.88522   0.00000   0.00000  -0.00001  -0.00001   1.88521
    A9        1.89600   0.00000   0.00000   0.00001   0.00001   1.89601
   A10        1.85373   0.00000   0.00000   0.00000   0.00000   1.85374
   A11        1.96343   0.00000   0.00000   0.00000   0.00000   1.96342
   A12        1.92854   0.00000   0.00000   0.00000   0.00000   1.92854
   A13        1.95647   0.00000   0.00000   0.00000   0.00000   1.95647
   A14        1.97055   0.00000   0.00000  -0.00001  -0.00001   1.97055
   A15        1.84802   0.00000   0.00000   0.00000   0.00000   1.84802
   A16        1.86051   0.00000   0.00000   0.00000   0.00000   1.86051
   A17        1.88865   0.00000   0.00000   0.00001   0.00001   1.88867
   A18        1.93939   0.00000   0.00000  -0.00002  -0.00002   1.93937
   A19        1.89974   0.00000   0.00000   0.00000   0.00000   1.89974
   A20        1.93119   0.00000   0.00000   0.00001   0.00001   1.93120
   A21        1.95239   0.00000   0.00000   0.00000   0.00000   1.95240
   A22        1.90259   0.00000   0.00000  -0.00001  -0.00001   1.90258
   A23        1.88125   0.00000   0.00000   0.00000   0.00000   1.88125
   A24        1.89548   0.00000   0.00000   0.00001   0.00001   1.89548
   A25        1.94334   0.00000   0.00000   0.00001   0.00001   1.94335
   A26        1.89878   0.00000   0.00000   0.00000   0.00000   1.89877
   A27        1.91973   0.00000   0.00000   0.00000   0.00000   1.91973
   A28        1.89396   0.00000   0.00000   0.00000   0.00000   1.89396
   A29        1.87560   0.00000   0.00000   0.00000   0.00000   1.87560
   A30        1.93251   0.00000   0.00000   0.00000   0.00000   1.93251
   A31        2.00517   0.00000   0.00000  -0.00001  -0.00001   2.00516
   A32        2.07057   0.00000   0.00000   0.00000   0.00000   2.07057
   A33        1.99518   0.00000   0.00000  -0.00001  -0.00001   1.99518
   A34        1.99384   0.00000   0.00000   0.00001   0.00001   1.99384
   A35        1.98373   0.00000   0.00000   0.00000   0.00000   1.98373
   A36        1.87376   0.00000   0.00000  -0.00001  -0.00001   1.87374
   A37        1.90557   0.00000   0.00000   0.00001   0.00001   1.90558
   A38        1.99934   0.00000   0.00000   0.00001   0.00001   1.99935
   A39        1.89415   0.00000   0.00000   0.00000   0.00000   1.89415
   A40        1.85639   0.00000   0.00000  -0.00001  -0.00001   1.85639
   A41        1.93072   0.00000   0.00000   0.00000   0.00000   1.93072
   A42        1.99494   0.00000   0.00000   0.00001   0.00001   1.99495
   A43        1.82622   0.00000   0.00000   0.00000   0.00000   1.82622
   A44        1.89829   0.00000   0.00000   0.00001   0.00001   1.89830
   A45        1.80181   0.00000   0.00000  -0.00001  -0.00001   1.80179
   A46        2.11581   0.00000   0.00000   0.00000   0.00000   2.11581
   A47        1.90004   0.00000   0.00000   0.00000   0.00000   1.90003
   A48        1.89583   0.00000   0.00000   0.00000   0.00000   1.89583
   A49        2.07345   0.00000   0.00000   0.00000   0.00000   2.07346
   A50        2.07726   0.00000   0.00000  -0.00001  -0.00001   2.07725
   A51        2.13190   0.00000   0.00000   0.00000   0.00000   2.13190
   A52        2.06696   0.00000   0.00000   0.00000   0.00000   2.06696
   A53        2.10459   0.00000   0.00000   0.00000   0.00000   2.10459
   A54        2.11163   0.00000   0.00000   0.00000   0.00000   2.11163
   A55        2.06615   0.00000   0.00000   0.00000   0.00000   2.06614
   A56        2.10328   0.00000   0.00000   0.00000   0.00000   2.10328
   A57        2.11376   0.00000   0.00000   0.00000   0.00000   2.11376
   A58        2.10457   0.00000   0.00000   0.00000   0.00000   2.10457
   A59        2.08792   0.00000   0.00000   0.00000   0.00000   2.08792
   A60        2.09005   0.00000   0.00000  -0.00001  -0.00001   2.09005
   A61        2.10647   0.00000   0.00000   0.00000   0.00000   2.10647
   A62        2.09034   0.00000   0.00000   0.00000   0.00000   2.09034
   A63        2.08472   0.00000   0.00000   0.00000   0.00000   2.08472
   A64        2.09033   0.00000   0.00000   0.00000   0.00000   2.09033
   A65        2.09596   0.00000   0.00000   0.00000   0.00000   2.09596
   A66        2.09689   0.00000   0.00000   0.00000   0.00000   2.09690
   A67        1.95408   0.00000   0.00000   0.00000   0.00000   1.95408
   A68        1.93773   0.00000   0.00000   0.00000   0.00000   1.93773
   A69        1.86523   0.00000   0.00000   0.00000   0.00000   1.86523
   A70        1.90549   0.00000   0.00000   0.00000   0.00000   1.90549
   A71        1.89461   0.00000   0.00000   0.00000   0.00000   1.89461
   A72        1.90541   0.00000   0.00000   0.00000   0.00000   1.90540
   A73        1.86423   0.00000   0.00000   0.00000   0.00000   1.86423
   A74        1.93677   0.00000   0.00000   0.00000   0.00000   1.93677
   A75        1.94520   0.00000   0.00000   0.00000   0.00000   1.94520
   A76        1.90020   0.00000   0.00000   0.00000   0.00000   1.90020
[...]
 26954,0.00002111,0.00000092,0.00002628,0.00001362,0.00004097,0.0000209
 9,-0.00000817,-0.00000436,0.00002567,-0.00001537,0.00028197,0.00024766
 ,0.00085596,-0.00002536,0.00002643,-0.00008622,-0.00011499,0.00007675,
 -0.00006966,-0.00002692,-0.00007070,-0.00002079,0.00178297,-0.00035326
 ,-0.00515478,0.00015203,0.00011854,0.00171840,-0.00124327,-0.00050211,
 0.00137424,-0.00057985,0.00073991,0.00139144,0.01681211,-0.01806567,0.
 62444157,0.00006827,-0.00012430,0.00001811,0.00008137,-0.00003885,-0.0
 0004071,0.00013914,-0.00053844,0.00019855,-0.00014196,-0.00060725,-0.0
 0013457,0.00006163,0.00025846,0.00010804,-0.00000818,0.00002484,-0.000
 00897,0.00001394,0.00000538,-0.00000169,-0.00000744,0.00000706,-0.0000
 0817,-0.00000416,0.00003535,-0.00003217,0.00005097,-0.00000725,0.00000
 723,-0.00024849,0.00044333,-0.00000848,0.00026974,0.00035325,-0.000143
 35,-0.00010093,0.00011446,0.00001554,-0.00018750,0.00005487,-0.0000890
 6,-0.00014275,-0.00006943,-0.00010257,0.00156535,0.00115128,0.00013207
 ,-0.00021376,-0.00004465,-0.00016169,-0.00098344,-0.00050105,-0.000417
 45,-0.00082982,-0.00069388,-0.00045313,-0.00037113,-0.00023731,0.00011
 473,0.00008236,0.00001576,-0.00001311,0.00007621,0.00006166,-0.0000087
 0,0.00053283,-0.00066088,0.00042611,0.00022872,-0.00020398,-0.00047228
 ,-0.00018701,-0.00064574,0.00109696,-0.00060397,0.00004921,-0.00022115
 ,0.00002518,-0.00000546,0.00001770,0.01027264,0.00083260,-0.00309596,-
 0.00008724,-0.00000545,-0.00002021,-0.00013281,0.00092883,0.00042978,-
 0.00001610,0.00003006,-0.00039393,0.00001169,-0.00003005,-0.00004885,0
 .00000391,-0.00000266,0.00001153,0.00000416,0.00000082,0.00000699,-0.0
 0000923,0.00000853,0.00000196,0.00003932,-0.00004475,0.00008016,-0.000
 01447,0.00000205,-0.00000956,0.00000177,0.00000488,-0.00001301,-0.0000
 0398,0.00001210,-0.00000739,0.00008200,0.00009750,0.00003540,-0.000005
 16,-0.00001470,-0.00002111,-0.00002314,-0.00000982,0.00000036,0.000014
 75,0.00002415,0.00000802,0.00128624,0.00044656,0.00101370,-0.00027659,
 -0.00014738,-0.00002525,-0.00169225,-0.00002667,-0.00026271,-0.0003170
 3,-0.00008919,-0.00003790,-0.00023139,-0.00008393,0.00001646,0.0000697
 0,0.00001393,-0.00001150,0.00005932,0.00003262,-0.00000330,0.00004142,
 0.00000670,0.00000130,-0.09994156,-0.06756970,0.01582436,0.14329156,-0
 .00002482,-0.00017379,-0.00004644,-0.00008587,0.00000315,-0.00006114,-
 0.00025918,-0.00071628,0.00055351,-0.00025666,-0.00087120,-0.00020565,
 0.00000438,0.00016978,0.00000462,-0.00004053,0.00004655,-0.00001754,0.
 00005908,0.00001533,-0.00000100,-0.00001415,0.00001525,-0.00002482,-0.
 00007886,0.00003335,-0.00009365,0.00009011,0.00000703,0.00001430,0.000
 19452,0.00077360,0.00001556,0.00129741,0.00056628,-0.00030517,0.000060
 40,0.00005604,-0.00001049,-0.00003117,0.00009637,-0.00001783,-0.000067
 38,0.00012202,-0.00000208,0.00114662,0.00074818,0.00047185,-0.00010846
 ,-0.00000115,-0.00011495,0.00010311,-0.00085065,0.00062801,-0.00061065
 ,-0.00011909,-0.00066932,-0.00285050,0.00148564,0.00034863,0.00069087,
 -0.00083295,0.00032263,0.00074105,-0.00054301,-0.00041477,0.00140677,0
 .00076277,0.00060864,0.00005858,-0.00042341,0.00092667,-0.00081921,0.0
 0045294,0.00216453,0.00174437,0.00067231,0.00140482,-0.00018149,-0.000
 11184,-0.00005088,-0.01439921,-0.03339594,0.01520728,-0.00099562,-0.00
 055580,-0.00028232,0.00213471,-0.00232837,-0.00119522,-0.00098208,-0.0
 0076263,-0.00000861,-0.00004317,-0.00000544,0.00001977,0.00000159,0.00
 000758,0.00001000,0.00000789,0.00000922,-0.00000901,0.00000239,-0.0000
 0019,0.00000229,0.00000192,-0.00001692,0.00003082,0.00000123,0.0000036
 3,-0.00000336,0.00000145,-0.00000372,-0.00000443,-0.00000996,0.0000078
 7,-0.00000267,0.00003325,-0.00003786,0.00005060,0.00000229,-0.00000091
 ,-0.00000776,-0.00001355,0.00000364,-0.00000522,0.00001634,0.00003557,
 -0.00001212,0.00132832,0.00077340,0.00116389,-0.00022138,-0.00011279,-
 0.00002778,0.00022867,-0.00023942,-0.00070478,-0.00046515,-0.00012045,
 -0.00005319,0.00102571,-0.00081364,-0.00189554,0.00006704,0.00014014,0
 .00089177,-0.00046491,-0.00009988,0.00051746,-0.00028133,0.00053982,0.
 00046463,-0.06913456,-0.24536740,0.04572358,0.13228434,0.34309033,0.00
 005161,-0.00000589,0.00002053,0.00009908,-0.00003467,0.00000654,0.0002
 5336,0.00022096,-0.00034190,0.00001745,-0.00008201,-0.00012996,0.00003
 589,0.00011317,0.00005760,-0.00000383,0.00000498,0.00001082,-0.0000412
 9,-0.00001099,0.00000055,0.00000714,-0.00000493,0.00001582,0.00005453,
 0.00000191,0.00006485,-0.00003172,-0.00001719,-0.00000331,-0.00025601,
 -0.00017583,0.00013704,-0.00084538,-0.00017183,0.00024161,-0.00009808,
 0.00004480,0.00005019,-0.00010918,-0.00001001,-0.00003274,-0.00006314,
 -0.00009236,-0.00003016,0.00040021,0.00074331,-0.00026144,-0.00004834,
 -0.00003498,0.00000119,-0.00097628,-0.00002892,-0.00077355,-0.00018269
 ,-0.00032520,0.00063392,0.00177881,-0.00140336,-0.00063820,-0.00044357
 ,0.00064025,-0.00016750,-0.00044096,0.00044527,0.00047486,-0.00149016,
 -0.00043393,-0.00146486,-0.00087232,0.00095718,-0.00009533,0.00209280,
 -0.00032296,-0.00213240,-0.00062000,-0.00095211,0.00045013,0.00010492,
 0.00006694,0.00007340,0.00776943,0.03405279,-0.00174828,0.00028872,0.0
 0070693,-0.00001126,-0.00102809,0.00003216,0.00061815,0.00045206,0.000
 32565,0.00011824,0.00003720,-0.00002686,-0.00006591,0.00000559,-0.0000
 0077,-0.00000261,-0.00000814,-0.00000792,0.00001169,-0.00000552,0.0000
 0510,0.00000315,0.00002194,-0.00001848,0.00002582,-0.00001029,-0.00000
 119,-0.00000501,-0.00000073,0.00000498,-0.00000247,0.00000245,0.000004
 55,-0.00000426,0.00003779,0.00008381,-0.00000748,-0.00000080,-0.000007
 89,-0.00000366,-0.00001120,-0.00000655,0.00000251,0.00000135,-0.000009
 36,0.00000526,-0.00034050,-0.00020697,-0.00055281,0.00006442,0.0000260
 9,0.00005053,0.00018800,-0.00000203,0.00019297,0.00009370,0.00004440,0
 .00003190,-0.00056380,0.00025940,0.00127176,-0.00001950,-0.00005455,-0
 .00048680,0.00032131,0.00012921,-0.00034892,0.00016370,-0.00023321,-0.
 00032080,0.01587750,0.04509516,-0.08578094,-0.02073136,-0.03625892,0.0
 7853357,0.00012278,-0.00001476,0.00007190,0.00019181,-0.00008218,0.000
 01248,0.00040468,-0.00006816,-0.00024048,0.00006613,0.00001425,0.00005
 344,0.00008841,0.00017133,0.00016282,0.00002430,-0.00000678,0.00000273
 ,-0.00003496,-0.00000712,-0.00000409,0.00000063,-0.00000214,0.00000779
 ,0.00005184,0.00002199,0.00003742,0.00000104,-0.00001369,-0.00000368,-
 0.00047944,-0.00004607,-0.00004447,-0.00088125,-0.00004226,0.00007600,
 -0.00019759,0.00012488,0.00002940,-0.00023879,-0.00000261,-0.00011907,
 -0.00014014,-0.00017785,-0.00014704,0.00070922,0.00051259,0.00010678,-
 0.00009234,-0.00004497,-0.00007827,0.00003675,-0.00002554,0.00019031,-
 0.00041884,-0.00035724,-0.00011664,0.00218727,-0.00170911,-0.00037306,
 -0.00066256,0.00110881,-0.00052153,-0.00055856,0.00063856,0.00041483,-
 0.00065244,0.00170132,0.00058841,-0.00020629,-0.00006889,-0.00062595,-
 0.00110311,0.00083319,-0.00661831,0.00015510,0.00077795,-0.00093568,0.
 00004878,-0.00013449,-0.00002613,-0.03702668,0.01140048,0.00091889,0.0
 0036118,-0.00084175,0.00019748,-0.00071742,0.00149489,0.00351462,-0.00
 024163,-0.00116515,-0.00188451,0.00005239,-0.00004251,-0.00008637,0.00
 000588,-0.00001125,0.00000924,0.00000050,-0.00000520,0.00001733,-0.000
 01733,0.00001286,0.00000017,0.00005975,-0.00005408,0.00009399,-0.00002
 095,-0.00000036,-0.00001057,0.00000151,0.00000952,-0.00001670,0.000002
 47,0.00001151,-0.00000757,0.00008476,0.00014471,0.00001524,-0.00000584
 ,-0.00001948,-0.00002167,-0.00002195,-0.00001338,0.00000494,0.00000407
 ,0.00000498,0.00001318,0.00058155,0.00025500,0.00038649,-0.00012530,-0
 .00009485,0.00000381,0.00009296,0.00005364,-0.00029126,-0.00011157,-0.
 00002455,-0.00002567,-0.00118392,0.00043721,0.00143435,0.00006362,-0.0
 0007023,-0.00055658,0.00054825,0.00017119,-0.00044318,0.00033742,-0.00
 039314,-0.00036281,-0.29285706,0.05011580,-0.00446971,-0.06172581,-0.0
 3531207,0.01253778,0.42098893,-0.00003791,-0.00004165,-0.00002988,-0.0
 0007308,0.00001916,-0.00001863,-0.00017660,-0.00019725,0.00022188,-0.0
 0008439,-0.00022664,-0.00004966,-0.00002017,-0.00000313,-0.00004441,-0
 .00001663,0.00001280,-0.00000664,0.00002520,0.00000674,0.00000039,-0.0
 0000422,0.00000466,-0.00000968,-0.00003746,0.00000446,-0.00004099,0.00
 002607,0.00000633,0.00000513,0.00016285,0.00022406,0.00001030,0.000556
 91,0.00017063,-0.00009817,0.00006540,-0.00001366,-0.00001092,0.0000528
 0,0.00002749,0.00002453,0.00001625,0.00008146,0.00003650,0.00013253,0.
 00001392,0.00008126,-0.00000942,0.00001152,-0.00001164,0.00004124,-0.0
 0020089,0.00016881,-0.00007095,0.00007050,-0.00016760,-0.00147307,0.00
 071461,0.00022784,0.00044960,-0.00052309,0.00023675,0.00035621,-0.0002
 8961,-0.00023403,-0.00021762,-0.00133411,0.00053461,0.00059523,-0.0003
 5847,0.00006204,0.00018677,0.00056328,0.00251909,-0.00039400,-0.000196
 17,0.00008102,-0.00000193,0.00007386,-0.00000640,0.02585534,0.00355875
 ,0.00147449,-0.00004807,0.00067215,-0.00018925,0.00028792,-0.00106109,
 -0.00047490,0.00010093,0.00040480,0.00076640,-0.00002607,0.00000828,0.
 00002719,-0.00000054,0.00000475,0.00000084,0.00000250,0.00000435,-0.00
 000701,0.00000464,-0.00000324,0.00000049,-0.00001423,0.00000846,-0.000
 01490,0.00000584,0.00000114,0.00000177,0.00000003,-0.00000361,0.000002
 84,-0.00000351,-0.00000063,0.00000136,-0.00001283,-0.00004977,0.000010
 33,0.00000239,0.00000478,0.00000359,0.00000182,0.00000459,-0.00000271,
 0.00000338,0.00000885,-0.00000728,0.00025063,0.00011278,0.00023278,-0.
 00003094,-0.00000831,-0.00001213,0.00009825,-0.00001047,-0.00014917,-0
 .00008914,-0.00002172,-0.00000816,0.00049772,-0.00033603,-0.00086005,0
 .00000338,0.00006070,0.00032596,-0.00021825,-0.00003834,0.00023181,-0.
 00015751,0.00025295,0.00021727,0.04735880,-0.08375895,0.00306557,-0.05
 171781,-0.00050826,0.00563963,-0.05490327,0.08705553,0.00004058,0.0000
 2172,0.00001861,0.00007082,-0.00002571,0.00001707,0.00018438,0.0001893
 3,-0.00028658,0.00008869,0.00012630,-0.00000731,0.00002512,0.00001689,
 0.00004090,0.00000013,-0.00000111,0.00000892,-0.00003135,-0.00000949,-
 0.00000047,0.00000460,-0.00000372,0.00001145,0.00003735,0.00000019,0.0
 0004754,-0.00002167,-0.00000933,-0.00000319,-0.00016693,-0.00016142,0.
 00006086,-0.00066259,-0.00014257,0.00016969,-0.00007144,0.00003090,0.0
 0003472,-0.00006181,-0.00001514,-0.00001854,-0.00003218,-0.00006086,-0
 .00002148,-0.00000361,0.00007638,-0.00007974,0.00001410,-0.00000764,0.
 00001881,0.00001308,0.00009463,-0.00008273,-0.00001538,-0.00006961,0.0
 0020724,0.00163036,-0.00097657,-0.00058702,-0.00048550,0.00062347,-0.0
 0021492,-0.00035616,0.00035114,0.00043559,-0.00076429,0.00173325,-0.00
 027526,-0.00065313,0.00049241,-0.00009175,-0.00041625,-0.00032122,-0.0
 0409385,-0.00029423,0.00009346,0.00086007,-0.00003454,0.00003643,0.000
 04510,-0.02705676,0.00906496,0.00739386,-0.00038500,-0.00001871,-0.000
 03369,-0.00094343,-0.00040442,-0.00171812,-0.00130562,0.00094983,-0.00
 000261,0.00002664,-0.00002108,-0.00004746,0.00000459,-0.00000092,-0.00
 000220,-0.00000571,-0.00000566,0.00000837,-0.00000417,0.00000358,0.000
 00182,0.00001533,-0.00001115,0.00001342,-0.00000615,-0.00000130,-0.000
 00270,-0.00000076,0.00000329,-0.00000125,0.00000233,0.00000251,-0.0000
 0220,0.00001935,0.00004541,-0.00000663,0.00000010,-0.00000407,-0.00000
 140,-0.00000604,-0.00000330,0.00000167,-0.00000021,-0.00000653,0.00000
 275,-0.00011856,-0.00007452,-0.00018757,0.00001536,0.00000073,0.000013
 74,0.00000510,0.00001323,0.00004297,0.00002787,0.00001692,0.00000484,-
 0.00037356,0.00005663,0.00119698,-0.00006485,-0.00001913,-0.00039932,0
 .00025732,0.00010874,-0.00029793,0.00012237,-0.00016220,-0.00029312,0.
 00436300,0.00070831,-0.08055444,0.01583055,0.00443345,0.01098603,-0.03
 965067,0.00729955,0.08328243,0.00003376,0.00000536,0.00002631,0.000058
 89,-0.00002558,0.00000281,0.00013110,-0.00002239,-0.00003450,0.0000159
 1,0.00005650,0.00006422,0.00002672,0.00003957,0.00003912,0.00001953,-0
 .00000575,-0.00000275,-0.00000689,-0.00000051,-0.00000129,0.00000010,-
 0.00000102,0.00000106,0.00001195,0.00000473,0.00000283,0.00000027,-0.0
 0000200,-0.00000135,-0.00012059,-0.00004186,-0.00004778,-0.00023495,0.
 00000742,-0.00001607,-0.00005727,0.00003386,0.00000153,-0.00006496,-0.
 00000479,-0.00003664,-0.00003589,-0.00005464,-0.00004534,0.00012682,0.
 00009618,0.00002229,-0.00001936,-0.00001274,-0.00001844,0.00001053,0.0
 0000404,0.00006001,-0.00007528,-0.00008274,-0.00004723,0.00062642,-0.0
 0058686,0.00023197,-0.00011784,0.00023109,-0.00016233,-0.00018321,0.00
 019951,0.00002525,0.00056923,-0.00046017,-0.00024502,-0.00000913,0.000
 01001,-0.00030468,-0.00197804,0.00039575,-0.00078749,0.00026110,-0.000
 30826,-0.00092495,0.00005198,-0.00002217,-0.00006221,0.01050873,-0.002
 54977,-0.01017814,0.00026768,-0.00038213,-0.00160864,-0.00136436,0.001
 52924,-0.00090685,0.00008558,-0.00003935,-0.00040139,0.00001459,-0.000
 00981,-0.00001956,0.00000126,-0.00000491,0.00000367,0.00000172,-0.0000
 0073,0.00000460,-0.00000574,0.00000368,-0.00000097,0.00001743,-0.00001
 537,0.00002743,-0.00000574,-0.00000006,-0.00000277,0.00000057,0.000002
 64,-0.00000534,0.00000101,0.00000290,-0.00000170,0.00002145,0.00003977
 ,0.00000278,-0.00000180,-0.00000560,-0.00000613,-0.00000513,-0.0000037
 5,0.00000178,0.00000012,0.00000053,0.00000416,0.00010527,0.00004545,0.
 00007335,-0.00002597,-0.00002495,-0.00000125,-0.00002134,0.00004517,-0
 .00000447,0.00000766,0.00000172,-0.00000439,-0.00046451,0.00018536,0.0
 0046182,-0.00000195,-0.00003030,-0.00026468,0.00019868,0.00006036,-0.0
 0016056,0.00011145,-0.00012591,-0.00010234,-0.07734859,0.01205182,0.01
 632126,0.01013312,-0.01698247,-0.01351587,-0.02755217,0.03269899,0.051
 19342,0.08628009,0.00000810,-0.00006013,-0.00001577,-0.00000762,-0.000
 00480,-0.00001700,-0.00002314,-0.00023411,0.00007135,-0.00004137,-0.00
 027675,-0.00010206,0.00001360,0.00006118,0.00001726,-0.00002583,0.0000
 1752,0.00000061,0.00000709,0.00000144,-0.00000038,-0.00000268,0.000003
 65,-0.00000371,-0.00000985,0.00001028,-0.00000664,0.00001968,-0.000002
 53,0.00000333,-0.00004151,0.00025248,0.00006266,0.00019779,0.00018184,
 0.00000632,-0.00000949,0.00004091,0.00002057,-0.00003465,0.00003345,-0
 .00000783,-0.00004203,0.00002822,-0.00000071,0.00045608,0.00029052,0.0
 0010745,-0.00003884,-0.00000587,-0.00002715,0.00012384,-0.00025884,0.0
 0019248,-0.00025743,-0.00005748,-0.00005681,-0.00049036,0.00005438,-0.
 00045484,0.00007311,-0.00004480,0.00011147,0.00017665,-0.00002751,0.00
 015119,-0.00060497,0.00081079,-0.00026959,-0.00038239,0.00030000,0.000
 68162,0.00283682,-0.00169982,0.00111211,0.00020783,-0.00083516,0.00067
 502,-0.00007322,0.00002703,0.00007185,0.00117927,0.00828693,0.00377631
 ,-0.00085507,0.00037152,0.00128334,0.00060447,0.00050555,-0.00058624,-
 0.00001532,0.00020132,0.00033722,-0.00000681,-0.00001739,-0.00002148,0
 .00000422,0.00000437,0.00000235,-0.00000077,0.00000078,0.00000047,-0.0
 0000024,0.00000140,0.00000275,0.00000614,-0.00001055,0.00001309,-0.000
 00172,0.00000067,-0.00000236,-0.00000014,-0.00000026,-0.00000076,-0.00
 000325,0.00000443,-0.00000204,0.00002047,0.00000239,0.00001524,0.00000
 190,-0.00000153,-0.00000184,-0.00000846,0.00000024,-0.00000149,0.00000
 642,0.00000980,-0.00000505,0.00036688,0.00012613,0.00017637,-0.0000530
 9,-0.00002968,-0.00000117,0.00011900,-0.00001607,-0.00017124,-0.000130
 46,-0.00001961,-0.00001179,0.00011001,-0.00034635,-0.00022042,-0.00001
 753,0.00003552,0.00001950,-0.00006993,0.00004748,0.00009326,-0.0000740
 6,0.00014400,0.00003311,0.01016942,-0.12001419,-0.09228146,-0.01318000
 ,-0.06162480,-0.04870679,0.02573850,-0.00498328,-0.02405626,-0.0259450
 8,0.17871531,0.00008932,-0.00001853,0.00001995,0.00013391,-0.00004743,
 0.00000339,0.00037352,0.00010654,-0.00044622,0.00012737,-0.00002836,-0
 .00013197,0.00006453,0.00009990,0.00010251,-0.00001972,0.00001756,0.00
 001382,-0.00005137,-0.00001595,0.00000012,0.00000658,-0.00000406,0.000
 01917,0.00007344,0.00000753,0.00008704,-0.00002479,-0.00002162,-0.0000
 0268,-0.00042141,-0.00007518,0.00019326,-0.00102587,-0.00004786,0.0002
 6599,-0.00014992,0.00009889,0.00008612,-0.00015926,0.00000204,-0.00004
 396,-0.00010876,-0.00010217,-0.00004623,0.00049212,0.00045239,-0.00006
 033,-0.00002007,-0.00002089,0.00000337,0.00005883,0.00003103,-0.000012
 53,-0.00031025,-0.00023532,0.00036306,0.00239319,-0.00203545,-0.000851
 51,-0.00060992,0.00083528,-0.00019442,-0.00055779,0.00068232,0.0007997
 5,0.00010116,0.00100904,-0.00026644,-0.00033082,0.00006137,-0.00070374
 ,0.00256852,-0.00142310,-0.00080757,0.00158908,0.00014124,-0.00229879,
 -0.00007121,-0.00002987,0.00008724,0.00503475,-0.02567047,-0.04525001,
 -0.00202238,0.00075033,-0.00101847,-0.00645609,0.00491285,-0.00361953,
 -0.00020989,-0.00030194,0.00084128,0.00004734,-0.00005549,-0.00011270,
 0.00001236,0.00000246,-0.00000220,-0.00001218,-0.00001073,0.00001703,-
 0.00000816,0.00000832,0.00000635,0.00003629,-0.00003189,0.00003937,-0.
 00001435,-0.00000191,-0.00000767,-0.00000157,0.00000658,-0.00000305,0.
 00000160,0.00000917,-0.00000662,0.00006070,0.00010062,0.00000116,0.000
 00114,-0.00000989,-0.00000567,-0.00002049,-0.00000743,0.00000197,0.000
 00596,-0.00000366,0.00000257,0.00014767,-0.00000150,-0.00016742,-0.000
 03328,-0.00003377,0.00002637,0.00011346,-0.00002199,-0.00012089,-0.000
 08217,0.00000996,-0.00000356,-0.00139367,0.00080379,0.00214012,-0.0001
 8783,-0.00012275,-0.00113713,0.00075175,0.00025269,-0.00066642,0.00027
 467,-0.00036215,-0.00053730,0.01000895,-0.08312462,-0.26215410,-0.0083
 9633,-0.03347268,0.00132191,0.03677986,-0.02105782,-0.01561194,-0.0386
 4854,0.15799460,0.32984816\\-0.00000111,0.00000158,0.00000176,0.000001
 80,-0.00000229,-0.00000119,-0.00000058,0.00000332,-0.00000175,-0.00000
 055,-0.00000147,-0.00000063,-0.00000015,-0.00000077,0.00000196,-0.0000
 0098,0.00000028,-0.00000128,-0.00000043,-0.00000069,-0.00000120,0.0000
 0068,-0.00000241,-0.00000147,0.00000080,0.00000035,0.00000023,0.000000
 43,-0.00000016,0.00000011,-0.00000035,0.00000230,0.00000003,-0.0000012
 2,-0.00000603,-0.00000182,-0.00000056,0.00000150,-0.00000252,0.0000007
 2,-0.00000343,-0.00000281,0.00000147,-0.00000214,0.00000013,0.00000086
 ,0.00000162,0.00000265,0.00000054,-0.00000027,0.00000076,0.00000032,0.
 00000031,0.00000080,0.00000040,0.00000028,0.00000136,-0.00000089,-0.00
 000307,0.00000068,0.00000023,0.00000327,-0.00000528,-0.00000006,0.0000
 0210,0.00000211,-0.00000018,0.00000010,-0.00000113,-0.00000126,-0.0000
 0019,-0.00000130,-0.00000153,0.00000393,0.00000029,-0.00000158,0.00000
 175,0.00000045,0.00000075,-0.00000113,-0.00000005,0.00000105,0.0000004
 4,-0.00000227,-0.00000059,0.00000149,-0.00000068,0.00000008,0.00000104
 ,0.00000321,0.00000037,0.00000056,0.00000084,-0.00000080,-0.00000060,-
 0.00000109,-0.00000125,0.00000035,-0.00000231,-0.00000074,0.00000047,-
 0.00000161,-0.00000151,-0.00000014,-0.00000259,-0.00000158,-0.00000054
 ,0.00000028,0.00000080,-0.00000254,-0.00000106,0.00000062,-0.00000224,
 -0.00000099,0.00000030,-0.00000237,-0.00000161,0.00000073,-0.00000007,
 0.00000158,0.00000134,-0.00000191,0.00000107,0.00000098,-0.00000174,0.
 00000113,0.00000119,-0.00000084,0.00000171,-0.00000021,0.00000178,0.00
 000182,0.00000041,0.00000118,0.00000188,0.00000007,0.00000131,0.000001
 41,0.00000026,0.00000086,0.00000080,-0.00000173,-0.00000238,-0.0000013
 2,0.00000190,-0.00000112,0.00000128,0.00000151,0.00000013,0.00000062,0
 .00000065,-0.00000025,0.00000135,-0.00000138,-0.00000110,0.00000195,0.
 00000193,0.00000406,0.00000099,-0.00000134,0.00000234,0.00000125,-0.00
 000063,0.00000318,0.00000148\\\@


    THE DOUGHNUT CREED
 AS YOU RAMBLE ON THROUGH LIFE, BROTHER
 WHATEVER BE YOUR GOAL
 KEEP YOUR EYE UPON THE DOUGHNUT
 AND NOT UPON THE HOLE.
 Job cpu time:       1 days  5 hours 32 minutes 37.8 seconds.
 Elapsed time:       0 days  0 hours 58 minutes 42.1 seconds.
 File lengths (MBytes):  RWF=   2312 Int=      0 D2E=      0 Chk=     40 Scr=      1
 Normal termination of Gaussian 16 at Sat Jun 15 09:04:26 2019.
