 Entering Gaussian System, Link 0=g16
 Input=clay_new-glu_gluC6-bisCF3-sm-pbe0_d3bj-custom-pcm_thf.gjf
 Output=clay_new-glu_gluC6-bisCF3-sm-pbe0_d3bj-custom-pcm_thf.out
 Initial command:
 /home/ekwan/sw/g16/l1.exe "/scratch/users/ekwan/clay_new-glu_gluC6-bisCF3-sm-pbe0_d3bj-custom-pcm_thf/Gau-11913.inp" -scrdir="/scratch/users/ekwan/clay_new-glu_gluC6-bisCF3-sm-pbe0_d3bj-custom-pcm_thf/"
 Entering Link 1 = /home/ekwan/sw/g16/l1.exe PID=     11914.
  
 Copyright (c) 1988,1990,1992,1993,1995,1998,2003,2009,2016,
            Gaussian, Inc.  All Rights Reserved.
  
 This is part of the Gaussian(R) 16 program.  It is based on
 the Gaussian(R) 09 system (copyright 2009, Gaussian, Inc.),
 the Gaussian(R) 03 system (copyright 2003, Gaussian, Inc.),
 the Gaussian(R) 98 system (copyright 1998, Gaussian, Inc.),
 the Gaussian(R) 94 system (copyright 1995, Gaussian, Inc.),
 the Gaussian 92(TM) system (copyright 1992, Gaussian, Inc.),
 the Gaussian 90(TM) system (copyright 1990, Gaussian, Inc.),
 the Gaussian 88(TM) system (copyright 1988, Gaussian, Inc.),
 the Gaussian 86(TM) system (copyright 1986, Carnegie Mellon
 University), and the Gaussian 82(TM) system (copyright 1983,
 Carnegie Mellon University). Gaussian is a federally registered
 trademark of Gaussian, Inc.
  
 This software contains proprietary and confidential information,
 including trade secrets, belonging to Gaussian, Inc.
  
 This software is provided under written license and may be
 used, copied, transmitted, or stored only in accord with that
 written license.
  
 The following legend is applicable only to US Government
 contracts under FAR:
  
                    RESTRICTED RIGHTS LEGEND
  
 Use, reproduction and disclosure by the US Government is
 subject to restrictions as set forth in subparagraphs (a)
 and (c) of the Commercial Computer Software - Restricted
 Rights clause in FAR 52.227-19.
  
 Gaussian, Inc.
 340 Quinnipiac St., Bldg. 40, Wallingford CT 06492
  
  
 ---------------------------------------------------------------
 Warning -- This program may not be used in any manner that
 competes with the business of Gaussian, Inc. or will provide
 assistance to any competitor of Gaussian, Inc.  The licensee
 of this program is prohibited from giving any competitor of
 Gaussian, Inc. access to this program.  By using this program,
 the user acknowledges that Gaussian, Inc. is engaged in the
 business of creating and licensing software in the field of
 computational chemistry and represents and warrants to the
 licensee that it is not a competitor of Gaussian, Inc. and that
 it will not use this program in any manner prohibited above.
 ---------------------------------------------------------------
  

 Cite this work as:
 Gaussian 16, Revision A.03,
 M. J. Frisch, G. W. Trucks, H. B. Schlegel, G. E. Scuseria, 
 M. A. Robb, J. R. Cheeseman, G. Scalmani, V. Barone, 
 G. A. Petersson, H. Nakatsuji, X. Li, M. Caricato, A. V. Marenich, 
 J. Bloino, B. G. Janesko, R. Gomperts, B. Mennucci, H. P. Hratchian, 
 J. V. Ortiz, A. F. Izmaylov, J. L. Sonnenberg, D. Williams-Young, 
 F. Ding, F. Lipparini, F. Egidi, J. Goings, B. Peng, A. Petrone, 
 T. Henderson, D. Ranasinghe, V. G. Zakrzewski, J. Gao, N. Rega, 
 G. Zheng, W. Liang, M. Hada, M. Ehara, K. Toyota, R. Fukuda, 
 J. Hasegawa, M. Ishida, T. Nakajima, Y. Honda, O. Kitao, H. Nakai, 
 T. Vreven, K. Throssell, J. A. Montgomery, Jr., J. E. Peralta, 
 F. Ogliaro, M. J. Bearpark, J. J. Heyd, E. N. Brothers, K. N. Kudin, 
 V. N. Staroverov, T. A. Keith, R. Kobayashi, J. Normand, 
 K. Raghavachari, A. P. Rendell, J. C. Burant, S. S. Iyengar, 
 J. Tomasi, M. Cossi, J. M. Millam, M. Klene, C. Adamo, R. Cammi, 
 J. W. Ochterski, R. L. Martin, K. Morokuma, O. Farkas, 
 J. B. Foresman, and D. J. Fox, Gaussian, Inc., Wallingford CT, 2016.
 
 ******************************************
 Gaussian 16:  AS64L-G16RevA.03 25-Dec-2016
                15-Jun-2019 
 ******************************************
 %nprocshared=32
 Will use up to   32 processors via shared memory.
 %mem=48GB
 ----------------------------------------------------------------------
 #p opt freq=noraman 6-31g(d) scrf=(solvent=tetrahydrofuran,pcm) pop=no
 ne empiricaldispersion=gd3bj pbe1pbe extrabasis
 ----------------------------------------------------------------------
 1/18=20,19=15,26=3,38=1/1,3;
 2/9=110,12=2,17=6,18=5,40=1/2;
 3/5=1,6=6,7=1,10=1,11=2,25=1,30=1,70=2201,71=1,72=20,74=-13,124=41/1,2,3;
 4//1;
 5/5=2,38=5,53=20/2;
 7//1,2,3,16;
 1/18=20,19=15,26=3/3(2);
 2/9=110/2;
 99//99;
 2/9=110/2;
 3/5=7,6=1,7=1,11=2,25=1,30=1,70=2205,71=1,72=20,74=-13,82=7,124=41/1,2,3;
 4/5=5,16=3,69=1/1;
 5/5=2,38=5,53=20/2;
 7//1,2,3,16;
 1/18=20,19=15,26=3/3(-5);
 2/9=110/2;
 99/9=1/99;
 Leave Link    1 at Sat Jun 15 09:09:15 2019, MaxMem=  6442450944 cpu:               3.4 elap:               0.1
 (Enter /home/ekwan/sw/g16/l101.exe)
 -----
 title
 -----
 Symbolic Z-matrix:
 Charge =  0 Multiplicity = 1
 6                     3.38072   0.28214   0.65282 
 6                     3.31506  -0.44605  -0.68473 
 6                     1.86302  -0.70797  -1.09686 
 6                     1.04768   1.11216   0.19167 
 6                     2.45496   1.49021   0.63969 
 1                     1.78928  -1.10965  -2.10889 
 1                     3.73104   0.22378  -1.45586 
 1                     3.05482  -0.39741   1.45387 
 1                     0.60119   0.44766   0.94511 
 1                     2.85356   2.23284  -0.06438 
 8                     1.08274   0.43006  -1.07001 
 8                     1.36628  -1.71167  -0.17571 
 8                     4.07195  -1.61975  -0.59711 
 8                     4.68656   0.74683   0.90332 
 8                     2.35363   2.03512   1.93507 
 6                     0.14458   2.32714   0.05801 
 1                    -0.05267   2.69366   1.06909 
 1                    -0.80925   2.01977  -0.39298 
 8                     0.70543   3.40473  -0.64922 
 16                    0.08359  -2.59119  -0.61289 
 8                     0.06762  -3.69457   0.32878 
 8                     0.13888  -2.82147  -2.04913 
 6                    -1.28738  -1.52177  -0.26333 
 6                    -1.75547  -1.44016   1.04234 
 6                    -1.83125  -0.76489  -1.29368 
 6                    -2.80322  -0.56705   1.31641 
 1                    -1.312    -2.04471   1.8263 
 6                    -2.87802   0.0991   -0.99608 
 1                    -1.44498  -0.85023  -2.30277 
 6                    -3.36544   0.20321   0.30385 
 1                    -4.17989   0.88399   0.52688 
 6                     4.39099  -2.20066  -1.84527 
 1                     3.51116  -2.63779  -2.33537 
 1                     4.84783  -1.46321  -2.51958 
 1                     5.10928  -2.99792  -1.64558 
 6                     5.45603  -0.09766   1.73442 
 1                     6.42182   0.39485   1.87205 
 1                     4.97955  -0.22584   2.71668 
 1                     5.60989  -1.08167   1.2791 
 6                     3.03439   3.26405   2.0892 
 1                     2.87757   3.58348   3.12249 
 1                     4.10844   3.14763   1.90402 
 1                     2.62804   4.02656   1.41103 
 6                     0.66355   3.26401  -2.05475 
 1                     0.92632   4.23713  -2.47714 
 1                    -0.34481   2.98641  -2.39209 
 1                     1.37175   2.5099   -2.4166 
 6                    -3.36513  -0.49505   2.70976 
 9                    -2.42873  -0.76403   3.62917 
 9                    -4.35835  -1.38116   2.87907 
 9                    -3.86541   0.71982   2.97297 
 6                    -3.44018   0.98897  -2.06896 
 9                    -2.85873   2.2043   -2.03942 
 9                    -4.75533   1.18168  -1.9095 
 9                    -3.23894   0.48239  -3.29051 
 
 ITRead=  0  0  0  0  0  0  0  0  0  0  0  0  0  0  0  0  0  0  0  0
 ITRead=  0  0  0  0  0  0  0  0  0  0  0  0  0  0  0  0  0  0  0  0
 ITRead=  0  0  0  0  0  0  0  0  0  0  0  0  0  0  0
 MicOpt= -1 -1 -1 -1 -1 -1 -1 -1 -1 -1 -1 -1 -1 -1 -1 -1 -1 -1 -1 -1
 MicOpt= -1 -1 -1 -1 -1 -1 -1 -1 -1 -1 -1 -1 -1 -1 -1 -1 -1 -1 -1 -1
 MicOpt= -1 -1 -1 -1 -1 -1 -1 -1 -1 -1 -1 -1 -1 -1 -1
 NAtoms=     55 NQM=       55 NQMF=       0 NMMI=      0 NMMIF=      0
                NMic=       0 NMicF=      0.
                    Isotopes and Nuclear Properties:
 (Nuclear quadrupole moments (NQMom) in fm**2, nuclear magnetic moments (NMagM)
  in nuclear magnetons)

  Atom         1           2           3           4           5           6           7           8           9          10
 IAtWgt=          12          12          12          12          12           1           1           1           1           1
 AtmWgt=  12.0000000  12.0000000  12.0000000  12.0000000  12.0000000   1.0078250   1.0078250   1.0078250   1.0078250   1.0078250
 NucSpn=           0           0           0           0           0           1           1           1           1           1
 AtZEff=   0.0000000   0.0000000   0.0000000   0.0000000   0.0000000   0.0000000   0.0000000   0.0000000   0.0000000   0.0000000
 NQMom=    0.0000000   0.0000000   0.0000000   0.0000000   0.0000000   0.0000000   0.0000000   0.0000000   0.0000000   0.0000000
 NMagM=    0.0000000   0.0000000   0.0000000   0.0000000   0.0000000   2.7928460   2.7928460   2.7928460   2.7928460   2.7928460
 AtZNuc=   6.0000000   6.0000000   6.0000000   6.0000000   6.0000000   1.0000000   1.0000000   1.0000000   1.0000000   1.0000000

  Atom        11          12          13          14          15          16          17          18          19          20
 IAtWgt=          16          16          16          16          16          12           1           1          16          32
 AtmWgt=  15.9949146  15.9949146  15.9949146  15.9949146  15.9949146  12.0000000   1.0078250   1.0078250  15.9949146  31.9720718
 NucSpn=           0           0           0           0           0           0           1           1           0           0
 AtZEff=   0.0000000   0.0000000   0.0000000   0.0000000   0.0000000   0.0000000   0.0000000   0.0000000   0.0000000   0.0000000
 NQMom=    0.0000000   0.0000000   0.0000000   0.0000000   0.0000000   0.0000000   0.0000000   0.0000000   0.0000000   0.0000000
 NMagM=    0.0000000   0.0000000   0.0000000   0.0000000   0.0000000   0.0000000   2.7928460   2.7928460   0.0000000   0.0000000
 AtZNuc=   8.0000000   8.0000000   8.0000000   8.0000000   8.0000000   6.0000000   1.0000000   1.0000000   8.0000000  16.0000000

  Atom        21          22          23          24          25          26          27          28          29          30
 IAtWgt=          16          16          12          12          12          12           1          12           1          12
 AtmWgt=  15.9949146  15.9949146  12.0000000  12.0000000  12.0000000  12.0000000   1.0078250  12.0000000   1.0078250  12.0000000
 NucSpn=           0           0           0           0           0           0           1           0           1           0
 AtZEff=   0.0000000   0.0000000   0.0000000   0.0000000   0.0000000   0.0000000   0.0000000   0.0000000   0.0000000   0.0000000
 NQMom=    0.0000000   0.0000000   0.0000000   0.0000000   0.0000000   0.0000000   0.0000000   0.0000000   0.0000000   0.0000000
 NMagM=    0.0000000   0.0000000   0.0000000   0.0000000   0.0000000   0.0000000   2.7928460   0.0000000   2.7928460   0.0000000
 AtZNuc=   8.0000000   8.0000000   6.0000000   6.0000000   6.0000000   6.0000000   1.0000000   6.0000000   1.0000000   6.0000000

  Atom        31          32          33          34          35          36          37          38          39          40
 IAtWgt=           1          12           1           1           1          12           1           1           1          12
 AtmWgt=   1.0078250  12.0000000   1.0078250   1.0078250   1.0078250  12.0000000   1.0078250   1.0078250   1.0078250  12.0000000
 NucSpn=           1           0           1           1           1           0           1           1           1           0
 AtZEff=   0.0000000   0.0000000   0.0000000   0.0000000   0.0000000   0.0000000   0.0000000   0.0000000   0.0000000   0.0000000
 NQMom=    0.0000000   0.0000000   0.0000000   0.0000000   0.0000000   0.0000000   0.0000000   0.0000000   0.0000000   0.0000000
 NMagM=    2.7928460   0.0000000   2.7928460   2.7928460   2.7928460   0.0000000   2.7928460   2.7928460   2.7928460   0.0000000
 AtZNuc=   1.0000000   6.0000000   1.0000000   1.0000000   1.0000000   6.0000000   1.0000000   1.0000000   1.0000000   6.0000000

  Atom        41          42          43          44          45          46          47          48          49          50
 IAtWgt=           1           1           1          12           1           1           1          12          19          19
 AtmWgt=   1.0078250   1.0078250   1.0078250  12.0000000   1.0078250   1.0078250   1.0078250  12.0000000  18.9984033  18.9984033
 NucSpn=           1           1           1           0           1           1           1           0           1           1
 AtZEff=   0.0000000   0.0000000   0.0000000   0.0000000   0.0000000   0.0000000   0.0000000   0.0000000   0.0000000   0.0000000
 NQMom=    0.0000000   0.0000000   0.0000000   0.0000000   0.0000000   0.0000000   0.0000000   0.0000000   0.0000000   0.0000000
 NMagM=    2.7928460   2.7928460   2.7928460   0.0000000   2.7928460   2.7928460   2.7928460   0.0000000   2.6288670   2.6288670
 AtZNuc=   1.0000000   1.0000000   1.0000000   6.0000000   1.0000000   1.0000000   1.0000000   6.0000000   9.0000000   9.0000000

  Atom        51          52          53          54          55
 IAtWgt=          19          12          19          19          19
 AtmWgt=  18.9984033  12.0000000  18.9984033  18.9984033  18.9984033
 NucSpn=           1           0           1           1           1
 AtZEff=   0.0000000   0.0000000   0.0000000   0.0000000   0.0000000
 NQMom=    0.0000000   0.0000000   0.0000000   0.0000000   0.0000000
 NMagM=    2.6288670   0.0000000   2.6288670   2.6288670   2.6288670
 AtZNuc=   9.0000000   6.0000000   9.0000000   9.0000000   9.0000000
 Leave Link  101 at Sat Jun 15 09:09:16 2019, MaxMem=  6442450944 cpu:              15.6 elap:               0.6
 (Enter /home/ekwan/sw/g16/l103.exe)

 GradGradGradGradGradGradGradGradGradGradGradGradGradGradGradGradGradGrad
 Berny optimization.
 Initialization pass.
                           ----------------------------
                           !    Initial Parameters    !
                           ! (Angstroms and Degrees)  !
 --------------------------                            --------------------------
 ! Name  Definition              Value          Derivative Info.                !
 --------------------------------------------------------------------------------
 ! R1    R(1,2)                  1.5243         estimate D2E/DX2                !
 ! R2    R(1,5)                  1.5221         estimate D2E/DX2                !
 ! R3    R(1,8)                  1.0999         estimate D2E/DX2                !
 ! R4    R(1,14)                 1.4085         estimate D2E/DX2                !
 ! R5    R(2,3)                  1.532          estimate D2E/DX2                !
 ! R6    R(2,7)                  1.1029         estimate D2E/DX2                !
 ! R7    R(2,13)                 1.3993         estimate D2E/DX2                !
 ! R8    R(3,6)                  1.0913         estimate D2E/DX2                !
 ! R9    R(3,11)                 1.3801         estimate D2E/DX2                !
 ! R10   R(3,12)                 1.4501         estimate D2E/DX2                !
 ! R11   R(4,5)                  1.5245         estimate D2E/DX2                !
 ! R12   R(4,9)                  1.0994         estimate D2E/DX2                !
 ! R13   R(4,11)                 1.4347         estimate D2E/DX2                !
 ! R14   R(4,16)                 1.5197         estimate D2E/DX2                !
 ! R15   R(5,10)                 1.0982         estimate D2E/DX2                !
 ! R16   R(5,15)                 1.409          estimate D2E/DX2                !
 ! R17   R(12,20)                1.6155         estimate D2E/DX2                !
 ! R18   R(13,32)                1.4132         estimate D2E/DX2                !
 ! R19   R(14,36)                1.4128         estimate D2E/DX2                !
 ! R20   R(15,40)                1.4133         estimate D2E/DX2                !
 ! R21   R(16,17)                1.0934         estimate D2E/DX2                !
 ! R22   R(16,18)                1.0989         estimate D2E/DX2                !
 ! R23   R(16,19)                1.4057         estimate D2E/DX2                !
 ! R24   R(19,44)                1.4132         estimate D2E/DX2                !
 ! R25   R(20,21)                1.4507         estimate D2E/DX2                !
 ! R26   R(20,22)                1.4556         estimate D2E/DX2                !
 ! R27   R(20,23)                1.7735         estimate D2E/DX2                !
 ! R28   R(23,24)                1.3894         estimate D2E/DX2                !
 ! R29   R(23,25)                1.3893         estimate D2E/DX2                !
 ! R30   R(24,26)                1.3911         estimate D2E/DX2                !
 ! R31   R(24,27)                1.0848         estimate D2E/DX2                !
 ! R32   R(25,28)                1.3895         estimate D2E/DX2                !
 ! R33   R(25,29)                1.0839         estimate D2E/DX2                !
 ! R34   R(26,30)                1.3909         estimate D2E/DX2                !
 ! R35   R(26,48)                1.5041         estimate D2E/DX2                !
 ! R36   R(28,30)                1.3922         estimate D2E/DX2                !
 ! R37   R(28,52)                1.503          estimate D2E/DX2                !
 ! R38   R(30,31)                1.0847         estimate D2E/DX2                !
 ! R39   R(32,33)                1.0979         estimate D2E/DX2                !
 ! R40   R(32,34)                1.0987         estimate D2E/DX2                !
 ! R41   R(32,35)                1.0915         estimate D2E/DX2                !
 ! R42   R(36,37)                1.0928         estimate D2E/DX2                !
 ! R43   R(36,38)                1.0992         estimate D2E/DX2                !
 ! R44   R(36,39)                1.0951         estimate D2E/DX2                !
 ! R45   R(40,41)                1.0928         estimate D2E/DX2                !
 ! R46   R(40,42)                1.0961         estimate D2E/DX2                !
 ! R47   R(40,43)                1.0984         estimate D2E/DX2                !
 ! R48   R(44,45)                1.0929         estimate D2E/DX2                !
 ! R49   R(44,46)                1.0989         estimate D2E/DX2                !
 ! R50   R(44,47)                1.096          estimate D2E/DX2                !
 ! R51   R(48,49)                1.3396         estimate D2E/DX2                !
 ! R52   R(48,50)                1.3418         estimate D2E/DX2                !
 ! R53   R(48,51)                1.3399         estimate D2E/DX2                !
 ! R54   R(52,53)                1.3476         estimate D2E/DX2                !
 ! R55   R(52,54)                1.3387         estimate D2E/DX2                !
 ! R56   R(52,55)                1.3376         estimate D2E/DX2                !
 ! A1    A(2,1,5)              110.2062         estimate D2E/DX2                !
 ! A2    A(2,1,8)              109.339          estimate D2E/DX2                !
 ! A3    A(2,1,14)             110.7074         estimate D2E/DX2                !
 ! A4    A(5,1,8)              108.4481         estimate D2E/DX2                !
 ! A5    A(5,1,14)             107.6724         estimate D2E/DX2                !
 ! A6    A(8,1,14)             110.4275         estimate D2E/DX2                !
 ! A7    A(1,2,3)              111.0117         estimate D2E/DX2                !
 ! A8    A(1,2,7)              107.8865         estimate D2E/DX2                !
 ! A9    A(1,2,13)             108.8104         estimate D2E/DX2                !
 ! A10   A(3,2,7)              105.8569         estimate D2E/DX2                !
 ! A11   A(3,2,13)             112.7136         estimate D2E/DX2                !
 ! A12   A(7,2,13)             110.4378         estimate D2E/DX2                !
 ! A13   A(2,3,6)              112.1137         estimate D2E/DX2                !
 ! A14   A(2,3,11)             112.9341         estimate D2E/DX2                !
 ! A15   A(2,3,12)             105.7916         estimate D2E/DX2                !
 ! A16   A(6,3,11)             106.4606         estimate D2E/DX2                !
 ! A17   A(6,3,12)             108.1301         estimate D2E/DX2                !
 ! A18   A(11,3,12)            111.3909         estimate D2E/DX2                !
 ! A19   A(5,4,9)              108.868          estimate D2E/DX2                !
 ! A20   A(5,4,11)             110.7192         estimate D2E/DX2                !
 ! A21   A(5,4,16)             112.0949         estimate D2E/DX2                !
 ! A22   A(9,4,11)             108.9809         estimate D2E/DX2                !
 ! A23   A(9,4,16)             107.5874         estimate D2E/DX2                !
 ! A24   A(11,4,16)            108.4982         estimate D2E/DX2                !
 ! A25   A(1,5,4)              111.5412         estimate D2E/DX2                !
 ! A26   A(1,5,10)             108.7523         estimate D2E/DX2                !
 ! A27   A(1,5,15)             110.0462         estimate D2E/DX2                !
 ! A28   A(4,5,10)             108.3201         estimate D2E/DX2                !
 ! A29   A(4,5,15)             107.4405         estimate D2E/DX2                !
 ! A30   A(10,5,15)            110.732          estimate D2E/DX2                !
 ! A31   A(3,11,4)             115.0226         estimate D2E/DX2                !
 ! A32   A(3,12,20)            118.4839         estimate D2E/DX2                !
 ! A33   A(2,13,32)            114.3044         estimate D2E/DX2                !
 ! A34   A(1,14,36)            114.3532         estimate D2E/DX2                !
 ! A35   A(5,15,40)            113.6977         estimate D2E/DX2                !
 ! A36   A(4,16,17)            107.0896         estimate D2E/DX2                !
 ! A37   A(4,16,18)            109.1634         estimate D2E/DX2                !
 ! A38   A(4,16,19)            114.8358         estimate D2E/DX2                !
 ! A39   A(17,16,18)           108.4617         estimate D2E/DX2                !
 ! A40   A(17,16,19)           106.275          estimate D2E/DX2                !
 ! A41   A(18,16,19)           110.747          estimate D2E/DX2                !
 ! A42   A(16,19,44)           114.3458         estimate D2E/DX2                !
 ! A43   A(12,20,21)           104.3095         estimate D2E/DX2                !
 ! A44   A(12,20,22)           108.8424         estimate D2E/DX2                !
 ! A45   A(12,20,23)           103.4232         estimate D2E/DX2                !
 ! A46   A(21,20,22)           121.3704         estimate D2E/DX2                !
 ! A47   A(21,20,23)           108.7952         estimate D2E/DX2                !
 ! A48   A(22,20,23)           108.6163         estimate D2E/DX2                !
 ! A49   A(20,23,24)           118.7544         estimate D2E/DX2                !
 ! A50   A(20,23,25)           119.0078         estimate D2E/DX2                !
 ! A51   A(24,23,25)           122.2095         estimate D2E/DX2                !
 ! A52   A(23,24,26)           118.4076         estimate D2E/DX2                !
 ! A53   A(23,24,27)           120.5746         estimate D2E/DX2                !
 ! A54   A(26,24,27)           121.0178         estimate D2E/DX2                !
 ! A55   A(23,25,28)           118.3463         estimate D2E/DX2                !
 ! A56   A(23,25,29)           120.5338         estimate D2E/DX2                !
 ! A57   A(28,25,29)           121.1199         estimate D2E/DX2                !
 ! A58   A(24,26,30)           120.5693         estimate D2E/DX2                !
 ! A59   A(24,26,48)           119.5989         estimate D2E/DX2                !
 ! A60   A(30,26,48)           119.792          estimate D2E/DX2                !
 ! A61   A(25,28,30)           120.679          estimate D2E/DX2                !
 ! A62   A(25,28,52)           119.8035         estimate D2E/DX2                !
 ! A63   A(30,28,52)           119.4253         estimate D2E/DX2                !
 ! A64   A(26,30,28)           119.788          estimate D2E/DX2                !
 ! A65   A(26,30,31)           120.0918         estimate D2E/DX2                !
 ! A66   A(28,30,31)           120.1201         estimate D2E/DX2                !
 ! A67   A(13,32,33)           112.1494         estimate D2E/DX2                !
 ! A68   A(13,32,34)           111.1003         estimate D2E/DX2                !
 ! A69   A(13,32,35)           106.6914         estimate D2E/DX2                !
 ! A70   A(33,32,34)           109.0547         estimate D2E/DX2                !
 ! A71   A(33,32,35)           108.555          estimate D2E/DX2                !
 ! A72   A(34,32,35)           109.2015         estimate D2E/DX2                !
 ! A73   A(14,36,37)           106.6202         estimate D2E/DX2                !
 ! A74   A(14,36,38)           111.0566         estimate D2E/DX2                !
 ! A75   A(14,36,39)           111.6562         estimate D2E/DX2                !
 ! A76   A(37,36,38)           108.8503         estimate D2E/DX2                !
 ! A77   A(37,36,39)           109.4606         estimate D2E/DX2                !
 ! A78   A(38,36,39)           109.1265         estimate D2E/DX2                !
 ! A79   A(15,40,41)           106.7472         estimate D2E/DX2                !
 ! A80   A(15,40,42)           111.1742         estimate D2E/DX2                !
 ! A81   A(15,40,43)           110.9839         estimate D2E/DX2                !
 ! A82   A(41,40,42)           109.3537         estimate D2E/DX2                !
 ! A83   A(41,40,43)           109.1341         estimate D2E/DX2                !
 ! A84   A(42,40,43)           109.3862         estimate D2E/DX2                !
 ! A85   A(19,44,45)           106.7748         estimate D2E/DX2                !
 ! A86   A(19,44,46)           110.9563         estimate D2E/DX2                !
 ! A87   A(19,44,47)           112.1939         estimate D2E/DX2                !
 ! A88   A(45,44,46)           109.081          estimate D2E/DX2                !
 ! A89   A(45,44,47)           109.2501         estimate D2E/DX2                !
 ! A90   A(46,44,47)           108.5274         estimate D2E/DX2                !
 ! A91   A(26,48,49)           111.4102         estimate D2E/DX2                !
 ! A92   A(26,48,50)           111.2117         estimate D2E/DX2                !
 ! A93   A(26,48,51)           111.3984         estimate D2E/DX2                !
 ! A94   A(49,48,50)           107.3509         estimate D2E/DX2                !
 ! A95   A(49,48,51)           107.9514         estimate D2E/DX2                !
 ! A96   A(50,48,51)           107.3139         estimate D2E/DX2                !
 ! A97   A(28,52,53)           110.9117         estimate D2E/DX2                !
 ! A98   A(28,52,54)           111.5704         estimate D2E/DX2                !
 ! A99   A(28,52,55)           111.8011         estimate D2E/DX2                !
 ! A100  A(53,52,54)           106.9448         estimate D2E/DX2                !
 ! A101  A(53,52,55)           107.2561         estimate D2E/DX2                !
 ! A102  A(54,52,55)           108.1244         estimate D2E/DX2                !
 ! D1    D(5,1,2,3)            -49.67           estimate D2E/DX2                !
 ! D2    D(5,1,2,7)             65.8943         estimate D2E/DX2                !
 ! D3    D(5,1,2,13)          -174.2671         estimate D2E/DX2                !
 ! D4    D(8,1,2,3)             69.443          estimate D2E/DX2                !
 ! D5    D(8,1,2,7)           -174.9927         estimate D2E/DX2                !
 ! D6    D(8,1,2,13)           -55.1541         estimate D2E/DX2                !
 ! D7    D(14,1,2,3)          -168.6794         estimate D2E/DX2                !
 ! D8    D(14,1,2,7)           -53.115          estimate D2E/DX2                !
 ! D9    D(14,1,2,13)           66.7236         estimate D2E/DX2                !
 ! D10   D(2,1,5,4)             51.5398         estimate D2E/DX2                !
 ! D11   D(2,1,5,10)           -67.8591         estimate D2E/DX2                !
 ! D12   D(2,1,5,15)           170.6859         estimate D2E/DX2                !
 ! D13   D(8,1,5,4)            -68.1147         estimate D2E/DX2                !
 ! D14   D(8,1,5,10)           172.4864         estimate D2E/DX2                !
 ! D15   D(8,1,5,15)            51.0313         estimate D2E/DX2                !
 ! D16   D(14,1,5,4)           172.3844         estimate D2E/DX2                !
 ! D17   D(14,1,5,10)           52.9854         estimate D2E/DX2                !
 ! D18   D(14,1,5,15)          -68.4696         estimate D2E/DX2                !
 ! D19   D(2,1,14,36)          -97.3003         estimate D2E/DX2                !
 ! D20   D(5,1,14,36)          142.1702         estimate D2E/DX2                !
 ! D21   D(8,1,14,36)           23.9364         estimate D2E/DX2                !
 ! D22   D(1,2,3,6)            172.5148         estimate D2E/DX2                !
 ! D23   D(1,2,3,11)            52.2475         estimate D2E/DX2                !
 ! D24   D(1,2,3,12)           -69.8412         estimate D2E/DX2                !
 ! D25   D(7,2,3,6)             55.699          estimate D2E/DX2                !
 ! D26   D(7,2,3,11)           -64.5684         estimate D2E/DX2                !
 ! D27   D(7,2,3,12)           173.343          estimate D2E/DX2                !
 ! D28   D(13,2,3,6)           -65.1262         estimate D2E/DX2                !
 ! D29   D(13,2,3,11)          174.6064         estimate D2E/DX2                !
 ! D30   D(13,2,3,12)           52.5178         estimate D2E/DX2                !
 ! D31   D(1,2,13,32)         -163.9139         estimate D2E/DX2                !
 ! D32   D(3,2,13,32)           72.4979         estimate D2E/DX2                !
 ! D33   D(7,2,13,32)          -45.6722         estimate D2E/DX2                !
 ! D34   D(2,3,11,4)           -56.5884         estimate D2E/DX2                !
 ! D35   D(6,3,11,4)           179.9592         estimate D2E/DX2                !
 ! D36   D(12,3,11,4)           62.2996         estimate D2E/DX2                !
 ! D37   D(2,3,12,20)         -158.8199         estimate D2E/DX2                !
 ! D38   D(6,3,12,20)          -38.5383         estimate D2E/DX2                !
 ! D39   D(11,3,12,20)          78.1078         estimate D2E/DX2                !
 ! D40   D(9,4,5,1)             66.0443         estimate D2E/DX2                !
 ! D41   D(9,4,5,10)          -174.3009         estimate D2E/DX2                !
 ! D42   D(9,4,5,15)           -54.6386         estimate D2E/DX2                !
 ! D43   D(11,4,5,1)           -53.7415         estimate D2E/DX2                !
 ! D44   D(11,4,5,10)           65.9133         estimate D2E/DX2                !
 ! D45   D(11,4,5,15)         -174.4244         estimate D2E/DX2                !
 ! D46   D(16,4,5,1)          -175.0504         estimate D2E/DX2                !
 ! D47   D(16,4,5,10)          -55.3956         estimate D2E/DX2                !
 ! D48   D(16,4,5,15)           64.2666         estimate D2E/DX2                !
 ! D49   D(5,4,11,3)            57.0209         estimate D2E/DX2                !
 ! D50   D(9,4,11,3)           -62.6972         estimate D2E/DX2                !
 ! D51   D(16,4,11,3)         -179.5703         estimate D2E/DX2                !
 ! D52   D(5,4,16,17)          -70.2761         estimate D2E/DX2                !
 ! D53   D(5,4,16,18)          172.4931         estimate D2E/DX2                !
 ! D54   D(5,4,16,19)           47.4577         estimate D2E/DX2                !
 ! D55   D(9,4,16,17)           49.3812         estimate D2E/DX2                !
 ! D56   D(9,4,16,18)          -67.8495         estimate D2E/DX2                !
 ! D57   D(9,4,16,19)          167.1151         estimate D2E/DX2                !
 ! D58   D(11,4,16,17)         167.1458         estimate D2E/DX2                !
 ! D59   D(11,4,16,18)          49.915          estimate D2E/DX2                !
 ! D60   D(11,4,16,19)         -75.1204         estimate D2E/DX2                !
 ! D61   D(1,5,15,40)          107.4871         estimate D2E/DX2                !
 ! D62   D(4,5,15,40)         -130.8907         estimate D2E/DX2                !
 ! D63   D(10,5,15,40)         -12.7789         estimate D2E/DX2                !
 ! D64   D(3,12,20,21)         165.546          estimate D2E/DX2                !
 ! D65   D(3,12,20,22)          34.6489         estimate D2E/DX2                !
 ! D66   D(3,12,20,23)         -80.7059         estimate D2E/DX2                !
 ! D67   D(2,13,32,33)         -70.4376         estimate D2E/DX2                !
 ! D68   D(2,13,32,34)          51.8987         estimate D2E/DX2                !
 ! D69   D(2,13,32,35)         170.8286         estimate D2E/DX2                !
 ! D70   D(1,14,36,37)        -178.0901         estimate D2E/DX2                !
 ! D71   D(1,14,36,38)         -59.6507         estimate D2E/DX2                !
 ! D72   D(1,14,36,39)          62.3975         estimate D2E/DX2                !
 ! D73   D(5,15,40,41)         179.6641         estimate D2E/DX2                !
 ! D74   D(5,15,40,42)         -61.1468         estimate D2E/DX2                !
 ! D75   D(5,15,40,43)          60.8464         estimate D2E/DX2                !
 ! D76   D(4,16,19,44)          79.711          estimate D2E/DX2                !
 ! D77   D(17,16,19,44)       -162.0953         estimate D2E/DX2                !
 ! D78   D(18,16,19,44)        -44.4914         estimate D2E/DX2                !
 ! D79   D(16,19,44,45)        168.2376         estimate D2E/DX2                !
 ! D80   D(16,19,44,46)         49.4826         estimate D2E/DX2                !
 ! D81   D(16,19,44,47)        -72.1009         estimate D2E/DX2                !
 ! D82   D(12,20,23,24)        -81.1998         estimate D2E/DX2                !
 ! D83   D(12,20,23,25)         96.9094         estimate D2E/DX2                !
 ! D84   D(21,20,23,24)         29.2654         estimate D2E/DX2                !
 ! D85   D(21,20,23,25)       -152.6254         estimate D2E/DX2                !
 ! D86   D(22,20,23,24)        163.2842         estimate D2E/DX2                !
 ! D87   D(22,20,23,25)        -18.6066         estimate D2E/DX2                !
 ! D88   D(20,23,24,26)        177.9737         estimate D2E/DX2                !
 ! D89   D(20,23,24,27)         -2.0437         estimate D2E/DX2                !
 ! D90   D(25,23,24,26)         -0.0719         estimate D2E/DX2                !
 ! D91   D(25,23,24,27)        179.9107         estimate D2E/DX2                !
 ! D92   D(20,23,25,28)       -178.0415         estimate D2E/DX2                !
 ! D93   D(20,23,25,29)          1.9693         estimate D2E/DX2                !
 ! D94   D(24,23,25,28)         -0.0007         estimate D2E/DX2                !
 ! D95   D(24,23,25,29)       -179.9899         estimate D2E/DX2                !
 ! D96   D(23,24,26,30)          0.0193         estimate D2E/DX2                !
 ! D97   D(23,24,26,48)        177.7207         estimate D2E/DX2                !
 ! D98   D(27,24,26,30)       -179.9633         estimate D2E/DX2                !
 ! D99   D(27,24,26,48)         -2.2619         estimate D2E/DX2                !
 ! D100  D(23,25,28,30)          0.1272         estimate D2E/DX2                !
 ! D101  D(23,25,28,52)        176.6149         estimate D2E/DX2                !
 ! D102  D(29,25,28,30)       -179.8837         estimate D2E/DX2                !
 ! D103  D(29,25,28,52)         -3.396          estimate D2E/DX2                !
 ! D104  D(24,26,30,28)          0.1043         estimate D2E/DX2                !
 ! D105  D(24,26,30,31)       -179.7916         estimate D2E/DX2                !
 ! D106  D(48,26,30,28)       -177.5927         estimate D2E/DX2                !
 ! D107  D(48,26,30,31)          2.5114         estimate D2E/DX2                !
 ! D108  D(24,26,48,49)         30.4865         estimate D2E/DX2                !
 ! D109  D(24,26,48,50)        -89.235          estimate D2E/DX2                !
 ! D110  D(24,26,48,51)        151.0982         estimate D2E/DX2                !
 ! D111  D(30,26,48,49)       -151.794          estimate D2E/DX2                !
 ! D112  D(30,26,48,50)         88.4845         estimate D2E/DX2                !
 ! D113  D(30,26,48,51)        -31.1823         estimate D2E/DX2                !
 ! D114  D(25,28,30,26)         -0.1795         estimate D2E/DX2                !
 ! D115  D(25,28,30,31)        179.7165         estimate D2E/DX2                !
 ! D116  D(52,28,30,26)       -176.6803         estimate D2E/DX2                !
 ! D117  D(52,28,30,31)          3.2156         estimate D2E/DX2                !
 ! D118  D(25,28,52,53)        -94.4582         estimate D2E/DX2                !
 ! D119  D(25,28,52,54)        146.4276         estimate D2E/DX2                !
 ! D120  D(25,28,52,55)         25.2022         estimate D2E/DX2                !
 ! D121  D(30,28,52,53)         82.0737         estimate D2E/DX2                !
 ! D122  D(30,28,52,54)        -37.0405         estimate D2E/DX2                !
 ! D123  D(30,28,52,55)       -158.2659         estimate D2E/DX2                !
 --------------------------------------------------------------------------------
 Trust Radius=3.00D-01 FncErr=1.00D-07 GrdErr=1.00D-06 EigMax=2.50D+02 EigMin=1.00D-04
 Number of steps in this run=    291 maximum allowed number of steps=    330.
 GradGradGradGradGradGradGradGradGradGradGradGradGradGradGradGradGradGrad

 Leave Link  103 at Sat Jun 15 09:09:16 2019, MaxMem=  6442450944 cpu:               1.4 elap:               0.1
 (Enter /home/ekwan/sw/g16/l202.exe)
 Stoichiometry    C18H22F6O8S
 Framework group  C1[X(C18H22F6O8S)]
 Deg. of freedom   159
 Full point group                 C1      NOp   1
 Largest Abelian subgroup         C1      NOp   1
 Largest concise Abelian subgroup C1      NOp   1
                         Standard orientation:                         
 ---------------------------------------------------------------------
 Center     Atomic      Atomic             Coordinates (Angstroms)
 Number     Number       Type             X           Y           Z
 ---------------------------------------------------------------------
      1          6           0        3.380723    0.282142    0.652815
      2          6           0        3.315062   -0.446050   -0.684734
      3          6           0        1.863017   -0.707966   -1.096865
      4          6           0        1.047678    1.112156    0.191666
      5          6           0        2.454958    1.490212    0.639694
      6          1           0        1.789280   -1.109646   -2.108890
      7          1           0        3.731038    0.223783   -1.455861
      8          1           0        3.054816   -0.397413    1.453873
      9          1           0        0.601191    0.447656    0.945105
     10          1           0        2.853563    2.232839   -0.064380
     11          8           0        1.082739    0.430062   -1.070005
     12          8           0        1.366276   -1.711672   -0.175712
     13          8           0        4.071951   -1.619747   -0.597109
     14          8           0        4.686564    0.746831    0.903319
     15          8           0        2.353633    2.035125    1.935074
     16          6           0        0.144579    2.327137    0.058014
     17          1           0       -0.052667    2.693656    1.069088
     18          1           0       -0.809251    2.019769   -0.392976
     19          8           0        0.705428    3.404731   -0.649220
     20         16           0        0.083587   -2.591189   -0.612888
     21          8           0        0.067621   -3.694566    0.328778
     22          8           0        0.138882   -2.821471   -2.049133
     23          6           0       -1.287381   -1.521769   -0.263331
     24          6           0       -1.755472   -1.440156    1.042337
     25          6           0       -1.831248   -0.764890   -1.293676
     26          6           0       -2.803222   -0.567048    1.316410
     27          1           0       -1.311999   -2.044712    1.826301
     28          6           0       -2.878017    0.099098   -0.996078
     29          1           0       -1.444975   -0.850228   -2.302773
     30          6           0       -3.365444    0.203213    0.303851
     31          1           0       -4.179891    0.883987    0.526881
     32          6           0        4.390985   -2.200665   -1.845270
     33          1           0        3.511161   -2.637791   -2.335375
     34          1           0        4.847832   -1.463208   -2.519580
     35          1           0        5.109284   -2.997922   -1.645575
     36          6           0        5.456031   -0.097662    1.734419
     37          1           0        6.421823    0.394853    1.872050
     38          1           0        4.979551   -0.225844    2.716677
     39          1           0        5.609887   -1.081671    1.279097
     40          6           0        3.034390    3.264053    2.089201
     41          1           0        2.877566    3.583484    3.122491
     42          1           0        4.108438    3.147632    1.904019
     43          1           0        2.628038    4.026556    1.411027
     44          6           0        0.663548    3.264011   -2.054749
     45          1           0        0.926317    4.237128   -2.477143
     46          1           0       -0.344809    2.986408   -2.392086
     47          1           0        1.371750    2.509897   -2.416601
     48          6           0       -3.365131   -0.495045    2.709755
     49          9           0       -2.428730   -0.764026    3.629169
     50          9           0       -4.358347   -1.381160    2.879066
     51          9           0       -3.865406    0.719821    2.972966
     52          6           0       -3.440181    0.988970   -2.068959
     53          9           0       -2.858726    2.204296   -2.039424
     54          9           0       -4.755330    1.181677   -1.909498
     55          9           0       -3.238944    0.482392   -3.290510
 ---------------------------------------------------------------------
 Rotational constants (GHZ):           0.1517543           0.0848082           0.0831521
 Leave Link  202 at Sat Jun 15 09:09:17 2019, MaxMem=  6442450944 cpu:               4.3 elap:               0.2
 (Enter /home/ekwan/sw/g16/l301.exe)
 Standard basis: 6-31G(d) (6D, 7F)
 Centers:      12     22     21
 SP 1 1.00
     Exponent=  8.4500000000D-02 Coefficients=  1.0000000000D+00  1.0000000000D+00
 ****
 Ernie: Thresh=  0.10000D-02 Tol=  0.10000D-05 Strict=F.
 There are   555 symmetry adapted cartesian basis functions of A   symmetry.
 There are   555 symmetry adapted basis functions of A   symmetry.
   555 basis functions,  1048 primitive gaussians,   555 cartesian basis functions
   132 alpha electrons      132 beta electrons
       nuclear repulsion energy      4353.5516447727 Hartrees.
 IExCor= 1009 DFT=T Ex+Corr=PBE1PBE ExCW=0 ScaHFX=  0.250000
 ScaDFX=  0.750000  0.750000  1.000000  1.000000 ScalE2=  1.000000  1.000000
 IRadAn=      5 IRanWt=     -1 IRanGd=            0 ICorTp=0 IEmpDi=141
 NAtoms=   55 NActive=   55 NUniq=   55 SFac= 1.00D+00 NAtFMM=   60 NAOKFM=F Big=F
 Integral buffers will be    131072 words long.
 Raffenetti 2 integral format.
 Two-electron integral symmetry is turned on.
 R6Disp:  Grimme-D3(BJ) Dispersion energy=       -0.0665246381 Hartrees.
 Nuclear repulsion after empirical dispersion term =     4353.4851201346 Hartrees.
 ------------------------------------------------------------------------------
 Polarizable Continuum Model (PCM)
 =================================
 Model                : PCM.
 Atomic radii         : UFF (Universal Force Field).
 Polarization charges : Total charges.
 Charge compensation  : None.
 Solution method      : On-the-fly selection.
 Cavity type          : Scaled VdW (van der Waals Surface) (Alpha=1.100).
 Cavity algorithm     : GePol (No added spheres)
                        Default sphere list used, NSphG=   55.
                        Lebedev-Laikov grids with approx.  5.0 points / Ang**2.
                        Smoothing algorithm: York/Karplus (Gamma=1.0000).
                        Polarization charges: spherical gaussians, with
                                              point-specific exponents (IZeta= 3).
                        Self-potential: point-specific (ISelfS= 7).
                        Self-field    : sphere-specific E.n sum rule (ISelfD= 2).
 1st derivatives      : Analytical E(r).r(x)/FMM algorithm (CHGder, D1EAlg=3).
                        Cavity 1st derivative terms included.
 Solvent              : TetraHydroFuran, Eps=   7.425700 Eps(inf)=   1.974025
 ------------------------------------------------------------------------------
 GePol: Number of generator spheres                  =      55
 GePol: Total number of spheres                      =      55
 GePol: Number of exposed spheres                    =      55 (100.00%)
 GePol: Number of points                             =    3898
 GePol: Average weight of points                     =       0.13
 GePol: Minimum weight of points                     =   0.16D-11
 GePol: Maximum weight of points                     =    0.20577
 GePol: Number of points with low weight             =     230
 GePol: Fraction of low-weight points (<1% of avg)   =       5.90%
 GePol: Cavity surface area                          =    494.000 Ang**2
 GePol: Cavity volume                                =    574.049 Ang**3
 Leave Link  301 at Sat Jun 15 09:09:17 2019, MaxMem=  6442450944 cpu:               8.4 elap:               0.4
 (Enter /home/ekwan/sw/g16/l302.exe)
 NPDir=0 NMtPBC=     1 NCelOv=     1 NCel=       1 NClECP=     1 NCelD=      1
         NCelK=      1 NCelE2=     1 NClLst=     1 CellRange=     0.0.
 One-electron integrals computed using PRISM.
 One-electron integral symmetry used in STVInt
 NBasis=   555 RedAO= T EigKep=  3.96D-04  NBF=   555
 NBsUse=   555 1.00D-06 EigRej= -1.00D+00 NBFU=   555
 Precomputing XC quadrature grid using
 IXCGrd= 4 IRadAn=           5 IRanWt=          -1 IRanGd=           0 AccXCQ= 0.00D+00.
 Generated NRdTot=       0 NPtTot=           0 NUsed=           0 NTot=          32
 NSgBfM=   544   543   544   544   544 MxSgAt=    55 MxSgA2=    55.
 Leave Link  302 at Sat Jun 15 09:09:30 2019, MaxMem=  6442450944 cpu:             345.5 elap:              13.4
 (Enter /home/ekwan/sw/g16/l303.exe)
 DipDrv:  MaxL=1.
 Leave Link  303 at Sat Jun 15 09:09:32 2019, MaxMem=  6442450944 cpu:               8.0 elap:               1.6
 (Enter /home/ekwan/sw/g16/l401.exe)
 ExpMin= 8.45D-02 ExpMax= 2.19D+04 ExpMxC= 3.30D+03 IAcc=3 IRadAn=         5 AccDes= 0.00D+00
 Harris functional with IExCor= 1009 and IRadAn=       5 diagonalized for initial guess.
 HarFok:  IExCor= 1009 AccDes= 0.00D+00 IRadAn=         5 IDoV= 1 UseB2=F ITyADJ=14
 ICtDFT=  3500011 ScaDFX=  1.000000  1.000000  1.000000  1.000000
 FoFCou: FMM=F IPFlag=           0 FMFlag=      100000 FMFlg1=           0
         NFxFlg=           0 DoJE=T BraDBF=F KetDBF=T FulRan=T
         wScrn=  0.000000 ICntrl=       500 IOpCl=  0 I1Cent=   200000004 NGrid=           0
         NMat0=    1 NMatS0=      1 NMatT0=    0 NMatD0=    1 NMtDS0=    0 NMtDT0=    0
 Petite list used in FoFCou.
 Harris En= -2296.22206537537    
 JPrj=0 DoOrth=F DoCkMO=F.
 Leave Link  401 at Sat Jun 15 09:09:42 2019, MaxMem=  6442450944 cpu:             281.9 elap:              10.3
 (Enter /home/ekwan/sw/g16/l502.exe)
 Integral symmetry usage will be decided dynamically.
 Closed shell SCF:
 Using DIIS extrapolation, IDIIS=  1040.
 NGot=  6442450944 LenX=  6441811192 LenY=  6441502612
 Requested convergence on RMS density matrix=1.00D-08 within 128 cycles.
 Requested convergence on MAX density matrix=1.00D-06.
 Requested convergence on             energy=1.00D-06.
 No special actions if energy rises.
 Fock matrices will be formed incrementally for  20 cycles.

 Cycle   1  Pass 1  IDiag  1:
 FoFJK:  IHMeth= 1 ICntrl=       0 DoSepK=F KAlg= 0 I1Cent=           0 FoldK=F
 IRaf= 710000000 NMat=       1 IRICut=       1 DoRegI=T DoRafI=F ISym2E= 0 IDoP0=0 IntGTp=1.
 FoFCou: FMM=F IPFlag=           0 FMFlag=      100000 FMFlg1=           0
         NFxFlg=           0 DoJE=F BraDBF=F KetDBF=F FulRan=T
         wScrn=  0.000000 ICntrl=         0 IOpCl=  0 I1Cent=           0 NGrid=           0
         NMat0=    1 NMatS0=      1 NMatT0=    0 NMatD0=    1 NMtDS0=    0 NMtDT0=    0
 Symmetry not used in FoFCou.
 Inv3:  Mode=1 IEnd=    45583212.
 Iteration    1 A*A^-1 deviation from unit magnitude is 1.04D-14 for   3898.
 Iteration    1 A*A^-1 deviation from orthogonality  is 2.97D-15 for   3892   2688.
 Iteration    1 A^-1*A deviation from unit magnitude is 1.04D-14 for   3898.
 Iteration    1 A^-1*A deviation from orthogonality  is 8.43D-15 for   3019   2978.
 E= -2295.40747501232    
 DIIS: error= 2.43D-02 at cycle   1 NSaved=   1.
 NSaved= 1 IEnMin= 1 EnMin= -2295.40747501232     IErMin= 1 ErrMin= 2.43D-02
 ErrMax= 2.43D-02  0.00D+00 EMaxC= 1.00D-01 BMatC= 7.90D-01 BMatP= 7.90D-01
 IDIUse=3 WtCom= 7.57D-01 WtEn= 2.43D-01
 Coeff-Com:  0.100D+01
 Coeff-En:   0.100D+01
 Coeff:      0.100D+01
 Gap=     0.180 Goal=   None    Shift=    0.000
 GapD=    0.180 DampG=1.000 DampE=0.500 DampFc=0.5000 IDamp=-1.
 Damping current iteration by 5.00D-01
 RMSDP=3.70D-03 MaxDP=4.89D-01              OVMax= 1.74D-01

 Cycle   2  Pass 1  IDiag  1:
 RMSU=  1.85D-03    CP:  9.98D-01
 E= -2295.61967703556     Delta-E=       -0.212202023236 Rises=F Damp=T
 DIIS: error= 7.79D-03 at cycle   2 NSaved=   2.
 NSaved= 2 IEnMin= 2 EnMin= -2295.61967703556     IErMin= 2 ErrMin= 7.79D-03
 ErrMax= 7.79D-03  0.00D+00 EMaxC= 1.00D-01 BMatC= 8.76D-02 BMatP= 7.90D-01
 IDIUse=3 WtCom= 9.22D-01 WtEn= 7.79D-02
 Coeff-Com:  0.150D+00 0.850D+00
 Coeff-En:   0.270D+00 0.730D+00
 Coeff:      0.159D+00 0.841D+00
 Gap=     0.216 Goal=   None    Shift=    0.000
 RMSDP=1.15D-03 MaxDP=1.15D-01 DE=-2.12D-01 OVMax= 1.36D-01

 Cycle   3  Pass 1  IDiag  1:
 RMSU=  9.58D-04    CP:  9.90D-01  6.66D-01
 E= -2295.97960778190     Delta-E=       -0.359930746347 Rises=F Damp=F
 DIIS: error= 5.56D-03 at cycle   3 NSaved=   3.
 NSaved= 3 IEnMin= 3 EnMin= -2295.97960778190     IErMin= 3 ErrMin= 5.56D-03
 ErrMax= 5.56D-03  0.00D+00 EMaxC= 1.00D-01 BMatC= 5.77D-02 BMatP= 8.76D-02
 IDIUse=3 WtCom= 9.44D-01 WtEn= 5.56D-02
 Coeff-Com:  0.757D-02 0.439D+00 0.554D+00
 Coeff-En:   0.000D+00 0.000D+00 0.100D+01
 Coeff:      0.715D-02 0.414D+00 0.578D+00
 Gap=     0.187 Goal=   None    Shift=    0.000
 RMSDP=6.65D-04 MaxDP=4.06D-02 DE=-3.60D-01 OVMax= 5.69D-02

 Cycle   4  Pass 1  IDiag  1:
 RMSU=  4.11D-04    CP:  9.93D-01  8.11D-01  5.35D-01
 E= -2296.01685313506     Delta-E=       -0.037245353156 Rises=F Damp=F
 DIIS: error= 2.56D-03 at cycle   4 NSaved=   4.
 NSaved= 4 IEnMin= 4 EnMin= -2296.01685313506     IErMin= 4 ErrMin= 2.56D-03
 ErrMax= 2.56D-03  0.00D+00 EMaxC= 1.00D-01 BMatC= 1.27D-02 BMatP= 5.77D-02
 IDIUse=3 WtCom= 9.74D-01 WtEn= 2.56D-02
 Coeff-Com: -0.202D-01 0.105D+00 0.343D+00 0.572D+00
 Coeff-En:   0.000D+00 0.000D+00 0.193D+00 0.807D+00
 Coeff:     -0.196D-01 0.103D+00 0.339D+00 0.578D+00
 Gap=     0.188 Goal=   None    Shift=    0.000
 RMSDP=2.39D-04 MaxDP=1.45D-02 DE=-3.72D-02 OVMax= 2.14D-02

 Cycle   5  Pass 1  IDiag  1:
 RMSU=  9.56D-05    CP:  9.93D-01  7.84D-01  6.69D-01  5.87D-01
 E= -2296.02669722392     Delta-E=       -0.009844088862 Rises=F Damp=F
 DIIS: error= 7.61D-04 at cycle   5 NSaved=   5.
 NSaved= 5 IEnMin= 5 EnMin= -2296.02669722392     IErMin= 5 ErrMin= 7.61D-04
 ErrMax= 7.61D-04  0.00D+00 EMaxC= 1.00D-01 BMatC= 7.64D-04 BMatP= 1.27D-02
 IDIUse=3 WtCom= 9.92D-01 WtEn= 7.61D-03
 Coeff-Com: -0.101D-01 0.290D-01 0.137D+00 0.301D+00 0.544D+00
 Coeff-En:   0.000D+00 0.000D+00 0.000D+00 0.000D+00 0.100D+01
 Coeff:     -0.100D-01 0.288D-01 0.136D+00 0.298D+00 0.547D+00
 Gap=     0.188 Goal=   None    Shift=    0.000
 RMSDP=5.39D-05 MaxDP=3.92D-03 DE=-9.84D-03 OVMax= 5.83D-03

 Cycle   6  Pass 1  IDiag  1:
 RMSU=  3.09D-05    CP:  9.93D-01  7.89D-01  6.71D-01  6.34D-01  5.99D-01
 E= -2296.02731363339     Delta-E=       -0.000616409472 Rises=F Damp=F
 DIIS: error= 2.13D-04 at cycle   6 NSaved=   6.
 NSaved= 6 IEnMin= 6 EnMin= -2296.02731363339     IErMin= 6 ErrMin= 2.13D-04
 ErrMax= 2.13D-04  0.00D+00 EMaxC= 1.00D-01 BMatC= 4.62D-05 BMatP= 7.64D-04
 IDIUse=3 WtCom= 9.98D-01 WtEn= 2.13D-03
 Coeff-Com: -0.339D-02 0.583D-02 0.367D-01 0.950D-01 0.264D+00 0.602D+00
 Coeff-En:   0.000D+00 0.000D+00 0.000D+00 0.000D+00 0.000D+00 0.100D+01
 Coeff:     -0.338D-02 0.582D-02 0.366D-01 0.948D-01 0.264D+00 0.603D+00
 Gap=     0.188 Goal=   None    Shift=    0.000
 RMSDP=1.45D-05 MaxDP=8.42D-04 DE=-6.16D-04 OVMax= 1.44D-03

 Cycle   7  Pass 1  IDiag  1:
 RMSU=  7.49D-06    CP:  9.93D-01  7.87D-01  6.72D-01  6.39D-01  6.45D-01
                    CP:  6.42D-01
 E= -2296.02735142233     Delta-E=       -0.000037788932 Rises=F Damp=F
 DIIS: error= 3.39D-05 at cycle   7 NSaved=   7.
 NSaved= 7 IEnMin= 7 EnMin= -2296.02735142233     IErMin= 7 ErrMin= 3.39D-05
 ErrMax= 3.39D-05  0.00D+00 EMaxC= 1.00D-01 BMatC= 2.44D-06 BMatP= 4.62D-05
 IDIUse=1 WtCom= 1.00D+00 WtEn= 0.00D+00
 Coeff-Com: -0.108D-02 0.102D-02 0.890D-02 0.269D-01 0.926D-01 0.278D+00
 Coeff-Com:  0.594D+00
 Coeff:     -0.108D-02 0.102D-02 0.890D-02 0.269D-01 0.926D-01 0.278D+00
 Coeff:      0.594D+00
 Gap=     0.188 Goal=   None    Shift=    0.000
 RMSDP=3.67D-06 MaxDP=2.44D-04 DE=-3.78D-05 OVMax= 4.54D-04

 Cycle   8  Pass 1  IDiag  1:
 RMSU=  2.40D-06    CP:  9.93D-01  7.88D-01  6.71D-01  6.39D-01  6.48D-01
                    CP:  6.92D-01  7.01D-01
 E= -2296.02735335835     Delta-E=       -0.000001936026 Rises=F Damp=F
 DIIS: error= 9.89D-06 at cycle   8 NSaved=   8.
 NSaved= 8 IEnMin= 8 EnMin= -2296.02735335835     IErMin= 8 ErrMin= 9.89D-06
 ErrMax= 9.89D-06  0.00D+00 EMaxC= 1.00D-01 BMatC= 2.93D-07 BMatP= 2.44D-06
 IDIUse=1 WtCom= 1.00D+00 WtEn= 0.00D+00
 Coeff-Com: -0.130D-03-0.129D-03-0.203D-03 0.135D-02 0.137D-01 0.639D-01
 Coeff-Com:  0.290D+00 0.631D+00
 Coeff:     -0.130D-03-0.129D-03-0.203D-03 0.135D-02 0.137D-01 0.639D-01
 Coeff:      0.290D+00 0.631D+00
 Gap=     0.188 Goal=   None    Shift=    0.000
 RMSDP=1.25D-06 MaxDP=8.17D-05 DE=-1.94D-06 OVMax= 1.11D-04

 Cycle   9  Pass 1  IDiag  1:
 RMSU=  8.91D-07    CP:  9.93D-01  7.88D-01  6.71D-01  6.39D-01  6.51D-01
                    CP:  6.95D-01  7.57D-01  7.13D-01
 E= -2296.02735354842     Delta-E=       -0.000000190064 Rises=F Damp=F
 DIIS: error= 6.50D-06 at cycle   9 NSaved=   9.
 NSaved= 9 IEnMin= 9 EnMin= -2296.02735354842     IErMin= 9 ErrMin= 6.50D-06
 ErrMax= 6.50D-06  0.00D+00 EMaxC= 1.00D-01 BMatC= 5.81D-08 BMatP= 2.93D-07
 IDIUse=1 WtCom= 1.00D+00 WtEn= 0.00D+00
 Coeff-Com:  0.245D-04-0.134D-03-0.957D-03-0.190D-02-0.140D-02 0.880D-02
 Coeff-Com:  0.107D+00 0.372D+00 0.517D+00
 Coeff:      0.245D-04-0.134D-03-0.957D-03-0.190D-02-0.140D-02 0.880D-02
 Coeff:      0.107D+00 0.372D+00 0.517D+00
 Gap=     0.188 Goal=   None    Shift=    0.000
 RMSDP=5.34D-07 MaxDP=4.39D-05 DE=-1.90D-07 OVMax= 5.44D-05

 Cycle  10  Pass 1  IDiag  1:
 RMSU=  2.87D-07    CP:  9.93D-01  7.88D-01  6.72D-01  6.39D-01  6.51D-01
                    CP:  6.94D-01  7.69D-01  7.85D-01  5.57D-01
 E= -2296.02735359209     Delta-E=       -0.000000043672 Rises=F Damp=F
 DIIS: error= 1.89D-06 at cycle  10 NSaved=  10.
 NSaved=10 IEnMin=10 EnMin= -2296.02735359209     IErMin=10 ErrMin= 1.89D-06
 ErrMax= 1.89D-06  0.00D+00 EMaxC= 1.00D-01 BMatC= 4.51D-09 BMatP= 5.81D-08
 IDIUse=1 WtCom= 1.00D+00 WtEn= 0.00D+00
 Coeff-Com:  0.222D-04-0.543D-04-0.480D-03-0.111D-02-0.203D-02-0.111D-02
 Coeff-Com:  0.290D-01 0.136D+00 0.281D+00 0.558D+00
 Coeff:      0.222D-04-0.543D-04-0.480D-03-0.111D-02-0.203D-02-0.111D-02
 Coeff:      0.290D-01 0.136D+00 0.281D+00 0.558D+00
 Gap=     0.188 Goal=   None    Shift=    0.000
 RMSDP=1.48D-07 MaxDP=1.09D-05 DE=-4.37D-08 OVMax= 1.95D-05

 Cycle  11  Pass 1  IDiag  1:
 RMSU=  9.87D-08    CP:  9.93D-01  7.88D-01  6.72D-01  6.39D-01  6.51D-01
                    CP:  6.95D-01  7.73D-01  7.89D-01  6.31D-01  7.29D-01
 E= -2296.02735359559     Delta-E=       -0.000000003502 Rises=F Damp=F
 DIIS: error= 4.99D-07 at cycle  11 NSaved=  11.
 NSaved=11 IEnMin=11 EnMin= -2296.02735359559     IErMin=11 ErrMin= 4.99D-07
 ErrMax= 4.99D-07  0.00D+00 EMaxC= 1.00D-01 BMatC= 4.69D-10 BMatP= 4.51D-09
 IDIUse=1 WtCom= 1.00D+00 WtEn= 0.00D+00
 Coeff-Com:  0.977D-05-0.147D-04-0.148D-03-0.375D-03-0.102D-02-0.193D-02
 Coeff-Com:  0.749D-03 0.220D-01 0.829D-01 0.296D+00 0.601D+00
 Coeff:      0.977D-05-0.147D-04-0.148D-03-0.375D-03-0.102D-02-0.193D-02
 Coeff:      0.749D-03 0.220D-01 0.829D-01 0.296D+00 0.601D+00
 Gap=     0.188 Goal=   None    Shift=    0.000
 RMSDP=4.75D-08 MaxDP=4.36D-06 DE=-3.50D-09 OVMax= 3.12D-06

 Cycle  12  Pass 1  IDiag  1:
 RMSU=  2.77D-08    CP:  9.93D-01  7.88D-01  6.72D-01  6.39D-01  6.51D-01
                    CP:  6.95D-01  7.73D-01  7.95D-01  6.42D-01  7.84D-01
                    CP:  7.07D-01
 E= -2296.02735359598     Delta-E=       -0.000000000385 Rises=F Damp=F
 DIIS: error= 1.27D-07 at cycle  12 NSaved=  12.
 NSaved=12 IEnMin=12 EnMin= -2296.02735359598     IErMin=12 ErrMin= 1.27D-07
 ErrMax= 1.27D-07  0.00D+00 EMaxC= 1.00D-01 BMatC= 2.31D-11 BMatP= 4.69D-10
 IDIUse=1 WtCom= 1.00D+00 WtEn= 0.00D+00
 Coeff-Com:  0.180D-05-0.708D-06-0.111D-04-0.371D-04-0.216D-03-0.658D-03
 Coeff-Com: -0.250D-02-0.547D-02 0.414D-02 0.598D-01 0.227D+00 0.718D+00
 Coeff:      0.180D-05-0.708D-06-0.111D-04-0.371D-04-0.216D-03-0.658D-03
 Coeff:     -0.250D-02-0.547D-02 0.414D-02 0.598D-01 0.227D+00 0.718D+00
 Gap=     0.188 Goal=   None    Shift=    0.000
 RMSDP=1.32D-08 MaxDP=7.32D-07 DE=-3.85D-10 OVMax= 1.64D-06

 Cycle  13  Pass 1  IDiag  1:
 RMSU=  9.85D-09    CP:  9.93D-01  7.88D-01  6.72D-01  6.39D-01  6.51D-01
                    CP:  6.95D-01  7.73D-01  7.95D-01  6.44D-01  7.96D-01
                    CP:  7.56D-01  8.18D-01
 E= -2296.02735359596     Delta-E=        0.000000000015 Rises=F Damp=F
 DIIS: error= 4.92D-08 at cycle  13 NSaved=  13.
 NSaved=13 IEnMin=12 EnMin= -2296.02735359598     IErMin=13 ErrMin= 4.92D-08
 ErrMax= 4.92D-08  0.00D+00 EMaxC= 1.00D-01 BMatC= 4.75D-12 BMatP= 2.31D-11
 IDIUse=1 WtCom= 1.00D+00 WtEn= 0.00D+00
 Coeff-Com:  0.127D-06 0.756D-06 0.763D-05 0.151D-04-0.170D-04-0.128D-03
 Coeff-Com: -0.112D-02-0.448D-02-0.502D-02 0.268D-02 0.511D-01 0.361D+00
 Coeff-Com:  0.596D+00
 Coeff:      0.127D-06 0.756D-06 0.763D-05 0.151D-04-0.170D-04-0.128D-03
 Coeff:     -0.112D-02-0.448D-02-0.502D-02 0.268D-02 0.511D-01 0.361D+00
 Coeff:      0.596D+00
 Gap=     0.188 Goal=   None    Shift=    0.000
 RMSDP=5.10D-09 MaxDP=3.54D-07 DE= 1.55D-11 OVMax= 1.01D-06

 Error on total polarization charges =  0.00996
 SCF Done:  E(RPBE1PBE) =  -2296.02735360     A.U. after   13 cycles
            NFock= 13  Conv=0.51D-08     -V/T= 2.0068
 KE= 2.280411266814D+03 PE=-1.411201407205D+04 EE= 5.182090331501D+03
 Leave Link  502 at Sat Jun 15 09:14:36 2019, MaxMem=  6442450944 cpu:            7960.3 elap:             293.6
 (Enter /home/ekwan/sw/g16/l701.exe)
 ... and contract with generalized density number  0.
 Compute integral first derivatives.
 R6Disp: Adding Grimme-D3(BJ) dispersion energy 1st derivatives to the gradient.
 D1PCM: PCM CHGder 1st derivatives, ID1Alg=3 FixD1E=F DoIter=F DoCFld=F I1PDM=0.
 GePol: Maximum number of non-zero 1st derivatives   =     219
 Leave Link  701 at Sat Jun 15 09:14:47 2019, MaxMem=  6442450944 cpu:             296.4 elap:              11.1
 (Enter /home/ekwan/sw/g16/l702.exe)
 L702 exits ... SP integral derivatives will be done elsewhere.
 Leave Link  702 at Sat Jun 15 09:14:47 2019, MaxMem=  6442450944 cpu:               2.4 elap:               0.1
 (Enter /home/ekwan/sw/g16/l703.exe)
 Integral derivatives from FoFJK, PRISM(SPDF).
 Compute integral first derivatives, UseDBF=F ICtDFT=           0.
 Calling FoFJK, ICntrl=      2127 FMM=F ISym2X=0 I1Cent= 0 IOpClX= 0 NMat=1 NMatS=1 NMatT=0.
 FoFJK:  IHMeth= 1 ICntrl=    2127 DoSepK=F KAlg= 0 I1Cent=           0 FoldK=F
 IRaf=         0 NMat=       1 IRICut=       1 DoRegI=T DoRafI=F ISym2E= 0 IDoP0=0 IntGTp=1.
 FoFCou: FMM=F IPFlag=           0 FMFlag=      100000 FMFlg1=         800
         NFxFlg=           0 DoJE=F BraDBF=F KetDBF=F FulRan=T
         wScrn=  0.000000 ICntrl=      2127 IOpCl=  0 I1Cent=           0 NGrid=           0
         NMat0=    1 NMatS0=      1 NMatT0=    0 NMatD0=    1 NMtDS0=    0 NMtDT0=    0
 Symmetry not used in FoFCou.
 Leave Link  703 at Sat Jun 15 09:15:31 2019, MaxMem=  6442450944 cpu:            1163.5 elap:              44.2
 (Enter /home/ekwan/sw/g16/l716.exe)
 Dipole        = 3.11962944D-01 1.35769007D+00-5.58102586D-01
 ***** Axes restored to original set *****
 -------------------------------------------------------------------
 Center     Atomic                   Forces (Hartrees/Bohr)
 Number     Number              X              Y              Z
 -------------------------------------------------------------------
      1        6           0.000000880    0.000002077   -0.000002802
      2        6           0.000002355    0.000001297    0.000003165
      3        6           0.000000564    0.000017567   -0.000006252
      4        6           0.000002545    0.000000841   -0.000002177
      5        6           0.000001532   -0.000003152   -0.000004489
      6        1           0.000002298   -0.000002567    0.000002715
      7        1           0.000000003   -0.000000184    0.000000468
      8        1           0.000000759    0.000001812    0.000001628
      9        1           0.000000084    0.000000588    0.000000790
     10        1          -0.000000723    0.000001162   -0.000001632
     11        8          -0.000001252   -0.000006657    0.000003047
     12        8          -0.000002525   -0.000009622    0.000010177
     13        8          -0.000002310   -0.000002985    0.000000975
     14        8          -0.000002246    0.000005242    0.000002291
     15        8          -0.000003572    0.000004478   -0.000000519
     16        6          -0.000002803    0.000002151   -0.000001560
     17        1          -0.000001343    0.000001444   -0.000003727
     18        1          -0.000000570   -0.000002170   -0.000002463
     19        8           0.000000950   -0.000002130   -0.000003177
     20       16           0.000011231   -0.000005484    0.000001425
     21        8          -0.000002535    0.000005440   -0.000000646
     22        8          -0.000001907   -0.000001570    0.000009822
     23        6           0.000001071   -0.000000498   -0.000003159
     24        6           0.000000738    0.000001185    0.000002401
     25        6          -0.000001542   -0.000003120    0.000002366
     26        6           0.000001569   -0.000001758    0.000001242
     27        1           0.000000146    0.000001443    0.000002346
     28        6          -0.000001331   -0.000001186   -0.000000426
     29        1           0.000001493   -0.000003439    0.000000633
     30        6          -0.000001222   -0.000001881   -0.000000879
     31        1          -0.000000177   -0.000001674   -0.000001518
     32        6           0.000002315   -0.000000206    0.000006311
     33        1           0.000001043   -0.000001867    0.000003017
     34        1           0.000000936   -0.000000529    0.000001715
     35        1           0.000001966    0.000000320    0.000003230
     36        6           0.000000661    0.000001779   -0.000000839
     37        1          -0.000000819    0.000004359    0.000000134
     38        1          -0.000000169    0.000004346    0.000000874
     39        1           0.000000186    0.000002820    0.000002067
     40        6          -0.000000049    0.000001661   -0.000002349
     41        1          -0.000002516    0.000004599   -0.000003294
     42        1          -0.000001869    0.000003509   -0.000002425
     43        1          -0.000001263    0.000002745   -0.000003692
     44        6          -0.000002223   -0.000001811   -0.000003235
     45        1          -0.000001366   -0.000002212   -0.000003972
     46        1          -0.000000091   -0.000003304   -0.000002795
     47        1          -0.000000325   -0.000002216   -0.000002404
     48        6           0.000002879    0.000000390   -0.000001807
     49        9          -0.000000524    0.000002270    0.000001973
     50        9          -0.000000768    0.000002496    0.000001685
     51        9          -0.000001832    0.000001578   -0.000000100
     52        6           0.000000074   -0.000003201   -0.000001576
     53        9           0.000002513   -0.000002276   -0.000001930
     54        9          -0.000001674   -0.000005070   -0.000000486
     55        9           0.000000752   -0.000006831   -0.000000166
 -------------------------------------------------------------------
 Cartesian Forces:  Max     0.000017567 RMS     0.000003182
 Leave Link  716 at Sat Jun 15 09:15:32 2019, MaxMem=  6442450944 cpu:               1.8 elap:               0.1
 (Enter /home/ekwan/sw/g16/l103.exe)

 GradGradGradGradGradGradGradGradGradGradGradGradGradGradGradGradGradGrad
 Berny optimization.
 FormGI is forming the generalized inverse of G from B-inverse, IUseBI=4.
 GSVD:  received Info=                   1 from GESDD.
 Internal  Forces:  Max     0.000011284 RMS     0.000001499
 Search for a local minimum.
 Step number   1 out of a maximum of  291
 All quantities printed in internal units (Hartrees-Bohrs-Radians)
 RMS Force = .14994D-05 SwitMx=.10000D-02 MixMth= 2
 Mixed Optimization -- En-DIIS/RFO-DIIS
 Second derivative matrix not updated -- first step.
 ITU=  0
     Eigenvalues ---    0.00505   0.00643   0.00712   0.00718   0.00720
     Eigenvalues ---    0.00726   0.01029   0.01458   0.01516   0.01517
     Eigenvalues ---    0.01517   0.01523   0.01573   0.01579   0.01590
     Eigenvalues ---    0.01617   0.01646   0.01665   0.01701   0.02200
     Eigenvalues ---    0.02205   0.02214   0.02217   0.02228   0.02229
     Eigenvalues ---    0.02413   0.02967   0.03376   0.04488   0.04637
     Eigenvalues ---    0.04715   0.04886   0.04959   0.05276   0.05315
     Eigenvalues ---    0.05824   0.06088   0.06600   0.07026   0.07096
     Eigenvalues ---    0.07229   0.07813   0.09316   0.10038   0.10066
     Eigenvalues ---    0.10098   0.10145   0.10579   0.10599   0.10621
     Eigenvalues ---    0.10624   0.10737   0.10773   0.10874   0.10894
     Eigenvalues ---    0.10968   0.11028   0.11494   0.11865   0.11967
     Eigenvalues ---    0.14145   0.14909   0.16000   0.16000   0.16000
     Eigenvalues ---    0.16000   0.16000   0.16000   0.16000   0.16000
     Eigenvalues ---    0.16000   0.16000   0.16000   0.16000   0.16000
     Eigenvalues ---    0.16000   0.16000   0.16466   0.16911   0.17487
     Eigenvalues ---    0.18685   0.19666   0.19799   0.20793   0.22143
     Eigenvalues ---    0.23477   0.23486   0.23498   0.24953   0.24980
     Eigenvalues ---    0.24987   0.25000   0.25000   0.25000   0.25000
     Eigenvalues ---    0.25000   0.25000   0.25000   0.25000   0.25000
     Eigenvalues ---    0.25000   0.25000   0.25000   0.27561   0.28318
     Eigenvalues ---    0.29089   0.29375   0.29650   0.30391   0.31950
     Eigenvalues ---    0.32066   0.33365   0.33697   0.33754   0.33768
     Eigenvalues ---    0.33800   0.33801   0.33821   0.33861   0.33879
     Eigenvalues ---    0.33916   0.34118   0.34130   0.34229   0.34423
     Eigenvalues ---    0.34480   0.34486   0.34488   0.34636   0.34661
     Eigenvalues ---    0.35422   0.35435   0.35531   0.38236   0.38892
     Eigenvalues ---    0.42929   0.43097   0.43484   0.43500   0.43505
     Eigenvalues ---    0.43565   0.44165   0.44238   0.44692   0.45732
     Eigenvalues ---    0.47049   0.47070   0.47240   0.47287   0.47418
     Eigenvalues ---    0.48327   0.55539   0.56810   0.57217   0.57295
     Eigenvalues ---    0.57492   0.57735   0.93465   0.95643
 RFO step:  Lambda= 0.00000000D+00 EMin= 5.04738896D-03
 Linear search not attempted -- first point.
 Iteration  1 RMS(Cart)=  0.00012719 RMS(Int)=  0.00000000
 Iteration  2 RMS(Cart)=  0.00000001 RMS(Int)=  0.00000000
 ITry= 1 IFail=0 DXMaxC= 5.64D-04 DCOld= 1.00D+10 DXMaxT= 3.00D-01 DXLimC= 3.00D+00 Rises=F
 Variable       Old X    -DE/DX   Delta X   Delta X   Delta X     New X
                                 (Linear)    (Quad)   (Total)
    R1        2.88059   0.00000   0.00000  -0.00001  -0.00001   2.88058
    R2        2.87626   0.00000   0.00000   0.00000   0.00000   2.87626
    R3        2.07844   0.00000   0.00000   0.00000   0.00000   2.07845
    R4        2.66170   0.00000   0.00000   0.00000   0.00000   2.66170
    R5        2.89498   0.00000   0.00000  -0.00001  -0.00001   2.89497
    R6        2.08415   0.00000   0.00000   0.00000   0.00000   2.08415
    R7        2.64435   0.00000   0.00000   0.00000   0.00000   2.64435
    R8        2.06230   0.00000   0.00000   0.00000   0.00000   2.06229
    R9        2.60800  -0.00001   0.00000  -0.00001  -0.00001   2.60799
   R10        2.74023   0.00001   0.00000   0.00003   0.00003   2.74026
   R11        2.88088   0.00000   0.00000   0.00000   0.00000   2.88088
   R12        2.07748   0.00000   0.00000   0.00000   0.00000   2.07748
   R13        2.71114   0.00000   0.00000  -0.00001  -0.00001   2.71114
   R14        2.87190   0.00000   0.00000   0.00000   0.00000   2.87191
   R15        2.07535   0.00000   0.00000   0.00000   0.00000   2.07535
   R16        2.66257   0.00000   0.00000   0.00001   0.00001   2.66258
   R17        3.05292   0.00000   0.00000   0.00000   0.00000   3.05292
   R18        2.67057   0.00000   0.00000   0.00000   0.00000   2.67057
   R19        2.66979   0.00000   0.00000   0.00000   0.00000   2.66979
   R20        2.67077   0.00000   0.00000   0.00000   0.00000   2.67077
   R21        2.06622   0.00000   0.00000   0.00000   0.00000   2.06621
   R22        2.07669   0.00000   0.00000   0.00000   0.00000   2.07669
   R23        2.65635   0.00000   0.00000   0.00000   0.00000   2.65635
   R24        2.67052   0.00000   0.00000   0.00000   0.00000   2.67052
   R25        2.74136  -0.00001   0.00000  -0.00001  -0.00001   2.74135
   R26        2.75076  -0.00001   0.00000  -0.00001  -0.00001   2.75075
   R27        3.35148   0.00000   0.00000   0.00000   0.00000   3.35148
   R28        2.62566   0.00000   0.00000   0.00000   0.00000   2.62566
   R29        2.62547   0.00000   0.00000   0.00000   0.00000   2.62547
   R30        2.62883   0.00000   0.00000   0.00000   0.00000   2.62883
   R31        2.04994   0.00000   0.00000   0.00000   0.00000   2.04994
   R32        2.62581   0.00000   0.00000   0.00000   0.00000   2.62581
   R33        2.04821   0.00000   0.00000   0.00000   0.00000   2.04821
   R34        2.62847   0.00000   0.00000   0.00000   0.00000   2.62847
   R35        2.84235   0.00000   0.00000   0.00000   0.00000   2.84235
   R36        2.63089   0.00000   0.00000   0.00000   0.00000   2.63089
   R37        2.84024   0.00000   0.00000  -0.00001  -0.00001   2.84023
   R38        2.04974   0.00000   0.00000   0.00000   0.00000   2.04974
   R39        2.07472   0.00000   0.00000   0.00000   0.00000   2.07472
   R40        2.07633   0.00000   0.00000   0.00000   0.00000   2.07633
   R41        2.06270   0.00000   0.00000   0.00000   0.00000   2.06270
   R42        2.06514   0.00000   0.00000   0.00000   0.00000   2.06514
   R43        2.07723   0.00000   0.00000   0.00000   0.00000   2.07723
   R44        2.06946   0.00000   0.00000   0.00000   0.00000   2.06946
   R45        2.06518   0.00000   0.00000   0.00000   0.00000   2.06519
   R46        2.07132   0.00000   0.00000   0.00000   0.00000   2.07132
   R47        2.07565   0.00000   0.00000   0.00000   0.00000   2.07565
   R48        2.06527   0.00000   0.00000   0.00000   0.00000   2.06527
   R49        2.07667   0.00000   0.00000   0.00000   0.00000   2.07667
   R50        2.07110   0.00000   0.00000   0.00000   0.00000   2.07110
   R51        2.53147   0.00000   0.00000   0.00000   0.00000   2.53147
   R52        2.53558   0.00000   0.00000   0.00000   0.00000   2.53558
   R53        2.53213   0.00000   0.00000   0.00000   0.00000   2.53213
   R54        2.54656   0.00000   0.00000   0.00000   0.00000   2.54657
   R55        2.52982   0.00000   0.00000   0.00000   0.00000   2.52982
   R56        2.52779   0.00000   0.00000   0.00000   0.00000   2.52779
    A1        1.92346   0.00000   0.00000   0.00000   0.00000   1.92346
    A2        1.90833   0.00000   0.00000  -0.00001  -0.00001   1.90832
    A3        1.93221   0.00000   0.00000  -0.00001  -0.00001   1.93220
    A4        1.89278   0.00000   0.00000   0.00002   0.00002   1.89279
    A5        1.87924   0.00000   0.00000   0.00000   0.00000   1.87924
    A6        1.92732   0.00000   0.00000   0.00000   0.00000   1.92732
    A7        1.93752   0.00000   0.00000   0.00000   0.00000   1.93752
    A8        1.88297   0.00000   0.00000   0.00000   0.00000   1.88297
    A9        1.89910   0.00000   0.00000   0.00000   0.00000   1.89910
   A10        1.84755   0.00000   0.00000   0.00001   0.00001   1.84756
   A11        1.96722   0.00000   0.00000  -0.00001  -0.00001   1.96721
   A12        1.92750   0.00000   0.00000   0.00001   0.00001   1.92751
   A13        1.95675   0.00000   0.00000  -0.00001  -0.00001   1.95674
   A14        1.97107   0.00000   0.00000   0.00002   0.00002   1.97109
   A15        1.84641   0.00000   0.00000  -0.00001  -0.00001   1.84640
   A16        1.85809   0.00000   0.00000   0.00001   0.00001   1.85809
   A17        1.88723   0.00000   0.00000  -0.00001  -0.00001   1.88721
   A18        1.94414   0.00000   0.00000   0.00000   0.00000   1.94414
   A19        1.90011   0.00000   0.00000  -0.00001  -0.00001   1.90010
   A20        1.93242   0.00000   0.00000   0.00001   0.00001   1.93242
   A21        1.95642   0.00000   0.00000   0.00000   0.00000   1.95643
   A22        1.90208   0.00000   0.00000   0.00000   0.00000   1.90208
   A23        1.87775   0.00000   0.00000   0.00001   0.00001   1.87776
   A24        1.89365   0.00000   0.00000  -0.00002  -0.00002   1.89363
   A25        1.94676   0.00000   0.00000   0.00001   0.00001   1.94677
   A26        1.89809   0.00000   0.00000   0.00000   0.00000   1.89808
   A27        1.92067   0.00000   0.00000   0.00001   0.00001   1.92068
   A28        1.89054   0.00000   0.00000   0.00000   0.00000   1.89055
   A29        1.87519   0.00000   0.00000  -0.00002  -0.00002   1.87517
   A30        1.93264   0.00000   0.00000   0.00000   0.00000   1.93264
   A31        2.00752   0.00000   0.00000   0.00001   0.00001   2.00753
   A32        2.06793   0.00000   0.00000  -0.00002  -0.00002   2.06792
   A33        1.99499   0.00000   0.00000   0.00000   0.00000   1.99499
   A34        1.99584   0.00000   0.00000  -0.00001  -0.00001   1.99583
   A35        1.98440   0.00000   0.00000   0.00001   0.00001   1.98441
   A36        1.86907   0.00000   0.00000   0.00001   0.00001   1.86908
   A37        1.90526   0.00000   0.00000  -0.00001  -0.00001   1.90525
   A38        2.00426   0.00000   0.00000  -0.00001  -0.00001   2.00425
   A39        1.89301   0.00000   0.00000   0.00000   0.00000   1.89302
   A40        1.85485   0.00000   0.00000   0.00000   0.00000   1.85485
   A41        1.93290   0.00000   0.00000   0.00000   0.00000   1.93290
   A42        1.99571   0.00000   0.00000   0.00000   0.00000   1.99571
   A43        1.82054   0.00000   0.00000   0.00003   0.00003   1.82057
   A44        1.89966   0.00000   0.00000   0.00002   0.00002   1.89968
   A45        1.80508   0.00000   0.00000   0.00000   0.00000   1.80507
   A46        2.11831   0.00000   0.00000   0.00000   0.00000   2.11831
   A47        1.89883   0.00000   0.00000  -0.00002  -0.00002   1.89881
   A48        1.89571   0.00000   0.00000  -0.00002  -0.00002   1.89569
   A49        2.07266   0.00000   0.00000  -0.00001  -0.00001   2.07265
   A50        2.07708   0.00000   0.00000   0.00001   0.00001   2.07709
   A51        2.13296   0.00000   0.00000   0.00000   0.00000   2.13296
   A52        2.06660   0.00000   0.00000   0.00000   0.00000   2.06660
   A53        2.10442   0.00000   0.00000   0.00000   0.00000   2.10443
   A54        2.11216   0.00000   0.00000   0.00000   0.00000   2.11216
   A55        2.06553   0.00000   0.00000   0.00000   0.00000   2.06553
   A56        2.10371   0.00000   0.00000   0.00000   0.00000   2.10371
   A57        2.11394   0.00000   0.00000   0.00000   0.00000   2.11394
   A58        2.10433   0.00000   0.00000   0.00000   0.00000   2.10433
   A59        2.08739   0.00000   0.00000   0.00001   0.00001   2.08740
   A60        2.09076   0.00000   0.00000   0.00000   0.00000   2.09076
   A61        2.10625   0.00000   0.00000   0.00000   0.00000   2.10625
   A62        2.09097   0.00000   0.00000  -0.00001  -0.00001   2.09096
   A63        2.08436   0.00000   0.00000   0.00001   0.00001   2.08437
   A64        2.09070   0.00000   0.00000   0.00000   0.00000   2.09069
   A65        2.09600   0.00000   0.00000   0.00000   0.00000   2.09600
   A66        2.09649   0.00000   0.00000   0.00000   0.00000   2.09649
   A67        1.95738   0.00000   0.00000   0.00000   0.00000   1.95738
   A68        1.93907   0.00000   0.00000   0.00000   0.00000   1.93906
   A69        1.86212   0.00000   0.00000   0.00001   0.00001   1.86212
   A70        1.90336   0.00000   0.00000   0.00000   0.00000   1.90336
   A71        1.89464   0.00000   0.00000   0.00000   0.00000   1.89464
   A72        1.90593   0.00000   0.00000   0.00000   0.00000   1.90592
   A73        1.86087   0.00000   0.00000   0.00000   0.00000   1.86087
   A74        1.93830   0.00000   0.00000   0.00000   0.00000   1.93830
   A75        1.94877   0.00000   0.00000   0.00000   0.00000   1.94877
   A76        1.89980   0.00000   0.00000   0.00000   0.00000   1.89980
   A77        1.91045   0.00000   0.00000   0.00000   0.00000   1.91045
   A78        1.90462   0.00000   0.00000   0.00000   0.00000   1.90461
   A79        1.86309   0.00000   0.00000   0.00000   0.00000   1.86309
   A80        1.94036   0.00000   0.00000   0.00000   0.00000   1.94036
   A81        1.93703   0.00000   0.00000   0.00000   0.00000   1.93704
   A82        1.90858   0.00000   0.00000   0.00000   0.00000   1.90859
   A83        1.90475   0.00000   0.00000  -0.00001  -0.00001   1.90474
   A84        1.90915   0.00000   0.00000   0.00000   0.00000   1.90915
   A85        1.86357   0.00000   0.00000   0.00000   0.00000   1.86357
   A86        1.93655   0.00000   0.00000   0.00000   0.00000   1.93655
   A87        1.95815   0.00000   0.00000   0.00000   0.00000   1.95815
   A88        1.90382   0.00000   0.00000   0.00000   0.00000   1.90382
   A89        1.90677   0.00000   0.00000   0.00000   0.00000   1.90677
   A90        1.89416   0.00000   0.00000   0.00000   0.00000   1.89416
   A91        1.94447   0.00000   0.00000   0.00001   0.00001   1.94448
   A92        1.94101   0.00000   0.00000   0.00000   0.00000   1.94101
   A93        1.94427   0.00000   0.00000   0.00000   0.00000   1.94427
[...]
 0020849,0.00041894,0.00005925,0.00026524,0.00033944,-0.00008180,-0.000
 09181,0.00010538,0.00003113,-0.00017830,0.00007215,-0.00007606,-0.0001
 3204,-0.00004450,-0.00009729,0.00161744,0.00105193,0.00033417,-0.00020
 750,-0.00001377,-0.00015712,-0.00127715,-0.00045840,-0.00048730,-0.000
 85795,-0.00057104,-0.00053636,-0.00035969,-0.00021166,0.00008535,0.000
 08782,-0.00000832,-0.00000400,0.00007830,0.00005141,0.00000057,0.00054
 189,-0.00069082,0.00029791,0.00021474,-0.00010663,-0.00046398,-0.00025
 480,-0.00068208,0.00091200,-0.00052248,0.00002809,-0.00023274,0.000022
 04,-0.00001010,0.00001625,0.01028904,0.00045451,-0.00243466,-0.0000744
 9,-0.00002109,-0.00002636,0.00007310,0.00102804,0.00050745,-0.00001978
 ,0.00012358,-0.00037458,0.00001207,-0.00002142,-0.00005066,0.00000408,
 -0.00000332,0.00000970,0.00000347,-0.00000134,0.00000869,-0.00000896,0
 .00000873,0.00000384,0.00003548,-0.00005773,0.00006907,-0.00001538,0.0
 0000401,-0.00000978,0.00000282,0.00000687,-0.00001153,-0.00000562,0.00
 001488,-0.00000454,0.00008066,0.00008863,0.00004857,-0.00000509,-0.000
 01216,-0.00002215,-0.00002495,-0.00000954,-0.00000019,0.00001930,0.000
 02128,0.00001253,0.00137666,0.00019532,0.00102232,-0.00030288,-0.00012
 335,-0.00004425,-0.00169731,-0.00002327,-0.00010065,-0.00032524,-0.000
 05668,-0.00002252,-0.00023096,-0.00009512,0.00000527,0.00006717,0.0000
 1874,-0.00001019,0.00005670,0.00003373,0.00000193,0.00004049,0.0000084
 1,0.00000574,-0.09674314,-0.06307326,0.00354762,0.13919315,-0.00003097
 ,-0.00018554,-0.00008085,-0.00011781,0.00003386,-0.00008639,-0.0002745
 2,-0.00092128,0.00056603,-0.00026549,-0.00084807,-0.00032081,-0.000005
 50,0.00017573,0.00002435,-0.00003926,0.00005821,-0.00002053,0.00007689
 ,0.00001971,0.00000373,-0.00001405,0.00002211,-0.00002731,-0.00008150,
 0.00003970,-0.00011219,0.00009689,0.00000611,0.00001294,0.00019105,0.0
 0082376,0.00009507,0.00152004,0.00064724,-0.00028157,0.00007418,0.0000
 5318,-0.00001038,-0.00001799,0.00010847,0.00000143,-0.00005628,0.00013
 383,0.00002568,0.00119710,0.00053956,0.00061851,-0.00011367,0.00002231
 ,-0.00012029,0.00031101,-0.00103129,0.00048203,-0.00064263,0.00004347,
 -0.00080897,-0.00327239,0.00174801,0.00078751,0.00078901,-0.00100345,0
 .00021097,0.00082073,-0.00053205,-0.00060707,0.00171966,0.00048996,0.0
 0102996,0.00011678,-0.00069026,0.00074661,-0.00189623,0.00010505,0.002
 60694,0.00177718,0.00059192,0.00163941,-0.00019452,-0.00011546,-0.0000
 7179,-0.01434055,-0.04102005,0.00975439,-0.00097283,-0.00063165,-0.000
 39299,0.00231405,-0.00217585,-0.00177344,-0.00104536,-0.00073032,-0.00
 015016,-0.00005639,-0.00000590,0.00003350,0.00000031,0.00000649,0.0000
 1553,0.00001171,0.00001363,-0.00001061,0.00000358,-0.00000161,0.000001
 76,-0.00000560,-0.00002021,0.00002716,0.00000225,0.00000498,-0.0000021
 5,0.00000211,-0.00000304,-0.00000596,-0.00001088,0.00000857,-0.0000021
 2,0.00002840,-0.00005523,0.00004906,0.00000264,0.00000139,-0.00000747,
 -0.00001344,0.00000457,-0.00000494,0.00002500,0.00004256,-0.00000435,0
 .00157941,0.00049987,0.00137394,-0.00028837,-0.00011074,-0.00005747,0.
 00007016,-0.00011164,-0.00079497,-0.00050678,-0.00009171,-0.00004801,0
 .00129192,-0.00051752,-0.00240200,0.00004847,-0.00003694,0.00105570,-0
 .00057991,-0.00022910,0.00060518,-0.00037081,0.00052116,0.00063198,-0.
 06646255,-0.24227263,0.01428889,0.12727549,0.33536280,0.00005225,-0.00
 003573,0.00001412,0.00010001,-0.00004428,0.00000321,0.00021077,0.00016
 139,-0.00026742,-0.00002657,-0.00018176,-0.00016775,0.00004194,0.00013
 720,0.00008078,-0.00001186,0.00000934,0.00001296,-0.00003746,-0.000008
 09,-0.00000137,0.00000319,-0.00000427,0.00001192,0.00004003,0.00000798
 ,0.00005757,-0.00001692,-0.00001669,-0.00000318,-0.00021944,-0.0000787
 6,0.00011872,-0.00069866,-0.00010606,0.00018868,-0.00009665,0.00005209
 ,0.00005577,-0.00012297,0.00001240,-0.00004205,-0.00007620,-0.00007204
 ,-0.00004818,0.00063531,0.00082173,-0.00002808,-0.00007046,-0.00003063
 ,-0.00002550,-0.00087448,-0.00014682,-0.00070915,-0.00029027,-0.000398
 59,0.00046478,0.00143481,-0.00118458,-0.00078834,-0.00035100,0.0005510
 1,-0.00005210,-0.00033678,0.00030149,0.00047205,-0.00130310,-0.0000059
 8,-0.00122518,-0.00073320,0.00079605,0.00010498,0.00216034,0.00021278,
 -0.00182698,-0.00040341,-0.00083164,0.00043200,0.00007008,0.00003667,0
 .00006755,0.00507079,0.02730103,0.00502782,0.00009832,0.00057702,0.000
 03863,-0.00070848,-0.00009237,0.00058705,0.00025513,0.00011281,0.00010
 682,0.00003450,-0.00001897,-0.00007405,0.00000732,0.00000023,0.0000001
 0,-0.00000843,-0.00000911,0.00001108,-0.00000639,0.00000600,0.00000479
 ,0.00002583,-0.00003098,0.00003036,-0.00001195,0.00000060,-0.00000674,
 0.00000009,0.00000519,-0.00000242,-0.00000027,0.00000814,-0.00000289,0
 .00004763,0.00008332,0.00001170,-0.00000142,-0.00000894,-0.00000674,-0
 .00001536,-0.00000660,0.00000164,0.00000515,-0.00000553,0.00000511,-0.
 00011765,-0.00001301,-0.00035400,0.00002879,-0.00000381,0.00004769,0.0
 0023992,-0.00014470,-0.00000519,0.00001362,0.00002275,0.00002283,-0.00
 047753,-0.00001422,0.00109837,-0.00000248,0.00003463,-0.00037627,0.000
 28235,0.00016320,-0.00028186,0.00015391,-0.00012737,-0.00028431,0.0042
 3692,0.01585904,-0.07443201,0.00212087,0.01024574,0.07337212,0.0001239
 4,-0.00002585,0.00007536,0.00020704,-0.00009820,0.00002005,0.00037583,
 0.00002119,-0.00029380,0.00005808,0.00000313,0.00005188,0.00009085,0.0
 0015596,0.00018692,0.00001840,-0.00001097,0.00001122,-0.00004666,-0.00
 000839,-0.00001085,-0.00000136,-0.00000204,0.00000704,0.00005028,0.000
 02863,0.00005047,0.00000427,-0.00001490,-0.00001005,-0.00044530,-0.000
 04780,-0.00005329,-0.00092274,-0.00007143,0.00009461,-0.00020039,0.000
 12371,0.00004699,-0.00024273,0.00001732,-0.00012266,-0.00014004,-0.000
 15540,-0.00017296,0.00070305,0.00045067,0.00020101,-0.00009235,-0.0000
 3080,-0.00008876,0.00000144,-0.00008483,0.00013720,-0.00043624,-0.0003
 2460,-0.00018457,0.00231588,-0.00163527,-0.00073100,-0.00071030,0.0012
 1265,-0.00035764,-0.00056414,0.00055800,0.00054790,-0.00075380,0.00168
 053,0.00089940,-0.00021125,0.00002142,-0.00053957,-0.00077128,0.001407
 49,-0.00662421,0.00029805,0.00084026,-0.00087767,0.00004099,-0.0001442
 4,-0.00006431,-0.03698487,0.01178822,0.00152894,0.00034521,-0.00083639
 ,0.00006668,-0.00092558,0.00097434,0.00373981,-0.00025499,-0.00072228,
 -0.00192378,0.00006332,-0.00003058,-0.00009782,0.00000611,-0.00001280,
 0.00000238,-0.00000151,-0.00001120,0.00002185,-0.00001883,0.00001536,0
 .00000303,0.00006252,-0.00007467,0.00008520,-0.00002352,0.00000146,-0.
 00001230,0.00000289,0.00001259,-0.00001481,0.00000056,0.00001552,-0.00
 000360,0.00008977,0.00014701,0.00003540,-0.00000676,-0.00001878,-0.000
 02492,-0.00002569,-0.00001442,0.00000459,0.00000816,0.00000128,0.00001
 629,0.00064295,0.00016197,0.00042025,-0.00014440,-0.00009475,-0.000008
 68,0.00002515,0.00012114,-0.00025761,-0.00011815,-0.00001283,-0.000014
 21,-0.00127165,0.00022805,0.00162025,0.00007189,0.00003276,-0.00060231
 ,0.00060513,0.00025922,-0.00045417,0.00037118,-0.00034500,-0.00043513,
 -0.28029085,0.04660595,0.00001477,-0.06139016,-0.03614216,0.00492717,0
 .40943393,-0.00004359,-0.00004591,-0.00004317,-0.00009399,0.00003312,-
 0.00003096,-0.00018812,-0.00028963,0.00026114,-0.00009696,-0.00024709,
 -0.00009491,-0.00002652,0.00000642,-0.00004896,-0.00001571,0.00001747,
 -0.00001062,0.00003598,0.00000931,0.00000348,-0.00000389,0.00000714,-0
 .00001099,-0.00004073,0.00000568,-0.00005296,0.00002923,0.00000668,0.0
 0000695,0.00017233,0.00025601,0.00003691,0.00067336,0.00021114,-0.0001
 0428,0.00007753,-0.00001710,-0.00001778,0.00006193,0.00002762,0.000032
 89,0.00002164,0.00008422,0.00005484,0.00017025,0.00000609,0.00009885,-
 0.00001247,0.00001623,-0.00001180,0.00002914,-0.00023270,0.00013897,-0
 .00008577,0.00010063,-0.00019597,-0.00180148,0.00079714,0.00047696,0.0
 0055570,-0.00066975,0.00018561,0.00041526,-0.00028677,-0.00037054,-0.0
 0007510,-0.00170736,0.00017542,0.00061728,-0.00036588,0.00006201,0.000
 28935,0.00031868,0.00337696,-0.00030116,-0.00026134,-0.00000472,0.0000
 0903,0.00007856,0.00000836,0.02954504,0.00142385,0.00134169,0.00002342
 ,0.00066526,-0.00007295,0.00061367,-0.00087666,-0.00042869,0.00030844,
 -0.00013373,0.00089625,-0.00003508,0.00000633,0.00003866,-0.00000142,0
 .00000491,0.00000415,0.00000472,0.00000775,-0.00000919,0.00000577,-0.0
 0000460,-0.00000059,-0.00001847,0.00001379,-0.00001460,0.00000729,0.00
 000114,0.00000281,-0.00000005,-0.00000443,0.00000194,-0.00000348,-0.00
 000170,0.00000056,-0.00001680,-0.00005869,0.00000487,0.00000276,0.0000
 0561,0.00000468,0.00000321,0.00000537,-0.00000261,0.00000524,0.0000126
 6,-0.00000592,0.00030994,0.00006897,0.00028499,-0.00004371,-0.00000566
 ,-0.00001645,0.00006412,0.00002569,-0.00015555,-0.00010125,-0.00002072
 ,-0.00000811,0.00060288,-0.00020830,-0.00116517,0.00000425,-0.00000553
 ,0.00040766,-0.00028992,-0.00010474,0.00029437,-0.00020250,0.00024655,
 0.00031121,0.04415604,-0.08266372,0.00277046,-0.05345159,-0.00237203,0
 .00255873,-0.04570180,0.08394462,0.00003722,0.00001560,0.00002036,0.00
 007190,-0.00003397,0.00002109,0.00015174,0.00021478,-0.00025170,0.0000
 7449,0.00009451,0.00000511,0.00002471,0.00001396,0.00003828,-0.0000028
 0,-0.00000147,0.00001051,-0.00003229,-0.00000857,-0.00000227,0.0000029
 8,-0.00000484,0.00001021,0.00003042,-0.00000009,0.00004601,-0.00001747
 ,-0.00000848,-0.00000376,-0.00013363,-0.00014226,0.00004139,-0.0006011
 2,-0.00014314,0.00014196,-0.00006605,0.00002774,0.00003674,-0.00005967
 ,-0.00000882,-0.00002081,-0.00003212,-0.00004877,-0.00002825,0.0000115
 5,0.00008217,-0.00005156,0.00001165,-0.00000791,0.00001269,0.00002181,
 0.00007080,-0.00003712,-0.00002617,-0.00008380,0.00016724,0.00147444,-
 0.00077921,-0.00069964,-0.00045056,0.00060050,-0.00010952,-0.00031706,
 0.00024467,0.00045081,-0.00081527,0.00152921,0.00021488,-0.00052083,0.
 00043103,-0.00008260,-0.00039335,0.00038513,-0.00389885,-0.00039843,-0
 .00005450,0.00086260,-0.00004560,0.00003872,0.00004985,-0.02306970,0.0
 0816908,0.00864455,-0.00038827,0.00009686,-0.00004362,-0.00077745,-0.0
 0013783,-0.00181554,-0.00127014,0.00099149,-0.00001315,0.00002588,-0.0
 0001359,-0.00005108,0.00000547,-0.00000011,-0.00000136,-0.00000653,-0.
 00000691,0.00000773,-0.00000424,0.00000375,0.00000262,0.00001627,-0.00
 001455,0.00001116,-0.00000629,-0.00000071,-0.00000321,-0.00000054,0.00
 000300,-0.00000019,0.00000124,0.00000356,-0.00000096,0.00002031,0.0000
 4197,0.00000029,-0.00000003,-0.00000414,-0.00000155,-0.00000694,-0.000
 00288,0.00000138,0.00000078,-0.00000603,0.00000209,-0.00008109,-0.0000
 2821,-0.00015040,0.00001006,-0.00000448,0.00001273,0.00003368,0.000005
 08,0.00001336,0.00000973,0.00001283,0.00000301,-0.00034230,-0.00015230
 ,0.00108761,-0.00005342,0.00005018,-0.00035942,0.00024547,0.00015024,-
 0.00025871,0.00011962,-0.00008692,-0.00028056,0.00659338,0.00126388,-0
 .07949527,0.00596693,0.00186507,0.01264012,-0.04038376,0.00611987,0.08
 370294,0.00002892,0.00000241,0.00002503,0.00005227,-0.00002525,0.00000
 276,0.00010650,0.00000058,-0.00003833,0.00001396,0.00004190,0.00006355
 ,0.00002253,0.00002999,0.00003881,0.00001657,-0.00000671,-0.00000040,-
 0.00000848,-0.00000076,-0.00000304,-0.00000036,-0.00000065,0.00000044,
 0.00000985,0.00000626,0.00000389,0.00000146,-0.00000177,-0.00000266,-0
 .00009566,-0.00003345,-0.00004825,-0.00020489,-0.00000062,-0.00001376,
 -0.00004867,0.00002798,0.00000391,-0.00005606,0.00000037,-0.00003295,-
 0.00003035,-0.00004140,-0.00004653,0.00010127,0.00006932,0.00003449,-0
 .00001667,-0.00000823,-0.00001871,0.00001217,-0.00001618,0.00005153,-0
 .00006460,-0.00006069,-0.00005604,0.00053350,-0.00052106,0.00015551,-0
 .00009538,0.00020830,-0.00011137,-0.00015713,0.00016632,0.00003284,0.0
 0059224,-0.00048635,-0.00029826,0.00000256,0.00009017,-0.00028212,-0.0
 0193678,0.00051832,-0.00067055,0.00031738,-0.00023200,-0.00090932,0.00
 005551,-0.00001443,-0.00007309,0.01045910,-0.00084848,-0.00917557,0.00
 038043,-0.00000446,-0.00168883,-0.00118020,0.00171240,-0.00065598,0.00
 009157,0.00003948,-0.00042033,0.00001577,-0.00000544,-0.00001667,0.000
 00058,-0.00000504,0.00000030,0.00000134,-0.00000211,0.00000537,-0.0000
 0535,0.00000391,-0.00000033,0.00001558,-0.00001810,0.00002152,-0.00000
 548,0.00000030,-0.00000271,0.00000092,0.00000314,-0.00000427,0.0000005
 4,0.00000327,-0.00000048,0.00001931,0.00003485,0.00000719,-0.00000186,
 -0.00000463,-0.00000627,-0.00000507,-0.00000360,0.00000151,0.00000083,
 -0.00000051,0.00000428,0.00010311,0.00002746,0.00007074,-0.00002383,-0
 .00002106,-0.00000345,-0.00002133,0.00005378,0.00001223,0.00000976,0.0
 0000287,0.00000035,-0.00046687,0.00009990,0.00043051,0.00000521,0.0000
 1387,-0.00026366,0.00018332,0.00007907,-0.00013115,0.00010812,-0.00010
 111,-0.00010799,-0.07756928,0.00996858,0.02005124,0.01066444,-0.013527
 56,-0.01527765,-0.02902133,0.02383678,0.05534138,0.08708899,-0.0000063
 0,-0.00005796,-0.00002821,-0.00003283,0.00000771,-0.00002236,-0.000075
 80,-0.00027792,0.00012256,-0.00006428,-0.00025672,-0.00011904,0.000002
 02,0.00004945,0.00000714,-0.00002182,0.00001763,-0.00000218,0.00001802
 ,0.00000508,0.00000115,-0.00000340,0.00000567,-0.00000646,-0.00002021,
 0.00001002,-0.00002226,0.00002366,0.,0.00000351,0.00002340,0.00025352,
 0.00006020,0.00036095,0.00018695,-0.00001358,0.00001468,0.00002349,0.0
 0000965,-0.00000845,0.00003455,0.00000397,-0.00002180,0.00004262,0.000
 01428,0.00039084,0.00018659,0.00015318,-0.00003568,0.00000366,-0.00002
 774,0.00008668,-0.00027702,0.00012863,-0.00021444,-0.00000221,-0.00013
 206,-0.00086653,0.00042250,-0.00023503,0.00016968,-0.00019146,0.000108
 02,0.00025819,-0.00013712,-0.00000698,-0.00063973,0.00064648,-0.000004
 87,-0.00024010,0.00010643,0.00075335,0.00222294,-0.00147035,0.00081630
 ,-0.00017493,-0.00091675,0.00088390,-0.00006255,0.00002530,0.00006844,
 0.00008922,0.01023794,0.01258229,-0.00045428,-0.00003503,0.00146672,0.
 00175690,-0.00028416,0.00015416,0.00000938,0.00020489,0.00022351,-0.00
 001744,-0.00000775,-0.00000401,0.00000267,0.00000377,0.00000576,0.0000
 0181,0.00000347,-0.00000254,0.00000116,-0.00000035,0.00000173,-0.00000
 108,-0.00000668,0.00000614,0.00000053,0.00000141,-0.00000092,0.0000002
 4,-0.00000111,-0.00000072,-0.00000369,0.00000328,-0.00000081,0.0000100
 0,-0.00001578,0.00001373,0.00000161,0.00000032,-0.00000076,-0.00000532
 ,0.00000154,-0.00000156,0.00000817,0.00001207,-0.00000257,0.00038554,0
 .00007781,0.00022895,-0.00005918,-0.00002338,-0.00000963,0.00006857,0.
 00003537,-0.00014035,-0.00011971,-0.00001430,-0.00000707,0.00036127,-0
 .00040547,-0.00068073,0.00001461,0.00002161,0.00022912,-0.00021980,-0.
 00003376,0.00021599,-0.00012719,0.00018469,0.00015815,0.00913002,-0.09
 383140,-0.06033844,-0.01065287,-0.04641465,-0.05645702,0.01978658,0.00
 216936,-0.02074117,-0.02104993,0.12967616,0.00009016,-0.00002688,0.000
 01840,0.00014971,-0.00006163,0.00001105,0.00035027,0.00018525,-0.00046
 012,0.00011365,-0.00003901,-0.00014826,0.00006991,0.00009717,0.0001164
 7,-0.00002663,0.00001819,0.00002116,-0.00005754,-0.00001489,-0.0000017
 0,0.00000410,-0.00000682,0.00001966,0.00006796,0.00000833,0.00010030,-
 0.00002266,-0.00002305,-0.00000602,-0.00038535,-0.00009052,0.00018933,
 -0.00104285,-0.00006660,0.00027223,-0.00015372,0.00009351,0.00010156,-
 0.00016609,0.00001372,-0.00004837,-0.00011116,-0.00009152,-0.00006343,
 0.00052983,0.00045071,0.00003948,-0.00002569,-0.00001714,-0.00000890,0
 .00005396,-0.00001637,-0.00001535,-0.00033791,-0.00027778,0.00030794,0
 .00244460,-0.00190486,-0.00120253,-0.00062991,0.00085940,-0.00007342,-
 0.00055689,0.00053725,0.00091495,-0.00001265,0.00119217,0.00000690,-0.
 00029398,0.00013814,-0.00058129,0.00292522,-0.00170023,-0.00098364,0.0
 0183363,0.00025163,-0.00234018,-0.00010645,-0.00004604,0.00008483,0.00
 637108,-0.01592116,-0.04799792,-0.00210089,0.00090980,-0.00069683,-0.0
 0679966,0.00557135,-0.00264286,-0.00018832,-0.00042956,0.00076048,0.00
 004892,-0.00003974,-0.00013248,0.00001597,0.00000391,0.00000221,-0.000
 01515,-0.00001436,0.00001703,-0.00000911,0.00000899,0.00000879,0.00004
 018,-0.00004355,0.00003523,-0.00001622,-0.00000024,-0.00000928,-0.0000
 0099,0.00000681,-0.00000085,-0.00000066,0.00001251,-0.00000374,0.00006
 622,0.00010315,0.00001602,0.00000025,-0.00001073,-0.00000660,-0.000023
 83,-0.00000745,0.00000180,0.00000999,-0.00000413,0.00000503,0.00021210
 ,0.00002373,-0.00013846,-0.00004787,-0.00004085,0.00002416,0.00012465,
 0.00000075,-0.00014228,-0.00011244,0.00001438,-0.00000147,-0.00154900,
 0.00051557,0.00237167,-0.00017925,0.00007462,-0.00123660,0.00081916,0.
 00037947,-0.00065723,0.00031517,-0.00028089,-0.00059208,0.01451509,-0.
 05320399,-0.27482696,-0.00974799,-0.04059427,-0.01407958,0.03954778,-0
 .01708479,-0.02059823,-0.04599869,0.12058854,0.36424999\\-0.00000089,-
 0.00000207,0.00000277,-0.00000235,-0.00000132,-0.00000315,-0.00000052,
 -0.00001773,0.00000628,-0.00000253,-0.00000077,0.00000218,-0.00000151,
 0.00000316,0.00000453,-0.00000231,0.00000259,-0.00000273,0.,0.00000020
 ,-0.00000048,-0.00000076,-0.00000181,-0.00000163,-0.00000011,-0.000000
 62,-0.00000078,0.00000072,-0.00000116,0.00000162,0.00000122,0.00000672
 ,-0.00000305,0.00000249,0.00000967,-0.00001014,0.00000229,0.00000301,-
 0.00000097,0.00000223,-0.00000525,-0.00000229,0.00000357,-0.00000447,0
 .00000052,0.00000282,-0.00000215,0.00000156,0.00000134,-0.00000145,0.0
 0000373,0.00000056,0.00000216,0.00000246,-0.00000095,0.00000213,0.0000
 0319,-0.00001091,0.00000546,-0.00000163,0.00000248,-0.00000549,0.00000
 077,0.00000185,0.00000156,-0.00000986,-0.00000089,0.00000030,0.0000032
 6,-0.00000085,-0.00000116,-0.00000207,0.00000155,0.00000321,-0.0000027
 2,-0.00000171,0.00000193,-0.00000144,-0.00000012,-0.00000147,-0.000002
 37,0.00000109,0.00000132,0.00000074,-0.00000146,0.00000341,-0.00000068
 ,0.00000126,0.00000182,0.00000099,0.00000025,0.00000162,0.00000148,-0.
 00000233,0.00000021,-0.00000629,-0.00000104,0.00000186,-0.00000303,-0.
 00000093,0.00000053,-0.00000173,-0.00000197,-0.00000032,-0.00000324,-0
 .00000065,-0.00000179,0.00000085,0.00000082,-0.00000436,-0.00000013,0.
 00000017,-0.00000434,-0.00000088,-0.00000019,-0.00000281,-0.00000207,0
 .00000003,-0.00000172,0.00000234,0.00000252,-0.00000459,0.00000329,0.0
 0000187,-0.00000350,0.00000243,0.00000127,-0.00000273,0.00000369,0.000
 00223,0.00000181,0.00000322,0.00000137,0.00000222,0.00000397,0.0000000
 9,0.00000330,0.00000280,0.00000033,0.00000222,0.00000241,-0.00000294,-
 0.00000036,0.00000179,0.00000058,-0.00000229,-0.00000192,0.00000077,-0
 .00000251,-0.00000169,0.00000185,-0.00000159,0.00000009,-0.00000018,0.
 00000332,0.00000155,-0.00000247,0.00000230,0.00000195,0.00000168,0.000
 00504,0.00000051,-0.00000072,0.00000676,0.00000003\\\@


 I WOULD TAKE COUNSEL OF MYSELF.
 I WOULD STOP AND LOOK WITHIN
 AND LOOKING WITHIN, LOOK BACK, ALSO
 THAT I MAY LOOK AHEAD WITH CLEARER UNDERSTANDING
 OF THE WAY I HAVE BEEN MOVING, AND IN WHAT DIRECTION.
 I NEED TO KNOW IF I AM GOING FORWARD OR RETREATING,
 WHETHER I HAVE BEEN WASTING, OR ENJOYING
 THE PRECIOUS MOMENTS OF LIFE.  THERE HAVE BEEN FRICTIONS,
 ANNOYANCES AND SOMETIMES WRATH,
 BUT WERE THEY BECAUSE I WAS RIGHT AND OTHERS WRONG.....
 HAVE I HAD MY THOUGHTS TOO SHARPLY FOCUSED
 ON THAT WHICH PLEASED ME, SERVED MY SELF-ESTEEM,
 UNDERGIRDED MY SECURITY,
 OF WHICH I DID NOT INQUIRE WHETHER IT SERVED OR HAMPERED OTHERS.....
 HAVE I BEEN TRYING TO STOP THE CLOCK
 TO HOLD THE WORLD
 IN PERPETUATION OF WHAT WAS AN IS ALREADY SLIPPING AWAY.....
 HAVE I BEEN CRITICAL OF OTHERS FOR WHAT REALLY NEEDED CHANGING IN ME...
 LET ME INDEED TAKE COUNSEL OF MYSELF
 AND SET MY DIRECTIONS STRAIGHT.

                          R.T. WESTON AS ADAPTED BY D. OSBORN 1967
 Job cpu time:       0 days 22 hours  3 minutes  2.4 seconds.
 Elapsed time:       0 days  0 hours 47 minutes 44.9 seconds.
 File lengths (MBytes):  RWF=   2314 Int=      0 D2E=      0 Chk=     40 Scr=      1
 Normal termination of Gaussian 16 at Sat Jun 15 10:03:36 2019.
