 Entering Gaussian System, Link 0=g16
 Input=clay_new-glu_gluC6-bisCF3-sm-bhandhlyp-custom-pcm_thf.gjf
 Output=clay_new-glu_gluC6-bisCF3-sm-bhandhlyp-custom-pcm_thf.out
 Initial command:
 /home/ekwan/sw/g16/l1.exe "/scratch/users/ekwan/clay_new-glu_gluC6-bisCF3-sm-bhandhlyp-custom-pcm_thf/Gau-61161.inp" -scrdir="/scratch/users/ekwan/clay_new-glu_gluC6-bisCF3-sm-bhandhlyp-custom-pcm_thf/"
 Entering Link 1 = /home/ekwan/sw/g16/l1.exe PID=     61162.
  
 Copyright (c) 1988,1990,1992,1993,1995,1998,2003,2009,2016,
            Gaussian, Inc.  All Rights Reserved.
  
 This is part of the Gaussian(R) 16 program.  It is based on
 the Gaussian(R) 09 system (copyright 2009, Gaussian, Inc.),
 the Gaussian(R) 03 system (copyright 2003, Gaussian, Inc.),
 the Gaussian(R) 98 system (copyright 1998, Gaussian, Inc.),
 the Gaussian(R) 94 system (copyright 1995, Gaussian, Inc.),
 the Gaussian 92(TM) system (copyright 1992, Gaussian, Inc.),
 the Gaussian 90(TM) system (copyright 1990, Gaussian, Inc.),
 the Gaussian 88(TM) system (copyright 1988, Gaussian, Inc.),
 the Gaussian 86(TM) system (copyright 1986, Carnegie Mellon
 University), and the Gaussian 82(TM) system (copyright 1983,
 Carnegie Mellon University). Gaussian is a federally registered
 trademark of Gaussian, Inc.
  
 This software contains proprietary and confidential information,
 including trade secrets, belonging to Gaussian, Inc.
  
 This software is provided under written license and may be
 used, copied, transmitted, or stored only in accord with that
 written license.
  
 The following legend is applicable only to US Government
 contracts under FAR:
  
                    RESTRICTED RIGHTS LEGEND
  
 Use, reproduction and disclosure by the US Government is
 subject to restrictions as set forth in subparagraphs (a)
 and (c) of the Commercial Computer Software - Restricted
 Rights clause in FAR 52.227-19.
  
 Gaussian, Inc.
 340 Quinnipiac St., Bldg. 40, Wallingford CT 06492
  
  
 ---------------------------------------------------------------
 Warning -- This program may not be used in any manner that
 competes with the business of Gaussian, Inc. or will provide
 assistance to any competitor of Gaussian, Inc.  The licensee
 of this program is prohibited from giving any competitor of
 Gaussian, Inc. access to this program.  By using this program,
 the user acknowledges that Gaussian, Inc. is engaged in the
 business of creating and licensing software in the field of
 computational chemistry and represents and warrants to the
 licensee that it is not a competitor of Gaussian, Inc. and that
 it will not use this program in any manner prohibited above.
 ---------------------------------------------------------------
  

 Cite this work as:
 Gaussian 16, Revision A.03,
 M. J. Frisch, G. W. Trucks, H. B. Schlegel, G. E. Scuseria, 
 M. A. Robb, J. R. Cheeseman, G. Scalmani, V. Barone, 
 G. A. Petersson, H. Nakatsuji, X. Li, M. Caricato, A. V. Marenich, 
 J. Bloino, B. G. Janesko, R. Gomperts, B. Mennucci, H. P. Hratchian, 
 J. V. Ortiz, A. F. Izmaylov, J. L. Sonnenberg, D. Williams-Young, 
 F. Ding, F. Lipparini, F. Egidi, J. Goings, B. Peng, A. Petrone, 
 T. Henderson, D. Ranasinghe, V. G. Zakrzewski, J. Gao, N. Rega, 
 G. Zheng, W. Liang, M. Hada, M. Ehara, K. Toyota, R. Fukuda, 
 J. Hasegawa, M. Ishida, T. Nakajima, Y. Honda, O. Kitao, H. Nakai, 
 T. Vreven, K. Throssell, J. A. Montgomery, Jr., J. E. Peralta, 
 F. Ogliaro, M. J. Bearpark, J. J. Heyd, E. N. Brothers, K. N. Kudin, 
 V. N. Staroverov, T. A. Keith, R. Kobayashi, J. Normand, 
 K. Raghavachari, A. P. Rendell, J. C. Burant, S. S. Iyengar, 
 J. Tomasi, M. Cossi, J. M. Millam, M. Klene, C. Adamo, R. Cammi, 
 J. W. Ochterski, R. L. Martin, K. Morokuma, O. Farkas, 
 J. B. Foresman, and D. J. Fox, Gaussian, Inc., Wallingford CT, 2016.
 
 ******************************************
 Gaussian 16:  AS64L-G16RevA.03 25-Dec-2016
                15-Jun-2019 
 ******************************************
 %nprocshared=32
 Will use up to   32 processors via shared memory.
 %mem=48GB
 ----------------------------------------------------------------------
 #p opt freq=noraman pop=none 6-31g* scrf=(pcm,solvent=tetrahydrofuran)
  bhandhlyp extrabasis
 ----------------------------------------------------------------------
 1/18=20,19=15,26=3,38=1/1,3;
 2/9=110,12=2,17=6,18=5,40=1/2;
 3/5=1,6=6,7=1,10=1,11=2,25=1,30=1,70=2201,71=1,72=20,74=-3/1,2,3;
 4//1;
 5/5=2,38=5,53=20/2;
 7//1,2,3,16;
 1/18=20,19=15,26=3/3(2);
 2/9=110/2;
 99//99;
 2/9=110/2;
 3/5=7,6=1,7=1,11=2,25=1,30=1,70=2205,71=1,72=20,74=-3,82=7/1,2,3;
 4/5=5,16=3,69=1/1;
 5/5=2,38=5,53=20/2;
 7//1,2,3,16;
 1/18=20,19=15,26=3/3(-5);
 2/9=110/2;
 99/9=1/99;
 Leave Link    1 at Sat Jun 15 07:48:14 2019, MaxMem=  6442450944 cpu:              13.3 elap:               0.6
 (Enter /home/ekwan/sw/g16/l101.exe)
 -----
 title
 -----
 Symbolic Z-matrix:
 Charge =  0 Multiplicity = 1
 6                     3.46733  -0.22377   0.73949 
 6                     3.34324  -0.45297  -0.76001 
 6                     1.88931  -0.3403   -1.21713 
 6                     1.32002   1.07595   0.61141 
 6                     2.75313   1.06174   1.12887 
 1                     1.80182  -0.36806  -2.29343 
 1                     3.87856   0.35431  -1.26454 
 1                     3.00607  -1.05338   1.2748 
 1                     0.755     0.29832   1.12395 
 1                     3.28608   1.905     0.69422 
 8                     1.28906   0.82117  -0.79598 
 8                     1.1988   -1.49637  -0.68596 
 8                     3.90702  -1.68517  -1.08704 
 8                     4.81644  -0.09989   1.10454 
 8                     2.69536   1.17991   2.52637 
 6                     0.62007   2.39652   0.86757 
 1                     0.50822   2.49748   1.94187 
 1                    -0.37288   2.36993   0.42053 
 8                     1.33073   3.52175   0.42803 
 16                   -0.08092  -2.0931   -1.42624 
 8                    -0.16837  -3.45721  -0.97725 
 8                     0.01646  -1.7847   -2.83326 
 6                    -1.44128  -1.19109  -0.74445 
 6                    -2.0872   -1.69378   0.37173 
 6                    -1.82947  -0.00347  -1.33988 
 6                    -3.14918  -0.98018   0.90087 
 1                    -1.7713   -2.62332   0.81107 
 6                    -2.88603   0.69966  -0.78815 
 1                    -1.3228    0.36168  -2.21507 
 6                    -3.54842   0.21623   0.32848 
 1                    -4.37198   0.76699   0.74755 
 6                     4.34239  -1.81337  -2.4211 
 1                     3.51202  -1.79994  -3.12496 
 1                     5.04183  -1.01952  -2.68018 
 1                     4.84446  -2.77009  -2.49562 
 6                     5.4038   -1.26083   1.64421 
 1                     6.4285   -1.00672   1.89164 
 1                     4.88852  -1.57263   2.5525 
 1                     5.39689  -2.07923   0.93055 
 6                     3.58      2.12652   3.0803 
 1                     3.42507   2.11069   4.15339 
 1                     4.61355   1.87351   2.86109 
 1                     3.36612   3.12657   2.70507 
 6                     1.11329   3.89013  -0.9136 
 1                     1.55666   4.87083  -1.04685 
 1                     0.04705   3.95081  -1.13219 
 1                     1.57247   3.19151  -1.60746 
 6                    -3.90496  -1.53353   2.07179 
 9                    -3.12601  -2.28637   2.84464 
 9                    -4.92422  -2.29731   1.67809 
 9                    -4.41285  -0.56252   2.82778 
 6                    -3.27366   2.02321  -1.37457 
 9                    -2.557     3.01887  -0.83961 
 9                    -4.55398   2.30539  -1.15438 
 9                    -3.06523   2.05846  -2.6875 
 
 ITRead=  0  0  0  0  0  0  0  0  0  0  0  0  0  0  0  0  0  0  0  0
 ITRead=  0  0  0  0  0  0  0  0  0  0  0  0  0  0  0  0  0  0  0  0
 ITRead=  0  0  0  0  0  0  0  0  0  0  0  0  0  0  0
 MicOpt= -1 -1 -1 -1 -1 -1 -1 -1 -1 -1 -1 -1 -1 -1 -1 -1 -1 -1 -1 -1
 MicOpt= -1 -1 -1 -1 -1 -1 -1 -1 -1 -1 -1 -1 -1 -1 -1 -1 -1 -1 -1 -1
 MicOpt= -1 -1 -1 -1 -1 -1 -1 -1 -1 -1 -1 -1 -1 -1 -1
 NAtoms=     55 NQM=       55 NQMF=       0 NMMI=      0 NMMIF=      0
                NMic=       0 NMicF=      0.
                    Isotopes and Nuclear Properties:
 (Nuclear quadrupole moments (NQMom) in fm**2, nuclear magnetic moments (NMagM)
  in nuclear magnetons)

  Atom         1           2           3           4           5           6           7           8           9          10
 IAtWgt=          12          12          12          12          12           1           1           1           1           1
 AtmWgt=  12.0000000  12.0000000  12.0000000  12.0000000  12.0000000   1.0078250   1.0078250   1.0078250   1.0078250   1.0078250
 NucSpn=           0           0           0           0           0           1           1           1           1           1
 AtZEff=   0.0000000   0.0000000   0.0000000   0.0000000   0.0000000   0.0000000   0.0000000   0.0000000   0.0000000   0.0000000
 NQMom=    0.0000000   0.0000000   0.0000000   0.0000000   0.0000000   0.0000000   0.0000000   0.0000000   0.0000000   0.0000000
 NMagM=    0.0000000   0.0000000   0.0000000   0.0000000   0.0000000   2.7928460   2.7928460   2.7928460   2.7928460   2.7928460
 AtZNuc=   6.0000000   6.0000000   6.0000000   6.0000000   6.0000000   1.0000000   1.0000000   1.0000000   1.0000000   1.0000000

  Atom        11          12          13          14          15          16          17          18          19          20
 IAtWgt=          16          16          16          16          16          12           1           1          16          32
 AtmWgt=  15.9949146  15.9949146  15.9949146  15.9949146  15.9949146  12.0000000   1.0078250   1.0078250  15.9949146  31.9720718
 NucSpn=           0           0           0           0           0           0           1           1           0           0
 AtZEff=   0.0000000   0.0000000   0.0000000   0.0000000   0.0000000   0.0000000   0.0000000   0.0000000   0.0000000   0.0000000
 NQMom=    0.0000000   0.0000000   0.0000000   0.0000000   0.0000000   0.0000000   0.0000000   0.0000000   0.0000000   0.0000000
 NMagM=    0.0000000   0.0000000   0.0000000   0.0000000   0.0000000   0.0000000   2.7928460   2.7928460   0.0000000   0.0000000
 AtZNuc=   8.0000000   8.0000000   8.0000000   8.0000000   8.0000000   6.0000000   1.0000000   1.0000000   8.0000000  16.0000000

  Atom        21          22          23          24          25          26          27          28          29          30
 IAtWgt=          16          16          12          12          12          12           1          12           1          12
 AtmWgt=  15.9949146  15.9949146  12.0000000  12.0000000  12.0000000  12.0000000   1.0078250  12.0000000   1.0078250  12.0000000
 NucSpn=           0           0           0           0           0           0           1           0           1           0
 AtZEff=   0.0000000   0.0000000   0.0000000   0.0000000   0.0000000   0.0000000   0.0000000   0.0000000   0.0000000   0.0000000
 NQMom=    0.0000000   0.0000000   0.0000000   0.0000000   0.0000000   0.0000000   0.0000000   0.0000000   0.0000000   0.0000000
 NMagM=    0.0000000   0.0000000   0.0000000   0.0000000   0.0000000   0.0000000   2.7928460   0.0000000   2.7928460   0.0000000
 AtZNuc=   8.0000000   8.0000000   6.0000000   6.0000000   6.0000000   6.0000000   1.0000000   6.0000000   1.0000000   6.0000000

  Atom        31          32          33          34          35          36          37          38          39          40
 IAtWgt=           1          12           1           1           1          12           1           1           1          12
 AtmWgt=   1.0078250  12.0000000   1.0078250   1.0078250   1.0078250  12.0000000   1.0078250   1.0078250   1.0078250  12.0000000
 NucSpn=           1           0           1           1           1           0           1           1           1           0
 AtZEff=   0.0000000   0.0000000   0.0000000   0.0000000   0.0000000   0.0000000   0.0000000   0.0000000   0.0000000   0.0000000
 NQMom=    0.0000000   0.0000000   0.0000000   0.0000000   0.0000000   0.0000000   0.0000000   0.0000000   0.0000000   0.0000000
 NMagM=    2.7928460   0.0000000   2.7928460   2.7928460   2.7928460   0.0000000   2.7928460   2.7928460   2.7928460   0.0000000
 AtZNuc=   1.0000000   6.0000000   1.0000000   1.0000000   1.0000000   6.0000000   1.0000000   1.0000000   1.0000000   6.0000000

  Atom        41          42          43          44          45          46          47          48          49          50
 IAtWgt=           1           1           1          12           1           1           1          12          19          19
 AtmWgt=   1.0078250   1.0078250   1.0078250  12.0000000   1.0078250   1.0078250   1.0078250  12.0000000  18.9984033  18.9984033
 NucSpn=           1           1           1           0           1           1           1           0           1           1
 AtZEff=   0.0000000   0.0000000   0.0000000   0.0000000   0.0000000   0.0000000   0.0000000   0.0000000   0.0000000   0.0000000
 NQMom=    0.0000000   0.0000000   0.0000000   0.0000000   0.0000000   0.0000000   0.0000000   0.0000000   0.0000000   0.0000000
 NMagM=    2.7928460   2.7928460   2.7928460   0.0000000   2.7928460   2.7928460   2.7928460   0.0000000   2.6288670   2.6288670
 AtZNuc=   1.0000000   1.0000000   1.0000000   6.0000000   1.0000000   1.0000000   1.0000000   6.0000000   9.0000000   9.0000000

  Atom        51          52          53          54          55
 IAtWgt=          19          12          19          19          19
 AtmWgt=  18.9984033  12.0000000  18.9984033  18.9984033  18.9984033
 NucSpn=           1           0           1           1           1
 AtZEff=   0.0000000   0.0000000   0.0000000   0.0000000   0.0000000
 NQMom=    0.0000000   0.0000000   0.0000000   0.0000000   0.0000000
 NMagM=    2.6288670   0.0000000   2.6288670   2.6288670   2.6288670
 AtZNuc=   9.0000000   6.0000000   9.0000000   9.0000000   9.0000000
 Leave Link  101 at Sat Jun 15 07:48:15 2019, MaxMem=  6442450944 cpu:              17.5 elap:               0.8
 (Enter /home/ekwan/sw/g16/l103.exe)

 GradGradGradGradGradGradGradGradGradGradGradGradGradGradGradGradGradGrad
 Berny optimization.
 Initialization pass.
                           ----------------------------
                           !    Initial Parameters    !
                           ! (Angstroms and Degrees)  !
 --------------------------                            --------------------------
 ! Name  Definition              Value          Derivative Info.                !
 --------------------------------------------------------------------------------
 ! R1    R(1,2)                  1.522          estimate D2E/DX2                !
 ! R2    R(1,5)                  1.5213         estimate D2E/DX2                !
 ! R3    R(1,8)                  1.0898         estimate D2E/DX2                !
 ! R4    R(1,14)                 1.4031         estimate D2E/DX2                !
 ! R5    R(2,3)                  1.5283         estimate D2E/DX2                !
 ! R6    R(2,7)                  1.0922         estimate D2E/DX2                !
 ! R7    R(2,13)                 1.394          estimate D2E/DX2                !
 ! R8    R(3,6)                  1.0802         estimate D2E/DX2                !
 ! R9    R(3,11)                 1.3736         estimate D2E/DX2                !
 ! R10   R(3,12)                 1.4476         estimate D2E/DX2                !
 ! R11   R(4,5)                  1.5237         estimate D2E/DX2                !
 ! R12   R(4,9)                  1.0893         estimate D2E/DX2                !
 ! R13   R(4,11)                 1.4306         estimate D2E/DX2                !
 ! R14   R(4,16)                 1.5164         estimate D2E/DX2                !
 ! R15   R(5,10)                 1.0881         estimate D2E/DX2                !
 ! R16   R(5,15)                 1.4037         estimate D2E/DX2                !
 ! R17   R(12,20)                1.5943         estimate D2E/DX2                !
 ! R18   R(13,32)                1.4091         estimate D2E/DX2                !
 ! R19   R(14,36)                1.4085         estimate D2E/DX2                !
 ! R20   R(15,40)                1.4091         estimate D2E/DX2                !
 ! R21   R(16,17)                1.0848         estimate D2E/DX2                !
 ! R22   R(16,18)                1.0893         estimate D2E/DX2                !
 ! R23   R(16,19)                1.4016         estimate D2E/DX2                !
 ! R24   R(19,44)                1.4082         estimate D2E/DX2                !
 ! R25   R(20,21)                1.4388         estimate D2E/DX2                !
 ! R26   R(20,22)                1.4437         estimate D2E/DX2                !
 ! R27   R(20,23)                1.7689         estimate D2E/DX2                !
 ! R28   R(23,24)                1.3841         estimate D2E/DX2                !
 ! R29   R(23,25)                1.3841         estimate D2E/DX2                !
 ! R30   R(24,26)                1.3846         estimate D2E/DX2                !
 ! R31   R(24,27)                1.0756         estimate D2E/DX2                !
 ! R32   R(25,28)                1.3839         estimate D2E/DX2                !
 ! R33   R(25,29)                1.0752         estimate D2E/DX2                !
 ! R34   R(26,30)                1.3851         estimate D2E/DX2                !
 ! R35   R(26,48)                1.4995         estimate D2E/DX2                !
 ! R36   R(28,30)                1.3854         estimate D2E/DX2                !
 ! R37   R(28,52)                1.4986         estimate D2E/DX2                !
 ! R38   R(30,31)                1.0757         estimate D2E/DX2                !
 ! R39   R(32,33)                1.0886         estimate D2E/DX2                !
 ! R40   R(32,34)                1.0893         estimate D2E/DX2                !
 ! R41   R(32,35)                1.083          estimate D2E/DX2                !
 ! R42   R(36,37)                1.0843         estimate D2E/DX2                !
 ! R43   R(36,38)                1.0898         estimate D2E/DX2                !
 ! R44   R(36,39)                1.0859         estimate D2E/DX2                !
 ! R45   R(40,41)                1.0843         estimate D2E/DX2                !
 ! R46   R(40,42)                1.0864         estimate D2E/DX2                !
 ! R47   R(40,43)                1.0893         estimate D2E/DX2                !
 ! R48   R(44,45)                1.0845         estimate D2E/DX2                !
 ! R49   R(44,46)                1.0901         estimate D2E/DX2                !
 ! R50   R(44,47)                1.0864         estimate D2E/DX2                !
 ! R51   R(48,49)                1.3307         estimate D2E/DX2                !
 ! R52   R(48,50)                1.3331         estimate D2E/DX2                !
 ! R53   R(48,51)                1.3313         estimate D2E/DX2                !
 ! R54   R(52,53)                1.3383         estimate D2E/DX2                !
 ! R55   R(52,54)                1.3294         estimate D2E/DX2                !
 ! R56   R(52,55)                1.3298         estimate D2E/DX2                !
 ! A1    A(2,1,5)              109.9473         estimate D2E/DX2                !
 ! A2    A(2,1,8)              109.5606         estimate D2E/DX2                !
 ! A3    A(2,1,14)             110.3661         estimate D2E/DX2                !
 ! A4    A(5,1,8)              108.5945         estimate D2E/DX2                !
 ! A5    A(5,1,14)             108.0719         estimate D2E/DX2                !
 ! A6    A(8,1,14)             110.2665         estimate D2E/DX2                !
 ! A7    A(1,2,3)              111.1714         estimate D2E/DX2                !
 ! A8    A(1,2,7)              107.6893         estimate D2E/DX2                !
 ! A9    A(1,2,13)             109.3467         estimate D2E/DX2                !
 ! A10   A(3,2,7)              105.881          estimate D2E/DX2                !
 ! A11   A(3,2,13)             112.3198         estimate D2E/DX2                !
 ! A12   A(7,2,13)             110.2894         estimate D2E/DX2                !
 ! A13   A(2,3,6)              111.9126         estimate D2E/DX2                !
 ! A14   A(2,3,11)             112.7291         estimate D2E/DX2                !
 ! A15   A(2,3,12)             106.5696         estimate D2E/DX2                !
 ! A16   A(6,3,11)             106.9678         estimate D2E/DX2                !
 ! A17   A(6,3,12)             107.8461         estimate D2E/DX2                !
 ! A18   A(11,3,12)            110.7534         estimate D2E/DX2                !
 ! A19   A(5,4,9)              108.7471         estimate D2E/DX2                !
 ! A20   A(5,4,11)             110.6575         estimate D2E/DX2                !
 ! A21   A(5,4,16)             112.6368         estimate D2E/DX2                !
 ! A22   A(9,4,11)             108.9363         estimate D2E/DX2                !
 ! A23   A(9,4,16)             107.6242         estimate D2E/DX2                !
 ! A24   A(11,4,16)            108.1371         estimate D2E/DX2                !
 ! A25   A(1,5,4)              111.2546         estimate D2E/DX2                !
 ! A26   A(1,5,10)             108.8252         estimate D2E/DX2                !
 ! A27   A(1,5,15)             110.1995         estimate D2E/DX2                !
 ! A28   A(4,5,10)             108.5282         estimate D2E/DX2                !
 ! A29   A(4,5,15)             107.374          estimate D2E/DX2                !
 ! A30   A(10,5,15)            110.647          estimate D2E/DX2                !
 ! A31   A(3,11,4)             116.2812         estimate D2E/DX2                !
 ! A32   A(3,12,20)            120.7594         estimate D2E/DX2                !
 ! A33   A(2,13,32)            115.3077         estimate D2E/DX2                !
 ! A34   A(1,14,36)            115.3317         estimate D2E/DX2                !
 ! A35   A(5,15,40)            114.967          estimate D2E/DX2                !
 ! A36   A(4,16,17)            107.2132         estimate D2E/DX2                !
 ! A37   A(4,16,18)            109.2802         estimate D2E/DX2                !
 ! A38   A(4,16,19)            114.3395         estimate D2E/DX2                !
 ! A39   A(17,16,18)           108.3434         estimate D2E/DX2                !
 ! A40   A(17,16,19)           106.7457         estimate D2E/DX2                !
 ! A41   A(18,16,19)           110.6773         estimate D2E/DX2                !
 ! A42   A(16,19,44)           115.4999         estimate D2E/DX2                !
 ! A43   A(12,20,21)           104.9961         estimate D2E/DX2                !
 ! A44   A(12,20,22)           108.5681         estimate D2E/DX2                !
 ! A45   A(12,20,23)           104.328          estimate D2E/DX2                !
 ! A46   A(21,20,22)           120.7151         estimate D2E/DX2                !
 ! A47   A(21,20,23)           108.4479         estimate D2E/DX2                !
 ! A48   A(22,20,23)           108.5771         estimate D2E/DX2                !
 ! A49   A(20,23,24)           118.9804         estimate D2E/DX2                !
 ! A50   A(20,23,25)           119.1713         estimate D2E/DX2                !
 ! A51   A(24,23,25)           121.8482         estimate D2E/DX2                !
 ! A52   A(23,24,26)           118.6165         estimate D2E/DX2                !
 ! A53   A(23,24,27)           120.412          estimate D2E/DX2                !
 ! A54   A(26,24,27)           120.9701         estimate D2E/DX2                !
 ! A55   A(23,25,28)           118.5927         estimate D2E/DX2                !
 ! A56   A(23,25,29)           120.6252         estimate D2E/DX2                !
 ! A57   A(28,25,29)           120.7815         estimate D2E/DX2                !
 ! A58   A(24,26,30)           120.5543         estimate D2E/DX2                !
 ! A59   A(24,26,48)           119.6583         estimate D2E/DX2                !
 ! A60   A(30,26,48)           119.7477         estimate D2E/DX2                !
 ! A61   A(25,28,30)           120.6028         estimate D2E/DX2                !
 ! A62   A(25,28,52)           119.353          estimate D2E/DX2                !
 ! A63   A(30,28,52)           119.9935         estimate D2E/DX2                !
 ! A64   A(26,30,28)           119.7809         estimate D2E/DX2                !
 ! A65   A(26,30,31)           120.1278         estimate D2E/DX2                !
 ! A66   A(28,30,31)           120.091          estimate D2E/DX2                !
 ! A67   A(13,32,33)           112.0441         estimate D2E/DX2                !
 ! A68   A(13,32,34)           110.9319         estimate D2E/DX2                !
 ! A69   A(13,32,35)           106.7823         estimate D2E/DX2                !
 ! A70   A(33,32,34)           109.0873         estimate D2E/DX2                !
 ! A71   A(33,32,35)           108.6634         estimate D2E/DX2                !
 ! A72   A(34,32,35)           109.254          estimate D2E/DX2                !
 ! A73   A(14,36,37)           106.7584         estimate D2E/DX2                !
 ! A74   A(14,36,38)           110.9753         estimate D2E/DX2                !
 ! A75   A(14,36,39)           111.5144         estimate D2E/DX2                !
 ! A76   A(37,36,38)           108.8847         estimate D2E/DX2                !
 ! A77   A(37,36,39)           109.4267         estimate D2E/DX2                !
 ! A78   A(38,36,39)           109.2144         estimate D2E/DX2                !
 ! A79   A(15,40,41)           106.8296         estimate D2E/DX2                !
 ! A80   A(15,40,42)           111.192          estimate D2E/DX2                !
 ! A81   A(15,40,43)           110.9812         estimate D2E/DX2                !
 ! A82   A(41,40,42)           109.4026         estimate D2E/DX2                !
 ! A83   A(41,40,43)           109.0405         estimate D2E/DX2                !
 ! A84   A(42,40,43)           109.3349         estimate D2E/DX2                !
 ! A85   A(19,44,45)           106.8874         estimate D2E/DX2                !
 ! A86   A(19,44,46)           110.8941         estimate D2E/DX2                !
 ! A87   A(19,44,47)           112.0241         estimate D2E/DX2                !
 ! A88   A(45,44,46)           108.9593         estimate D2E/DX2                !
 ! A89   A(45,44,47)           109.2832         estimate D2E/DX2                !
 ! A90   A(46,44,47)           108.7313         estimate D2E/DX2                !
 ! A91   A(26,48,49)           111.5465         estimate D2E/DX2                !
 ! A92   A(26,48,50)           111.4799         estimate D2E/DX2                !
 ! A93   A(26,48,51)           111.5039         estimate D2E/DX2                !
 ! A94   A(49,48,50)           107.1533         estimate D2E/DX2                !
 ! A95   A(49,48,51)           107.8273         estimate D2E/DX2                !
 ! A96   A(50,48,51)           107.0908         estimate D2E/DX2                !
 ! A97   A(28,52,53)           111.2299         estimate D2E/DX2                !
 ! A98   A(28,52,54)           111.8233         estimate D2E/DX2                !
 ! A99   A(28,52,55)           111.6662         estimate D2E/DX2                !
 ! A100  A(53,52,54)           106.9537         estimate D2E/DX2                !
 ! A101  A(53,52,55)           106.9177         estimate D2E/DX2                !
 ! A102  A(54,52,55)           107.9899         estimate D2E/DX2                !
 ! D1    D(5,1,2,3)            -50.6663         estimate D2E/DX2                !
 ! D2    D(5,1,2,7)             64.8986         estimate D2E/DX2                !
 ! D3    D(5,1,2,13)          -175.251          estimate D2E/DX2                !
 ! D4    D(8,1,2,3)             68.6051         estimate D2E/DX2                !
 ! D5    D(8,1,2,7)           -175.83           estimate D2E/DX2                !
 ! D6    D(8,1,2,13)           -55.9796         estimate D2E/DX2                !
 ! D7    D(14,1,2,3)          -169.793          estimate D2E/DX2                !
 ! D8    D(14,1,2,7)           -54.2281         estimate D2E/DX2                !
 ! D9    D(14,1,2,13)           65.6223         estimate D2E/DX2                !
 ! D10   D(2,1,5,4)             52.4819         estimate D2E/DX2                !
 ! D11   D(2,1,5,10)           -67.0456         estimate D2E/DX2                !
 ! D12   D(2,1,5,15)           171.4623         estimate D2E/DX2                !
 ! D13   D(8,1,5,4)            -67.3785         estimate D2E/DX2                !
 ! D14   D(8,1,5,10)           173.094          estimate D2E/DX2                !
 ! D15   D(8,1,5,15)            51.6019         estimate D2E/DX2                !
 ! D16   D(14,1,5,4)           173.0039         estimate D2E/DX2                !
 ! D17   D(14,1,5,10)           53.4763         estimate D2E/DX2                !
 ! D18   D(14,1,5,15)          -68.0158         estimate D2E/DX2                !
 ! D19   D(2,1,14,36)          -99.4037         estimate D2E/DX2                !
 ! D20   D(5,1,14,36)          140.3365         estimate D2E/DX2                !
 ! D21   D(8,1,14,36)           21.7791         estimate D2E/DX2                !
 ! D22   D(1,2,3,6)            172.3106         estimate D2E/DX2                !
 ! D23   D(1,2,3,11)            51.6766         estimate D2E/DX2                !
 ! D24   D(1,2,3,12)           -70.0231         estimate D2E/DX2                !
 ! D25   D(7,2,3,6)             55.6333         estimate D2E/DX2                !
 ! D26   D(7,2,3,11)           -65.0008         estimate D2E/DX2                !
 ! D27   D(7,2,3,12)           173.2996         estimate D2E/DX2                !
 ! D28   D(13,2,3,6)           -64.7989         estimate D2E/DX2                !
 ! D29   D(13,2,3,11)          174.5671         estimate D2E/DX2                !
 ! D30   D(13,2,3,12)           52.8674         estimate D2E/DX2                !
 ! D31   D(1,2,13,32)         -156.0644         estimate D2E/DX2                !
 ! D32   D(3,2,13,32)           80.0237         estimate D2E/DX2                !
 ! D33   D(7,2,13,32)          -37.8255         estimate D2E/DX2                !
 ! D34   D(2,3,11,4)           -55.1312         estimate D2E/DX2                !
 ! D35   D(6,3,11,4)          -178.5562         estimate D2E/DX2                !
 ! D36   D(12,3,11,4)           64.1689         estimate D2E/DX2                !
 ! D37   D(2,3,12,20)         -152.2769         estimate D2E/DX2                !
 ! D38   D(6,3,12,20)          -31.9565         estimate D2E/DX2                !
 ! D39   D(11,3,12,20)          84.7781         estimate D2E/DX2                !
 ! D40   D(9,4,5,1)             66.2242         estimate D2E/DX2                !
 ! D41   D(9,4,5,10)          -174.0717         estimate D2E/DX2                !
 ! D42   D(9,4,5,15)           -54.4333         estimate D2E/DX2                !
 ! D43   D(11,4,5,1)           -53.3931         estimate D2E/DX2                !
 ! D44   D(11,4,5,10)           66.311          estimate D2E/DX2                !
 ! D45   D(11,4,5,15)         -174.0507         estimate D2E/DX2                !
 ! D46   D(16,4,5,1)          -174.5694         estimate D2E/DX2                !
 ! D47   D(16,4,5,10)          -54.8653         estimate D2E/DX2                !
 ! D48   D(16,4,5,15)           64.773          estimate D2E/DX2                !
 ! D49   D(5,4,11,3)            55.8501         estimate D2E/DX2                !
 ! D50   D(9,4,11,3)           -63.6535         estimate D2E/DX2                !
 ! D51   D(16,4,11,3)          179.6532         estimate D2E/DX2                !
 ! D52   D(5,4,16,17)          -66.4417         estimate D2E/DX2                !
 ! D53   D(5,4,16,18)          176.3378         estimate D2E/DX2                !
 ! D54   D(5,4,16,19)           51.6703         estimate D2E/DX2                !
 ! D55   D(9,4,16,17)           53.4157         estimate D2E/DX2                !
 ! D56   D(9,4,16,18)          -63.8048         estimate D2E/DX2                !
 ! D57   D(9,4,16,19)          171.5278         estimate D2E/DX2                !
 ! D58   D(11,4,16,17)         170.9555         estimate D2E/DX2                !
 ! D59   D(11,4,16,18)          53.735          estimate D2E/DX2                !
 ! D60   D(11,4,16,19)         -70.9324         estimate D2E/DX2                !
 ! D61   D(1,5,15,40)          105.5316         estimate D2E/DX2                !
 ! D62   D(4,5,15,40)         -133.1461         estimate D2E/DX2                !
 ! D63   D(10,5,15,40)         -14.8704         estimate D2E/DX2                !
 ! D64   D(3,12,20,21)         157.7697         estimate D2E/DX2                !
 ! D65   D(3,12,20,22)          27.3939         estimate D2E/DX2                !
 ! D66   D(3,12,20,23)         -88.2428         estimate D2E/DX2                !
 ! D67   D(2,13,32,33)         -66.9441         estimate D2E/DX2                !
 ! D68   D(2,13,32,34)          55.2378         estimate D2E/DX2                !
 ! D69   D(2,13,32,35)         174.1925         estimate D2E/DX2                !
 ! D70   D(1,14,36,37)        -178.9711         estimate D2E/DX2                !
 ! D71   D(1,14,36,38)         -60.4521         estimate D2E/DX2                !
 ! D72   D(1,14,36,39)          61.5521         estimate D2E/DX2                !
 ! D73   D(5,15,40,41)         179.8809         estimate D2E/DX2                !
 ! D74   D(5,15,40,42)         -60.8101         estimate D2E/DX2                !
 ! D75   D(5,15,40,43)          61.1279         estimate D2E/DX2                !
 ! D76   D(4,16,19,44)          87.2617         estimate D2E/DX2                !
 ! D77   D(17,16,19,44)       -154.3604         estimate D2E/DX2                !
 ! D78   D(18,16,19,44)        -36.6609         estimate D2E/DX2                !
 ! D79   D(16,19,44,45)        168.6519         estimate D2E/DX2                !
 ! D80   D(16,19,44,46)         50.0103         estimate D2E/DX2                !
 ! D81   D(16,19,44,47)        -71.6723         estimate D2E/DX2                !
 ! D82   D(12,20,23,24)        -91.0938         estimate D2E/DX2                !
 ! D83   D(12,20,23,25)         88.855          estimate D2E/DX2                !
 ! D84   D(21,20,23,24)         20.4203         estimate D2E/DX2                !
 ! D85   D(21,20,23,25)       -159.6308         estimate D2E/DX2                !
 ! D86   D(22,20,23,24)        153.2758         estimate D2E/DX2                !
 ! D87   D(22,20,23,25)        -26.7754         estimate D2E/DX2                !
 ! D88   D(20,23,24,26)        179.8624         estimate D2E/DX2                !
 ! D89   D(20,23,24,27)         -0.5577         estimate D2E/DX2                !
 ! D90   D(25,23,24,26)         -0.085          estimate D2E/DX2                !
 ! D91   D(25,23,24,27)        179.4949         estimate D2E/DX2                !
 ! D92   D(20,23,25,28)       -179.3195         estimate D2E/DX2                !
 ! D93   D(20,23,25,29)          0.9479         estimate D2E/DX2                !
 ! D94   D(24,23,25,28)          0.6278         estimate D2E/DX2                !
 ! D95   D(24,23,25,29)       -179.1048         estimate D2E/DX2                !
 ! D96   D(23,24,26,30)         -0.4472         estimate D2E/DX2                !
 ! D97   D(23,24,26,48)        177.2545         estimate D2E/DX2                !
 ! D98   D(27,24,26,30)        179.9753         estimate D2E/DX2                !
 ! D99   D(27,24,26,48)         -2.323          estimate D2E/DX2                !
 ! D100  D(23,25,28,30)         -0.6476         estimate D2E/DX2                !
 ! D101  D(23,25,28,52)        176.7625         estimate D2E/DX2                !
 ! D102  D(29,25,28,30)        179.0846         estimate D2E/DX2                !
 ! D103  D(29,25,28,52)         -3.5053         estimate D2E/DX2                !
 ! D104  D(24,26,30,28)          0.4251         estimate D2E/DX2                !
 ! D105  D(24,26,30,31)       -179.7603         estimate D2E/DX2                !
 ! D106  D(48,26,30,28)       -177.2746         estimate D2E/DX2                !
 ! D107  D(48,26,30,31)          2.54           estimate D2E/DX2                !
 ! D108  D(24,26,48,49)         29.9504         estimate D2E/DX2                !
 ! D109  D(24,26,48,50)        -89.7938         estimate D2E/DX2                !
 ! D110  D(24,26,48,51)        150.5702         estimate D2E/DX2                !
 ! D111  D(30,26,48,49)       -152.3292         estimate D2E/DX2                !
 ! D112  D(30,26,48,50)         87.9266         estimate D2E/DX2                !
 ! D113  D(30,26,48,51)        -31.7093         estimate D2E/DX2                !
 ! D114  D(25,28,30,26)          0.1337         estimate D2E/DX2                !
 ! D115  D(25,28,30,31)       -179.681          estimate D2E/DX2                !
 ! D116  D(52,28,30,26)       -177.2598         estimate D2E/DX2                !
 ! D117  D(52,28,30,31)          2.9255         estimate D2E/DX2                !
 ! D118  D(25,28,52,53)        -86.5439         estimate D2E/DX2                !
 ! D119  D(25,28,52,54)        153.9484         estimate D2E/DX2                !
 ! D120  D(25,28,52,55)         32.8127         estimate D2E/DX2                !
 ! D121  D(30,28,52,53)         90.8822         estimate D2E/DX2                !
 ! D122  D(30,28,52,54)        -28.6255         estimate D2E/DX2                !
 ! D123  D(30,28,52,55)       -149.7612         estimate D2E/DX2                !
 --------------------------------------------------------------------------------
 Trust Radius=3.00D-01 FncErr=1.00D-07 GrdErr=1.00D-06 EigMax=2.50D+02 EigMin=1.00D-04
 Number of steps in this run=    291 maximum allowed number of steps=    330.
 GradGradGradGradGradGradGradGradGradGradGradGradGradGradGradGradGradGrad

 Leave Link  103 at Sat Jun 15 07:48:16 2019, MaxMem=  6442450944 cpu:               2.5 elap:               0.3
 (Enter /home/ekwan/sw/g16/l202.exe)
 Stoichiometry    C18H22F6O8S
 Framework group  C1[X(C18H22F6O8S)]
 Deg. of freedom   159
 Full point group                 C1      NOp   1
 Largest Abelian subgroup         C1      NOp   1
 Largest concise Abelian subgroup C1      NOp   1
                         Standard orientation:                         
 ---------------------------------------------------------------------
 Center     Atomic      Atomic             Coordinates (Angstroms)
 Number     Number       Type             X           Y           Z
 ---------------------------------------------------------------------
      1          6           0        3.467328   -0.223767    0.739494
      2          6           0        3.343237   -0.452973   -0.760009
      3          6           0        1.889311   -0.340303   -1.217131
      4          6           0        1.320016    1.075954    0.611407
      5          6           0        2.753132    1.061744    1.128869
      6          1           0        1.801822   -0.368055   -2.293425
      7          1           0        3.878563    0.354308   -1.264543
      8          1           0        3.006074   -1.053384    1.274802
      9          1           0        0.754995    0.298321    1.123951
     10          1           0        3.286081    1.905004    0.694217
     11          8           0        1.289059    0.821174   -0.795975
     12          8           0        1.198803   -1.496365   -0.685963
     13          8           0        3.907022   -1.685168   -1.087036
     14          8           0        4.816443   -0.099887    1.104542
     15          8           0        2.695357    1.179909    2.526370
     16          6           0        0.620070    2.396519    0.867565
     17          1           0        0.508223    2.497479    1.941866
     18          1           0       -0.372876    2.369931    0.420528
     19          8           0        1.330728    3.521754    0.428030
     20         16           0       -0.080919   -2.093096   -1.426239
     21          8           0       -0.168365   -3.457205   -0.977245
     22          8           0        0.016460   -1.784697   -2.833261
     23          6           0       -1.441275   -1.191094   -0.744450
     24          6           0       -2.087198   -1.693784    0.371727
     25          6           0       -1.829468   -0.003466   -1.339884
     26          6           0       -3.149175   -0.980178    0.900866
     27          1           0       -1.771302   -2.623319    0.811067
     28          6           0       -2.886029    0.699660   -0.788145
     29          1           0       -1.322799    0.361676   -2.215074
     30          6           0       -3.548416    0.216229    0.328481
     31          1           0       -4.371980    0.766985    0.747550
     32          6           0        4.342393   -1.813365   -2.421095
     33          1           0        3.512024   -1.799938   -3.124959
     34          1           0        5.041831   -1.019516   -2.680176
     35          1           0        4.844461   -2.770088   -2.495617
     36          6           0        5.403799   -1.260826    1.644205
     37          1           0        6.428501   -1.006716    1.891643
     38          1           0        4.888518   -1.572629    2.552503
     39          1           0        5.396892   -2.079234    0.930545
     40          6           0        3.579998    2.126521    3.080296
     41          1           0        3.425070    2.110688    4.153393
     42          1           0        4.613546    1.873507    2.861090
     43          1           0        3.366118    3.126572    2.705071
     44          6           0        1.113287    3.890125   -0.913603
     45          1           0        1.556657    4.870833   -1.046849
     46          1           0        0.047045    3.950813   -1.132192
     47          1           0        1.572470    3.191507   -1.607462
     48          6           0       -3.904955   -1.533530    2.071788
     49          9           0       -3.126006   -2.286374    2.844642
     50          9           0       -4.924222   -2.297312    1.678090
     51          9           0       -4.412851   -0.562519    2.827784
     52          6           0       -3.273662    2.023213   -1.374573
     53          9           0       -2.557002    3.018867   -0.839605
     54          9           0       -4.553978    2.305386   -1.154376
     55          9           0       -3.065233    2.058463   -2.687495
 ---------------------------------------------------------------------
 Rotational constants (GHZ):           0.1524064           0.0819313           0.0756768
 Leave Link  202 at Sat Jun 15 07:48:16 2019, MaxMem=  6442450944 cpu:               2.8 elap:               0.3
 (Enter /home/ekwan/sw/g16/l301.exe)
 Standard basis: 6-31G(d) (6D, 7F)
 Centers:      12     22     21
 SP 1 1.00
     Exponent=  8.4500000000D-02 Coefficients=  1.0000000000D+00  1.0000000000D+00
 ****
 Ernie: Thresh=  0.10000D-02 Tol=  0.10000D-05 Strict=F.
 There are   555 symmetry adapted cartesian basis functions of A   symmetry.
 There are   555 symmetry adapted basis functions of A   symmetry.
   555 basis functions,  1048 primitive gaussians,   555 cartesian basis functions
   132 alpha electrons      132 beta electrons
       nuclear repulsion energy      4309.2170242419 Hartrees.
 IExCor=  402 DFT=T Ex+Corr=BHandHLYP ExCW=0 ScaHFX=  0.500000
 ScaDFX=  0.500000  0.500000  1.000000  1.000000 ScalE2=  1.000000  1.000000
 IRadAn=      5 IRanWt=     -1 IRanGd=            0 ICorTp=0 IEmpDi=  4
 NAtoms=   55 NActive=   55 NUniq=   55 SFac= 1.00D+00 NAtFMM=   60 NAOKFM=F Big=F
 Integral buffers will be    131072 words long.
 Raffenetti 2 integral format.
 Two-electron integral symmetry is turned on.
 ------------------------------------------------------------------------------
 Polarizable Continuum Model (PCM)
 =================================
 Model                : PCM.
 Atomic radii         : UFF (Universal Force Field).
 Polarization charges : Total charges.
 Charge compensation  : None.
 Solution method      : On-the-fly selection.
 Cavity type          : Scaled VdW (van der Waals Surface) (Alpha=1.100).
 Cavity algorithm     : GePol (No added spheres)
                        Default sphere list used, NSphG=   55.
                        Lebedev-Laikov grids with approx.  5.0 points / Ang**2.
                        Smoothing algorithm: York/Karplus (Gamma=1.0000).
                        Polarization charges: spherical gaussians, with
                                              point-specific exponents (IZeta= 3).
                        Self-potential: point-specific (ISelfS= 7).
                        Self-field    : sphere-specific E.n sum rule (ISelfD= 2).
 1st derivatives      : Analytical E(r).r(x)/FMM algorithm (CHGder, D1EAlg=3).
                        Cavity 1st derivative terms included.
 Solvent              : TetraHydroFuran, Eps=   7.425700 Eps(inf)=   1.974025
 ------------------------------------------------------------------------------
 GePol: Number of generator spheres                  =      55
 GePol: Total number of spheres                      =      55
 GePol: Number of exposed spheres                    =      55 (100.00%)
 GePol: Number of points                             =    3949
 GePol: Average weight of points                     =       0.13
 GePol: Minimum weight of points                     =   0.75D-11
 GePol: Maximum weight of points                     =    0.20577
 GePol: Number of points with low weight             =     242
 GePol: Fraction of low-weight points (<1% of avg)   =       6.13%
 GePol: Cavity surface area                          =    501.371 Ang**2
 GePol: Cavity volume                                =    574.606 Ang**3
 Leave Link  301 at Sat Jun 15 07:48:17 2019, MaxMem=  6442450944 cpu:               6.7 elap:               0.4
 (Enter /home/ekwan/sw/g16/l302.exe)
 NPDir=0 NMtPBC=     1 NCelOv=     1 NCel=       1 NClECP=     1 NCelD=      1
         NCelK=      1 NCelE2=     1 NClLst=     1 CellRange=     0.0.
 One-electron integrals computed using PRISM.
 One-electron integral symmetry used in STVInt
 NBasis=   555 RedAO= T EigKep=  3.76D-04  NBF=   555
 NBsUse=   555 1.00D-06 EigRej= -1.00D+00 NBFU=   555
 Precomputing XC quadrature grid using
 IXCGrd= 4 IRadAn=           5 IRanWt=          -1 IRanGd=           0 AccXCQ= 0.00D+00.
 Generated NRdTot=       0 NPtTot=           0 NUsed=           0 NTot=          32
 NSgBfM=   544   543   544   544   544 MxSgAt=    55 MxSgA2=    55.
 Leave Link  302 at Sat Jun 15 07:48:23 2019, MaxMem=  6442450944 cpu:             186.3 elap:               6.3
 (Enter /home/ekwan/sw/g16/l303.exe)
 DipDrv:  MaxL=1.
 Leave Link  303 at Sat Jun 15 07:48:24 2019, MaxMem=  6442450944 cpu:              10.8 elap:               0.6
 (Enter /home/ekwan/sw/g16/l401.exe)
 ExpMin= 8.45D-02 ExpMax= 2.19D+04 ExpMxC= 3.30D+03 IAcc=3 IRadAn=         5 AccDes= 0.00D+00
 Harris functional with IExCor=  402 and IRadAn=       5 diagonalized for initial guess.
 HarFok:  IExCor=  402 AccDes= 0.00D+00 IRadAn=         5 IDoV= 1 UseB2=F ITyADJ=14
 ICtDFT=  3500011 ScaDFX=  1.000000  1.000000  1.000000  1.000000
 FoFCou: FMM=F IPFlag=           0 FMFlag=      100000 FMFlg1=           0
         NFxFlg=           0 DoJE=T BraDBF=F KetDBF=T FulRan=T
         wScrn=  0.000000 ICntrl=       500 IOpCl=  0 I1Cent=   200000004 NGrid=           0
         NMat0=    1 NMatS0=      1 NMatT0=    0 NMatD0=    1 NMtDS0=    0 NMtDT0=    0
 Petite list used in FoFCou.
 Harris En= -2298.02134092494    
 JPrj=0 DoOrth=F DoCkMO=F.
 Leave Link  401 at Sat Jun 15 07:48:30 2019, MaxMem=  6442450944 cpu:             187.7 elap:               6.1
 (Enter /home/ekwan/sw/g16/l502.exe)
 Integral symmetry usage will be decided dynamically.
 Closed shell SCF:
 Using DIIS extrapolation, IDIIS=  1040.
 NGot=  6442450944 LenX=  6441811192 LenY=  6441502612
 Requested convergence on RMS density matrix=1.00D-08 within 128 cycles.
 Requested convergence on MAX density matrix=1.00D-06.
 Requested convergence on             energy=1.00D-06.
 No special actions if energy rises.
 Fock matrices will be formed incrementally for  20 cycles.

 Cycle   1  Pass 1  IDiag  1:
 FoFJK:  IHMeth= 1 ICntrl=       0 DoSepK=F KAlg= 0 I1Cent=           0 FoldK=F
 IRaf= 700000000 NMat=       1 IRICut=       1 DoRegI=T DoRafI=F ISym2E= 0 IDoP0=0 IntGTp=1.
 FoFCou: FMM=F IPFlag=           0 FMFlag=      100000 FMFlg1=           0
         NFxFlg=           0 DoJE=F BraDBF=F KetDBF=F FulRan=T
         wScrn=  0.000000 ICntrl=         0 IOpCl=  0 I1Cent=           0 NGrid=           0
         NMat0=    1 NMatS0=      1 NMatT0=    0 NMatD0=    1 NMtDS0=    0 NMtDT0=    0
 Symmetry not used in FoFCou.
 Inv3:  Mode=1 IEnd=    46783803.
 Iteration    1 A*A^-1 deviation from unit magnitude is 4.88D-15 for   3940.
 Iteration    1 A*A^-1 deviation from orthogonality  is 2.80D-15 for   3918   2480.
 Iteration    1 A^-1*A deviation from unit magnitude is 4.55D-15 for   3949.
 Iteration    1 A^-1*A deviation from orthogonality  is 2.93D-15 for   3924   2742.
 E= -2296.35598587788    
 DIIS: error= 3.29D-02 at cycle   1 NSaved=   1.
 NSaved= 1 IEnMin= 1 EnMin= -2296.35598587788     IErMin= 1 ErrMin= 3.29D-02
 ErrMax= 3.29D-02  0.00D+00 EMaxC= 1.00D-01 BMatC= 1.09D+00 BMatP= 1.09D+00
 IDIUse=3 WtCom= 6.71D-01 WtEn= 3.29D-01
 Coeff-Com:  0.100D+01
 Coeff-En:   0.100D+01
 Coeff:      0.100D+01
 Gap=     0.270 Goal=   None    Shift=    0.000
 GapD=    0.270 DampG=1.000 DampE=0.500 DampFc=0.5000 IDamp=-1.
 Damping current iteration by 5.00D-01
 RMSDP=3.31D-03 MaxDP=4.03D-01              OVMax= 1.52D-01

 Cycle   2  Pass 1  IDiag  1:
 RMSU=  1.65D-03    CP:  9.90D-01
 E= -2296.73345865924     Delta-E=       -0.377472781359 Rises=F Damp=T
 DIIS: error= 9.26D-03 at cycle   2 NSaved=   2.
 NSaved= 2 IEnMin= 2 EnMin= -2296.73345865924     IErMin= 2 ErrMin= 9.26D-03
 ErrMax= 9.26D-03  0.00D+00 EMaxC= 1.00D-01 BMatC= 9.37D-02 BMatP= 1.09D+00
 IDIUse=3 WtCom= 9.07D-01 WtEn= 9.26D-02
 Coeff-Com: -0.522D-01 0.105D+01
 Coeff-En:   0.000D+00 0.100D+01
 Coeff:     -0.473D-01 0.105D+01
 Gap=     0.316 Goal=   None    Shift=    0.000
 RMSDP=1.05D-03 MaxDP=9.77D-02 DE=-3.77D-01 OVMax= 9.39D-02

 Cycle   3  Pass 1  IDiag  1:
 RMSU=  1.03D-03    CP:  9.78D-01  9.57D-01
 E= -2297.11996864922     Delta-E=       -0.386509989975 Rises=F Damp=F
 DIIS: error= 5.90D-03 at cycle   3 NSaved=   3.
 NSaved= 3 IEnMin= 3 EnMin= -2297.11996864922     IErMin= 3 ErrMin= 5.90D-03
 ErrMax= 5.90D-03  0.00D+00 EMaxC= 1.00D-01 BMatC= 3.89D-02 BMatP= 9.37D-02
 IDIUse=3 WtCom= 9.41D-01 WtEn= 5.90D-02
 Coeff-Com: -0.104D+00 0.402D+00 0.702D+00
 Coeff-En:   0.000D+00 0.000D+00 0.100D+01
 Coeff:     -0.981D-01 0.379D+00 0.719D+00
 Gap=     0.280 Goal=   None    Shift=    0.000
 RMSDP=4.90D-04 MaxDP=4.73D-02 DE=-3.87D-01 OVMax= 4.13D-02

 Cycle   4  Pass 1  IDiag  1:
 RMSU=  3.41D-04    CP:  9.80D-01  1.10D+00  7.47D-01
 E= -2297.14367787229     Delta-E=       -0.023709223067 Rises=F Damp=F
 DIIS: error= 2.04D-03 at cycle   4 NSaved=   4.
 NSaved= 4 IEnMin= 4 EnMin= -2297.14367787229     IErMin= 4 ErrMin= 2.04D-03
 ErrMax= 2.04D-03  0.00D+00 EMaxC= 1.00D-01 BMatC= 7.40D-03 BMatP= 3.89D-02
 IDIUse=3 WtCom= 9.80D-01 WtEn= 2.04D-02
 Coeff-Com: -0.435D-01 0.863D-01 0.358D+00 0.600D+00
 Coeff-En:   0.000D+00 0.000D+00 0.125D+00 0.875D+00
 Coeff:     -0.426D-01 0.845D-01 0.353D+00 0.605D+00
 Gap=     0.282 Goal=   None    Shift=    0.000
 RMSDP=1.78D-04 MaxDP=1.02D-02 DE=-2.37D-02 OVMax= 1.46D-02

 Cycle   5  Pass 1  IDiag  1:
 RMSU=  7.30D-05    CP:  9.79D-01  1.08D+00  8.31D-01  6.10D-01
 E= -2297.14956856937     Delta-E=       -0.005890697081 Rises=F Damp=F
 DIIS: error= 4.97D-04 at cycle   5 NSaved=   5.
 NSaved= 5 IEnMin= 5 EnMin= -2297.14956856937     IErMin= 5 ErrMin= 4.97D-04
 ErrMax= 4.97D-04  0.00D+00 EMaxC= 1.00D-01 BMatC= 2.97D-04 BMatP= 7.40D-03
 IDIUse=3 WtCom= 9.95D-01 WtEn= 4.97D-03
 Coeff-Com: -0.128D-01 0.181D-01 0.106D+00 0.254D+00 0.635D+00
 Coeff-En:   0.000D+00 0.000D+00 0.000D+00 0.000D+00 0.100D+01
 Coeff:     -0.127D-01 0.180D-01 0.106D+00 0.252D+00 0.636D+00
 Gap=     0.282 Goal=   None    Shift=    0.000
 RMSDP=3.21D-05 MaxDP=2.34D-03 DE=-5.89D-03 OVMax= 3.81D-03

 Cycle   6  Pass 1  IDiag  1:
 RMSU=  2.17D-05    CP:  9.79D-01  1.08D+00  8.33D-01  6.52D-01  7.68D-01
 E= -2297.14980412084     Delta-E=       -0.000235551477 Rises=F Damp=F
 DIIS: error= 1.33D-04 at cycle   6 NSaved=   6.
 NSaved= 6 IEnMin= 6 EnMin= -2297.14980412084     IErMin= 6 ErrMin= 1.33D-04
 ErrMax= 1.33D-04  0.00D+00 EMaxC= 1.00D-01 BMatC= 1.73D-05 BMatP= 2.97D-04
 IDIUse=3 WtCom= 9.99D-01 WtEn= 1.33D-03
 Coeff-Com: -0.148D-02-0.556D-04 0.822D-02 0.426D-01 0.227D+00 0.724D+00
 Coeff-En:   0.000D+00 0.000D+00 0.000D+00 0.000D+00 0.000D+00 0.100D+01
 Coeff:     -0.148D-02-0.555D-04 0.821D-02 0.426D-01 0.226D+00 0.724D+00
 Gap=     0.283 Goal=   None    Shift=    0.000
 RMSDP=9.06D-06 MaxDP=5.45D-04 DE=-2.36D-04 OVMax= 1.54D-03

 Cycle   7  Pass 1  IDiag  1:
 RMSU=  7.06D-06    CP:  9.79D-01  1.08D+00  8.35D-01  6.58D-01  8.20D-01
                    CP:  8.61D-01
 E= -2297.14982063680     Delta-E=       -0.000016515960 Rises=F Damp=F
 DIIS: error= 3.14D-05 at cycle   7 NSaved=   7.
 NSaved= 7 IEnMin= 7 EnMin= -2297.14982063680     IErMin= 7 ErrMin= 3.14D-05
 ErrMax= 3.14D-05  0.00D+00 EMaxC= 1.00D-01 BMatC= 1.18D-06 BMatP= 1.73D-05
 IDIUse=1 WtCom= 1.00D+00 WtEn= 0.00D+00
 Coeff-Com:  0.884D-03-0.181D-02-0.934D-02-0.153D-01-0.117D-01 0.168D+00
 Coeff-Com:  0.869D+00
 Coeff:      0.884D-03-0.181D-02-0.934D-02-0.153D-01-0.117D-01 0.168D+00
 Coeff:      0.869D+00
 Gap=     0.283 Goal=   None    Shift=    0.000
 RMSDP=3.65D-06 MaxDP=2.48D-04 DE=-1.65D-05 OVMax= 7.08D-04

 Cycle   8  Pass 1  IDiag  1:
 RMSU=  2.36D-06    CP:  9.79D-01  1.08D+00  8.35D-01  6.60D-01  8.41D-01
                    CP:  9.61D-01  1.01D+00
 E= -2297.14982242711     Delta-E=       -0.000001790309 Rises=F Damp=F
 DIIS: error= 1.12D-05 at cycle   8 NSaved=   8.
 NSaved= 8 IEnMin= 8 EnMin= -2297.14982242711     IErMin= 8 ErrMin= 1.12D-05
 ErrMax= 1.12D-05  0.00D+00 EMaxC= 1.00D-01 BMatC= 2.26D-07 BMatP= 1.18D-06
 IDIUse=1 WtCom= 1.00D+00 WtEn= 0.00D+00
 Coeff-Com:  0.487D-03-0.604D-03-0.422D-02-0.104D-01-0.312D-01-0.182D-01
 Coeff-Com:  0.328D+00 0.736D+00
 Coeff:      0.487D-03-0.604D-03-0.422D-02-0.104D-01-0.312D-01-0.182D-01
 Coeff:      0.328D+00 0.736D+00
 Gap=     0.283 Goal=   None    Shift=    0.000
 RMSDP=1.27D-06 MaxDP=5.40D-05 DE=-1.79D-06 OVMax= 2.14D-04

 Cycle   9  Pass 1  IDiag  1:
 RMSU=  8.07D-07    CP:  9.79D-01  1.08D+00  8.35D-01  6.60D-01  8.45D-01
                    CP:  9.79D-01  1.12D+00  9.19D-01
 E= -2297.14982272621     Delta-E=       -0.000000299097 Rises=F Damp=F
 DIIS: error= 6.31D-06 at cycle   9 NSaved=   9.
 NSaved= 9 IEnMin= 9 EnMin= -2297.14982272621     IErMin= 9 ErrMin= 6.31D-06
 ErrMax= 6.31D-06  0.00D+00 EMaxC= 1.00D-01 BMatC= 2.46D-08 BMatP= 2.26D-07
 IDIUse=1 WtCom= 1.00D+00 WtEn= 0.00D+00
 Coeff-Com:  0.509D-04 0.156D-04-0.119D-04-0.122D-02-0.890D-02-0.245D-01
 Coeff-Com: -0.924D-02 0.207D+00 0.837D+00
 Coeff:      0.509D-04 0.156D-04-0.119D-04-0.122D-02-0.890D-02-0.245D-01
 Coeff:     -0.924D-02 0.207D+00 0.837D+00
 Gap=     0.283 Goal=   None    Shift=    0.000
 RMSDP=5.48D-07 MaxDP=2.99D-05 DE=-2.99D-07 OVMax= 1.19D-04

 Cycle  10  Pass 1  IDiag  1:
 RMSU=  3.46D-07    CP:  9.79D-01  1.08D+00  8.35D-01  6.60D-01  8.46D-01
                    CP:  9.87D-01  1.16D+00  1.03D+00  1.04D+00
 E= -2297.14982276626     Delta-E=       -0.000000040051 Rises=F Damp=F
 DIIS: error= 2.19D-06 at cycle  10 NSaved=  10.
 NSaved=10 IEnMin=10 EnMin= -2297.14982276626     IErMin=10 ErrMin= 2.19D-06
 ErrMax= 2.19D-06  0.00D+00 EMaxC= 1.00D-01 BMatC= 6.30D-09 BMatP= 2.46D-08
 IDIUse=1 WtCom= 1.00D+00 WtEn= 0.00D+00
 Coeff-Com: -0.550D-04 0.900D-04 0.750D-03 0.134D-02 0.165D-02-0.604D-02
 Coeff-Com: -0.633D-01-0.560D-01 0.358D+00 0.764D+00
 Coeff:     -0.550D-04 0.900D-04 0.750D-03 0.134D-02 0.165D-02-0.604D-02
 Coeff:     -0.633D-01-0.560D-01 0.358D+00 0.764D+00
 Gap=     0.283 Goal=   None    Shift=    0.000
 RMSDP=2.31D-07 MaxDP=1.27D-05 DE=-4.01D-08 OVMax= 5.67D-05

 Cycle  11  Pass 1  IDiag  1:
 RMSU=  1.21D-07    CP:  9.79D-01  1.08D+00  8.35D-01  6.60D-01  8.46D-01
                    CP:  9.90D-01  1.16D+00  1.07D+00  1.21D+00  8.71D-01
 E= -2297.14982277431     Delta-E=       -0.000000008046 Rises=F Damp=F
 DIIS: error= 9.55D-07 at cycle  11 NSaved=  11.
 NSaved=11 IEnMin=11 EnMin= -2297.14982277431     IErMin=11 ErrMin= 9.55D-07
 ErrMax= 9.55D-07  0.00D+00 EMaxC= 1.00D-01 BMatC= 5.28D-10 BMatP= 6.30D-09
 IDIUse=1 WtCom= 1.00D+00 WtEn= 0.00D+00
 Coeff-Com: -0.241D-04 0.291D-04 0.293D-03 0.623D-03 0.145D-02 0.137D-03
 Coeff-Com: -0.232D-01-0.433D-01 0.520D-01 0.286D+00 0.726D+00
 Coeff:     -0.241D-04 0.291D-04 0.293D-03 0.623D-03 0.145D-02 0.137D-03
 Coeff:     -0.232D-01-0.433D-01 0.520D-01 0.286D+00 0.726D+00
 Gap=     0.283 Goal=   None    Shift=    0.000
 RMSDP=6.41D-08 MaxDP=3.57D-06 DE=-8.05D-09 OVMax= 1.45D-05

 Cycle  12  Pass 1  IDiag  1:
 RMSU=  4.42D-08    CP:  9.79D-01  1.08D+00  8.35D-01  6.60D-01  8.46D-01
                    CP:  9.90D-01  1.17D+00  1.07D+00  1.24D+00  9.69D-01
                    CP:  9.17D-01
 E= -2297.14982277486     Delta-E=       -0.000000000554 Rises=F Damp=F
 DIIS: error= 1.95D-07 at cycle  12 NSaved=  12.
 NSaved=12 IEnMin=12 EnMin= -2297.14982277486     IErMin=12 ErrMin= 1.95D-07
 ErrMax= 1.95D-07  0.00D+00 EMaxC= 1.00D-01 BMatC= 7.89D-11 BMatP= 5.28D-10
 IDIUse=1 WtCom= 1.00D+00 WtEn= 0.00D+00
 Coeff-Com: -0.299D-05 0.406D-06 0.326D-04 0.911D-04 0.400D-03 0.859D-03
 Coeff-Com: -0.152D-02-0.109D-01-0.215D-01 0.244D-01 0.311D+00 0.697D+00
 Coeff:     -0.299D-05 0.406D-06 0.326D-04 0.911D-04 0.400D-03 0.859D-03
 Coeff:     -0.152D-02-0.109D-01-0.215D-01 0.244D-01 0.311D+00 0.697D+00
 Gap=     0.283 Goal=   None    Shift=    0.000
 RMSDP=2.26D-08 MaxDP=1.64D-06 DE=-5.54D-10 OVMax= 3.28D-06

 Cycle  13  Pass 1  IDiag  1:
 RMSU=  1.48D-08    CP:  9.79D-01  1.08D+00  8.35D-01  6.60D-01  8.46D-01
                    CP:  9.90D-01  1.17D+00  1.07D+00  1.24D+00  9.89D-01
                    CP:  1.01D+00  8.43D-01
 E= -2297.14982277495     Delta-E=       -0.000000000089 Rises=F Damp=F
 DIIS: error= 5.96D-08 at cycle  13 NSaved=  13.
 NSaved=13 IEnMin=13 EnMin= -2297.14982277495     IErMin=13 ErrMin= 5.96D-08
 ErrMax= 5.96D-08  0.00D+00 EMaxC= 1.00D-01 BMatC= 7.33D-12 BMatP= 7.89D-11
 IDIUse=1 WtCom= 1.00D+00 WtEn= 0.00D+00
 Coeff-Com:  0.171D-05-0.334D-05-0.206D-04-0.391D-04-0.163D-04 0.290D-03
 Coeff-Com:  0.207D-02 0.130D-02-0.130D-01-0.261D-01 0.203D-01 0.249D+00
 Coeff-Com:  0.766D+00
 Coeff:      0.171D-05-0.334D-05-0.206D-04-0.391D-04-0.163D-04 0.290D-03
 Coeff:      0.207D-02 0.130D-02-0.130D-01-0.261D-01 0.203D-01 0.249D+00
 Coeff:      0.766D+00
 Gap=     0.283 Goal=   None    Shift=    0.000
 RMSDP=8.00D-09 MaxDP=4.90D-07 DE=-8.91D-11 OVMax= 9.20D-07

 Error on total polarization charges =  0.01021
 SCF Done:  E(RBHandHLYP) =  -2297.14982277     A.U. after   13 cycles
            NFock= 13  Conv=0.80D-08     -V/T= 2.0061
 KE= 2.283333170460D+03 PE=-1.402587929685D+04 EE= 5.136179279374D+03
 Leave Link  502 at Sat Jun 15 07:52:44 2019, MaxMem=  6442450944 cpu:            7626.8 elap:             253.9
 (Enter /home/ekwan/sw/g16/l701.exe)
 ... and contract with generalized density number  0.
 Compute integral first derivatives.
 D1PCM: PCM CHGder 1st derivatives, ID1Alg=3 FixD1E=F DoIter=F DoCFld=F I1PDM=0.
 GePol: Maximum number of non-zero 1st derivatives   =     223
 Leave Link  701 at Sat Jun 15 07:52:54 2019, MaxMem=  6442450944 cpu:             294.7 elap:              10.1
 (Enter /home/ekwan/sw/g16/l702.exe)
 L702 exits ... SP integral derivatives will be done elsewhere.
 Leave Link  702 at Sat Jun 15 07:52:54 2019, MaxMem=  6442450944 cpu:               1.7 elap:               0.3
 (Enter /home/ekwan/sw/g16/l703.exe)
 Integral derivatives from FoFJK, PRISM(SPDF).
 Compute integral first derivatives, UseDBF=F ICtDFT=           0.
 Calling FoFJK, ICntrl=      2127 FMM=F ISym2X=0 I1Cent= 0 IOpClX= 0 NMat=1 NMatS=1 NMatT=0.
 FoFJK:  IHMeth= 1 ICntrl=    2127 DoSepK=F KAlg= 0 I1Cent=           0 FoldK=F
 IRaf=         0 NMat=       1 IRICut=       1 DoRegI=T DoRafI=F ISym2E= 0 IDoP0=0 IntGTp=1.
 FoFCou: FMM=F IPFlag=           0 FMFlag=      100000 FMFlg1=         800
         NFxFlg=           0 DoJE=F BraDBF=F KetDBF=F FulRan=T
         wScrn=  0.000000 ICntrl=      2127 IOpCl=  0 I1Cent=           0 NGrid=           0
         NMat0=    1 NMatS0=      1 NMatT0=    0 NMatD0=    1 NMtDS0=    0 NMtDT0=    0
 Symmetry not used in FoFCou.
 Leave Link  703 at Sat Jun 15 07:53:32 2019, MaxMem=  6442450944 cpu:            1175.7 elap:              37.9
 (Enter /home/ekwan/sw/g16/l716.exe)
 Dipole        = 4.81451904D-01 1.43760708D+00 5.98251146D-02
 ***** Axes restored to original set *****
 -------------------------------------------------------------------
 Center     Atomic                   Forces (Hartrees/Bohr)
 Number     Number              X              Y              Z
 -------------------------------------------------------------------
      1        6           0.000001354   -0.000003041   -0.000006553
      2        6           0.000003359   -0.000016543   -0.000010297
      3        6          -0.000009653   -0.000066380   -0.000001983
      4        6          -0.000007493    0.000005777   -0.000010058
      5        6          -0.000006179    0.000009197    0.000008360
      6        1           0.000003319    0.000001427   -0.000000617
      7        1          -0.000004081    0.000004051   -0.000001716
      8        1          -0.000003578    0.000002638    0.000002497
      9        1          -0.000005874    0.000001295    0.000000270
     10        1          -0.000001209    0.000002969   -0.000004099
     11        8           0.000007428    0.000034249    0.000013554
     12        8           0.000020495    0.000054266   -0.000005217
     13        8          -0.000007639    0.000012905    0.000019645
     14        8           0.000003573   -0.000002582   -0.000002542
     15        8           0.000008542    0.000003405   -0.000001176
     16        6          -0.000010607    0.000001667    0.000003355
     17        1          -0.000002810   -0.000003329    0.000003708
     18        1           0.000001960   -0.000001932   -0.000002735
     19        8           0.000016027   -0.000018772   -0.000009721
     20       16           0.000039182    0.000026062    0.000023346
     21        8          -0.000027952   -0.000055199    0.000031331
     22        8          -0.000022281    0.000016539   -0.000045902
     23        6          -0.000004895   -0.000001146    0.000004467
     24        6           0.000002879   -0.000013450   -0.000001878
     25        6           0.000017863    0.000007203    0.000000233
     26        6           0.000004271    0.000000332   -0.000005055
     27        1           0.000003082    0.000002342    0.000004857
     28        6          -0.000004570   -0.000001957    0.000005314
     29        1          -0.000002428   -0.000000234   -0.000002135
     30        6          -0.000002207   -0.000004513   -0.000003049
     31        1           0.000000332    0.000000918    0.000001187
     32        6          -0.000001205    0.000001477   -0.000018135
     33        1          -0.000002871   -0.000000434    0.000005086
     34        1          -0.000000983   -0.000001427    0.000001835
     35        1          -0.000002416   -0.000001068    0.000005055
     36        6           0.000001160    0.000000951    0.000000650
     37        1           0.000001398    0.000001438   -0.000001450
     38        1           0.000001200    0.000003617    0.000000051
     39        1          -0.000000531    0.000002368    0.000000229
     40        6           0.000000946   -0.000000947   -0.000000569
     41        1           0.000001292    0.000003263   -0.000002094
     42        1           0.000000797    0.000002347   -0.000003425
     43        1           0.000000283    0.000001782   -0.000001984
     44        6          -0.000017116    0.000002732    0.000000289
     45        1          -0.000000401   -0.000001764   -0.000003053
     46        1           0.000003840   -0.000001198   -0.000003234
     47        1           0.000004022   -0.000007607   -0.000002308
     48        6          -0.000003253   -0.000002868    0.000011333
     49        9          -0.000000966    0.000001758   -0.000000666
     50        9           0.000006322    0.000004619    0.000003388
     51        9           0.000002459    0.000000655    0.000001846
     52        6          -0.000012930   -0.000002148   -0.000006673
     53        9           0.000006009    0.000000600    0.000001916
     54        9           0.000006347   -0.000003056   -0.000002518
     55        9          -0.000003615   -0.000003253    0.000007043
 -------------------------------------------------------------------
 Cartesian Forces:  Max     0.000066380 RMS     0.000012218
 Leave Link  716 at Sat Jun 15 07:53:33 2019, MaxMem=  6442450944 cpu:               1.9 elap:               0.1
 (Enter /home/ekwan/sw/g16/l103.exe)

 GradGradGradGradGradGradGradGradGradGradGradGradGradGradGradGradGradGrad
 Berny optimization.
 FormGI is forming the generalized inverse of G from B-inverse, IUseBI=4.
 Internal  Forces:  Max     0.000062202 RMS     0.000008894
 Search for a local minimum.
 Step number   1 out of a maximum of  291
 All quantities printed in internal units (Hartrees-Bohrs-Radians)
 RMS Force = .88943D-05 SwitMx=.10000D-02 MixMth= 2
 Mixed Optimization -- En-DIIS/RFO-DIIS
 Second derivative matrix not updated -- first step.
 ITU=  0
     Eigenvalues ---    0.00549   0.00683   0.00738   0.00773   0.00782
     Eigenvalues ---    0.00784   0.01063   0.01487   0.01571   0.01572
     Eigenvalues ---    0.01579   0.01584   0.01643   0.01651   0.01658
     Eigenvalues ---    0.01671   0.01718   0.01728   0.01772   0.02284
     Eigenvalues ---    0.02288   0.02294   0.02296   0.02299   0.02301
     Eigenvalues ---    0.02694   0.02991   0.03395   0.04478   0.04650
     Eigenvalues ---    0.04800   0.04907   0.04983   0.05307   0.05333
     Eigenvalues ---    0.05860   0.06114   0.06618   0.07045   0.07102
     Eigenvalues ---    0.07226   0.07875   0.09391   0.10087   0.10108
     Eigenvalues ---    0.10139   0.10167   0.10605   0.10617   0.10636
     Eigenvalues ---    0.10636   0.10778   0.10788   0.10866   0.10940
     Eigenvalues ---    0.10989   0.11027   0.11503   0.11828   0.11840
     Eigenvalues ---    0.14119   0.15023   0.16000   0.16000   0.16000
     Eigenvalues ---    0.16000   0.16000   0.16000   0.16000   0.16000
     Eigenvalues ---    0.16000   0.16000   0.16000   0.16000   0.16000
     Eigenvalues ---    0.16000   0.16000   0.16437   0.17054   0.17523
     Eigenvalues ---    0.18709   0.19698   0.19803   0.20955   0.22129
     Eigenvalues ---    0.23483   0.23486   0.23501   0.24974   0.24980
     Eigenvalues ---    0.25000   0.25000   0.25000   0.25000   0.25000
     Eigenvalues ---    0.25000   0.25000   0.25000   0.25000   0.25000
     Eigenvalues ---    0.25000   0.25000   0.25000   0.27755   0.28728
     Eigenvalues ---    0.29286   0.29458   0.29817   0.30717   0.32431
     Eigenvalues ---    0.32519   0.34563   0.34800   0.34832   0.34841
     Eigenvalues ---    0.34889   0.34890   0.34896   0.34898   0.34971
     Eigenvalues ---    0.35029   0.35227   0.35231   0.35292   0.35419
     Eigenvalues ---    0.35457   0.35474   0.35475   0.35631   0.35970
     Eigenvalues ---    0.36514   0.36535   0.36584   0.38567   0.39446
     Eigenvalues ---    0.43762   0.43924   0.44138   0.44149   0.44233
     Eigenvalues ---    0.44292   0.45017   0.45109   0.45362   0.46638
     Eigenvalues ---    0.48182   0.48229   0.48264   0.48323   0.48376
     Eigenvalues ---    0.52336   0.57582   0.58770   0.59200   0.59334
     Eigenvalues ---    0.59546   0.59646   0.98803   1.01138
 RFO step:  Lambda=-1.17297392D-07 EMin= 5.49162753D-03
 Linear search not attempted -- first point.
 Iteration  1 RMS(Cart)=  0.00098427 RMS(Int)=  0.00000008
 Iteration  2 RMS(Cart)=  0.00000021 RMS(Int)=  0.00000000
 ITry= 1 IFail=0 DXMaxC= 3.71D-03 DCOld= 1.00D+10 DXMaxT= 3.00D-01 DXLimC= 3.00D+00 Rises=F
 Variable       Old X    -DE/DX   Delta X   Delta X   Delta X     New X
                                 (Linear)    (Quad)   (Total)
    R1        2.87614   0.00000   0.00000   0.00001   0.00001   2.87615
    R2        2.87476   0.00001   0.00000   0.00002   0.00002   2.87478
    R3        2.05935   0.00000   0.00000   0.00000   0.00000   2.05935
    R4        2.65149   0.00000   0.00000   0.00001   0.00001   2.65150
    R5        2.88798  -0.00002   0.00000  -0.00005  -0.00005   2.88793
    R6        2.06390   0.00000   0.00000   0.00001   0.00001   2.06390
    R7        2.63419  -0.00002   0.00000  -0.00005  -0.00005   2.63414
    R8        2.04128   0.00000   0.00000   0.00000   0.00000   2.04128
    R9        2.59568   0.00002   0.00000   0.00004   0.00004   2.59572
   R10        2.73549  -0.00005   0.00000  -0.00012  -0.00012   2.73536
   R11        2.87946   0.00001   0.00000   0.00002   0.00002   2.87947
   R12        2.05856   0.00000   0.00000   0.00001   0.00001   2.05856
   R13        2.70343  -0.00001   0.00000  -0.00002  -0.00002   2.70341
   R14        2.86556  -0.00002   0.00000  -0.00008  -0.00008   2.86548
   R15        2.05628   0.00000   0.00000   0.00001   0.00001   2.05629
   R16        2.65257   0.00000   0.00000   0.00000   0.00000   2.65257
   R17        3.01279   0.00000   0.00000   0.00001   0.00001   3.01279
   R18        2.66290   0.00000   0.00000   0.00001   0.00001   2.66291
   R19        2.66177   0.00000   0.00000   0.00000   0.00000   2.66176
   R20        2.66277   0.00000   0.00000   0.00000   0.00000   2.66277
   R21        2.05000   0.00000   0.00000   0.00001   0.00001   2.05002
   R22        2.05841   0.00000   0.00000   0.00000   0.00000   2.05840
   R23        2.64857  -0.00001   0.00000  -0.00003  -0.00003   2.64854
   R24        2.66107   0.00000   0.00000   0.00000   0.00000   2.66106
   R25        2.71887   0.00006   0.00000   0.00006   0.00006   2.71893
   R26        2.72822   0.00005   0.00000   0.00005   0.00005   2.72827
   R27        3.34274  -0.00002   0.00000  -0.00006  -0.00006   3.34268
   R28        2.61559  -0.00001   0.00000  -0.00001  -0.00001   2.61558
   R29        2.61554   0.00000   0.00000   0.00000   0.00000   2.61555
   R30        2.61645   0.00000   0.00000  -0.00001  -0.00001   2.61644
   R31        2.03253   0.00000   0.00000   0.00000   0.00000   2.03253
   R32        2.61515   0.00000   0.00000   0.00000   0.00000   2.61516
   R33        2.03178   0.00000   0.00000   0.00001   0.00001   2.03179
   R34        2.61740   0.00000   0.00000   0.00000   0.00000   2.61740
   R35        2.83362   0.00000   0.00000   0.00001   0.00001   2.83363
   R36        2.61801   0.00000   0.00000   0.00000   0.00000   2.61801
   R37        2.83204   0.00000   0.00000   0.00000   0.00000   2.83203
   R38        2.03285   0.00000   0.00000   0.00000   0.00000   2.03285
   R39        2.05721   0.00000   0.00000   0.00000   0.00000   2.05721
   R40        2.05844   0.00000   0.00000   0.00000   0.00000   2.05844
   R41        2.04662   0.00000   0.00000   0.00000   0.00000   2.04662
   R42        2.04912   0.00000   0.00000   0.00000   0.00000   2.04912
   R43        2.05949   0.00000   0.00000   0.00000   0.00000   2.05949
   R44        2.05203   0.00000   0.00000   0.00000   0.00000   2.05203
   R45        2.04910   0.00000   0.00000   0.00000   0.00000   2.04910
   R46        2.05302   0.00000   0.00000   0.00000   0.00000   2.05302
   R47        2.05854   0.00000   0.00000   0.00000   0.00000   2.05853
   R48        2.04939   0.00000   0.00000   0.00000   0.00000   2.04939
   R49        2.06001   0.00000   0.00000  -0.00001  -0.00001   2.05999
   R50        2.05308   0.00001   0.00000   0.00002   0.00002   2.05310
   R51        2.51471   0.00000   0.00000  -0.00001  -0.00001   2.51471
   R52        2.51927  -0.00001   0.00000  -0.00001  -0.00001   2.51926
   R53        2.51579   0.00000   0.00000   0.00000   0.00000   2.51578
   R54        2.52907   0.00001   0.00000   0.00001   0.00001   2.52908
   R55        2.51221  -0.00001   0.00000  -0.00001  -0.00001   2.51220
   R56        2.51302  -0.00001   0.00000  -0.00001  -0.00001   2.51300
    A1        1.91894   0.00000   0.00000   0.00004   0.00004   1.91898
    A2        1.91219   0.00000   0.00000   0.00000   0.00000   1.91220
    A3        1.92625   0.00000   0.00000  -0.00001  -0.00001   1.92624
    A4        1.89533   0.00000   0.00000  -0.00007  -0.00007   1.89526
    A5        1.88621   0.00000   0.00000   0.00002   0.00002   1.88623
    A6        1.92451   0.00000   0.00000   0.00001   0.00001   1.92452
    A7        1.94031   0.00000   0.00000   0.00000   0.00000   1.94031
    A8        1.87953   0.00000   0.00000   0.00003   0.00003   1.87956
    A9        1.90846   0.00000   0.00000  -0.00001  -0.00001   1.90845
   A10        1.84797   0.00000   0.00000  -0.00004  -0.00004   1.84794
   A11        1.96035   0.00000   0.00000  -0.00004  -0.00004   1.96031
   A12        1.92491   0.00000   0.00000   0.00006   0.00006   1.92497
   A13        1.95324   0.00000   0.00000   0.00002   0.00002   1.95326
   A14        1.96749   0.00000   0.00000  -0.00006  -0.00006   1.96743
   A15        1.85999   0.00000   0.00000  -0.00004  -0.00004   1.85995
   A16        1.86694   0.00000   0.00000   0.00002   0.00002   1.86696
   A17        1.88227   0.00001   0.00000   0.00010   0.00010   1.88237
   A18        1.93301   0.00000   0.00000  -0.00004  -0.00004   1.93298
   A19        1.89799   0.00000   0.00000   0.00009   0.00009   1.89809
   A20        1.93134   0.00000   0.00000  -0.00006  -0.00006   1.93127
   A21        1.96588   0.00000   0.00000  -0.00001  -0.00001   1.96588
   A22        1.90130   0.00000   0.00000   0.00006   0.00006   1.90136
   A23        1.87840   0.00000   0.00000   0.00001   0.00001   1.87841
   A24        1.88735  -0.00001   0.00000  -0.00009  -0.00009   1.88726
   A25        1.94176   0.00000   0.00000  -0.00003  -0.00003   1.94173
   A26        1.89936   0.00000   0.00000   0.00000   0.00000   1.89936
   A27        1.92334  -0.00001   0.00000  -0.00003  -0.00003   1.92331
   A28        1.89417   0.00000   0.00000  -0.00002  -0.00002   1.89415
   A29        1.87403   0.00001   0.00000   0.00007   0.00007   1.87410
   A30        1.93115   0.00000   0.00000   0.00001   0.00001   1.93116
   A31        2.02949   0.00000   0.00000  -0.00001  -0.00001   2.02948
   A32        2.10765   0.00001   0.00000   0.00005   0.00005   2.10770
   A33        2.01250  -0.00001   0.00000  -0.00006  -0.00006   2.01244
   A34        2.01292   0.00000   0.00000   0.00000   0.00000   2.01292
   A35        2.00655   0.00000   0.00000   0.00001   0.00001   2.00656
   A36        1.87122   0.00001   0.00000   0.00007   0.00007   1.87129
   A37        1.90730   0.00001   0.00000  -0.00002  -0.00002   1.90728
   A38        1.99560  -0.00004   0.00000  -0.00022  -0.00022   1.99539
   A39        1.89095   0.00000   0.00000   0.00004   0.00004   1.89099
   A40        1.86306   0.00002   0.00000   0.00014   0.00014   1.86321
   A41        1.93168   0.00001   0.00000   0.00000   0.00000   1.93169
   A42        2.01585  -0.00002   0.00000  -0.00008  -0.00008   2.01577
   A43        1.83253   0.00003   0.00000   0.00016   0.00016   1.83268
   A44        1.89487   0.00003   0.00000   0.00015   0.00015   1.89503
   A45        1.82087  -0.00002   0.00000  -0.00010  -0.00010   1.82077
   A46        2.10688   0.00002   0.00000   0.00008   0.00008   2.10696
   A47        1.89277  -0.00003   0.00000  -0.00017  -0.00017   1.89261
   A48        1.89503  -0.00002   0.00000  -0.00014  -0.00014   1.89489
   A49        2.07660  -0.00001   0.00000  -0.00005  -0.00005   2.07655
   A50        2.07993   0.00000   0.00000   0.00001   0.00001   2.07994
   A51        2.12665   0.00001   0.00000   0.00005   0.00005   2.12670
   A52        2.07025  -0.00001   0.00000  -0.00003  -0.00003   2.07022
   A53        2.10159   0.00000   0.00000   0.00001   0.00001   2.10160
   A54        2.11133   0.00000   0.00000   0.00002   0.00002   2.11134
   A55        2.06983  -0.00001   0.00000  -0.00004  -0.00004   2.06980
   A56        2.10531   0.00001   0.00000   0.00003   0.00003   2.10534
   A57        2.10804   0.00000   0.00000   0.00000   0.00000   2.10804
   A58        2.10407   0.00000   0.00000   0.00000   0.00000   2.10407
   A59        2.08843   0.00000   0.00000   0.00000   0.00000   2.08843
   A60        2.08999   0.00000   0.00000   0.00000   0.00000   2.08999
   A61        2.10492   0.00000   0.00000   0.00000   0.00000   2.10492
   A62        2.08310   0.00000   0.00000  -0.00001  -0.00001   2.08309
   A63        2.09428   0.00000   0.00000   0.00001   0.00001   2.09429
   A64        2.09057   0.00000   0.00000   0.00001   0.00001   2.09058
   A65        2.09663   0.00000   0.00000   0.00000   0.00000   2.09663
   A66        2.09598   0.00000   0.00000  -0.00001  -0.00001   2.09597
   A67        1.95554  -0.00001   0.00000  -0.00004  -0.00004   1.95550
   A68        1.93613   0.00000   0.00000   0.00000   0.00000   1.93612
   A69        1.86370  -0.00001   0.00000  -0.00003  -0.00003   1.86367
   A70        1.90393   0.00000   0.00000   0.00003   0.00003   1.90396
   A71        1.89653   0.00000   0.00000   0.00003   0.00003   1.89656
   A72        1.90684   0.00000   0.00000   0.00002   0.00002   1.90687
   A73        1.86329   0.00000   0.00000   0.00001   0.00001   1.86329
   A74        1.93688   0.00000   0.00000  -0.00001  -0.00001   1.93687
   A75        1.94629   0.00000   0.00000  -0.00001  -0.00001   1.94629
   A76        1.90040   0.00000   0.00000   0.00000   0.00000   1.90040
   A77        1.90986   0.00000   0.00000   0.00000   0.00000   1.90986
   A78        1.90615   0.00000   0.00000   0.00001   0.00001   1.90616
   A79        1.86453   0.00000   0.00000   0.00001   0.00001   1.86453
   A80        1.94067   0.00000   0.00000   0.00000   0.00000   1.94066
   A81        1.93699   0.00000   0.00000   0.00000   0.00000   1.93699
   A82        1.90944   0.00000   0.00000   0.00001   0.00001   1.90944
   A83        1.90312   0.00000   0.00000   0.00000   0.00000   1.90311
   A84        1.90825   0.00000   0.00000   0.00000   0.00000   1.90825
   A85        1.86554   0.00000   0.00000   0.00000   0.00000   1.86554
   A86        1.93547   0.00001   0.00000   0.00004   0.00004   1.93550
   A87        1.95519  -0.00001   0.00000  -0.00006  -0.00006   1.95513
   A88        1.90170   0.00000   0.00000   0.00001   0.00001   1.90171
   A89        1.90735   0.00000   0.00000   0.00000   0.00000   1.90735
   A90        1.89772   0.00000   0.00000   0.00001   0.00001   1.89773
   A91        1.94685   0.00000   0.00000   0.00000   0.00000   1.94685
   A92        1.94569   0.00000   0.00000  -0.00002  -0.00002   1.94567
   A93        1.94611   0.00000   0.00000   0.00000   0.00000   1.94612
   A94        1.87018   0.00000   0.00000   0.00000   0.00000   1.87018
   A95        1.88194   0.00000   0.00000   0.00001   0.00001   1.88195
   A96        1.86909   0.00000   0.00000   0.00001   0.00001   1.86910
   A97        1.94133  -0.00001   0.00000  -0.00002  -0.00002   1.94130
[...]
 0001449,0.00001581,0.00004665,0.00000602,0.00000219,-0.00000760,0.0000
 0940,0.00000335,-0.00090310,0.00012360,0.00024242,0.00019063,0.0000728
 0,-0.00003755,-0.00028135,-0.00038276,0.00032881,0.00027839,-0.0000654
 2,-0.00007389,0.00082327,0.00229067,-0.00136961,-0.00010996,-0.0004667
 9,0.00045103,-0.00061247,-0.00064795,0.00016613,-0.00031124,-0.0003690
 1,0.00056299,-0.01376738,-0.03687459,0.60402419,0.00002617,-0.00016255
 ,-0.00006846,0.00006184,-0.00000533,-0.00006685,-0.00001457,-0.0007270
 5,-0.00004786,-0.00032507,-0.00055930,-0.00050162,0.00011379,0.0002239
 3,0.00024951,-0.00001203,0.00004484,0.00000968,0.00002025,0.00000463,0
 .00000404,-0.00000792,0.00001656,-0.00000682,0.00000366,0.00004541,-0.
 00001230,0.00003838,-0.00001788,-0.00000301,-0.00018154,0.00051928,0.0
 0028653,0.00055004,0.00044019,0.00003365,-0.00007619,0.00010710,0.0000
 7118,-0.00017082,0.00014097,-0.00004393,-0.00015861,0.00002358,-0.0001
 1552,0.00218969,0.00064819,0.00062199,-0.00028037,0.00004742,-0.000191
 15,-0.00153165,0.00008330,-0.00063737,-0.00126440,-0.00034979,-0.00042
 650,-0.00094377,-0.00001446,0.00023964,0.00022132,-0.00017808,-0.00003
 743,0.00021890,0.00000691,-0.00011698,0.00085576,-0.00105549,0.0006070
 6,0.00055854,-0.00012088,-0.00063012,-0.00115585,-0.00099942,0.0008308
 6,-0.00035609,0.00048636,-0.00009001,-0.00001097,-0.00003065,-0.000035
 22,0.00814921,-0.00528483,-0.00431875,-0.00023357,-0.00024902,-0.00027
 662,0.00018595,0.00020938,0.00106347,-0.00004668,0.00018523,-0.0004214
 4,0.00001492,-0.00000552,-0.00005394,0.00000119,-0.00000723,0.00000899
 ,0.00000175,-0.00000146,0.00000756,-0.00000784,0.00000776,0.00000687,0
 .00002683,-0.00008683,0.00005101,-0.00001398,0.00001031,-0.00000827,0.
 00000291,0.00000936,-0.00000957,-0.00000409,0.00001734,-0.00000019,0.0
 0010775,0.00006232,0.00008792,-0.00000588,-0.00000616,-0.00002508,-0.0
 0002751,-0.00000592,-0.00000362,0.00000695,0.00000886,0.00000547,0.001
 52279,-0.00046665,0.00052724,-0.00033896,-0.00005315,-0.00002942,-0.00
 103027,0.00028375,-0.00007398,-0.00021796,0.00002806,0.00004480,-0.000
 01263,0.00008976,-0.00038436,0.00005682,-0.00007241,0.00014400,-0.0000
 4943,-0.00005730,0.00006817,-0.00001531,-0.00000123,0.00011931,-0.1248
 7167,-0.08027470,-0.03428621,0.18447030,-0.00006390,-0.00012500,-0.000
 11972,-0.00011905,0.00010636,-0.00006101,-0.00047648,-0.00107518,0.000
 24056,-0.00031061,-0.00053223,-0.00051020,0.00002565,0.00009212,0.0000
 6271,-0.00001703,0.00005585,-0.00000313,0.00008144,0.00000574,0.000012
 82,-0.00000510,0.00002714,-0.00001504,-0.00003549,0.00006879,-0.000053
 92,0.00006230,-0.00000444,0.00000753,0.00027109,0.00070227,0.00036541,
 0.00170557,0.00065131,-0.00003836,0.00009677,0.00002751,-0.00001885,0.
 00002627,0.00008514,0.00004202,-0.00002205,0.00011829,0.00006342,0.000
 96022,0.00007552,0.00053682,-0.00006467,0.00005769,-0.00007565,0.00061
 429,-0.00089129,0.00027497,-0.00058919,0.00035576,-0.00055440,-0.00362
 782,0.00154726,0.00153780,0.00088145,-0.00116903,-0.00025500,0.0009207
 0,-0.00034938,-0.00093551,0.00134964,-0.00014388,0.00183437,0.00019693
 ,-0.00129610,0.00037696,-0.00251052,-0.00041701,0.00236626,0.00192842,
 -0.00008030,0.00188169,-0.00018601,-0.00001097,-0.00017028,-0.02566539
 ,-0.04517279,-0.01512439,-0.00080860,-0.00054507,-0.00081864,0.0028505
 4,-0.00181939,-0.00276235,-0.00095202,-0.00051085,-0.00073586,-0.00006
 161,-0.00000124,0.00004879,0.00000127,-0.00000106,0.00001190,0.0000167
 3,0.00001374,-0.00000531,0.00000169,-0.00000297,-0.00000201,-0.0000134
 6,-0.00001691,0.00001069,0.00000603,0.00000400,0.00000055,0.00000086,-
 0.00000324,-0.00000516,-0.00000770,0.00000591,0.00000305,0.00000699,-0
 .00006479,0.00001762,0.00000384,0.00000162,-0.00000279,-0.00000809,0.0
 0000687,-0.00000112,0.00001123,0.00002754,-0.00000285,0.00151005,-0.00
 043962,0.00078600,-0.00028187,-0.00002140,-0.00004147,-0.00018450,0.00
 042711,-0.00040542,-0.00030983,0.00002386,0.00002559,0.00181632,0.0007
 7636,-0.00227715,-0.00013361,-0.00062672,0.00102361,-0.00074001,-0.000
 49943,0.00032435,-0.00047236,0.00014201,0.00081822,-0.08214539,-0.2225
 2213,-0.05618169,0.13883915,0.26574968,0.00001594,-0.00009555,-0.00005
 368,0.00004036,-0.00001671,-0.00004018,0.00003954,-0.00025380,-0.00008
 659,-0.00019548,-0.00034806,-0.00039505,0.00007200,0.00014656,0.000143
 35,-0.00001910,0.00003152,0.00001145,-0.00000257,0.00000088,0.00000208
 ,-0.00000341,0.00000484,0.00000028,0.00001288,0.00000307,0.00001160,0.
 00001013,-0.00001370,-0.00000253,-0.00011650,0.00023151,0.00025320,0.0
 0006231,0.00013783,0.00010407,-0.00005132,0.00005696,0.00006888,-0.000
 10640,0.00008070,-0.00001402,-0.00010037,0.00001225,-0.00003932,0.0012
 5448,0.00055806,0.00042558,-0.00012584,0.00001169,-0.00007818,-0.00070
 421,-0.00005608,-0.00047842,-0.00066054,-0.00032765,0.00012995,-0.0001
 0449,-0.00011288,-0.00045612,0.00001605,0.00004513,0.00008249,0.000041
 31,-0.00002105,0.00017056,-0.00028352,0.00040906,-0.00068153,-0.000620
 87,0.00026601,0.00044349,0.00132851,0.00034278,-0.00026971,-0.00004797
 ,-0.00091209,0.00059862,-0.00000097,-0.00001889,0.00002339,-0.00102134
 ,0.00420441,0.01173668,-0.00021910,0.00030968,0.00002444,0.00032241,-0
 .00103819,-0.00042848,-0.00002333,-0.00005570,-0.00007511,0.00001293,-
 0.00000167,-0.00005754,0.00000517,-0.00000169,0.00000836,-0.00000292,-
 0.00000269,0.00000474,-0.00000386,0.00000314,0.00000629,0.00001711,-0.
 00004736,0.00002280,-0.00000903,0.00000566,-0.00000542,0.00000047,0.00
 000447,-0.00000255,-0.00000246,0.00001136,-0.00000025,0.00006741,0.000
 03926,0.00004822,-0.00000084,-0.00000506,-0.00000954,-0.00001912,-0.00
 000163,-0.00000163,0.00000534,0.00000337,-0.00000061,0.00052916,-0.000
 03902,0.00000279,-0.00009877,-0.00003822,0.00002607,0.00014711,0.00010
 750,-0.00035023,-0.00012599,0.00002007,0.00004196,0.00009847,-0.000165
 66,-0.00014229,0.00001716,-0.00004432,0.00010492,0.00000567,0.00003336
 ,0.00003429,-0.00001448,0.00007647,0.00005950,-0.03457615,-0.05518353,
 -0.10025394,0.07523151,0.10604748,0.13860273,0.00009326,-0.00006253,0.
 00004936,0.00017055,-0.00012004,-0.00001430,0.00035657,0.00007837,-0.0
 0023265,0.00001318,-0.00006607,0.00007595,0.00010655,0.00009444,0.0001
 9014,0.00000984,-0.00000761,0.00000945,-0.00004304,0.00000289,-0.00001
 049,-0.00000583,-0.00000132,0.00000127,0.00003069,-0.00000253,0.000022
 91,0.00000170,-0.00001156,-0.00001098,-0.00040716,0.00000643,-0.000075
 55,-0.00083419,-0.00006428,0.00003519,-0.00016625,0.00011140,0.0000835
 1,-0.00020401,0.00008702,-0.00009542,-0.00014306,-0.00005588,-0.000185
 99,0.00080547,0.00026036,0.00028063,-0.00010614,0.00000114,-0.00009322
 ,0.00000817,-0.00012315,0.00008660,-0.00048967,-0.00016713,-0.00018605
 ,0.00199592,-0.00114714,-0.00103227,-0.00058777,0.00115206,0.00010663,
 -0.00050067,0.00032781,0.00063117,-0.00081980,0.00064053,0.00135701,0.
 00005352,0.00025050,-0.00052594,-0.00003326,0.00495914,-0.00480531,0.0
 0033701,0.00109064,-0.00044682,0.00007883,-0.00009011,-0.00010725,-0.0
 3137445,0.01223544,0.00687623,0.00040449,-0.00070456,-0.00026384,-0.00
 135033,-0.00124702,0.00393003,0.00041524,0.00016531,-0.00207268,0.0000
 6740,-0.00001112,-0.00009023,-0.00000200,-0.00001054,-0.00000171,-0.00
 000844,-0.00001121,0.00001418,-0.00001256,0.00001391,0.00000775,0.0000
 4562,-0.00009152,0.00005249,-0.00001960,0.00000765,-0.00000928,0.00000
 320,0.00001388,-0.00000933,0.00000189,0.00001425,-0.00000108,0.0001021
 4,0.00009631,0.00007716,-0.00000730,-0.00000808,-0.00002482,-0.0000226
 9,-0.00000984,-0.00000088,-0.00000295,-0.00000680,0.00000519,0.0006392
 4,-0.00011601,0.00024180,-0.00015440,-0.00005650,-0.00001920,-0.000044
 25,0.00025276,-0.00011857,-0.00005732,0.00001287,0.00000236,-0.0013354
 8,-0.00030943,0.00114571,0.00015798,0.00025377,-0.00043305,0.00057464,
 0.00032043,-0.00016307,0.00038160,-0.00014008,-0.00044144,-0.28888285,
 0.07344298,0.02130135,-0.07535356,-0.02593198,-0.01145394,0.42644569,-
 0.00006599,-0.00002689,-0.00006806,-0.00012109,0.00009647,-0.00002242,
 -0.00035489,-0.00053429,0.00021672,-0.00014453,-0.00019755,-0.00023296
 ,-0.00003446,0.00000442,-0.00004986,-0.00000837,0.00002491,-0.00000757
 ,0.00005468,0.00000226,0.00001036,0.00000033,0.00001221,-0.00000825,-0
 .00002786,0.00003088,-0.00003698,0.00002415,0.00000371,0.00000792,0.00
 025895,0.00029980,0.00017065,0.00111026,0.00031425,-0.00004210,0.00011
 037,-0.00003199,-0.00004781,0.00009368,0.00000105,0.00005405,0.0000483
 7,0.00007077,0.00009798,0.00013903,-0.00007783,0.00007741,-0.00000485,
 0.00002229,-0.00000040,0.00001551,-0.00016758,0.00003118,-0.00007039,0
 .00015471,-0.00010705,-0.00272963,0.00094325,0.00114789,0.00079243,-0.
 00111521,-0.00012558,0.00063490,-0.00021899,-0.00075074,0.00056665,-0.
 00214286,-0.00111505,0.00076791,-0.00065930,-0.00006023,-0.00003628,-0
 .00337553,0.00551322,0.00018541,-0.00002731,-0.00052037,0.00000460,0.0
 0004399,-0.00000061,0.04319858,-0.00680106,-0.00489247,0.00008036,0.00
 057216,0.00022646,0.00081754,-0.00094485,0.00006841,0.00088934,-0.0015
 2012,0.00054247,-0.00005385,0.00000378,0.00006351,0.00000037,0.0000031
 9,0.00000490,0.00001137,0.00001085,-0.00000797,0.00000546,-0.00000657,
 -0.00000456,-0.00002434,0.00002933,-0.00001568,0.00001053,-0.00000132,
 0.00000413,-0.00000068,-0.00000684,0.00000115,-0.00000403,-0.00000350,
 0.00000179,-0.00003848,-0.00006389,-0.00002339,0.00000420,0.00000388,0
 .00000823,0.00000618,0.00000621,-0.00000011,0.00000528,0.00001365,-0.0
 0000291,0.00023280,-0.00009025,0.00012647,-0.00002568,0.00001374,-0.00
 000616,-0.00000546,0.00006773,-0.00005037,-0.00006185,0.00000036,0.000
 01013,0.00108136,0.00067373,-0.00148769,-0.00006581,-0.00033069,0.0005
 3668,-0.00050674,-0.00034065,0.00022688,-0.00033571,0.00006779,0.00053
 856,0.06639341,-0.10634242,-0.00163556,-0.04426632,0.00923109,-0.00241
 920,-0.07230963,0.09981364,0.00001665,-0.00000565,-0.00000154,0.000025
 33,-0.00002756,-0.00000030,0.00008127,0.00013130,-0.00009081,0.0000203
 8,-0.00000772,-0.00004354,0.00001578,0.00001127,0.00001526,-0.00000801
 ,0.00000297,0.00000553,-0.00001654,-0.00000109,-0.00000189,-0.00000014
 ,-0.00000330,0.00000357,0.00000859,-0.00001321,0.00001573,-0.00000580,
 -0.00000368,-0.00000169,-0.00005256,-0.00003720,0.00004666,-0.00032742
 ,-0.00006929,0.00007105,-0.00002976,0.00001284,0.00003425,-0.00003028,
 0.00000910,-0.00000327,-0.00002438,-0.00000732,-0.00000413,0.00011529,
 0.00007517,0.00000239,0.00000311,-0.00000337,0.00000708,0.00001821,-0.
 00002278,0.00002034,-0.00006888,-0.00006169,0.00008016,0.00067231,-0.0
 0028255,-0.00059412,-0.00017265,0.00028363,0.00008653,-0.00014252,0.00
 001230,0.00030716,-0.00089180,0.00048913,0.00047845,-0.00011838,0.0002
 4617,-0.00004769,0.00028431,0.00172445,-0.00146279,-0.00070130,-0.0002
 2003,0.00068912,-0.00006560,0.00003108,0.00006336,-0.00889399,0.004687
 40,0.01139680,-0.00030222,0.00029015,0.00008641,0.00010601,0.00059288,
 -0.00232223,-0.00167018,0.00086988,0.00037936,0.00001169,-0.00000093,-
 0.00003501,0.00000365,0.00000035,0.00000279,-0.00000397,-0.00000287,0.
 00000237,-0.00000122,0.00000093,0.00000288,0.00000740,-0.00000937,0.00
 000100,-0.00000311,0.00000062,-0.00000166,-0.00000066,0.00000102,0.000
 00121,0.00000023,0.00000278,-0.00000017,0.00001638,0.00001305,0.000007
 17,0.00000090,-0.00000171,0.00000050,-0.00000516,0.00000012,0.00000010
 ,0.00000122,-0.00000150,-0.00000137,0.00005490,-0.00000727,-0.00005424
 ,-0.00001078,-0.00000491,0.00000578,0.00002740,0.00003749,-0.00003205,
 -0.00003004,0.00000834,0.00000859,-0.00019194,-0.00050629,0.00039158,-
 0.00002429,0.00014485,-0.00015397,0.00016574,0.00015663,-0.00004674,0.
 00005346,0.00009500,-0.00012176,0.02678743,-0.00395684,-0.08374583,-0.
 01914679,-0.00239623,0.01199453,-0.05872021,0.01170246,0.09517144,0.00
 002431,-0.00001638,0.00002145,0.00004651,-0.00002954,-0.00000785,0.000
 08381,-0.00006471,-0.00002312,-0.00000135,-0.00000580,0.00007908,0.000
 02972,0.00001887,0.00004719,0.00001226,-0.00000418,-0.00000121,-0.0000
 0448,0.00000214,-0.00000255,-0.00000199,0.00000151,-0.00000229,0.00000
 423,0.00000674,-0.00000482,0.00000434,-0.00000149,-0.00000243,-0.00010
 410,0.00003090,-0.00006379,-0.00011828,0.00005377,-0.00002406,-0.00004
 356,0.00003578,0.00001234,-0.00005384,0.00002571,-0.00003166,-0.000036
 88,-0.00001338,-0.00005881,0.00014790,0.00001798,0.00007322,-0.0000250
 7,0.00000064,-0.00002823,0.00001707,-0.00002973,0.00003227,-0.00010156
 ,-0.00000230,-0.00011383,0.00030050,-0.00050653,0.00005131,-0.00003071
 ,0.00018980,-0.00003976,-0.00010059,0.00014598,0.00003073,0.00048891,-
 0.00044569,-0.00050958,0.00004935,0.00013543,-0.00010451,-0.00208045,0
 .00064385,-0.00000855,0.00035578,0.00003633,-0.00080345,0.00007572,0.0
 0002653,-0.00005252,0.01133087,0.00180825,-0.00401451,0.00080104,0.000
 42846,-0.00125672,-0.00081372,0.00145026,0.00003086,0.00021091,0.00029
 894,-0.00030659,0.00001696,-0.00000440,-0.00001378,-0.00000236,-0.0000
 0470,-0.00000177,-0.00000016,-0.00000207,0.00000406,-0.00000436,0.0000
 0485,0.00000091,0.00001276,-0.00002781,0.00001711,-0.00000501,0.000002
 26,-0.00000236,0.00000128,0.00000413,-0.00000392,0.00000047,0.00000360
 ,0.00000012,0.00002553,0.00002358,0.00002058,-0.00000224,-0.00000214,-
 0.00000782,-0.00000540,-0.00000295,0.00000007,-0.00000144,-0.00000094,
 0.00000178,0.00016108,-0.00002921,0.00010599,-0.00004151,-0.00002025,-
 0.00001517,-0.00003184,0.00007474,0.00003064,0.00002206,-0.00000015,-0
 .00000544,-0.00036594,-0.00003220,0.00023268,0.00003532,0.00008405,-0.
 00013612,0.00014669,0.00008356,-0.00003837,0.00009101,-0.00004224,-0.0
 0008159,-0.08262233,0.00014196,0.02822260,0.00931348,-0.00844116,-0.02
 863851,-0.03033134,0.00375292,0.06316294,0.09312062,-0.00004687,-0.000
 03251,-0.00004931,-0.00008554,0.00006519,-0.00001570,-0.00028862,-0.00
 046687,0.00016006,-0.00012412,-0.00018219,-0.00017277,-0.00001911,0.00
 001442,-0.00001525,-0.00000595,0.00001699,-0.00000485,0.00004351,0.000
 00298,0.00000654,-0.00000065,0.00001172,-0.00000817,-0.00002306,0.0000
 3173,-0.00003192,0.00002383,0.00000271,0.00000540,0.00019193,0.0002790
 4,0.00012364,0.00088122,0.00023572,-0.00002715,0.00007622,-0.00001156,
 -0.00003661,0.00005722,0.00001402,0.00003124,0.00002749,0.00005720,0.0
 0005593,0.00019629,-0.00006165,0.00012209,-0.00002025,0.00001962,-0.00
 001718,0.00005276,-0.00016918,0.00000893,-0.00011345,0.00014035,-0.000
 15302,-0.00196248,0.00111629,0.00067830,0.00045492,-0.00062401,-0.0000
 8846,0.00052227,-0.00023630,-0.00052902,-0.00073595,0.00025211,0.00000
 454,-0.00032648,-0.00048048,0.00099297,0.00089724,-0.00112753,0.000598
 31,-0.00108195,-0.00194755,0.00075544,-0.00002998,0.00004392,0.0000361
 7,-0.00484054,0.00137575,0.03940568,0.00007833,-0.00122969,0.00138868,
 0.00458449,-0.00303322,0.00008245,0.00019063,0.00042333,0.00018531,-0.
 00004028,0.00000087,0.00004852,-0.00000107,0.00000054,0.00000373,0.000
 01006,0.00000866,-0.00000506,0.00000294,-0.00000350,-0.00000344,-0.000
 01586,0.00001204,-0.00000454,0.00000702,0.,0.00000254,0.00000018,-0.00
 000388,-0.00000129,-0.00000334,-0.00000145,0.00000155,-0.00002266,-0.0
 0004627,-0.00001025,0.00000228,0.00000254,0.00000282,0.00000336,0.0000
 0395,-0.00000016,0.00000371,0.00001194,-0.00000147,0.00026594,-0.00008
 291,0.00014917,-0.00003694,0.00000438,-0.00000962,-0.00001998,0.000066
 50,-0.00002026,-0.00004666,-0.00000121,0.00000629,0.00125749,0.0001958
 5,-0.00164059,-0.00003057,-0.00037033,0.00065846,-0.00064275,-0.000355
 61,0.00025468,-0.00031633,0.00009363,0.00048911,0.00139265,-0.08871304
 ,0.02908644,-0.00753035,-0.00204414,-0.05198465,0.00699138,0.01249136,
 -0.01397902,0.00019643,0.08422970,0.00006473,-0.00004356,-0.00001107,0
 .00010687,-0.00007864,-0.00001534,0.00031419,0.00024631,-0.00031067,0.
 00004691,-0.00007607,-0.00016983,0.00007729,0.00006901,0.00010563,-0.0
 0002458,0.00001447,0.00001881,-0.00005011,-0.00000308,-0.00000440,-0.0
 0000184,-0.00000892,0.00001123,0.00003887,-0.00004141,0.00005514,-0.00
 001753,-0.00001451,-0.00000791,-0.00031580,-0.00004961,0.00016916,-0.0
 0089184,-0.00011008,0.00021349,-0.00012060,0.00006346,0.00012326,-0.00
 013462,0.00005047,-0.00002384,-0.00011070,-0.00003298,-0.00005605,0.00
 070076,0.00035274,0.00014377,-0.00004545,-0.00000942,-0.00001632,0.000
 06579,-0.00012458,-0.00001485,-0.00038844,-0.00027725,0.00023716,0.002
 04612,-0.00105529,-0.00166627,-0.00053742,0.00073348,0.00026578,-0.000
 46225,0.00011942,0.00097566,0.00001863,0.00133621,0.00043096,-0.000413
 55,0.00039377,-0.00018667,0.00337015,-0.00164780,-0.00096744,0.0017624
 5,0.00074512,-0.00108218,-0.00011872,-0.00008494,0.00004513,0.00797945
 ,0.00608690,-0.03997831,-0.00192561,0.00064225,-0.00008223,-0.00513680
 ,0.00582296,-0.00053697,-0.00038975,-0.00070914,0.00040818,0.00004399,
 -0.00000317,-0.00012572,0.00001145,-0.00000048,0.00000988,-0.00001355,
 -0.00001049,0.00000935,-0.00000546,0.00000450,0.00001090,0.00002953,-0
 .00004595,0.00001390,-0.00001339,0.00000387,-0.00000686,-0.00000119,0.
 00000580,0.00000217,0.00000056,0.00001189,-0.00000128,0.00007524,0.000
 06494,0.00004335,-0.00000026,-0.00000660,-0.00000569,-0.00002097,-0.00
 000270,-0.00000104,0.00000313,-0.00000639,-0.00000183,0.00029595,-0.00
 001642,-0.00016944,-0.00006886,-0.00003035,0.00001876,0.00007438,0.000
 10784,-0.00011758,-0.00011567,0.00003063,0.00002998,-0.00150804,-0.000
 53940,0.00162130,0.00001138,0.00055032,-0.00085420,0.00075065,0.000483
 74,-0.00019059,0.00030402,0.00004840,-0.00049335,0.02360234,0.03637114
 ,-0.30618342,-0.01825108,-0.03514768,-0.06126440,0.04506150,-0.0076475
 0,-0.03261239,-0.05577225,-0.00653524,0.44219519\\0.00000412,-0.000002
 05,-0.00000206,0.00000119,-0.00000585,0.00000197,0.00000268,0.00000742
 ,-0.00000778,0.00000061,0.00000408,-0.00000174,-0.00000485,0.00000255,
 0.00000116,0.00000382,-0.00000022,-0.00000073,-0.00000256,0.00000201,-
 0.00000013,-0.00000224,-0.00000021,0.00000161,-0.00000275,-0.00000147,
 -0.00000039,0.00000108,-0.00000072,0.00000154,0.00000106,-0.00000692,0
 .00000379,-0.00000142,0.00000731,0.00000546,-0.00000883,0.00000125,0.0
 0000016,-0.00000174,-0.00000167,0.00000265,0.00000352,-0.00000323,0.00
 000285,-0.00000139,-0.00000048,-0.00000051,0.00000023,-0.00000284,0.00
 000260,-0.00000078,-0.00000020,0.00000124,0.00000097,-0.00000284,0.000
 00327,0.00001745,0.00000672,0.00000250,-0.00001083,-0.00001577,0.00000
 674,-0.00000714,0.00001028,-0.00001431,-0.00000048,-0.00000058,0.00000
 040,0.00000075,-0.00000623,-0.00000648,0.00000589,0.00000595,-0.000000
 21,-0.00000138,0.00000268,-0.00000458,0.00000070,0.00000043,-0.0000015
 0,0.00000077,-0.00000005,-0.00000299,-0.00000005,0.00000168,-0.0000025
 5,0.00000078,0.00000007,-0.00000148,0.00000014,0.00000050,-0.00000154,
 0.00000328,0.00000443,-0.00000247,-0.00000074,0.00000237,0.00000116,0.
 00000068,0.00000139,0.00000100,0.00000034,0.00000128,0.00000117,0.0000
 0147,-0.00000294,-0.00000127,-0.00000094,-0.00000130,0.00000184,-0.000
 00160,-0.00000184,-0.00000015,-0.00000077,-0.00000011,0.00000067,-0.00
 000230,-0.00000112,0.00000280,-0.00000134,-0.00000263,0.00000197,-0.00
 000049,-0.00000265,0.00000217,-0.00000049,-0.00000239,0.00000280,-0.00
 000040,0.00000045,0.00000137,0.00000108,0.00000034,0.00000340,0.000001
 28,0.00000114,0.00000176,0.00000131,0.00000036,0.00000243,-0.00000232,
 -0.00000007,0.00000033,-0.00000149,-0.00000102,-0.00000346,0.00000245,
 -0.00000028,-0.00000407,-0.00000112,-0.00000230,-0.00000277,0.00000059
 ,0.00000283,-0.00000033,0.00000218,-0.00000051,0.00000018,-0.00000036,
 0.00000083,-0.00000276,0.00000039,0.00000215,0.00000328\\\@


 IF YOU PERCEIVE THAT THERE ARE FOUR POSSIBLE WAYS IN
 WHICH A PROCEDURE CAN GO WRONG AND CIRCUMVENT THESE, 
 THEN A FIFTH WAY WILL DEVELOP.

                              -- MURPHY'S TWELFTH LAW
 Job cpu time:       0 days 23 hours 10 minutes 53.4 seconds.
 Elapsed time:       0 days  0 hours 45 minutes 31.6 seconds.
 File lengths (MBytes):  RWF=   2321 Int=      0 D2E=      0 Chk=     41 Scr=      1
 Normal termination of Gaussian 16 at Sat Jun 15 08:49:48 2019.
