 Entering Gaussian System, Link 0=g16
 Input=clay_new-glu_gluC6-BCDR-Na2_1Me2O-bisCF3-ts-b1b95-custom-pcm_thf.gjf
 Output=clay_new-glu_gluC6-BCDR-Na2_1Me2O-bisCF3-ts-b1b95-custom-pcm_thf.out
 Initial command:
 /n/sw/g16_nehalem/g16/l1.exe "/scratch/Gau-37001.inp" -scrdir="/scratch/"
 Entering Link 1 = /n/sw/g16_nehalem/g16/l1.exe PID=     37002.
  
 Copyright (c) 1988,1990,1992,1993,1995,1998,2003,2009,2016,
            Gaussian, Inc.  All Rights Reserved.
  
 This is part of the Gaussian(R) 16 program.  It is based on
 the Gaussian(R) 09 system (copyright 2009, Gaussian, Inc.),
 the Gaussian(R) 03 system (copyright 2003, Gaussian, Inc.),
 the Gaussian(R) 98 system (copyright 1998, Gaussian, Inc.),
 the Gaussian(R) 94 system (copyright 1995, Gaussian, Inc.),
 the Gaussian 92(TM) system (copyright 1992, Gaussian, Inc.),
 the Gaussian 90(TM) system (copyright 1990, Gaussian, Inc.),
 the Gaussian 88(TM) system (copyright 1988, Gaussian, Inc.),
 the Gaussian 86(TM) system (copyright 1986, Carnegie Mellon
 University), and the Gaussian 82(TM) system (copyright 1983,
 Carnegie Mellon University). Gaussian is a federally registered
 trademark of Gaussian, Inc.
  
 This software contains proprietary and confidential information,
 including trade secrets, belonging to Gaussian, Inc.
  
 This software is provided under written license and may be
 used, copied, transmitted, or stored only in accord with that
 written license.
  
 The following legend is applicable only to US Government
 contracts under FAR:
  
                    RESTRICTED RIGHTS LEGEND
  
 Use, reproduction and disclosure by the US Government is
 subject to restrictions as set forth in subparagraphs (a)
 and (c) of the Commercial Computer Software - Restricted
 Rights clause in FAR 52.227-19.
  
 Gaussian, Inc.
 340 Quinnipiac St., Bldg. 40, Wallingford CT 06492
  
  
 ---------------------------------------------------------------
 Warning -- This program may not be used in any manner that
 competes with the business of Gaussian, Inc. or will provide
 assistance to any competitor of Gaussian, Inc.  The licensee
 of this program is prohibited from giving any competitor of
 Gaussian, Inc. access to this program.  By using this program,
 the user acknowledges that Gaussian, Inc. is engaged in the
 business of creating and licensing software in the field of
 computational chemistry and represents and warrants to the
 licensee that it is not a competitor of Gaussian, Inc. and that
 it will not use this program in any manner prohibited above.
 ---------------------------------------------------------------
  

 Cite this work as:
 Gaussian 16, Revision A.03,
 M. J. Frisch, G. W. Trucks, H. B. Schlegel, G. E. Scuseria, 
 M. A. Robb, J. R. Cheeseman, G. Scalmani, V. Barone, 
 G. A. Petersson, H. Nakatsuji, X. Li, M. Caricato, A. V. Marenich, 
 J. Bloino, B. G. Janesko, R. Gomperts, B. Mennucci, H. P. Hratchian, 
 J. V. Ortiz, A. F. Izmaylov, J. L. Sonnenberg, D. Williams-Young, 
 F. Ding, F. Lipparini, F. Egidi, J. Goings, B. Peng, A. Petrone, 
 T. Henderson, D. Ranasinghe, V. G. Zakrzewski, J. Gao, N. Rega, 
 G. Zheng, W. Liang, M. Hada, M. Ehara, K. Toyota, R. Fukuda, 
 J. Hasegawa, M. Ishida, T. Nakajima, Y. Honda, O. Kitao, H. Nakai, 
 T. Vreven, K. Throssell, J. A. Montgomery, Jr., J. E. Peralta, 
 F. Ogliaro, M. J. Bearpark, J. J. Heyd, E. N. Brothers, K. N. Kudin, 
 V. N. Staroverov, T. A. Keith, R. Kobayashi, J. Normand, 
 K. Raghavachari, A. P. Rendell, J. C. Burant, S. S. Iyengar, 
 J. Tomasi, M. Cossi, J. M. Millam, M. Klene, C. Adamo, R. Cammi, 
 J. W. Ochterski, R. L. Martin, K. Morokuma, O. Farkas, 
 J. B. Foresman, and D. J. Fox, Gaussian, Inc., Wallingford CT, 2016.
 
 ******************************************
 Gaussian 16:  ES64L-G16RevA.03 25-Dec-2016
                17-Jun-2019 
 ******************************************
 %nprocshared=36
 Will use up to   36 processors via shared memory.
 %mem=96GB
 ----------------------------------------------------------------------
 #p opt=(calcfc,ts,noeigentest,maxstep=1) freq=noraman 6-31g(d) scrf=(s
 olvent=tetrahydrofuran,pcm) pop=none b1b95 extrabasis
 ----------------------------------------------------------------------
 1/5=1,8=1,10=4,11=1,18=20,26=3,38=1/1,3;
 2/9=110,12=2,17=6,18=5,40=1/2;
 3/5=1,6=6,7=1,10=1,11=2,25=1,30=1,70=2201,71=2,72=20,74=-17,140=1/1,2,3;
 4//1;
 5/5=2,38=5,53=20/2;
 8/6=4,10=90,11=11/1;
 11/6=1,8=1,9=11,15=111,16=1/1,2,10;
 10/6=1,13=1/2;
 7/10=1,18=20,25=1/1,2,3,16;
 1/5=1,8=1,10=4,11=1,18=20,26=3/3(2);
 2/9=110/2;
 99//99;
 2/9=110/2;
 3/5=7,6=1,7=1,11=2,25=1,30=1,70=2205,71=1,72=20,74=-17,82=7/1,2,3;
 4/5=5,16=3,69=1/1;
 5/5=2,38=5,53=20/2;
 7//1,2,3,16;
 1/5=1,8=1,11=1,18=20,26=3/3(-5);
 2/9=110/2;
 99/9=1/99;
 Leave Link    1 at Mon Jun 17 15:21:04 2019, MaxMem= 12884901888 cpu:               3.3 elap:               0.1
 (Enter /n/sw/g16_nehalem/g16/l101.exe)
 -----
 title
 -----
 Symbolic Z-matrix:
 Charge =  0 Multiplicity = 1
 C                    -1.32391   1.69965   2.65389 
 C                    -1.85704   2.31629   1.36878 
 C                    -1.0651    3.57439   1.03554 
 C                     0.90504   2.75987   2.11107 
 C                     0.17909   1.48907   2.53967 
 H                    -1.36257   3.96895   0.05602 
 H                    -1.69663   1.60908   0.54417 
 H                    -1.53508   2.38853   3.48136 
 H                     0.79729   3.50695   2.90777 
 H                     0.34486   0.71544   1.77957 
 O                     0.30594   3.26861   0.90901 
 O                    -1.30381   4.51356   2.03227 
 O                    -3.21737   2.66334   1.46171 
 O                    -1.98162   0.46482   2.86677 
 O                     0.68675   1.05495   3.787 
 C                     2.38861   2.54349   1.80811 
 H                     2.8397    2.19564   2.75802 
 H                     2.80584   3.55998   1.64299 
 O                     2.62864   1.70954   0.74555 
 C                    -4.09837   1.67464   0.97358 
 H                    -3.87281   1.42228  -0.07173 
 H                    -4.05276   0.76341   1.57298 
 H                    -5.10322   2.09694   1.02241 
 C                    -2.29618   0.21349   4.22015 
 H                    -1.40221   0.22694   4.84856 
 H                    -3.01063   0.95337   4.60306 
 H                    -2.75567  -0.7731    4.25855 
 C                     1.45488  -0.12427   3.70198 
 H                     0.83861  -0.97622   3.38693 
 H                     2.28691  -0.0189    2.99805 
 H                     1.85028  -0.32089   4.69998 
 C                     3.68196  -1.75064  -1.42866 
 C                     3.15828  -0.39337  -0.97712 
 C                     1.91262  -0.53461  -0.17456 
 C                     2.3691   -2.79734   0.4446 
 C                     3.74157  -2.64284  -0.19528 
 H                     1.23206   0.29315  -0.07876 
 H                     3.85915   0.04344  -0.24631 
 H                     2.99727  -2.17188  -2.17357 
 H                     1.71707  -3.35788  -0.22937 
 H                     4.42621  -2.18788   0.52808 
 O                     1.69522  -1.51134   0.61784 
 O                    -0.57155  -0.19251  -3.75131 
 O                     2.93177   0.53131  -2.00498 
 O                     4.97103  -1.588    -1.96493 
 O                     4.17095  -3.93832  -0.53697 
 C                     2.39235  -3.46526   1.79419 
 H                     2.68325  -4.51432   1.64657 
 H                     1.38019  -3.45113   2.22168 
 O                     3.30179  -2.79242   2.61988 
 S                    -0.40352  -0.26313  -2.29621 
 O                    -0.23417   1.05204  -1.62882 
 O                     0.64228  -1.23729  -1.85302 
 C                    -1.93202  -0.91979  -1.63803 
 C                    -3.08005  -0.88898  -2.4112 
 C                    -1.94638  -1.43784  -0.34722 
 C                    -4.26663  -1.3846   -1.87797 
 H                    -3.04131  -0.49944  -3.42085 
 C                    -3.13327  -1.93917   0.16155 
 H                    -1.03926  -1.47201   0.24359 
 C                    -4.2995   -1.91348  -0.5975 
 H                    -5.22182  -2.31611  -0.19723 
 C                     4.06525   1.35319  -2.27325 
 H                     4.31273   1.94831  -1.38708 
 H                     4.92301   0.74855  -2.56699 
 H                     3.77858   2.00967  -3.09401 
 C                     5.23052  -2.40182  -3.09424 
 H                     5.12854  -3.46265  -2.85327 
 H                     4.55562  -2.15358  -3.92108 
 H                     6.25657  -2.19458  -3.39765 
 C                     5.37032  -4.32434   0.10891 
 H                     6.20402  -3.68505  -0.1989 
 H                     5.26341  -4.27727   1.19842 
 H                     5.57234  -5.35216  -0.19093 
 C                     3.3226   -3.31982   3.92699 
 H                     4.05465  -2.74549   4.49331 
 H                     2.34063  -3.22643   4.40696 
 H                     3.61483  -4.37718   3.92565 
 C                    -0.73333   5.77678   1.75611 
 H                    -1.06634   6.45384   2.54172 
 H                     0.36005   5.73127   1.75516 
 H                    -1.07386   6.15515   0.7845 
 Na                    1.47339   2.50802  -1.05436 
 O                     2.25143   4.4194   -2.212 
 C                     1.88895   4.74514  -3.53737 
 H                     2.65898   4.41816  -4.24668 
 H                     0.95416   4.23114  -3.75833 
 H                     1.7425    5.82573  -3.64698 
 C                     3.46025   5.03932  -1.8281 
 H                     3.37163   6.13058  -1.87644 
 H                     3.67083   4.74034  -0.80149 
 H                     4.28691   4.72097  -2.47507 
 C                    -5.52649  -1.30635  -2.68831 
 F                    -6.13373  -0.11819  -2.5374 
 F                    -6.40937  -2.24737  -2.32716 
 F                    -5.28103  -1.45685  -3.99662 
 C                    -3.19012  -2.5436    1.53219 
 F                    -1.99931  -2.55177   2.13895 
 F                    -3.62441  -3.81429   1.48113 
 F                    -4.0501   -1.88116   2.32429 
 
 Add virtual bond connecting atoms H37        and H10        Dist= 3.97D+00.
 Add virtual bond connecting atoms H37        and O19        Dist= 4.07D+00.
 Add virtual bond connecting atoms O52        and H37        Dist= 4.28D+00.
 Add virtual bond connecting atoms O52        and Na83       Dist= 4.38D+00.
 Add virtual bond connecting atoms O53        and C34        Dist= 4.19D+00.
 Add virtual bond connecting atoms O84        and Na83       Dist= 4.47D+00.
 ITRead=  0  0  0  0  0  0  0  0  0  0  0  0  0  0  0  0  0  0  0  0
 ITRead=  0  0  0  0  0  0  0  0  0  0  0  0  0  0  0  0  0  0  0  0
 ITRead=  0  0  0  0  0  0  0  0  0  0  0  0  0  0  0  0  0  0  0  0
 ITRead=  0  0  0  0  0  0  0  0  0  0  0  0  0  0  0  0  0  0  0  0
 ITRead=  0  0  0  0  0  0  0  0  0  0  0  0  0  0  0  0  0  0  0  0
 MicOpt= -1 -1 -1 -1 -1 -1 -1 -1 -1 -1 -1 -1 -1 -1 -1 -1 -1 -1 -1 -1
 MicOpt= -1 -1 -1 -1 -1 -1 -1 -1 -1 -1 -1 -1 -1 -1 -1 -1 -1 -1 -1 -1
 MicOpt= -1 -1 -1 -1 -1 -1 -1 -1 -1 -1 -1 -1 -1 -1 -1 -1 -1 -1 -1 -1
 MicOpt= -1 -1 -1 -1 -1 -1 -1 -1 -1 -1 -1 -1 -1 -1 -1 -1 -1 -1 -1 -1
 MicOpt= -1 -1 -1 -1 -1 -1 -1 -1 -1 -1 -1 -1 -1 -1 -1 -1 -1 -1 -1 -1
 NAtoms=    100 NQM=      100 NQMF=       0 NMMI=      0 NMMIF=      0
                NMic=       0 NMicF=      0.
                    Isotopes and Nuclear Properties:
 (Nuclear quadrupole moments (NQMom) in fm**2, nuclear magnetic moments (NMagM)
  in nuclear magnetons)

  Atom         1           2           3           4           5           6           7           8           9          10
 IAtWgt=          12          12          12          12          12           1           1           1           1           1
 AtmWgt=  12.0000000  12.0000000  12.0000000  12.0000000  12.0000000   1.0078250   1.0078250   1.0078250   1.0078250   1.0078250
 NucSpn=           0           0           0           0           0           1           1           1           1           1
 AtZEff=   0.0000000   0.0000000   0.0000000   0.0000000   0.0000000   0.0000000   0.0000000   0.0000000   0.0000000   0.0000000
 NQMom=    0.0000000   0.0000000   0.0000000   0.0000000   0.0000000   0.0000000   0.0000000   0.0000000   0.0000000   0.0000000
 NMagM=    0.0000000   0.0000000   0.0000000   0.0000000   0.0000000   2.7928460   2.7928460   2.7928460   2.7928460   2.7928460
 AtZNuc=   6.0000000   6.0000000   6.0000000   6.0000000   6.0000000   1.0000000   1.0000000   1.0000000   1.0000000   1.0000000

  Atom        11          12          13          14          15          16          17          18          19          20
 IAtWgt=          16          16          16          16          16          12           1           1          16          12
 AtmWgt=  15.9949146  15.9949146  15.9949146  15.9949146  15.9949146  12.0000000   1.0078250   1.0078250  15.9949146  12.0000000
 NucSpn=           0           0           0           0           0           0           1           1           0           0
 AtZEff=   0.0000000   0.0000000   0.0000000   0.0000000   0.0000000   0.0000000   0.0000000   0.0000000   0.0000000   0.0000000
 NQMom=    0.0000000   0.0000000   0.0000000   0.0000000   0.0000000   0.0000000   0.0000000   0.0000000   0.0000000   0.0000000
 NMagM=    0.0000000   0.0000000   0.0000000   0.0000000   0.0000000   0.0000000   2.7928460   2.7928460   0.0000000   0.0000000
 AtZNuc=   8.0000000   8.0000000   8.0000000   8.0000000   8.0000000   6.0000000   1.0000000   1.0000000   8.0000000   6.0000000

  Atom        21          22          23          24          25          26          27          28          29          30
 IAtWgt=           1           1           1          12           1           1           1          12           1           1
 AtmWgt=   1.0078250   1.0078250   1.0078250  12.0000000   1.0078250   1.0078250   1.0078250  12.0000000   1.0078250   1.0078250
 NucSpn=           1           1           1           0           1           1           1           0           1           1
 AtZEff=   0.0000000   0.0000000   0.0000000   0.0000000   0.0000000   0.0000000   0.0000000   0.0000000   0.0000000   0.0000000
 NQMom=    0.0000000   0.0000000   0.0000000   0.0000000   0.0000000   0.0000000   0.0000000   0.0000000   0.0000000   0.0000000
 NMagM=    2.7928460   2.7928460   2.7928460   0.0000000   2.7928460   2.7928460   2.7928460   0.0000000   2.7928460   2.7928460
 AtZNuc=   1.0000000   1.0000000   1.0000000   6.0000000   1.0000000   1.0000000   1.0000000   6.0000000   1.0000000   1.0000000

  Atom        31          32          33          34          35          36          37          38          39          40
 IAtWgt=           1          12          12          12          12          12           1           1           1           1
 AtmWgt=   1.0078250  12.0000000  12.0000000  12.0000000  12.0000000  12.0000000   1.0078250   1.0078250   1.0078250   1.0078250
 NucSpn=           1           0           0           0           0           0           1           1           1           1
 AtZEff=   0.0000000   0.0000000   0.0000000   0.0000000   0.0000000   0.0000000   0.0000000   0.0000000   0.0000000   0.0000000
 NQMom=    0.0000000   0.0000000   0.0000000   0.0000000   0.0000000   0.0000000   0.0000000   0.0000000   0.0000000   0.0000000
 NMagM=    2.7928460   0.0000000   0.0000000   0.0000000   0.0000000   0.0000000   2.7928460   2.7928460   2.7928460   2.7928460
 AtZNuc=   1.0000000   6.0000000   6.0000000   6.0000000   6.0000000   6.0000000   1.0000000   1.0000000   1.0000000   1.0000000

  Atom        41          42          43          44          45          46          47          48          49          50
 IAtWgt=           1          16          16          16          16          16          12           1           1          16
 AtmWgt=   1.0078250  15.9949146  15.9949146  15.9949146  15.9949146  15.9949146  12.0000000   1.0078250   1.0078250  15.9949146
 NucSpn=           1           0           0           0           0           0           0           1           1           0
 AtZEff=   0.0000000   0.0000000   0.0000000   0.0000000   0.0000000   0.0000000   0.0000000   0.0000000   0.0000000   0.0000000
 NQMom=    0.0000000   0.0000000   0.0000000   0.0000000   0.0000000   0.0000000   0.0000000   0.0000000   0.0000000   0.0000000
 NMagM=    2.7928460   0.0000000   0.0000000   0.0000000   0.0000000   0.0000000   0.0000000   2.7928460   2.7928460   0.0000000
 AtZNuc=   1.0000000   8.0000000   8.0000000   8.0000000   8.0000000   8.0000000   6.0000000   1.0000000   1.0000000   8.0000000

  Atom        51          52          53          54          55          56          57          58          59          60
 IAtWgt=          32          16          16          12          12          12          12           1          12           1
 AtmWgt=  31.9720718  15.9949146  15.9949146  12.0000000  12.0000000  12.0000000  12.0000000   1.0078250  12.0000000   1.0078250
 NucSpn=           0           0           0           0           0           0           0           1           0           1
 AtZEff=   0.0000000   0.0000000   0.0000000   0.0000000   0.0000000   0.0000000   0.0000000   0.0000000   0.0000000   0.0000000
 NQMom=    0.0000000   0.0000000   0.0000000   0.0000000   0.0000000   0.0000000   0.0000000   0.0000000   0.0000000   0.0000000
 NMagM=    0.0000000   0.0000000   0.0000000   0.0000000   0.0000000   0.0000000   0.0000000   2.7928460   0.0000000   2.7928460
 AtZNuc=  16.0000000   8.0000000   8.0000000   6.0000000   6.0000000   6.0000000   6.0000000   1.0000000   6.0000000   1.0000000

  Atom        61          62          63          64          65          66          67          68          69          70
 IAtWgt=          12           1          12           1           1           1          12           1           1           1
 AtmWgt=  12.0000000   1.0078250  12.0000000   1.0078250   1.0078250   1.0078250  12.0000000   1.0078250   1.0078250   1.0078250
 NucSpn=           0           1           0           1           1           1           0           1           1           1
 AtZEff=   0.0000000   0.0000000   0.0000000   0.0000000   0.0000000   0.0000000   0.0000000   0.0000000   0.0000000   0.0000000
 NQMom=    0.0000000   0.0000000   0.0000000   0.0000000   0.0000000   0.0000000   0.0000000   0.0000000   0.0000000   0.0000000
 NMagM=    0.0000000   2.7928460   0.0000000   2.7928460   2.7928460   2.7928460   0.0000000   2.7928460   2.7928460   2.7928460
 AtZNuc=   6.0000000   1.0000000   6.0000000   1.0000000   1.0000000   1.0000000   6.0000000   1.0000000   1.0000000   1.0000000

  Atom        71          72          73          74          75          76          77          78          79          80
 IAtWgt=          12           1           1           1          12           1           1           1          12           1
 AtmWgt=  12.0000000   1.0078250   1.0078250   1.0078250  12.0000000   1.0078250   1.0078250   1.0078250  12.0000000   1.0078250
 NucSpn=           0           1           1           1           0           1           1           1           0           1
 AtZEff=   0.0000000   0.0000000   0.0000000   0.0000000   0.0000000   0.0000000   0.0000000   0.0000000   0.0000000   0.0000000
 NQMom=    0.0000000   0.0000000   0.0000000   0.0000000   0.0000000   0.0000000   0.0000000   0.0000000   0.0000000   0.0000000
 NMagM=    0.0000000   2.7928460   2.7928460   2.7928460   0.0000000   2.7928460   2.7928460   2.7928460   0.0000000   2.7928460
 AtZNuc=   6.0000000   1.0000000   1.0000000   1.0000000   6.0000000   1.0000000   1.0000000   1.0000000   6.0000000   1.0000000

  Atom        81          82          83          84          85          86          87          88          89          90
 IAtWgt=           1           1          23          16          12           1           1           1          12           1
 AtmWgt=   1.0078250   1.0078250  22.9897697  15.9949146  12.0000000   1.0078250   1.0078250   1.0078250  12.0000000   1.0078250
 NucSpn=           1           1           3           0           0           1           1           1           0           1
 AtZEff=   0.0000000   0.0000000   0.0000000   0.0000000   0.0000000   0.0000000   0.0000000   0.0000000   0.0000000   0.0000000
 NQMom=    0.0000000   0.0000000  10.4000000   0.0000000   0.0000000   0.0000000   0.0000000   0.0000000   0.0000000   0.0000000
 NMagM=    2.7928460   2.7928460   2.2175200   0.0000000   0.0000000   2.7928460   2.7928460   2.7928460   0.0000000   2.7928460
 AtZNuc=   1.0000000   1.0000000  11.0000000   8.0000000   6.0000000   1.0000000   1.0000000   1.0000000   6.0000000   1.0000000

  Atom        91          92          93          94          95          96          97          98          99         100
 IAtWgt=           1           1          12          19          19          19          12          19          19          19
 AtmWgt=   1.0078250   1.0078250  12.0000000  18.9984033  18.9984033  18.9984033  12.0000000  18.9984033  18.9984033  18.9984033
 NucSpn=           1           1           0           1           1           1           0           1           1           1
 AtZEff=   0.0000000   0.0000000   0.0000000   0.0000000   0.0000000   0.0000000   0.0000000   0.0000000   0.0000000   0.0000000
 NQMom=    0.0000000   0.0000000   0.0000000   0.0000000   0.0000000   0.0000000   0.0000000   0.0000000   0.0000000   0.0000000
 NMagM=    2.7928460   2.7928460   0.0000000   2.6288670   2.6288670   2.6288670   0.0000000   2.6288670   2.6288670   2.6288670
 AtZNuc=   1.0000000   1.0000000   6.0000000   9.0000000   9.0000000   9.0000000   6.0000000   9.0000000   9.0000000   9.0000000
 Leave Link  101 at Mon Jun 17 15:21:05 2019, MaxMem= 12884901888 cpu:              13.9 elap:               0.4
 (Enter /n/sw/g16_nehalem/g16/l103.exe)

 GradGradGradGradGradGradGradGradGradGradGradGradGradGradGradGradGradGrad
 Berny optimization.
 Initialization pass.
                           ----------------------------
                           !    Initial Parameters    !
                           ! (Angstroms and Degrees)  !
 --------------------------                            --------------------------
 ! Name  Definition              Value          Derivative Info.                !
 --------------------------------------------------------------------------------
 ! R1    R(1,2)                  1.5218         calculate D2E/DX2 analytically  !
 ! R2    R(1,5)                  1.522          calculate D2E/DX2 analytically  !
 ! R3    R(1,8)                  1.0972         calculate D2E/DX2 analytically  !
 ! R4    R(1,14)                 1.4152         calculate D2E/DX2 analytically  !
 ! R5    R(2,3)                  1.5235         calculate D2E/DX2 analytically  !
 ! R6    R(2,7)                  1.0981         calculate D2E/DX2 analytically  !
 ! R7    R(2,13)                 1.407          calculate D2E/DX2 analytically  !
 ! R8    R(3,6)                  1.0971         calculate D2E/DX2 analytically  !
 ! R9    R(3,11)                 1.4104         calculate D2E/DX2 analytically  !
 ! R10   R(3,12)                 1.3901         calculate D2E/DX2 analytically  !
 ! R11   R(4,5)                  1.525          calculate D2E/DX2 analytically  !
 ! R12   R(4,9)                  1.0975         calculate D2E/DX2 analytically  !
 ! R13   R(4,11)                 1.4362         calculate D2E/DX2 analytically  !
 ! R14   R(4,16)                 1.5296         calculate D2E/DX2 analytically  !
 ! R15   R(5,10)                 1.0972         calculate D2E/DX2 analytically  !
 ! R16   R(5,15)                 1.4149         calculate D2E/DX2 analytically  !
 ! R17   R(10,37)                2.1021         calculate D2E/DX2 analytically  !
 ! R18   R(12,79)                1.4133         calculate D2E/DX2 analytically  !
 ! R19   R(13,20)                1.4114         calculate D2E/DX2 analytically  !
 ! R20   R(14,24)                1.412          calculate D2E/DX2 analytically  !
 ! R21   R(15,28)                1.4099         calculate D2E/DX2 analytically  !
 ! R22   R(16,17)                1.1076         calculate D2E/DX2 analytically  !
 ! R23   R(16,18)                1.1111         calculate D2E/DX2 analytically  !
 ! R24   R(16,19)                1.3719         calculate D2E/DX2 analytically  !
 ! R25   R(19,37)                2.1532         calculate D2E/DX2 analytically  !
 ! R26   R(19,83)                2.2829         calculate D2E/DX2 analytically  !
 ! R27   R(20,21)                1.0987         calculate D2E/DX2 analytically  !
 ! R28   R(20,22)                1.0917         calculate D2E/DX2 analytically  !
 ! R29   R(20,23)                1.0911         calculate D2E/DX2 analytically  !
 ! R30   R(24,25)                1.0928         calculate D2E/DX2 analytically  !
 ! R31   R(24,26)                1.0975         calculate D2E/DX2 analytically  !
 ! R32   R(24,27)                1.089          calculate D2E/DX2 analytically  !
 ! R33   R(28,29)                1.0977         calculate D2E/DX2 analytically  !
 ! R34   R(28,30)                1.0949         calculate D2E/DX2 analytically  !
 ! R35   R(28,31)                1.0913         calculate D2E/DX2 analytically  !
 ! R36   R(32,33)                1.5233         calculate D2E/DX2 analytically  !
 ! R37   R(32,36)                1.5234         calculate D2E/DX2 analytically  !
 ! R38   R(32,39)                1.096          calculate D2E/DX2 analytically  !
 ! R39   R(32,45)                1.4056         calculate D2E/DX2 analytically  !
 ! R40   R(33,34)                1.4885         calculate D2E/DX2 analytically  !
 ! R41   R(33,38)                1.1028         calculate D2E/DX2 analytically  !
 ! R42   R(33,44)                1.401          calculate D2E/DX2 analytically  !
 ! R43   R(34,37)                1.0759         calculate D2E/DX2 analytically  !
 ! R44   R(34,42)                1.2764         calculate D2E/DX2 analytically  !
 ! R45   R(34,53)                2.2192         calculate D2E/DX2 analytically  !
 ! R46   R(35,36)                1.5222         calculate D2E/DX2 analytically  !
 ! R47   R(35,40)                1.0925         calculate D2E/DX2 analytically  !
 ! R48   R(35,42)                1.4622         calculate D2E/DX2 analytically  !
 ! R49   R(35,47)                1.506          calculate D2E/DX2 analytically  !
 ! R50   R(36,41)                1.095          calculate D2E/DX2 analytically  !
 ! R51   R(36,46)                1.4069         calculate D2E/DX2 analytically  !
 ! R52   R(37,52)                2.2646         calculate D2E/DX2 analytically  !
 ! R53   R(43,51)                1.4665         calculate D2E/DX2 analytically  !
 ! R54   R(44,63)                1.4256         calculate D2E/DX2 analytically  !
 ! R55   R(45,67)                1.416          calculate D2E/DX2 analytically  !
 ! R56   R(46,71)                1.4159         calculate D2E/DX2 analytically  !
 ! R57   R(47,48)                1.0986         calculate D2E/DX2 analytically  !
 ! R58   R(47,49)                1.0988         calculate D2E/DX2 analytically  !
 ! R59   R(47,50)                1.4006         calculate D2E/DX2 analytically  !
 ! R60   R(50,75)                1.4097         calculate D2E/DX2 analytically  !
 ! R61   R(51,52)                1.4845         calculate D2E/DX2 analytically  !
 ! R62   R(51,53)                1.4964         calculate D2E/DX2 analytically  !
 ! R63   R(51,54)                1.789          calculate D2E/DX2 analytically  !
 ! R64   R(52,83)                2.3164         calculate D2E/DX2 analytically  !
 ! R65   R(54,55)                1.3845         calculate D2E/DX2 analytically  !
 ! R66   R(54,56)                1.391          calculate D2E/DX2 analytically  !
 ! R67   R(55,57)                1.3921         calculate D2E/DX2 analytically  !
 ! R68   R(55,58)                1.0829         calculate D2E/DX2 analytically  !
 ! R69   R(56,59)                1.3852         calculate D2E/DX2 analytically  !
 ! R70   R(56,60)                1.0831         calculate D2E/DX2 analytically  !
 ! R71   R(57,61)                1.3858         calculate D2E/DX2 analytically  !
 ! R72   R(57,93)                1.5            calculate D2E/DX2 analytically  !
 ! R73   R(59,61)                1.3917         calculate D2E/DX2 analytically  !
 ! R74   R(59,97)                1.4991         calculate D2E/DX2 analytically  !
 ! R75   R(61,62)                1.083          calculate D2E/DX2 analytically  !
 ! R76   R(63,64)                1.0958         calculate D2E/DX2 analytically  !
 ! R77   R(63,65)                1.0898         calculate D2E/DX2 analytically  !
 ! R78   R(63,66)                1.0894         calculate D2E/DX2 analytically  !
 ! R79   R(67,68)                1.0926         calculate D2E/DX2 analytically  !
 ! R80   R(67,69)                1.0958         calculate D2E/DX2 analytically  !
 ! R81   R(67,70)                1.0899         calculate D2E/DX2 analytically  !
 ! R82   R(71,72)                1.0948         calculate D2E/DX2 analytically  !
 ! R83   R(71,73)                1.0957         calculate D2E/DX2 analytically  !
 ! R84   R(71,74)                1.0896         calculate D2E/DX2 analytically  !
 ! R85   R(75,76)                1.0892         calculate D2E/DX2 analytically  !
 ! R86   R(75,77)                1.097          calculate D2E/DX2 analytically  !
 ! R87   R(75,78)                1.097          calculate D2E/DX2 analytically  !
 ! R88   R(79,80)                1.0893         calculate D2E/DX2 analytically  !
 ! R89   R(79,81)                1.0943         calculate D2E/DX2 analytically  !
 ! R90   R(79,82)                1.0969         calculate D2E/DX2 analytically  !
 ! R91   R(83,84)                2.3662         calculate D2E/DX2 analytically  !
 ! R92   R(84,85)                1.4121         calculate D2E/DX2 analytically  !
 ! R93   R(84,89)                1.4117         calculate D2E/DX2 analytically  !
 ! R94   R(85,86)                1.0968         calculate D2E/DX2 analytically  !
 ! R95   R(85,87)                1.0894         calculate D2E/DX2 analytically  !
 ! R96   R(85,88)                1.096          calculate D2E/DX2 analytically  !
 ! R97   R(89,90)                1.0959         calculate D2E/DX2 analytically  !
 ! R98   R(89,91)                1.0898         calculate D2E/DX2 analytically  !
 ! R99   R(89,92)                1.0969         calculate D2E/DX2 analytically  !
 ! R100  R(93,94)                1.3428         calculate D2E/DX2 analytically  !
 ! R101  R(93,95)                1.3399         calculate D2E/DX2 analytically  !
 ! R102  R(93,96)                1.3396         calculate D2E/DX2 analytically  !
 ! R103  R(97,98)                1.3365         calculate D2E/DX2 analytically  !
 ! R104  R(97,99)                1.3438         calculate D2E/DX2 analytically  !
 ! R105  R(97,100)               1.3438         calculate D2E/DX2 analytically  !
 ! A1    A(2,1,5)              109.7943         calculate D2E/DX2 analytically  !
 ! A2    A(2,1,8)              108.3626         calculate D2E/DX2 analytically  !
 ! A3    A(2,1,14)             108.5281         calculate D2E/DX2 analytically  !
 ! A4    A(5,1,8)              109.4831         calculate D2E/DX2 analytically  !
 ! A5    A(5,1,14)             110.4584         calculate D2E/DX2 analytically  !
 ! A6    A(8,1,14)             110.1783         calculate D2E/DX2 analytically  !
 ! A7    A(1,2,3)              109.707          calculate D2E/DX2 analytically  !
 ! A8    A(1,2,7)              108.7838         calculate D2E/DX2 analytically  !
 ! A9    A(1,2,13)             112.5119         calculate D2E/DX2 analytically  !
 ! A10   A(3,2,7)              106.9569         calculate D2E/DX2 analytically  !
 ! A11   A(3,2,13)             108.2604         calculate D2E/DX2 analytically  !
 ! A12   A(7,2,13)             110.4684         calculate D2E/DX2 analytically  !
 ! A13   A(2,3,6)              110.5684         calculate D2E/DX2 analytically  !
 ! A14   A(2,3,11)             110.2363         calculate D2E/DX2 analytically  !
 ! A15   A(2,3,12)             108.1688         calculate D2E/DX2 analytically  !
 ! A16   A(6,3,11)             105.1561         calculate D2E/DX2 analytically  !
 ! A17   A(6,3,12)             110.5255         calculate D2E/DX2 analytically  !
 ! A18   A(11,3,12)            112.1926         calculate D2E/DX2 analytically  !
 ! A19   A(5,4,9)              108.4508         calculate D2E/DX2 analytically  !
 ! A20   A(5,4,11)             109.3804         calculate D2E/DX2 analytically  !
 ! A21   A(5,4,16)             113.5473         calculate D2E/DX2 analytically  !
 ! A22   A(9,4,11)             108.9953         calculate D2E/DX2 analytically  !
 ! A23   A(9,4,16)             109.5914         calculate D2E/DX2 analytically  !
 ! A24   A(11,4,16)            106.7939         calculate D2E/DX2 analytically  !
 ! A25   A(1,5,4)              112.0796         calculate D2E/DX2 analytically  !
 ! A26   A(1,5,10)             107.3829         calculate D2E/DX2 analytically  !
 ! A27   A(1,5,15)             109.3062         calculate D2E/DX2 analytically  !
 ! A28   A(4,5,10)             108.7211         calculate D2E/DX2 analytically  !
 ! A29   A(4,5,15)             109.4289         calculate D2E/DX2 analytically  !
 ! A30   A(10,5,15)            109.8874         calculate D2E/DX2 analytically  !
 ! A31   A(5,10,37)            144.872          calculate D2E/DX2 analytically  !
 ! A32   A(3,11,4)             114.0297         calculate D2E/DX2 analytically  !
 ! A33   A(3,12,79)            113.2306         calculate D2E/DX2 analytically  !
 ! A34   A(2,13,20)            114.0719         calculate D2E/DX2 analytically  !
 ! A35   A(1,14,24)            113.7678         calculate D2E/DX2 analytically  !
 ! A36   A(5,15,28)            113.5117         calculate D2E/DX2 analytically  !
 ! A37   A(4,16,17)            105.6386         calculate D2E/DX2 analytically  !
 ! A38   A(4,16,18)            105.3214         calculate D2E/DX2 analytically  !
 ! A39   A(4,16,19)            114.1479         calculate D2E/DX2 analytically  !
 ! A40   A(17,16,18)           105.1791         calculate D2E/DX2 analytically  !
 ! A41   A(17,16,19)           113.7079         calculate D2E/DX2 analytically  !
 ! A42   A(18,16,19)           112.0433         calculate D2E/DX2 analytically  !
 ! A43   A(16,19,37)           125.6556         calculate D2E/DX2 analytically  !
 ! A44   A(16,19,83)           108.0289         calculate D2E/DX2 analytically  !
 ! A45   A(37,19,83)            66.4231         calculate D2E/DX2 analytically  !
 ! A46   A(13,20,21)           111.2101         calculate D2E/DX2 analytically  !
 ! A47   A(13,20,22)           111.6394         calculate D2E/DX2 analytically  !
 ! A48   A(13,20,23)           106.7542         calculate D2E/DX2 analytically  !
 ! A49   A(21,20,22)           108.7886         calculate D2E/DX2 analytically  !
 ! A50   A(21,20,23)           108.6961         calculate D2E/DX2 analytically  !
 ! A51   A(22,20,23)           109.6933         calculate D2E/DX2 analytically  !
 ! A52   A(14,24,25)           111.5144         calculate D2E/DX2 analytically  !
 ! A53   A(14,24,26)           111.0654         calculate D2E/DX2 analytically  !
 ! A54   A(14,24,27)           106.8008         calculate D2E/DX2 analytically  !
 ! A55   A(25,24,26)           108.8812         calculate D2E/DX2 analytically  !
 ! A56   A(25,24,27)           109.6356         calculate D2E/DX2 analytically  !
 ! A57   A(26,24,27)           108.8908         calculate D2E/DX2 analytically  !
 ! A58   A(15,28,29)           111.1363         calculate D2E/DX2 analytically  !
 ! A59   A(15,28,30)           111.856          calculate D2E/DX2 analytically  !
 ! A60   A(15,28,31)           107.0335         calculate D2E/DX2 analytically  !
 ! A61   A(29,28,30)           108.4697         calculate D2E/DX2 analytically  !
 ! A62   A(29,28,31)           109.029          calculate D2E/DX2 analytically  !
 ! A63   A(30,28,31)           109.2653         calculate D2E/DX2 analytically  !
 ! A64   A(33,32,36)           107.1757         calculate D2E/DX2 analytically  !
 ! A65   A(33,32,39)           109.2186         calculate D2E/DX2 analytically  !
 ! A66   A(33,32,45)           108.9828         calculate D2E/DX2 analytically  !
 ! A67   A(36,32,39)           110.4645         calculate D2E/DX2 analytically  !
 ! A68   A(36,32,45)           109.9233         calculate D2E/DX2 analytically  !
 ! A69   A(39,32,45)           110.9834         calculate D2E/DX2 analytically  !
 ! A70   A(32,33,34)           111.2827         calculate D2E/DX2 analytically  !
 ! A71   A(32,33,38)           109.3226         calculate D2E/DX2 analytically  !
 ! A72   A(32,33,44)           115.2264         calculate D2E/DX2 analytically  !
 ! A73   A(34,33,38)           102.2474         calculate D2E/DX2 analytically  !
 ! A74   A(34,33,44)           108.8379         calculate D2E/DX2 analytically  !
 ! A75   A(38,33,44)           109.1184         calculate D2E/DX2 analytically  !
 ! A76   A(33,34,37)           120.2882         calculate D2E/DX2 analytically  !
 ! A77   A(33,34,42)           123.3579         calculate D2E/DX2 analytically  !
 ! A78   A(33,34,53)            95.8138         calculate D2E/DX2 analytically  !
 ! A79   A(37,34,42)           115.1971         calculate D2E/DX2 analytically  !
 ! A80   A(37,34,53)            87.0689         calculate D2E/DX2 analytically  !
 ! A81   A(42,34,53)            97.4549         calculate D2E/DX2 analytically  !
 ! A82   A(36,35,40)           109.3218         calculate D2E/DX2 analytically  !
 ! A83   A(36,35,42)           112.0915         calculate D2E/DX2 analytically  !
 ! A84   A(36,35,47)           114.0676         calculate D2E/DX2 analytically  !
 ! A85   A(40,35,42)           104.435          calculate D2E/DX2 analytically  !
 ! A86   A(40,35,47)           109.5413         calculate D2E/DX2 analytically  !
 ! A87   A(42,35,47)           106.9188         calculate D2E/DX2 analytically  !
 ! A88   A(32,36,35)           111.3772         calculate D2E/DX2 analytically  !
 ! A89   A(32,36,41)           108.4197         calculate D2E/DX2 analytically  !
 ! A90   A(32,36,46)           110.7684         calculate D2E/DX2 analytically  !
 ! A91   A(35,36,41)           109.1611         calculate D2E/DX2 analytically  !
 ! A92   A(35,36,46)           106.4877         calculate D2E/DX2 analytically  !
 ! A93   A(41,36,46)           110.6225         calculate D2E/DX2 analytically  !
 ! A94   A(10,37,19)            78.6479         calculate D2E/DX2 analytically  !
 ! A95   A(10,37,34)           120.0164         calculate D2E/DX2 analytically  !
 ! A96   A(10,37,52)           105.3379         calculate D2E/DX2 analytically  !
 ! A97   A(19,37,34)            97.4649         calculate D2E/DX2 analytically  !
 ! A98   A(19,37,52)           117.4873         calculate D2E/DX2 analytically  !
 ! A99   A(34,37,52)           127.3319         calculate D2E/DX2 analytically  !
 ! A100  A(34,42,35)           121.3981         calculate D2E/DX2 analytically  !
 ! A101  A(33,44,63)           112.9565         calculate D2E/DX2 analytically  !
 ! A102  A(32,45,67)           113.9443         calculate D2E/DX2 analytically  !
 ! A103  A(36,46,71)           113.5023         calculate D2E/DX2 analytically  !
 ! A104  A(35,47,48)           107.8889         calculate D2E/DX2 analytically  !
 ! A105  A(35,47,49)           109.1909         calculate D2E/DX2 analytically  !
 ! A106  A(35,47,50)           108.9819         calculate D2E/DX2 analytically  !
 ! A107  A(48,47,49)           107.9671         calculate D2E/DX2 analytically  !
 ! A108  A(48,47,50)           111.4704         calculate D2E/DX2 analytically  !
 ! A109  A(49,47,50)           111.2592         calculate D2E/DX2 analytically  !
 ! A110  A(47,50,75)           112.1176         calculate D2E/DX2 analytically  !
 ! A111  A(43,51,52)           114.6129         calculate D2E/DX2 analytically  !
 ! A112  A(43,51,53)           113.9109         calculate D2E/DX2 analytically  !
 ! A113  A(43,51,54)           106.5482         calculate D2E/DX2 analytically  !
 ! A114  A(52,51,53)           111.3386         calculate D2E/DX2 analytically  !
 ! A115  A(52,51,54)           104.9065         calculate D2E/DX2 analytically  !
 ! A116  A(53,51,54)           104.43           calculate D2E/DX2 analytically  !
 ! A117  A(37,52,51)            94.8583         calculate D2E/DX2 analytically  !
 ! A118  A(37,52,83)            64.1257         calculate D2E/DX2 analytically  !
 ! A119  A(51,52,83)           138.8023         calculate D2E/DX2 analytically  !
 ! A120  A(34,53,51)           114.705          calculate D2E/DX2 analytically  !
 ! A121  A(51,54,55)           119.6595         calculate D2E/DX2 analytically  !
 ! A122  A(51,54,56)           119.1386         calculate D2E/DX2 analytically  !
 ! A123  A(55,54,56)           121.1968         calculate D2E/DX2 analytically  !
 ! A124  A(54,55,57)           119.0108         calculate D2E/DX2 analytically  !
 ! A125  A(54,55,58)           119.9362         calculate D2E/DX2 analytically  !
 ! A126  A(57,55,58)           121.044          calculate D2E/DX2 analytically  !
 ! A127  A(54,56,59)           118.9777         calculate D2E/DX2 analytically  !
 ! A128  A(54,56,60)           120.6181         calculate D2E/DX2 analytically  !
 ! A129  A(59,56,60)           120.3872         calculate D2E/DX2 analytically  !
 ! A130  A(55,57,61)           120.6654         calculate D2E/DX2 analytically  !
 ! A131  A(55,57,93)           119.3669         calculate D2E/DX2 analytically  !
 ! A132  A(61,57,93)           119.9444         calculate D2E/DX2 analytically  !
 ! A133  A(56,59,61)           120.7298         calculate D2E/DX2 analytically  !
 ! A134  A(56,59,97)           120.9456         calculate D2E/DX2 analytically  !
 ! A135  A(61,59,97)           118.3165         calculate D2E/DX2 analytically  !
 ! A136  A(57,61,59)           119.4143         calculate D2E/DX2 analytically  !
 ! A137  A(57,61,62)           120.2365         calculate D2E/DX2 analytically  !
 ! A138  A(59,61,62)           120.3434         calculate D2E/DX2 analytically  !
 ! A139  A(44,63,64)           109.908          calculate D2E/DX2 analytically  !
 ! A140  A(44,63,65)           110.8959         calculate D2E/DX2 analytically  !
 ! A141  A(44,63,66)           106.2586         calculate D2E/DX2 analytically  !
 ! A142  A(64,63,65)           109.971          calculate D2E/DX2 analytically  !
 ! A143  A(64,63,66)           109.9649         calculate D2E/DX2 analytically  !
 ! A144  A(65,63,66)           109.7786         calculate D2E/DX2 analytically  !
 ! A145  A(45,67,68)           111.4087         calculate D2E/DX2 analytically  !
 ! A146  A(45,67,69)           111.0221         calculate D2E/DX2 analytically  !
 ! A147  A(45,67,70)           106.5752         calculate D2E/DX2 analytically  !
 ! A148  A(68,67,69)           109.2007         calculate D2E/DX2 analytically  !
 ! A149  A(68,67,70)           109.5047         calculate D2E/DX2 analytically  !
 ! A150  A(69,67,70)           109.0685         calculate D2E/DX2 analytically  !
 ! A151  A(46,71,72)           110.9545         calculate D2E/DX2 analytically  !
 ! A152  A(46,71,73)           111.052          calculate D2E/DX2 analytically  !
 ! A153  A(46,71,74)           106.7815         calculate D2E/DX2 analytically  !
 ! A154  A(72,71,73)           109.1946         calculate D2E/DX2 analytically  !
 ! A155  A(72,71,74)           109.4074         calculate D2E/DX2 analytically  !
 ! A156  A(73,71,74)           109.4052         calculate D2E/DX2 analytically  !
 ! A157  A(50,75,76)           107.1431         calculate D2E/DX2 analytically  !
 ! A158  A(50,75,77)           111.1398         calculate D2E/DX2 analytically  !
 ! A159  A(50,75,78)           111.3102         calculate D2E/DX2 analytically  !
 ! A160  A(76,75,77)           109.2221         calculate D2E/DX2 analytically  !
 ! A161  A(76,75,78)           109.2576         calculate D2E/DX2 analytically  !
 ! A162  A(77,75,78)           108.7263         calculate D2E/DX2 analytically  !
 ! A163  A(12,79,80)           106.932          calculate D2E/DX2 analytically  !
 ! A164  A(12,79,81)           111.4875         calculate D2E/DX2 analytically  !
 ! A165  A(12,79,82)           110.8601         calculate D2E/DX2 analytically  !
 ! A166  A(80,79,81)           109.3859         calculate D2E/DX2 analytically  !
 ! A167  A(80,79,82)           109.2406         calculate D2E/DX2 analytically  !
 ! A168  A(81,79,82)           108.8907         calculate D2E/DX2 analytically  !
 ! A169  A(19,83,52)           110.4087         calculate D2E/DX2 analytically  !
 ! A170  A(19,83,84)           120.1236         calculate D2E/DX2 analytically  !
 ! A171  A(52,83,84)           128.9616         calculate D2E/DX2 analytically  !
 ! A172  A(83,84,85)           124.1333         calculate D2E/DX2 analytically  !
 ! A173  A(83,84,89)           120.214          calculate D2E/DX2 analytically  !
 ! A174  A(85,84,89)           111.9465         calculate D2E/DX2 analytically  !
 ! A175  A(84,85,86)           110.9766         calculate D2E/DX2 analytically  !
 ! A176  A(84,85,87)           107.5645         calculate D2E/DX2 analytically  !
 ! A177  A(84,85,88)           110.8307         calculate D2E/DX2 analytically  !
 ! A178  A(86,85,87)           109.305          calculate D2E/DX2 analytically  !
 ! A179  A(86,85,88)           108.849          calculate D2E/DX2 analytically  !
 ! A180  A(87,85,88)           109.2837         calculate D2E/DX2 analytically  !
 ! A181  A(84,89,90)           110.8562         calculate D2E/DX2 analytically  !
 ! A182  A(84,89,91)           107.5278         calculate D2E/DX2 analytically  !
 ! A183  A(84,89,92)           110.9444         calculate D2E/DX2 analytically  !
 ! A184  A(90,89,91)           109.29           calculate D2E/DX2 analytically  !
 ! A185  A(90,89,92)           108.8992         calculate D2E/DX2 analytically  !
 ! A186  A(91,89,92)           109.2904         calculate D2E/DX2 analytically  !
 ! A187  A(57,93,94)           111.4234         calculate D2E/DX2 analytically  !
 ! A188  A(57,93,95)           111.7876         calculate D2E/DX2 analytically  !
 ! A189  A(57,93,96)           111.583          calculate D2E/DX2 analytically  !
 ! A190  A(94,93,95)           107.0459         calculate D2E/DX2 analytically  !
 ! A191  A(94,93,96)           106.9788         calculate D2E/DX2 analytically  !
 ! A192  A(95,93,96)           107.7616         calculate D2E/DX2 analytically  !
 ! A193  A(59,97,98)           112.5678         calculate D2E/DX2 analytically  !
 ! A194  A(59,97,99)           111.0246         calculate D2E/DX2 analytically  !
 ! A195  A(59,97,100)          111.3739         calculate D2E/DX2 analytically  !
 ! A196  A(98,97,99)           107.4221         calculate D2E/DX2 analytically  !
 ! A197  A(98,97,100)          107.7948         calculate D2E/DX2 analytically  !
 ! A198  A(99,97,100)          106.362          calculate D2E/DX2 analytically  !
 ! D1    D(5,1,2,3)            -53.275          calculate D2E/DX2 analytically  !
 ! D2    D(5,1,2,7)             63.4077         calculate D2E/DX2 analytically  !
 ! D3    D(5,1,2,13)          -173.8548         calculate D2E/DX2 analytically  !
 ! D4    D(8,1,2,3)             66.2601         calculate D2E/DX2 analytically  !
 ! D5    D(8,1,2,7)           -177.0572         calculate D2E/DX2 analytically  !
 ! D6    D(8,1,2,13)           -54.3197         calculate D2E/DX2 analytically  !
 ! D7    D(14,1,2,3)          -174.0991         calculate D2E/DX2 analytically  !
 ! D8    D(14,1,2,7)           -57.4164         calculate D2E/DX2 analytically  !
 ! D9    D(14,1,2,13)           65.3211         calculate D2E/DX2 analytically  !
 ! D10   D(2,1,5,4)             52.1074         calculate D2E/DX2 analytically  !
 ! D11   D(2,1,5,10)           -67.2284         calculate D2E/DX2 analytically  !
 ! D12   D(2,1,5,15)           173.6045         calculate D2E/DX2 analytically  !
 ! D13   D(8,1,5,4)            -66.7402         calculate D2E/DX2 analytically  !
 ! D14   D(8,1,5,10)           173.924          calculate D2E/DX2 analytically  !
 ! D15   D(8,1,5,15)            54.7569         calculate D2E/DX2 analytically  !
 ! D16   D(14,1,5,4)           171.7591         calculate D2E/DX2 analytically  !
 ! D17   D(14,1,5,10)           52.4233         calculate D2E/DX2 analytically  !
 ! D18   D(14,1,5,15)          -66.7438         calculate D2E/DX2 analytically  !
 ! D19   D(2,1,14,24)         -141.1086         calculate D2E/DX2 analytically  !
 ! D20   D(5,1,14,24)           98.4786         calculate D2E/DX2 analytically  !
 ! D21   D(8,1,14,24)          -22.6098         calculate D2E/DX2 analytically  !
 ! D22   D(1,2,3,6)            173.7558         calculate D2E/DX2 analytically  !
 ! D23   D(1,2,3,11)            57.9096         calculate D2E/DX2 analytically  !
 ! D24   D(1,2,3,12)           -65.0931         calculate D2E/DX2 analytically  !
 ! D25   D(7,2,3,6)             55.9296         calculate D2E/DX2 analytically  !
 ! D26   D(7,2,3,11)           -59.9166         calculate D2E/DX2 analytically  !
 ! D27   D(7,2,3,12)           177.0807         calculate D2E/DX2 analytically  !
 ! D28   D(13,2,3,6)           -63.1206         calculate D2E/DX2 analytically  !
 ! D29   D(13,2,3,11)         -178.9668         calculate D2E/DX2 analytically  !
 ! D30   D(13,2,3,12)           58.0305         calculate D2E/DX2 analytically  !
 ! D31   D(1,2,13,20)          -94.8096         calculate D2E/DX2 analytically  !
 ! D32   D(3,2,13,20)          143.7822         calculate D2E/DX2 analytically  !
 ! D33   D(7,2,13,20)           26.9762         calculate D2E/DX2 analytically  !
 ! D34   D(2,3,11,4)           -62.2053         calculate D2E/DX2 analytically  !
 ! D35   D(6,3,11,4)           178.5994         calculate D2E/DX2 analytically  !
 ! D36   D(12,3,11,4)           58.4124         calculate D2E/DX2 analytically  !
 ! D37   D(2,3,12,79)         -173.6056         calculate D2E/DX2 analytically  !
 ! D38   D(6,3,12,79)          -52.4279         calculate D2E/DX2 analytically  !
 ! D39   D(11,3,12,79)          64.5881         calculate D2E/DX2 analytically  !
 ! D40   D(9,4,5,1)             65.4956         calculate D2E/DX2 analytically  !
 ! D41   D(9,4,5,10)          -175.9573         calculate D2E/DX2 analytically  !
 ! D42   D(9,4,5,15)           -55.931          calculate D2E/DX2 analytically  !
 ! D43   D(11,4,5,1)           -53.262          calculate D2E/DX2 analytically  !
 ! D44   D(11,4,5,10)           65.285          calculate D2E/DX2 analytically  !
 ! D45   D(11,4,5,15)         -174.6886         calculate D2E/DX2 analytically  !
 ! D46   D(16,4,5,1)          -172.4322         calculate D2E/DX2 analytically  !
 ! D47   D(16,4,5,10)          -53.8852         calculate D2E/DX2 analytically  !
 ! D48   D(16,4,5,15)           66.1412         calculate D2E/DX2 analytically  !
 ! D49   D(5,4,11,3)            59.1027         calculate D2E/DX2 analytically  !
 ! D50   D(9,4,11,3)           -59.3162         calculate D2E/DX2 analytically  !
 ! D51   D(16,4,11,3)         -177.6307         calculate D2E/DX2 analytically  !
 ! D52   D(5,4,16,17)          -61.8438         calculate D2E/DX2 analytically  !
 ! D53   D(5,4,16,18)         -172.8591         calculate D2E/DX2 analytically  !
 ! D54   D(5,4,16,19)           63.823          calculate D2E/DX2 analytically  !
 ! D55   D(9,4,16,17)           59.593          calculate D2E/DX2 analytically  !
 ! D56   D(9,4,16,18)          -51.4222         calculate D2E/DX2 analytically  !
 ! D57   D(9,4,16,19)         -174.7401         calculate D2E/DX2 analytically  !
 ! D58   D(11,4,16,17)         177.517          calculate D2E/DX2 analytically  !
 ! D59   D(11,4,16,18)          66.5017         calculate D2E/DX2 analytically  !
 ! D60   D(11,4,16,19)         -56.8161         calculate D2E/DX2 analytically  !
 ! D61   D(1,5,10,37)          119.0437         calculate D2E/DX2 analytically  !
 ! D62   D(4,5,10,37)           -2.4214         calculate D2E/DX2 analytically  !
 ! D63   D(15,5,10,37)        -122.1628         calculate D2E/DX2 analytically  !
 ! D64   D(1,5,15,28)          127.4621         calculate D2E/DX2 analytically  !
 ! D65   D(4,5,15,28)         -109.4512         calculate D2E/DX2 analytically  !
 ! D66   D(10,5,15,28)           9.858          calculate D2E/DX2 analytically  !
 ! D67   D(5,10,37,19)          33.5624         calculate D2E/DX2 analytically  !
 ! D68   D(5,10,37,34)         125.6856         calculate D2E/DX2 analytically  !
 ! D69   D(5,10,37,52)         -82.1009         calculate D2E/DX2 analytically  !
 ! D70   D(3,12,79,80)         174.2591         calculate D2E/DX2 analytically  !
 ! D71   D(3,12,79,81)         -66.2208         calculate D2E/DX2 analytically  !
 ! D72   D(3,12,79,82)          55.2702         calculate D2E/DX2 analytically  !
 ! D73   D(2,13,20,21)         -56.8425         calculate D2E/DX2 analytically  !
 ! D74   D(2,13,20,22)          64.8684         calculate D2E/DX2 analytically  !
 ! D75   D(2,13,20,23)        -175.2612         calculate D2E/DX2 analytically  !
 ! D76   D(1,14,24,25)         -57.9164         calculate D2E/DX2 analytically  !
 ! D77   D(1,14,24,26)          63.7243         calculate D2E/DX2 analytically  !
 ! D78   D(1,14,24,27)        -177.674          calculate D2E/DX2 analytically  !
 ! D79   D(5,15,28,29)         -65.0952         calculate D2E/DX2 analytically  !
 ! D80   D(5,15,28,30)          56.3057         calculate D2E/DX2 analytically  !
 ! D81   D(5,15,28,31)         175.955          calculate D2E/DX2 analytically  !
 ! D82   D(4,16,19,37)         -19.5494         calculate D2E/DX2 analytically  !
 ! D83   D(4,16,19,83)          53.9406         calculate D2E/DX2 analytically  !
 ! D84   D(17,16,19,37)        101.7509         calculate D2E/DX2 analytically  !
 ! D85   D(17,16,19,83)        175.2409         calculate D2E/DX2 analytically  !
 ! D86   D(18,16,19,37)       -139.1493         calculate D2E/DX2 analytically  !
 ! D87   D(18,16,19,83)        -65.6593         calculate D2E/DX2 analytically  !
 ! D88   D(16,19,37,10)        -15.9648         calculate D2E/DX2 analytically  !
 ! D89   D(16,19,37,34)       -135.1927         calculate D2E/DX2 analytically  !
 ! D90   D(16,19,37,52)         85.5526         calculate D2E/DX2 analytically  !
 ! D91   D(83,19,37,10)       -111.8488         calculate D2E/DX2 analytically  !
 ! D92   D(83,19,37,34)        128.9232         calculate D2E/DX2 analytically  !
 ! D93   D(83,19,37,52)        -10.3314         calculate D2E/DX2 analytically  !
 ! D94   D(16,19,83,52)       -112.2367         calculate D2E/DX2 analytically  !
 ! D95   D(16,19,83,84)         75.2138         calculate D2E/DX2 analytically  !
 ! D96   D(37,19,83,52)          9.5528         calculate D2E/DX2 analytically  !
 ! D97   D(37,19,83,84)       -162.9966         calculate D2E/DX2 analytically  !
 ! D98   D(36,32,33,34)        -50.4783         calculate D2E/DX2 analytically  !
 ! D99   D(36,32,33,38)         61.7212         calculate D2E/DX2 analytically  !
 ! D100  D(36,32,33,44)       -174.9902         calculate D2E/DX2 analytically  !
 ! D101  D(39,32,33,34)         69.2106         calculate D2E/DX2 analytically  !
 ! D102  D(39,32,33,38)       -178.5898         calculate D2E/DX2 analytically  !
 ! D103  D(39,32,33,44)        -55.3012         calculate D2E/DX2 analytically  !
 ! D104  D(45,32,33,34)       -169.3928         calculate D2E/DX2 analytically  !
 ! D105  D(45,32,33,38)        -57.1933         calculate D2E/DX2 analytically  !
 ! D106  D(45,32,33,44)         66.0953         calculate D2E/DX2 analytically  !
 ! D107  D(33,32,36,35)         59.4815         calculate D2E/DX2 analytically  !
 ! D108  D(33,32,36,41)        -60.6424         calculate D2E/DX2 analytically  !
 ! D109  D(33,32,36,46)        177.8021         calculate D2E/DX2 analytically  !
 ! D110  D(39,32,36,35)        -59.406          calculate D2E/DX2 analytically  !
 ! D111  D(39,32,36,41)       -179.5299         calculate D2E/DX2 analytically  !
 ! D112  D(39,32,36,46)         58.9146         calculate D2E/DX2 analytically  !
 ! D113  D(45,32,36,35)        177.787          calculate D2E/DX2 analytically  !
 ! D114  D(45,32,36,41)         57.6631         calculate D2E/DX2 analytically  !
 ! D115  D(45,32,36,46)        -63.8925         calculate D2E/DX2 analytically  !
 ! D116  D(33,32,45,67)       -141.8373         calculate D2E/DX2 analytically  !
 ! D117  D(36,32,45,67)        100.9788         calculate D2E/DX2 analytically  !
 ! D118  D(39,32,45,67)        -21.5219         calculate D2E/DX2 analytically  !
 ! D119  D(32,33,34,37)       -158.0607         calculate D2E/DX2 analytically  !
 ! D120  D(32,33,34,42)         34.8314         calculate D2E/DX2 analytically  !
 ! D121  D(32,33,34,53)        -68.0639         calculate D2E/DX2 analytically  !
 ! D122  D(38,33,34,37)         85.3282         calculate D2E/DX2 analytically  !
 ! D123  D(38,33,34,42)        -81.7796         calculate D2E/DX2 analytically  !
 ! D124  D(38,33,34,53)        175.3251         calculate D2E/DX2 analytically  !
 ! D125  D(44,33,34,37)        -30.0236         calculate D2E/DX2 analytically  !
 ! D126  D(44,33,34,42)        162.8686         calculate D2E/DX2 analytically  !
 ! D127  D(44,33,34,53)         59.9733         calculate D2E/DX2 analytically  !
 ! D128  D(32,33,44,63)        -91.2619         calculate D2E/DX2 analytically  !
 ! D129  D(34,33,44,63)        142.958          calculate D2E/DX2 analytically  !
 ! D130  D(38,33,44,63)         32.1349         calculate D2E/DX2 analytically  !
 ! D131  D(33,34,37,10)       -138.3248         calculate D2E/DX2 analytically  !
 ! D132  D(33,34,37,19)        -57.1586         calculate D2E/DX2 analytically  !
 ! D133  D(33,34,37,52)         76.1058         calculate D2E/DX2 analytically  !
 ! D134  D(42,34,37,10)         29.7898         calculate D2E/DX2 analytically  !
 ! D135  D(42,34,37,19)        110.9559         calculate D2E/DX2 analytically  !
 ! D136  D(42,34,37,52)       -115.7797         calculate D2E/DX2 analytically  !
 ! D137  D(53,34,37,10)        126.6522         calculate D2E/DX2 analytically  !
 ! D138  D(53,34,37,19)       -152.1816         calculate D2E/DX2 analytically  !
 ! D139  D(53,34,37,52)        -18.9172         calculate D2E/DX2 analytically  !
 ! D140  D(33,34,42,35)        -23.7483         calculate D2E/DX2 analytically  !
 ! D141  D(37,34,42,35)        168.5453         calculate D2E/DX2 analytically  !
 ! D142  D(53,34,42,35)         78.2834         calculate D2E/DX2 analytically  !
 ! D143  D(33,34,53,51)       -110.8079         calculate D2E/DX2 analytically  !
 ! D144  D(37,34,53,51)          9.3515         calculate D2E/DX2 analytically  !
 ! D145  D(42,34,53,51)        124.3898         calculate D2E/DX2 analytically  !
 ! D146  D(40,35,36,32)         67.0307         calculate D2E/DX2 analytically  !
 ! D147  D(40,35,36,41)       -173.284          calculate D2E/DX2 analytically  !
 ! D148  D(40,35,36,46)        -53.8316         calculate D2E/DX2 analytically  !
 ! D149  D(42,35,36,32)        -48.2722         calculate D2E/DX2 analytically  !
 ! D150  D(42,35,36,41)         71.4131         calculate D2E/DX2 analytically  !
 ! D151  D(42,35,36,46)       -169.1345         calculate D2E/DX2 analytically  !
 ! D152  D(47,35,36,32)       -169.9582         calculate D2E/DX2 analytically  !
 ! D153  D(47,35,36,41)        -50.2729         calculate D2E/DX2 analytically  !
 ! D154  D(47,35,36,46)         69.1796         calculate D2E/DX2 analytically  !
 ! D155  D(36,35,42,34)         29.5307         calculate D2E/DX2 analytically  !
 ! D156  D(40,35,42,34)        -88.712          calculate D2E/DX2 analytically  !
 ! D157  D(47,35,42,34)        155.2278         calculate D2E/DX2 analytically  !
 ! D158  D(36,35,47,48)        -68.1361         calculate D2E/DX2 analytically  !
 ! D159  D(36,35,47,49)        174.7629         calculate D2E/DX2 analytically  !
 ! D160  D(36,35,47,50)         53.046          calculate D2E/DX2 analytically  !
 ! D161  D(40,35,47,48)         54.7555         calculate D2E/DX2 analytically  !
 ! D162  D(40,35,47,49)        -62.3454         calculate D2E/DX2 analytically  !
 ! D163  D(40,35,47,50)        175.9376         calculate D2E/DX2 analytically  !
 ! D164  D(42,35,47,48)        167.365          calculate D2E/DX2 analytically  !
 ! D165  D(42,35,47,49)         50.264          calculate D2E/DX2 analytically  !
 ! D166  D(42,35,47,50)        -71.4529         calculate D2E/DX2 analytically  !
 ! D167  D(32,36,46,71)        119.3858         calculate D2E/DX2 analytically  !
 ! D168  D(35,36,46,71)       -119.3624         calculate D2E/DX2 analytically  !
 ! D169  D(41,36,46,71)         -0.8649         calculate D2E/DX2 analytically  !
 ! D170  D(10,37,52,51)       -121.6945         calculate D2E/DX2 analytically  !
 ! D171  D(10,37,52,83)         95.3598         calculate D2E/DX2 analytically  !
 ! D172  D(19,37,52,51)        153.3182         calculate D2E/DX2 analytically  !
 ! D173  D(19,37,52,83)         10.3725         calculate D2E/DX2 analytically  !
 ! D174  D(34,37,52,51)         27.7976         calculate D2E/DX2 analytically  !
 ! D175  D(34,37,52,83)       -115.1481         calculate D2E/DX2 analytically  !
 ! D176  D(33,44,63,64)        -62.17           calculate D2E/DX2 analytically  !
 ! D177  D(33,44,63,65)         59.639          calculate D2E/DX2 analytically  !
 ! D178  D(33,44,63,66)        178.8902         calculate D2E/DX2 analytically  !
 ! D179  D(32,45,67,68)        -59.6281         calculate D2E/DX2 analytically  !
 ! D180  D(32,45,67,69)         62.3177         calculate D2E/DX2 analytically  !
 ! D181  D(32,45,67,70)       -179.0261         calculate D2E/DX2 analytically  !
 ! D182  D(36,46,71,72)        -63.6868         calculate D2E/DX2 analytically  !
 ! D183  D(36,46,71,73)         57.9573         calculate D2E/DX2 analytically  !
 ! D184  D(36,46,71,74)        177.1612         calculate D2E/DX2 analytically  !
 ! D185  D(35,47,50,75)        176.7678         calculate D2E/DX2 analytically  !
 ! D186  D(48,47,50,75)        -64.2625         calculate D2E/DX2 analytically  !
 ! D187  D(49,47,50,75)         56.3149         calculate D2E/DX2 analytically  !
 ! D188  D(47,50,75,76)        179.6934         calculate D2E/DX2 analytically  !
 ! D189  D(47,50,75,77)        -61.0534         calculate D2E/DX2 analytically  !
 ! D190  D(47,50,75,78)         60.2995         calculate D2E/DX2 analytically  !
 ! D191  D(43,51,52,37)       -144.1451         calculate D2E/DX2 analytically  !
 ! D192  D(43,51,52,83)        -88.7452         calculate D2E/DX2 analytically  !
 ! D193  D(53,51,52,37)        -13.0281         calculate D2E/DX2 analytically  !
 ! D194  D(53,51,52,83)         42.3718         calculate D2E/DX2 analytically  !
 ! D195  D(54,51,52,37)         99.3582         calculate D2E/DX2 analytically  !
 ! D196  D(54,51,52,83)        154.7582         calculate D2E/DX2 analytically  !
 ! D197  D(43,51,53,34)        139.489          calculate D2E/DX2 analytically  !
 ! D198  D(52,51,53,34)          8.0118         calculate D2E/DX2 analytically  !
 ! D199  D(54,51,53,34)       -104.6751         calculate D2E/DX2 analytically  !
 ! D200  D(43,51,54,55)        -18.2341         calculate D2E/DX2 analytically  !
 ! D201  D(43,51,54,56)        162.5808         calculate D2E/DX2 analytically  !
 ! D202  D(52,51,54,55)        103.6841         calculate D2E/DX2 analytically  !
 ! D203  D(52,51,54,56)        -75.501          calculate D2E/DX2 analytically  !
 ! D204  D(53,51,54,55)       -139.1019         calculate D2E/DX2 analytically  !
 ! D205  D(53,51,54,56)         41.713          calculate D2E/DX2 analytically  !
 ! D206  D(37,52,83,19)         -9.2493         calculate D2E/DX2 analytically  !
 ! D207  D(37,52,83,84)        162.4574         calculate D2E/DX2 analytically  !
 ! D208  D(51,52,83,19)        -74.9709         calculate D2E/DX2 analytically  !
 ! D209  D(51,52,83,84)         96.7357         calculate D2E/DX2 analytically  !
 ! D210  D(51,54,55,57)       -179.0106         calculate D2E/DX2 analytically  !
 ! D211  D(51,54,55,58)          2.0672         calculate D2E/DX2 analytically  !
 ! D212  D(56,54,55,57)          0.1573         calculate D2E/DX2 analytically  !
 ! D213  D(56,54,55,58)       -178.7649         calculate D2E/DX2 analytically  !
 ! D214  D(51,54,56,59)        179.6734         calculate D2E/DX2 analytically  !
 ! D215  D(51,54,56,60)         -1.8225         calculate D2E/DX2 analytically  !
 ! D216  D(55,54,56,59)          0.5013         calculate D2E/DX2 analytically  !
 ! D217  D(55,54,56,60)        179.0054         calculate D2E/DX2 analytically  !
 ! D218  D(54,55,57,61)         -0.6141         calculate D2E/DX2 analytically  !
 ! D219  D(54,55,57,93)        177.6307         calculate D2E/DX2 analytically  !
 ! D220  D(58,55,57,61)        178.2958         calculate D2E/DX2 analytically  !
 ! D221  D(58,55,57,93)         -3.4594         calculate D2E/DX2 analytically  !
 ! D222  D(54,56,59,61)         -0.7168         calculate D2E/DX2 analytically  !
 ! D223  D(54,56,59,97)        178.2312         calculate D2E/DX2 analytically  !
 ! D224  D(60,56,59,61)       -179.2245         calculate D2E/DX2 analytically  !
 ! D225  D(60,56,59,97)         -0.2765         calculate D2E/DX2 analytically  !
 ! D226  D(55,57,61,59)          0.4034         calculate D2E/DX2 analytically  !
 ! D227  D(55,57,61,62)       -178.7156         calculate D2E/DX2 analytically  !
 ! D228  D(93,57,61,59)       -177.8313         calculate D2E/DX2 analytically  !
 ! D229  D(93,57,61,62)          3.0497         calculate D2E/DX2 analytically  !
 ! D230  D(55,57,93,94)        -85.3589         calculate D2E/DX2 analytically  !
 ! D231  D(55,57,93,95)        154.9082         calculate D2E/DX2 analytically  !
 ! D232  D(55,57,93,96)         34.1499         calculate D2E/DX2 analytically  !
 ! D233  D(61,57,93,94)         92.8987         calculate D2E/DX2 analytically  !
 ! D234  D(61,57,93,95)        -26.8341         calculate D2E/DX2 analytically  !
 ! D235  D(61,57,93,96)       -147.5924         calculate D2E/DX2 analytically  !
 ! D236  D(56,59,61,57)          0.272          calculate D2E/DX2 analytically  !
 ! D237  D(56,59,61,62)        179.39           calculate D2E/DX2 analytically  !
 ! D238  D(97,59,61,57)       -178.7031         calculate D2E/DX2 analytically  !
 ! D239  D(97,59,61,62)          0.4149         calculate D2E/DX2 analytically  !
 ! D240  D(56,59,97,98)         -1.2288         calculate D2E/DX2 analytically  !
 ! D241  D(56,59,97,99)       -121.6997         calculate D2E/DX2 analytically  !
 ! D242  D(56,59,97,100)       119.9726         calculate D2E/DX2 analytically  !
 ! D243  D(61,59,97,98)        177.744          calculate D2E/DX2 analytically  !
 ! D244  D(61,59,97,99)         57.2731         calculate D2E/DX2 analytically  !
 ! D245  D(61,59,97,100)       -61.0546         calculate D2E/DX2 analytically  !
 ! D246  D(19,83,84,85)        159.1239         calculate D2E/DX2 analytically  !
 ! D247  D(19,83,84,89)          2.5935         calculate D2E/DX2 analytically  !
 ! D248  D(52,83,84,85)        -11.8841         calculate D2E/DX2 analytically  !
 ! D249  D(52,83,84,89)       -168.4145         calculate D2E/DX2 analytically  !
 ! D250  D(83,84,85,86)        -97.8499         calculate D2E/DX2 analytically  !
 ! D251  D(83,84,85,87)         21.6706         calculate D2E/DX2 analytically  !
 ! D252  D(83,84,85,88)        141.0806         calculate D2E/DX2 analytically  !
 ! D253  D(89,84,85,86)         60.3699         calculate D2E/DX2 analytically  !
 ! D254  D(89,84,85,87)        179.8904         calculate D2E/DX2 analytically  !
 ! D255  D(89,84,85,88)        -60.6996         calculate D2E/DX2 analytically  !
 ! D256  D(83,84,89,90)       -140.1744         calculate D2E/DX2 analytically  !
 ! D257  D(83,84,89,91)        -20.7645         calculate D2E/DX2 analytically  !
 ! D258  D(83,84,89,92)         98.6969         calculate D2E/DX2 analytically  !
 ! D259  D(85,84,89,90)         60.6442         calculate D2E/DX2 analytically  !
 ! D260  D(85,84,89,91)       -179.9459         calculate D2E/DX2 analytically  !
 ! D261  D(85,84,89,92)        -60.4845         calculate D2E/DX2 analytically  !
 --------------------------------------------------------------------------------
 Trust Radius=1.00D-02 FncErr=1.00D-07 GrdErr=1.00D-06 EigMax=2.50D+02 EigMin=1.00D-04
 Number of steps in this run=    574 maximum allowed number of steps=    600.
 Search for a saddle point of order  1.
 GradGradGradGradGradGradGradGradGradGradGradGradGradGradGradGradGradGrad

 Leave Link  103 at Mon Jun 17 15:21:05 2019, MaxMem= 12884901888 cpu:               3.1 elap:               0.1
 (Enter /n/sw/g16_nehalem/g16/l202.exe)
 Stoichiometry    C30H47F6NaO15S
 Framework group  C1[X(C30H47F6NaO15S)]
 Deg. of freedom   294
 Full point group                 C1      NOp   1
 Largest Abelian subgroup         C1      NOp   1
 Largest concise Abelian subgroup C1      NOp   1
                         Standard orientation:                         
 ---------------------------------------------------------------------
 Center     Atomic      Atomic             Coordinates (Angstroms)
 Number     Number       Type             X           Y           Z
 ---------------------------------------------------------------------
      1          6           0       -1.323907    1.699653    2.653886
      2          6           0       -1.857036    2.316288    1.368775
      3          6           0       -1.065095    3.574394    1.035545
      4          6           0        0.905039    2.759866    2.111071
      5          6           0        0.179089    1.489074    2.539671
      6          1           0       -1.362572    3.968952    0.056020
      7          1           0       -1.696628    1.609080    0.544167
      8          1           0       -1.535079    2.388530    3.481357
      9          1           0        0.797285    3.506947    2.907768
     10          1           0        0.344855    0.715436    1.779574
     11          8           0        0.305935    3.268614    0.909014
     12          8           0       -1.303809    4.513565    2.032268
     13          8           0       -3.217373    2.663339    1.461709
     14          8           0       -1.981623    0.464822    2.866765
     15          8           0        0.686753    1.054948    3.786996
     16          6           0        2.388611    2.543494    1.808110
     17          1           0        2.839695    2.195635    2.758018
     18          1           0        2.805839    3.559980    1.642986
     19          8           0        2.628635    1.709544    0.745550
     20          6           0       -4.098371    1.674640    0.973576
     21          1           0       -3.872807    1.422280   -0.071725
     22          1           0       -4.052761    0.763406    1.572982
     23          1           0       -5.103221    2.096943    1.022408
     24          6           0       -2.296176    0.213486    4.220150
     25          1           0       -1.402206    0.226938    4.848561
     26          1           0       -3.010631    0.953365    4.603060
     27          1           0       -2.755671   -0.773095    4.258546
     28          6           0        1.454883   -0.124268    3.701979
     29          1           0        0.838609   -0.976222    3.386932
     30          1           0        2.286914   -0.018898    2.998051
     31          1           0        1.850275   -0.320886    4.699982
     32          6           0        3.681961   -1.750637   -1.428656
     33          6           0        3.158280   -0.393366   -0.977122
     34          6           0        1.912619   -0.534612   -0.174563
     35          6           0        2.369101   -2.797338    0.444604
     36          6           0        3.741572   -2.642836   -0.195282
     37          1           0        1.232064    0.293151   -0.078763
     38          1           0        3.859149    0.043443   -0.246305
     39          1           0        2.997270   -2.171880   -2.173569
     40          1           0        1.717065   -3.357877   -0.229366
     41          1           0        4.426210   -2.187877    0.528083
     42          8           0        1.695219   -1.511338    0.617837
     43          8           0       -0.571549   -0.192508   -3.751311
     44          8           0        2.931773    0.531311   -2.004977
     45          8           0        4.971031   -1.588003   -1.964926
     46          8           0        4.170949   -3.938319   -0.536970
     47          6           0        2.392348   -3.465262    1.794191
     48          1           0        2.683254   -4.514317    1.646565
     49          1           0        1.380190   -3.451129    2.221685
     50          8           0        3.301786   -2.792419    2.619879
     51         16           0       -0.403520   -0.263134   -2.296205
     52          8           0       -0.234174    1.052040   -1.628817
     53          8           0        0.642276   -1.237293   -1.853015
     54          6           0       -1.932019   -0.919786   -1.638029
     55          6           0       -3.080050   -0.888983   -2.411195
     56          6           0       -1.946378   -1.437839   -0.347218
     57          6           0       -4.266632   -1.384604   -1.877965
     58          1           0       -3.041313   -0.499438   -3.420854
     59          6           0       -3.133274   -1.939171    0.161554
     60          1           0       -1.039255   -1.472013    0.243593
     61          6           0       -4.299504   -1.913480   -0.597496
     62          1           0       -5.221819   -2.316112   -0.197228
     63          6           0        4.065246    1.353191   -2.273248
     64          1           0        4.312733    1.948312   -1.387084
     65          1           0        4.923009    0.748546   -2.566993
     66          1           0        3.778576    2.009667   -3.094006
     67          6           0        5.230521   -2.401820   -3.094240
     68          1           0        5.128545   -3.462655   -2.853269
     69          1           0        4.555624   -2.153575   -3.921083
     70          1           0        6.256569   -2.194581   -3.397645
     71          6           0        5.370317   -4.324343    0.108913
     72          1           0        6.204024   -3.685053   -0.198895
     73          1           0        5.263406   -4.277270    1.198416
     74          1           0        5.572341   -5.352158   -0.190930
     75          6           0        3.322602   -3.319816    3.926989
     76          1           0        4.054647   -2.745491    4.493315
     77          1           0        2.340633   -3.226431    4.406960
     78          1           0        3.614832   -4.377175    3.925652
     79          6           0       -0.733330    5.776776    1.756107
     80          1           0       -1.066338    6.453840    2.541720
     81          1           0        0.360051    5.731265    1.755159
     82          1           0       -1.073862    6.155146    0.784498
     83         11           0        1.473392    2.508019   -1.054358
     84          8           0        2.251430    4.419395   -2.212004
     85          6           0        1.888948    4.745140   -3.537373
     86          1           0        2.658979    4.418163   -4.246680
     87          1           0        0.954155    4.231139   -3.758329
     88          1           0        1.742496    5.825732   -3.646980
     89          6           0        3.460248    5.039317   -1.828097
     90          1           0        3.371628    6.130575   -1.876436
     91          1           0        3.670835    4.740342   -0.801488
     92          1           0        4.286911    4.720968   -2.475069
     93          6           0       -5.526487   -1.306346   -2.688308
     94          9           0       -6.133729   -0.118185   -2.537397
     95          9           0       -6.409375   -2.247366   -2.327157
     96          9           0       -5.281033   -1.456850   -3.996618
     97          6           0       -3.190117   -2.543596    1.532190
     98          9           0       -1.999310   -2.551772    2.138952
     99          9           0       -3.624406   -3.814287    1.481126
    100          9           0       -4.050103   -1.881160    2.324293
 ---------------------------------------------------------------------
 Rotational constants (GHZ):           0.0542537           0.0410263           0.0372700
 Leave Link  202 at Mon Jun 17 15:21:05 2019, MaxMem= 12884901888 cpu:               0.4 elap:               0.0
 (Enter /n/sw/g16_nehalem/g16/l301.exe)
 Standard basis: 6-31G(d) (6D, 7F)
 Centers:      19     53     43     52
 SP 1 1.00
     Exponent=  8.4500000000D-02 Coefficients=  1.0000000000D+00  1.0000000000D+00
 ****
 Ernie: Thresh=  0.10000D-02 Tol=  0.10000D-05 Strict=F.
 There are   913 symmetry adapted cartesian basis functions of A   symmetry.
 There are   913 symmetry adapted basis functions of A   symmetry.
   913 basis functions,  1736 primitive gaussians,   913 cartesian basis functions
   214 alpha electrons      214 beta electrons
       nuclear repulsion energy      9617.9872639118 Hartrees.
 IExCor=  411 DFT=T Ex+Corr=B1B95 ExCW=0 ScaHFX=  0.280000
 ScaDFX=  0.720000  0.720000  1.000000  1.000000 ScalE2=  1.000000  1.000000
 IRadAn=      5 IRanWt=     -1 IRanGd=            0 ICorTp=0 IEmpDi=  4
 NAtoms=  100 NActive=  100 NUniq=  100 SFac= 1.00D+00 NAtFMM=   60 NAOKFM=T Big=T
 Integral buffers will be    131072 words long.
 Raffenetti 2 integral format.
 Two-electron integral symmetry is turned on.
 Force inversion solution in PCM.
 ------------------------------------------------------------------------------
 Polarizable Continuum Model (PCM)
 =================================
 Model                : PCM.
 Atomic radii         : UFF (Universal Force Field).
 Polarization charges : Total charges.
 Charge compensation  : None.
 Solution method      : Matrix inversion.
 Cavity type          : Scaled VdW (van der Waals Surface) (Alpha=1.100).
 Cavity algorithm     : GePol (No added spheres)
                        Default sphere list used, NSphG=  100.
                        Lebedev-Laikov grids with approx.  5.0 points / Ang**2.
                        Smoothing algorithm: York/Karplus (Gamma=1.0000).
                        Polarization charges: spherical gaussians, with
                                              point-specific exponents (IZeta= 3).
                        Self-potential: point-specific (ISelfS= 7).
                        Self-field    : sphere-specific E.n sum rule (ISelfD= 2).
 1st derivatives      : Analytical E(r).r(x)/FMM algorithm (CHGder, D1EAlg=3).
                        Cavity 1st derivative terms included.
 2nd derivatives      : Analytical E(r).r(xy)/FMM algorithm (CHGder, D2EAlg=3).
                        Cavity 2nd derivative terms included.
 Solvent              : TetraHydroFuran, Eps=   7.425700 Eps(inf)=   1.974025
 ------------------------------------------------------------------------------
 GePol: Number of generator spheres                  =     100
 GePol: Total number of spheres                      =     100
 GePol: Number of exposed spheres                    =     100 (100.00%)
[...]
 14116,-0.00082458,-0.00038042,0.00125315,-0.00013022,-0.00004216,0.000
 04635,-0.00010504,0.00005874,0.00006778,-0.00008850,0.00012735,0.00000
 092,0.00005981,-0.00003844,-0.00001211,-0.00005364,0.00002902,-0.00000
 742,-0.00016054,-0.00000873,0.00001929,-0.00001868,0.00008428,-0.00005
 616,0.00325077,0.00095262,-0.00097780,-0.00081217,-0.00083876,0.000009
 89,-0.00144512,0.00031920,-0.00012570,-0.00143510,0.00064260,0.0015727
 3,-0.00011737,-0.00054749,0.00044174,0.00386327,-0.00207675,0.00349588
 ,-0.00002539,0.00061892,0.00114175,0.00012650,-0.00008584,-0.00005979,
 -0.01729605,-0.03438451,0.00789168,0.00042354,-0.00039940,-0.00065410,
 -0.00274734,0.00066679,-0.00082086,0.00079150,-0.00093505,-0.00019231,
 0.00007744,0.00007311,-0.00003242,-0.00000367,-0.00000984,-0.00000500,
 -0.00002103,-0.00000560,0.00000711,0.00000032,-0.00001195,0.00000410,0
 .00001539,-0.00005125,-0.00005594,-0.00000152,0.00001341,0.00000283,0.
 00000132,0.00000217,0.00000416,-0.00000743,0.00000403,0.00000886,0.000
 04954,-0.00002321,0.00003311,-0.00000420,0.00000223,-0.00000527,-0.000
 00340,-0.00000618,-0.00000815,-0.00001448,0.00001134,0.00000187,0.0000
 2066,-0.00004923,0.00005484,0.00000239,0.00000285,-0.00000520,0.000000
 60,-0.00000794,0.00000077,-0.00001637,0.00002113,-0.00000001,0.0000582
 0,0.00014465,-0.00003411,-0.00000151,-0.00002816,-0.00000982,-0.000021
 55,-0.00001078,0.00000618,-0.00000588,-0.00001618,0.00001819,0.0001566
 8,0.00016179,-0.00004377,-0.00004589,-0.00004166,0.00001834,0.00001721
 ,0.00001704,-0.00002167,-0.00000727,0.00000309,0.00000301,-0.00001245,
 -0.00000433,-0.00000623,-0.00000164,-0.00000761,-0.00000100,0.00004874
 ,0.00002143,0.00001680,-0.00000274,-0.00000870,-0.00000035,0.00000145,
 0.00000414,-0.00000496,-0.00000847,0.00000156,0.00000490,-0.00210620,-
 0.00026308,-0.00109418,0.00066836,-0.00033707,0.00023375,0.00072335,0.
 00035529,0.00014859,0.00042083,0.00006189,0.00070776,-0.05882345,-0.25
 684830,0.01862404,-0.03832703,-0.01354468,-0.01624373,0.09961556,0.373
 43744,0.00014820,0.00026661,-0.00016670,0.00003619,-0.00007932,-0.0001
 9327,0.00001734,-0.00003321,-0.00001257,-0.00004778,0.00004680,-0.0000
 4646,-0.00000640,-0.00004607,-0.00009051,-0.00000407,-0.00002221,0.000
 01283,-0.00000705,-0.00001311,0.00001349,-0.00002755,-0.00005256,0.000
 02292,-0.00000282,0.00000525,0.00001223,0.00000888,0.00002373,0.000016
 09,0.00000875,0.00001227,0.00007359,0.00000112,0.00003441,0.00004214,-
 0.00005181,-0.00000912,0.00015372,-0.00015918,-0.00038506,0.00018080,-
 0.00002205,-0.00005762,0.00008587,0.00003777,-0.00004851,-0.00009919,0
 .00000883,0.00000296,0.00002970,-0.00001055,0.00002333,0.00002398,0.00
 000979,0.00010002,0.00013527,0.00001410,0.00019545,-0.00033915,0.00001
 383,-0.00009438,0.00012952,-0.00001687,-0.00001336,0.00002962,-0.00000
 767,-0.00000567,0.00005018,0.00008480,0.00029421,-0.00004567,-0.000025
 96,-0.00005638,-0.00000026,-0.00000189,-0.00006632,0.00000634,-0.00003
 721,-0.00009920,0.00026171,0.00004606,0.00007511,0.00001296,-0.0001124
 1,-0.00010663,-0.00006855,-0.00002420,-0.00001672,0.00000002,0.0000017
 7,-0.00000273,0.00000324,-0.00006285,0.00001882,-0.00000286,0.00001757
 ,0.00000956,0.00002128,-0.00035504,-0.00010476,-0.00045511,-0.00008381
 ,0.00011808,-0.00005651,-0.00001727,0.00000957,-0.00000381,-0.00002117
 ,-0.00001900,-0.00001929,0.00001475,-0.00000587,-0.00002360,-0.0000083
 4,0.00001627,0.00001926,0.00000880,0.00000565,-0.00000925,0.00000733,-
 0.00000022,-0.00000039,0.00011980,-0.00015759,0.00019162,0.00062086,0.
 00035562,-0.00074329,0.00007521,0.00002958,-0.00000081,0.00005455,-0.0
 0001613,-0.00000553,0.00004786,-0.00004718,0.00001977,0.00007025,0.000
 00614,-0.00006285,-0.00000110,-0.00000049,0.00001274,-0.00009474,0.000
 02762,0.00001657,-0.00002780,-0.00001827,0.00007324,-0.00238243,-0.000
 92914,0.00044276,0.00058573,0.00069494,0.00011409,0.00107911,-0.000143
 57,0.00020757,0.00070114,-0.00087833,-0.00197693,0.00083305,0.00061269
 ,-0.00054173,-0.00338544,0.00125624,-0.00131359,0.00031210,-0.00064940
 ,0.00031807,-0.00002842,0.00005443,0.00007001,0.01267353,0.03304550,0.
 00075818,0.00002919,0.00065219,0.00023900,0.00075354,0.00047936,-0.000
 30862,0.00009820,0.00025382,0.00001714,-0.00004542,-0.00004822,0.00001
 510,0.00000635,0.00000928,0.00000447,0.00001090,0.00000364,-0.00000370
 ,-0.00000015,0.00000417,-0.00000087,-0.00001209,0.00001359,0.00000998,
 -0.00000158,-0.00000315,-0.00000251,0.00000126,-0.00000375,0.00000324,
 0.00000581,-0.00000008,-0.00000311,-0.00003159,0.00001065,-0.00002608,
 0.00000372,0.00000055,0.00000221,0.00000386,0.00000058,0.00000778,0.00
 000404,-0.00000298,-0.00000017,0.00003428,0.00001174,-0.00005333,-0.00
 000392,-0.00000243,0.00000516,-0.00001416,0.00000375,0.00001121,-0.000
 00167,-0.00000190,0.00000456,-0.00000397,-0.00000231,-0.00000175,-0.00
 000070,0.00000489,0.00000172,0.00000065,-0.00000017,-0.00000165,0.0000
 0221,-0.00000242,0.00000265,-0.00007968,-0.00011565,-0.00004761,0.0000
 2641,0.00002575,0.00000824,-0.00001387,-0.00001080,-0.00000252,0.00000
 050,-0.00000170,0.00000133,0.00001067,0.00000171,0.00000254,0.00000201
 ,0.00000539,0.00000201,-0.00002626,-0.00001375,-0.00001271,0.00000235,
 0.00000585,-0.00000048,0.00000128,-0.00000249,0.00000275,0.00000345,0.
 00000014,-0.00000070,0.00145055,-0.00018863,0.00085985,-0.00048032,0.0
 0033541,-0.00016221,-0.00047368,-0.00011885,-0.00014768,-0.00028879,0.
 00001347,-0.00045271,0.00254978,0.01681307,-0.07749881,-0.02182042,-0.
 02490237,0.00568687,0.00478137,0.01657163,0.07360387,0.00007977,-0.000
 29747,0.00035445,-0.00036916,0.00013690,0.00016274,-0.00011765,0.00000
 768,0.00003665,0.00005224,-0.00001509,-0.00005124,-0.00006374,0.000233
 06,0.00006464,0.00000566,0.00000907,-0.00000258,0.00001194,0.00000549,
 -0.00004442,0.00003739,0.00004428,-0.00002808,-0.00000476,-0.00002434,
 -0.00000371,0.00002489,-0.00002247,-0.00005205,0.00011714,-0.00004853,
 -0.00001112,0.00004961,-0.00001754,-0.00003701,0.00054254,0.00038970,-
 0.00009838,0.00016193,0.00046741,-0.00070532,0.00010279,-0.00018265,-0
 .00002266,-0.00005155,0.00007997,0.00011885,0.00000680,-0.00000358,-0.
 00002372,0.00000903,-0.00004410,-0.00002625,-0.00000632,-0.00017258,-0
 .00012732,-0.00012182,-0.00095040,0.00065096,0.00000269,0.00013582,-0.
 00019230,0.00006626,0.00029684,-0.00008273,-0.00000249,0.00006389,-0.0
 0007347,-0.00009561,-0.00028822,-0.00000575,0.00005280,0.00007966,0.00
 002422,-0.00001928,-0.00011928,-0.00006031,-0.00235759,-0.00177079,-0.
 00157712,0.00003469,0.00027741,0.00007875,-0.00016211,-0.00018305,-0.0
 0006197,-0.00000084,-0.00002344,-0.00001473,-0.00001327,-0.00003047,-0
 .00001936,0.00006908,0.00000035,-0.00003996,-0.00003085,0.00003396,-0.
 00003258,0.00032595,0.00037180,0.00006883,0.00009248,-0.00004385,-0.00
 000599,0.00007561,-0.00004860,-0.00001806,0.00001037,0.00003660,0.0000
 0352,-0.00000400,0.00001001,0.00002741,0.00000516,-0.00000799,-0.00001
 546,0.00001626,-0.00001900,-0.00003279,-0.00001390,0.00000165,0.000002
 11,-0.00022762,-0.00015595,0.00009389,-0.00033645,-0.00020134,0.000554
 44,-0.00007671,-0.00008318,0.00004890,-0.00009730,0.00000483,0.0000645
 1,-0.00010303,0.00005575,0.00000118,0.00030043,0.00004442,0.00000733,-
 0.00003376,0.00000516,0.00000717,-0.00042804,0.00008107,0.00009048,-0.
 00016720,-0.00002609,-0.00012304,0.00136776,0.00075094,-0.00056246,-0.
 00035104,-0.00056831,-0.00006280,-0.00060835,-0.00006560,0.00004100,0.
 00010166,-0.00086225,-0.00023357,0.00043827,0.00009805,0.00042414,0.00
 091700,-0.00026938,0.00110341,0.00050035,-0.00145694,0.00098927,0.0000
 5791,0.00016286,0.00004037,-0.00398485,0.00890073,0.01676546,0.0002619
 8,0.00088429,-0.00024327,-0.00208845,-0.00063394,-0.00047193,0.0004638
 5,0.00105418,0.00083669,0.00006233,0.00006173,-0.00001689,-0.00000725,
 -0.00000798,-0.00000639,-0.00001159,-0.00000184,0.00000218,-0.00000285
 ,-0.00000988,0.00000612,0.00001507,-0.00002529,-0.00004016,0.00000527,
 0.00000300,0.00000185,0.00000204,0.00000586,0.00000304,-0.00001043,0.0
 0000060,0.00000701,0.00007454,-0.00002176,0.00003173,-0.00001392,-0.00
 000595,-0.00000024,0.00000146,-0.00000131,-0.00000601,-0.00000440,0.00
 000790,-0.00000123,0.00004381,-0.00004686,0.00007416,-0.00001794,-0.00
 000459,-0.00001269,0.00000130,0.00001321,0.00000872,-0.00000165,0.0000
 1616,-0.00000617,-0.00001214,-0.00001038,0.00000218,0.,-0.00000247,-0.
 00000218,0.00000753,0.00000440,0.00000037,-0.00000099,0.00000248,-0.00
 000060,0.00003318,0.00013236,0.00001695,-0.00000891,-0.00002644,0.0000
 0009,0.00000264,0.00001136,-0.00000515,0.00000193,0.00000134,-0.000000
 96,-0.00000778,0.00000123,-0.00000046,-0.00000177,-0.00000709,-0.00000
 033,0.00001534,0.00001261,0.00000963,-0.00000092,-0.00000645,0.0000009
 2,-0.00000131,0.00000389,-0.00000136,-0.00000071,0.00000047,-0.0000013
 5,-0.00133850,0.00007287,-0.00030810,0.00045697,-0.00030627,0.00006154
 ,0.00041039,0.00012083,0.00003575,0.00026394,-0.00001265,0.00030265,-0
 .14585329,0.05287212,0.08355264,-0.07251712,0.02902117,0.01619805,0.01
 294639,0.01436022,0.00289069,0.21104480,0.00042182,0.00060364,-0.00023
 093,0.00027413,-0.00008326,-0.00007593,0.00020798,0.00018823,-0.000007
 58,-0.00005158,0.00009809,0.00003525,0.00013509,-0.00015375,0.00000834
 ,-0.00001773,-0.00004664,0.00001503,0.00002400,0.00002306,-0.00002809,
 -0.00006417,-0.00010518,-0.00000063,-0.00000019,-0.00000415,-0.0000023
 3,0.00001150,0.00001118,0.00000375,-0.00016720,-0.00004805,0.00000427,
 -0.00008244,-0.00018040,0.00000544,-0.00052571,-0.00054617,0.00006115,
 -0.00123960,-0.00085589,-0.00079275,-0.00026118,0.00014679,-0.00001865
 ,0.00008501,-0.00007295,-0.00006488,-0.00000786,0.00000866,0.00000414,
 -0.00003228,0.00000254,0.00002339,-0.00007633,0.00008003,0.00008976,0.
 00015403,0.00072273,-0.00027241,-0.00000800,-0.00010179,0.00014530,0.0
 0001248,-0.00365468,0.00190639,0.00005061,-0.00016000,0.00007344,-0.00
 022150,0.00102304,0.00005435,-0.00015719,-0.00037018,-0.00009403,0.000
 04761,-0.00011989,-0.00001016,-0.00142238,-0.00243113,-0.00021191,0.00
 009129,-0.00024653,-0.00003334,0.00011585,0.00010164,0.00004816,-0.000
 01847,0.00002328,0.00001692,-0.00001019,0.00002302,-0.00001117,-0.0000
 0545,-0.00002143,0.00000829,0.00001124,-0.00001409,-0.00000293,-0.0000
 3577,-0.00018815,0.00006730,-0.00000234,-0.00009513,0.00000848,-0.0000
 1844,0.00000985,0.00000905,0.00001567,-0.00001586,-0.00001319,-0.00000
 048,-0.00000719,-0.00000490,0.00000007,-0.00000104,0.00000367,-0.00001
 439,0.00000968,0.00002297,0.00000869,0.00000040,-0.00000042,0.00003830
 ,0.00017776,-0.00009085,-0.00001529,0.00006316,-0.00003327,-0.00000065
 ,0.00003254,-0.00000634,0.00001646,0.00001839,-0.00000993,0.00002392,0
 .00001439,-0.00000024,-0.00014265,-0.00003995,-0.00001174,0.00000155,0
 .00000741,-0.00000624,0.00017271,-0.00004682,-0.00003854,0.00008509,0.
 00004752,0.00004603,0.00012261,-0.00025988,-0.00007789,-0.00004457,0.0
 0015107,0.00009008,-0.00005839,0.00011378,-0.00002882,0.00063794,-0.00
 038883,0.00004703,-0.00026481,-0.00014055,0.00018406,0.00001602,0.0003
 1424,-0.00134552,-0.00012536,-0.00006625,-0.00040286,-0.00002940,0.000
 02665,-0.00001124,0.00078171,0.00889621,0.00194811,-0.00017905,0.00007
 664,0.00019240,0.00013150,0.00012639,0.00079738,-0.00009055,-0.0002175
 3,0.00008533,-0.00000749,-0.00001049,-0.00000229,0.00000407,0.00000176
 ,0.00000187,-0.00000068,-0.00000032,0.00000144,0.00000174,0.00000094,-
 0.00000175,-0.00000282,-0.00000412,0.00000150,-0.00000315,0.00000302,0
 .00000007,-0.00000056,-0.00000235,-0.00000005,0.00000294,0.00000095,-0
 .00000065,-0.00002203,0.00000318,-0.00000533,0.00000587,0.00000383,-0.
 00000186,-0.00000205,-0.00000154,0.00000040,-0.00000249,-0.00000017,0.
 00000140,-0.00001695,0.00000615,-0.00001721,0.00001154,0.00000296,0.00
 000498,-0.00000063,-0.00001061,-0.00000456,-0.00000502,-0.00000036,0.0
 0000358,0.00004214,0.00009611,-0.00002485,-0.00000185,-0.00001628,-0.0
 0000456,-0.00001775,-0.00001008,0.00000356,-0.00000279,-0.00001216,0.0
 0001247,0.00004614,-0.00002335,-0.00005398,-0.00001337,-0.00000063,0.0
 0001057,0.00000396,-0.00000002,-0.00000811,-0.00000455,0.00000050,0.00
 000239,0.00000066,-0.00000248,-0.00000230,0.00000078,0.00000125,0.,0.0
 0001093,0.00000152,0.00000054,-0.00000025,0.00000033,-0.00000081,0.000
 00183,-0.00000064,-0.00000130,-0.00000330,0.00000047,0.00000317,-0.000
 00940,-0.00018602,-0.00017271,-0.00002170,0.00008302,0.00003295,0.0000
 2164,0.00005363,0.00002365,-0.00001134,0.00003506,0.00003287,0.0527516
 8,-0.10724215,-0.05652878,0.02473496,0.00250144,-0.00201710,0.02652197
 ,-0.06569931,-0.04296168,-0.10231597,0.16796829,0.00044229,0.00076774,
 -0.00024637,0.00009552,-0.00018045,-0.00033143,0.00015325,0.00001709,-
 0.00001741,-0.00011125,0.00012226,-0.00004642,0.00006975,-0.00018936,-
 0.00015695,-0.00001962,-0.00006168,0.00002792,-0.00000052,-0.00001698,
 0.00002744,-0.00005381,-0.00007630,0.00003369,-0.00000286,0.00001253,0
 .00001835,0.00000593,0.00003993,0.00004184,-0.00007473,0.00001309,0.00
 011519,-0.00004345,-0.00002498,0.00007389,-0.00026125,-0.00018009,0.00
 026778,-0.00073954,-0.00073712,0.00028510,-0.00024800,0.00003853,0.000
 16033,0.00010848,-0.00012780,-0.00020354,0.00000853,0.00000904,0.00005
 112,-0.00003389,0.00004599,0.00005278,-0.00001953,0.00022720,0.0002702
 3,0.00010718,0.00079956,-0.00075485,-0.00000546,-0.00018612,0.00027428
 ,0.00007525,0.00135308,-0.00057009,0.00000700,-0.00006630,0.00010870,0
 .00006046,0.00208102,-0.00128447,-0.00023615,-0.00069645,0.00002890,-0
 .00004432,-0.00035603,0.00005176,-0.00109023,-0.00257249,0.00042958,0.
 00010683,-0.00015288,-0.00002741,0.00005399,0.00003486,-0.00001363,-0.
 00004589,0.00000090,0.00001588,0.00000345,0.00001867,0.00000502,-0.000
 10685,0.00001632,0.00001629,0.00003721,-0.00000411,0.00003532,-0.00059
 499,-0.00035363,-0.00058204,-0.00014098,0.00013667,-0.00006325,-0.0000
 5798,0.00003431,0.00000359,-0.00002883,-0.00004495,-0.00003739,0.00002
 038,-0.00001471,-0.00004267,-0.00001260,0.00002361,0.00003185,-0.00000
 079,0.00001817,0.00000956,0.00001746,-0.00000106,-0.00000125,0.0002611
 6,-0.00007178,0.00017298,0.00089553,0.00035201,-0.00119253,0.00012790,
 0.00008057,-0.00002103,0.00011185,-0.00001645,-0.00003629,0.00010715,-
 0.00007543,0.00002326,-0.00006893,-0.00002888,-0.00009282,0.00001130,0
 .00000086,0.00001217,0.00002915,0.00000457,-0.00001987,0.00006242,0.00
 000993,0.00015555,-0.00380635,-0.00110135,0.00094538,0.00100471,0.0012
 4530,0.00025556,0.00159757,-0.00014367,0.00020275,0.00058655,0.0027362
 2,-0.00105346,0.00077823,0.00040361,-0.00087129,-0.00395706,-0.0010065
 0,-0.00462960,-0.00017785,0.00063514,0.00013573,-0.00003421,-0.0001736
 9,-0.00000541,0.03518434,-0.01658353,-0.03093506,0.00016801,-0.0008681
 0,-0.00008181,0.00192547,0.00106892,0.00091955,-0.00014316,-0.00079560
 ,-0.00046282,-0.00008454,-0.00008976,0.00002512,0.00001282,0.00001585,
 0.00000866,0.00001849,0.00000559,-0.00000499,0.00000134,0.00000948,-0.
 00000388,-0.00002167,0.00002613,0.00002939,-0.00000477,-0.00000433,-0.
 00000365,0.00000055,-0.00000744,0.00000259,0.00001210,-0.00000022,-0.0
 0000695,-0.00007491,0.00002219,-0.00004600,0.00001191,0.00000434,0.000
 00195,0.00000337,0.00000040,0.00001187,0.00000596,-0.00000680,0.000001
 06,0.00002068,0.00003279,-0.00009953,0.00000749,0.,0.00001283,-0.00001
 880,-0.00000586,0.00000890,-0.00000489,-0.00000739,0.00001003,0.000016
 38,0.00004012,-0.00001391,-0.00000182,0.00000117,0.00000088,-0.0000082
 7,-0.00000525,-0.00000114,0.00000213,-0.00000949,0.00000977,-0.0001022
 6,-0.00020884,-0.00009406,0.00003308,0.00004276,0.00001535,-0.00001779
 ,-0.00001793,-0.00000494,-0.00000157,-0.00000256,0.00000301,0.00001681
 ,0.00000092,0.00000277,0.00000350,0.00000983,0.00000273,-0.00003585,-0
 .00002176,-0.00001997,0.00000349,0.00000998,-0.00000138,0.00000280,-0.
 00000495,0.00000349,0.00000356,0.00000031,0.00000082,0.00244152,-0.000
 24932,0.00115801,-0.00080148,0.00054875,-0.00021430,-0.00078477,-0.000
 22112,-0.00018658,-0.00046733,0.00001526,-0.00069956,0.08042824,-0.054
 95475,-0.16901799,0.00178935,0.00193767,0.02046040,0.00582580,-0.03195
 199,0.00095210,-0.12029387,0.09960691,0.18621894\\-0.00000011,0.000002
 49,-0.00000105,0.00000036,0.00000204,-0.00000407,0.00000067,0.00000056
 ,-0.00000295,0.00000046,0.00000151,-0.00000244,-0.00000016,0.00000211,
 -0.00000056,0.00000070,0.00000064,-0.00000416,0.00000037,-0.00000323,-
 0.00000513,-0.00000025,0.00000358,-0.00000267,0.00000018,0.00000227,-0
 .00000296,-0.00000180,0.00000280,-0.00000030,0.00000191,0.00000282,-0.
 00000133,0.00000060,0.00000179,-0.00000428,-0.00000003,0.00000164,-0.0
 0000255,-0.00000042,0.00000310,-0.00000284,-0.00000061,0.00000342,-0.0
 0000095,0.00000030,0.00000153,-0.00000103,-0.00000001,0.00000154,-0.00
 000120,0.00000018,0.00000029,-0.00000226,0.00000106,0.00000192,-0.0000
 0321,0.00000116,0.00000156,-0.00000233,0.00000050,0.00000067,-0.000002
 64,-0.00000016,0.00000271,-0.00000244,-0.00000024,0.00000250,-0.000003
 29,-0.00000094,0.00000383,-0.00000029,-0.00000095,0.00000455,-0.000000
 61,-0.00000110,0.00000508,-0.00000153,-0.00000243,0.00000073,-0.000001
 79,-0.00000068,0.00000359,0.00000102,-0.00000146,0.00000193,0.00000069
 ,-0.00000162,0.00000288,0.00000216,-0.00000160,0.00000365,0.00000032,0
 .00000014,-0.00000247,0.00000321,0.00000011,-0.00000244,-0.00000059,-0
 .00000020,-0.00000097,0.00000235,0.00000003,-0.00000044,0.00000266,-0.
 00000019,-0.00000117,0.00000225,0.00000261,-0.00000134,-0.00000257,-0.
 00000005,-0.00000095,0.00000113,-0.00000024,-0.00000279,0.00000295,-0.
 00000074,-0.00000092,0.00000371,-0.00000078,-0.00000077,0.00000353,-0.
 00000181,0.,0.,0.00000114,-0.00000320,-0.00000082,-0.00000031,-0.00000
 119,0.00000266,0.00000013,-0.00000303,0.00000252,-0.00000118,-0.000001
 38,0.00000466,-0.00000186,0.00000035,0.00000469,-0.00000181,0.00000100
 ,0.00000440,-0.00000130,0.00000136,0.00000311,-0.00000117,0.00000183,0
 .00000291,0.00000251,-0.00000226,-0.00000172,0.00000117,-0.00000263,0.
 00000562,-0.00000140,-0.00000110,0.00000154,-0.00000031,-0.00000091,-0
 .00000027,0.00000015,-0.00000095,0.00000007,-0.00000037,0.00000090,0.0
 0000133,-0.00000024,-0.00000059,0.00000084,0.00000095,-0.00000216,-0.0
 0000035,-0.00000075,-0.00000015,0.00000063,-0.00000070,0.00000135,0.00
 000227,0.00000016,0.00000017,0.00000050,-0.00000025,0.00000115,0.00000
 053,0.00000073,-0.00000308,0.00000038,0.00000081,-0.00000359,-0.000000
 67,0.00000176,-0.00000399,0.00000135,0.00000093,-0.00000307,-0.0000010
 6,-0.00000026,-0.00000391,0.00000362,-0.00000016,-0.00000397,0.0000045
 4,0.00000061,-0.00000480,0.00000324,0.00000074,-0.00000461,0.00000350,
 -0.00000138,-0.00000123,0.00000566,-0.00000056,-0.00000171,0.00000478,
 -0.00000147,-0.00000047,0.00000505,-0.00000122,-0.00000185,0.00000622,
 -0.00000144,0.00000271,0.00000388,-0.00000201,0.00000287,0.00000343,-0
 .00000152,0.00000172,0.00000360,-0.00000238,0.00000268,0.00000499,0.00
 000118,0.00000160,-0.00000497,0.00000106,0.00000245,-0.00000607,0.0000
 0079,0.00000131,-0.00000490,0.00000127,0.00000088,-0.00000583,0.000000
 21,-0.00000133,-0.00000345,0.00000028,-0.00000089,-0.00000201,0.000002
 50,-0.00000399,-0.00000334,0.00000232,-0.00000377,-0.00000365,0.000002
 14,-0.00000389,-0.00000364,0.00000223,-0.00000342,-0.00000476,0.000004
 44,-0.00000535,-0.00000478,0.00000242,-0.00000265,-0.00000581,-0.00000
 061,-0.00000164,-0.00000152,0.00000120,-0.00000331,-0.00000196,0.00000
 041,-0.00000119,-0.00000071,0.00000070,-0.00000061,-0.00000169,0.00000
 018,0.,0.00000046,0.00000059,-0.00000249,0.00000009,-0.00000144,0.0000
 0268,0.00000110,0.00000030,0.00000558,0.00000436,-0.00000157,0.0000024
 3,0.00000245,-0.00000113,0.00000314,0.00000102\\\@


 KINETICS       FACT
 ---------  =  -------
 MECHANISM     FICTION
 Job cpu time:       3 days  3 hours  3 minutes  9.1 seconds.
 Elapsed time:       0 days  2 hours  5 minutes 21.1 seconds.
 File lengths (MBytes):  RWF=  10020 Int=      0 D2E=      0 Chk=     87 Scr=      1
 Normal termination of Gaussian 16 at Mon Jun 17 19:32:07 2019.
