 Entering Gaussian System, Link 0=g16
 Input=clay_new-glu_gluC6-BCDR-Na2_1Me2O-bisCF3-ts-b98-custom-pcm_thf.gjf
 Output=clay_new-glu_gluC6-BCDR-Na2_1Me2O-bisCF3-ts-b98-custom-pcm_thf.out
 Initial command:
 /home/ekwan/sw/g16/l1.exe "/scratch/users/ekwan/clay_new-glu_gluC6-BCDR-Na2_1Me2O-bisCF3-ts-b98-custom-pcm_thf/Gau-5831.inp" -scrdir="/scratch/users/ekwan/clay_new-glu_gluC6-BCDR-Na2_1Me2O-bisCF3-ts-b98-custom-pcm_thf/"
 Entering Link 1 = /home/ekwan/sw/g16/l1.exe PID=      5833.
  
 Copyright (c) 1988,1990,1992,1993,1995,1998,2003,2009,2016,
            Gaussian, Inc.  All Rights Reserved.
  
 This is part of the Gaussian(R) 16 program.  It is based on
 the Gaussian(R) 09 system (copyright 2009, Gaussian, Inc.),
 the Gaussian(R) 03 system (copyright 2003, Gaussian, Inc.),
 the Gaussian(R) 98 system (copyright 1998, Gaussian, Inc.),
 the Gaussian(R) 94 system (copyright 1995, Gaussian, Inc.),
 the Gaussian 92(TM) system (copyright 1992, Gaussian, Inc.),
 the Gaussian 90(TM) system (copyright 1990, Gaussian, Inc.),
 the Gaussian 88(TM) system (copyright 1988, Gaussian, Inc.),
 the Gaussian 86(TM) system (copyright 1986, Carnegie Mellon
 University), and the Gaussian 82(TM) system (copyright 1983,
 Carnegie Mellon University). Gaussian is a federally registered
 trademark of Gaussian, Inc.
  
 This software contains proprietary and confidential information,
 including trade secrets, belonging to Gaussian, Inc.
  
 This software is provided under written license and may be
 used, copied, transmitted, or stored only in accord with that
 written license.
  
 The following legend is applicable only to US Government
 contracts under FAR:
  
                    RESTRICTED RIGHTS LEGEND
  
 Use, reproduction and disclosure by the US Government is
 subject to restrictions as set forth in subparagraphs (a)
 and (c) of the Commercial Computer Software - Restricted
 Rights clause in FAR 52.227-19.
  
 Gaussian, Inc.
 340 Quinnipiac St., Bldg. 40, Wallingford CT 06492
  
  
 ---------------------------------------------------------------
 Warning -- This program may not be used in any manner that
 competes with the business of Gaussian, Inc. or will provide
 assistance to any competitor of Gaussian, Inc.  The licensee
 of this program is prohibited from giving any competitor of
 Gaussian, Inc. access to this program.  By using this program,
 the user acknowledges that Gaussian, Inc. is engaged in the
 business of creating and licensing software in the field of
 computational chemistry and represents and warrants to the
 licensee that it is not a competitor of Gaussian, Inc. and that
 it will not use this program in any manner prohibited above.
 ---------------------------------------------------------------
  

 Cite this work as:
 Gaussian 16, Revision A.03,
 M. J. Frisch, G. W. Trucks, H. B. Schlegel, G. E. Scuseria, 
 M. A. Robb, J. R. Cheeseman, G. Scalmani, V. Barone, 
 G. A. Petersson, H. Nakatsuji, X. Li, M. Caricato, A. V. Marenich, 
 J. Bloino, B. G. Janesko, R. Gomperts, B. Mennucci, H. P. Hratchian, 
 J. V. Ortiz, A. F. Izmaylov, J. L. Sonnenberg, D. Williams-Young, 
 F. Ding, F. Lipparini, F. Egidi, J. Goings, B. Peng, A. Petrone, 
 T. Henderson, D. Ranasinghe, V. G. Zakrzewski, J. Gao, N. Rega, 
 G. Zheng, W. Liang, M. Hada, M. Ehara, K. Toyota, R. Fukuda, 
 J. Hasegawa, M. Ishida, T. Nakajima, Y. Honda, O. Kitao, H. Nakai, 
 T. Vreven, K. Throssell, J. A. Montgomery, Jr., J. E. Peralta, 
 F. Ogliaro, M. J. Bearpark, J. J. Heyd, E. N. Brothers, K. N. Kudin, 
 V. N. Staroverov, T. A. Keith, R. Kobayashi, J. Normand, 
 K. Raghavachari, A. P. Rendell, J. C. Burant, S. S. Iyengar, 
 J. Tomasi, M. Cossi, J. M. Millam, M. Klene, C. Adamo, R. Cammi, 
 J. W. Ochterski, R. L. Martin, K. Morokuma, O. Farkas, 
 J. B. Foresman, and D. J. Fox, Gaussian, Inc., Wallingford CT, 2016.
 
 ******************************************
 Gaussian 16:  AS64L-G16RevA.03 25-Dec-2016
                16-Jun-2019 
 ******************************************
 %mem=48GB
 %nprocshared=32
 Will use up to   32 processors via shared memory.
 ----------------------------------------------------------------------
 #p opt=(ts,calcfc,noeigentest,maxstep=5) freq=noraman pop=none extraba
 sis 6-31g* scrf=(pcm,solvent=tetrahydrofuran) b98
 ----------------------------------------------------------------------
 1/5=1,8=5,10=4,11=1,18=20,26=3,38=1/1,3;
 2/9=110,12=2,17=6,18=5,40=1/2;
 3/5=1,6=6,7=1,10=1,11=2,25=1,30=1,70=2201,71=2,72=20,74=-18,140=1/1,2,3;
 4//1;
 5/5=2,38=5,53=20/2;
 8/6=4,10=90,11=11/1;
 11/6=1,8=1,9=11,15=111,16=1/1,2,10;
 10/6=1,13=1/2;
 7/10=1,18=20,25=1/1,2,3,16;
 1/5=1,8=5,10=4,11=1,18=20,26=3/3(2);
 2/9=110/2;
 99//99;
 2/9=110/2;
 3/5=7,6=1,7=1,11=2,25=1,30=1,70=2205,71=1,72=20,74=-18,82=7/1,2,3;
 4/5=5,16=3,69=1/1;
 5/5=2,38=5,53=20/2;
 7//1,2,3,16;
 1/5=1,8=5,11=1,18=20,26=3/3(-5);
 2/9=110/2;
 99/9=1/99;
 Leave Link    1 at Sun Jun 16 11:40:30 2019, MaxMem=  6442450944 cpu:               4.7 elap:               0.2
 (Enter /home/ekwan/sw/g16/l101.exe)
 -----
 title
 -----
 Symbolic Z-matrix:
 Charge =  0 Multiplicity = 1
 6                    -2.18126   1.01323   2.50438 
 6                    -2.60447   1.93181   1.34789 
 6                    -1.96187   3.31978   1.52026 
 6                    -0.04524   2.40479   2.68363 
 6                    -0.64975   0.98744   2.64485 
 1                    -2.15274   3.9433    0.6331 
 1                    -2.21444   1.51957   0.40504 
 1                    -2.61467   1.40545   3.4346 
 1                    -0.34959   2.88306   3.62667 
 1                    -0.23388   0.45027   1.78036 
 8                    -0.54746   3.19207   1.57641 
 8                    -2.49255   3.92328   2.66238 
 8                    -4.01222   2.08063   1.27649 
 8                    -2.66279  -0.30667   2.25994 
 8                    -0.30176   0.32085   3.85546 
 6                     1.49881   2.42103   2.57938 
 1                     1.85705   1.81901   3.44189 
 1                     1.79909   3.47114   2.80591 
 8                     1.99824   1.99445   1.3676 
 6                    -4.63278   1.27719   0.28426 
 1                    -4.26408   1.52494  -0.72374 
 1                    -4.4701    0.20829   0.46751 
 1                    -5.70479   1.49455   0.329 
 6                    -3.42973  -0.85895   3.31714 
 1                    -2.85847  -0.89253   4.25544 
 1                    -4.35678  -0.28943   3.48311 
 1                    -3.68434  -1.87931   3.01565 
 6                     0.33641  -0.9345    3.68278 
 1                    -0.28347  -1.62403   3.0939 
 1                     1.31896  -0.83361   3.19803 
 1                     0.48022  -1.35182   4.68538 
 6                     4.36181  -0.61924  -1.22302 
 6                     3.43905   0.46932  -0.64373 
 6                     2.16864  -0.12095  -0.09716 
 6                     3.1123   -2.33361   0.16676 
 6                     4.48984  -1.73992  -0.17304 
 1                     1.31408   0.51005   0.09375 
 1                     3.9078    0.88999   0.26486 
 1                     3.91475  -1.01713  -2.14475 
 1                     2.72589  -2.87261  -0.70521 
 1                     4.93871  -1.32065   0.73686 
 8                     2.1064   -1.28649   0.42828 
 8                    -0.28513   0.32117  -3.85124 
 8                     3.11978   1.51151  -1.5325 
 8                     5.63045  -0.05251  -1.48311 
 8                     5.27078  -2.80934  -0.67129 
 6                     3.08679  -3.25425   1.37535 
 1                     3.68356  -4.14812   1.13219 
 1                     2.04817  -3.57702   1.5573 
 8                     3.61063  -2.56679   2.48717 
 16                   -0.09128   0.07253  -2.40969 
 8                    -0.27232   1.2807   -1.55292 
 8                     1.18097  -0.6568   -2.08659 
 6                    -1.41745  -1.05437  -1.89828 
 6                    -2.67239  -0.9542   -2.50033 
 6                    -1.18746  -1.96354  -0.86358 
 6                    -3.71205  -1.77405  -2.04708 
 1                    -2.83271  -0.25361  -3.31405 
 6                    -2.2334   -2.77922  -0.42603 
 1                    -0.20756  -2.03154  -0.40426 
 6                    -3.4999   -2.68838  -1.01178 
 1                    -4.31086  -3.32205  -0.66713 
 6                     4.00548   2.63449  -1.46282 
 1                     4.01327   3.05258  -0.44671 
 1                     5.02119   2.35456  -1.75827 
 1                     3.60367   3.37522  -2.1589 
 6                     6.20716  -0.44655  -2.72455 
 1                     6.35033  -1.53296  -2.77354 
 1                     5.583    -0.12441  -3.57054 
 1                     7.17863   0.05207  -2.78555 
 6                     6.50493  -3.00304   0.01408 
 1                     7.15407  -2.12301  -0.08148 
 1                     6.33896  -3.21718   1.07952 
 1                     6.98778  -3.86399  -0.45621 
 6                     3.59706  -3.3525    3.66722 
 1                     4.02275  -2.73737   4.46417 
 1                     2.5714   -3.64341   3.94215 
 1                     4.20304  -4.26405   3.54802 
 6                    -2.13599   5.29221   2.80799 
 1                    -2.68171   5.66816   3.67734 
 1                    -1.05781   5.41394   2.9746 
 1                    -2.42892   5.87042   1.91826 
 11                    0.8725    2.94259  -0.36142 
 8                     1.06478   4.77371  -1.81822 
 6                     0.73298   4.67827  -3.19764 
 1                     1.62915   4.7966   -3.82479 
 1                     0.30496   3.68554  -3.35919 
 1                    -0.00354   5.44598  -3.47682 
 6                     1.64167   6.02667  -1.48167 
 1                     0.94416   6.85051  -1.69305 
 1                     1.86317   6.00577  -0.41075 
 1                     2.57308   6.19461  -2.04296 
 6                    -5.09425  -1.6143   -2.63826 
 9                    -5.79086  -0.64542  -2.00167 
 9                    -5.81699  -2.74508  -2.54021 
 9                    -5.04467  -1.27043  -3.93782 
 6                    -1.98886  -3.81051   0.65132 
 9                    -0.8986   -3.52241   1.39236 
 9                    -1.79326  -5.03716   0.12665 
 9                    -3.03744  -3.91038   1.49305 
 
 Add virtual bond connecting atoms H37        and O19        Dist= 3.92D+00.
 Add virtual bond connecting atoms O52        and H37        Dist= 4.56D+00.
 Add virtual bond connecting atoms O52        and Na83       Dist= 4.43D+00.
 Add virtual bond connecting atoms O53        and C34        Dist= 4.32D+00.
 Add virtual bond connecting atoms O84        and Na83       Dist= 4.44D+00.
 ITRead=  0  0  0  0  0  0  0  0  0  0  0  0  0  0  0  0  0  0  0  0
 ITRead=  0  0  0  0  0  0  0  0  0  0  0  0  0  0  0  0  0  0  0  0
 ITRead=  0  0  0  0  0  0  0  0  0  0  0  0  0  0  0  0  0  0  0  0
 ITRead=  0  0  0  0  0  0  0  0  0  0  0  0  0  0  0  0  0  0  0  0
 ITRead=  0  0  0  0  0  0  0  0  0  0  0  0  0  0  0  0  0  0  0  0
 MicOpt= -1 -1 -1 -1 -1 -1 -1 -1 -1 -1 -1 -1 -1 -1 -1 -1 -1 -1 -1 -1
 MicOpt= -1 -1 -1 -1 -1 -1 -1 -1 -1 -1 -1 -1 -1 -1 -1 -1 -1 -1 -1 -1
 MicOpt= -1 -1 -1 -1 -1 -1 -1 -1 -1 -1 -1 -1 -1 -1 -1 -1 -1 -1 -1 -1
 MicOpt= -1 -1 -1 -1 -1 -1 -1 -1 -1 -1 -1 -1 -1 -1 -1 -1 -1 -1 -1 -1
 MicOpt= -1 -1 -1 -1 -1 -1 -1 -1 -1 -1 -1 -1 -1 -1 -1 -1 -1 -1 -1 -1
 NAtoms=    100 NQM=      100 NQMF=       0 NMMI=      0 NMMIF=      0
                NMic=       0 NMicF=      0.
                    Isotopes and Nuclear Properties:
 (Nuclear quadrupole moments (NQMom) in fm**2, nuclear magnetic moments (NMagM)
  in nuclear magnetons)

  Atom         1           2           3           4           5           6           7           8           9          10
 IAtWgt=          12          12          12          12          12           1           1           1           1           1
 AtmWgt=  12.0000000  12.0000000  12.0000000  12.0000000  12.0000000   1.0078250   1.0078250   1.0078250   1.0078250   1.0078250
 NucSpn=           0           0           0           0           0           1           1           1           1           1
 AtZEff=   0.0000000   0.0000000   0.0000000   0.0000000   0.0000000   0.0000000   0.0000000   0.0000000   0.0000000   0.0000000
 NQMom=    0.0000000   0.0000000   0.0000000   0.0000000   0.0000000   0.0000000   0.0000000   0.0000000   0.0000000   0.0000000
 NMagM=    0.0000000   0.0000000   0.0000000   0.0000000   0.0000000   2.7928460   2.7928460   2.7928460   2.7928460   2.7928460
 AtZNuc=   6.0000000   6.0000000   6.0000000   6.0000000   6.0000000   1.0000000   1.0000000   1.0000000   1.0000000   1.0000000

  Atom        11          12          13          14          15          16          17          18          19          20
 IAtWgt=          16          16          16          16          16          12           1           1          16          12
 AtmWgt=  15.9949146  15.9949146  15.9949146  15.9949146  15.9949146  12.0000000   1.0078250   1.0078250  15.9949146  12.0000000
 NucSpn=           0           0           0           0           0           0           1           1           0           0
 AtZEff=   0.0000000   0.0000000   0.0000000   0.0000000   0.0000000   0.0000000   0.0000000   0.0000000   0.0000000   0.0000000
 NQMom=    0.0000000   0.0000000   0.0000000   0.0000000   0.0000000   0.0000000   0.0000000   0.0000000   0.0000000   0.0000000
 NMagM=    0.0000000   0.0000000   0.0000000   0.0000000   0.0000000   0.0000000   2.7928460   2.7928460   0.0000000   0.0000000
 AtZNuc=   8.0000000   8.0000000   8.0000000   8.0000000   8.0000000   6.0000000   1.0000000   1.0000000   8.0000000   6.0000000

  Atom        21          22          23          24          25          26          27          28          29          30
 IAtWgt=           1           1           1          12           1           1           1          12           1           1
 AtmWgt=   1.0078250   1.0078250   1.0078250  12.0000000   1.0078250   1.0078250   1.0078250  12.0000000   1.0078250   1.0078250
 NucSpn=           1           1           1           0           1           1           1           0           1           1
 AtZEff=   0.0000000   0.0000000   0.0000000   0.0000000   0.0000000   0.0000000   0.0000000   0.0000000   0.0000000   0.0000000
 NQMom=    0.0000000   0.0000000   0.0000000   0.0000000   0.0000000   0.0000000   0.0000000   0.0000000   0.0000000   0.0000000
 NMagM=    2.7928460   2.7928460   2.7928460   0.0000000   2.7928460   2.7928460   2.7928460   0.0000000   2.7928460   2.7928460
 AtZNuc=   1.0000000   1.0000000   1.0000000   6.0000000   1.0000000   1.0000000   1.0000000   6.0000000   1.0000000   1.0000000

  Atom        31          32          33          34          35          36          37          38          39          40
 IAtWgt=           1          12          12          12          12          12           1           1           1           1
 AtmWgt=   1.0078250  12.0000000  12.0000000  12.0000000  12.0000000  12.0000000   1.0078250   1.0078250   1.0078250   1.0078250
 NucSpn=           1           0           0           0           0           0           1           1           1           1
 AtZEff=   0.0000000   0.0000000   0.0000000   0.0000000   0.0000000   0.0000000   0.0000000   0.0000000   0.0000000   0.0000000
 NQMom=    0.0000000   0.0000000   0.0000000   0.0000000   0.0000000   0.0000000   0.0000000   0.0000000   0.0000000   0.0000000
 NMagM=    2.7928460   0.0000000   0.0000000   0.0000000   0.0000000   0.0000000   2.7928460   2.7928460   2.7928460   2.7928460
 AtZNuc=   1.0000000   6.0000000   6.0000000   6.0000000   6.0000000   6.0000000   1.0000000   1.0000000   1.0000000   1.0000000

  Atom        41          42          43          44          45          46          47          48          49          50
 IAtWgt=           1          16          16          16          16          16          12           1           1          16
 AtmWgt=   1.0078250  15.9949146  15.9949146  15.9949146  15.9949146  15.9949146  12.0000000   1.0078250   1.0078250  15.9949146
 NucSpn=           1           0           0           0           0           0           0           1           1           0
 AtZEff=   0.0000000   0.0000000   0.0000000   0.0000000   0.0000000   0.0000000   0.0000000   0.0000000   0.0000000   0.0000000
 NQMom=    0.0000000   0.0000000   0.0000000   0.0000000   0.0000000   0.0000000   0.0000000   0.0000000   0.0000000   0.0000000
 NMagM=    2.7928460   0.0000000   0.0000000   0.0000000   0.0000000   0.0000000   0.0000000   2.7928460   2.7928460   0.0000000
 AtZNuc=   1.0000000   8.0000000   8.0000000   8.0000000   8.0000000   8.0000000   6.0000000   1.0000000   1.0000000   8.0000000

  Atom        51          52          53          54          55          56          57          58          59          60
 IAtWgt=          32          16          16          12          12          12          12           1          12           1
 AtmWgt=  31.9720718  15.9949146  15.9949146  12.0000000  12.0000000  12.0000000  12.0000000   1.0078250  12.0000000   1.0078250
 NucSpn=           0           0           0           0           0           0           0           1           0           1
 AtZEff=   0.0000000   0.0000000   0.0000000   0.0000000   0.0000000   0.0000000   0.0000000   0.0000000   0.0000000   0.0000000
 NQMom=    0.0000000   0.0000000   0.0000000   0.0000000   0.0000000   0.0000000   0.0000000   0.0000000   0.0000000   0.0000000
 NMagM=    0.0000000   0.0000000   0.0000000   0.0000000   0.0000000   0.0000000   0.0000000   2.7928460   0.0000000   2.7928460
 AtZNuc=  16.0000000   8.0000000   8.0000000   6.0000000   6.0000000   6.0000000   6.0000000   1.0000000   6.0000000   1.0000000

  Atom        61          62          63          64          65          66          67          68          69          70
 IAtWgt=          12           1          12           1           1           1          12           1           1           1
 AtmWgt=  12.0000000   1.0078250  12.0000000   1.0078250   1.0078250   1.0078250  12.0000000   1.0078250   1.0078250   1.0078250
 NucSpn=           0           1           0           1           1           1           0           1           1           1
 AtZEff=   0.0000000   0.0000000   0.0000000   0.0000000   0.0000000   0.0000000   0.0000000   0.0000000   0.0000000   0.0000000
 NQMom=    0.0000000   0.0000000   0.0000000   0.0000000   0.0000000   0.0000000   0.0000000   0.0000000   0.0000000   0.0000000
 NMagM=    0.0000000   2.7928460   0.0000000   2.7928460   2.7928460   2.7928460   0.0000000   2.7928460   2.7928460   2.7928460
 AtZNuc=   6.0000000   1.0000000   6.0000000   1.0000000   1.0000000   1.0000000   6.0000000   1.0000000   1.0000000   1.0000000

  Atom        71          72          73          74          75          76          77          78          79          80
 IAtWgt=          12           1           1           1          12           1           1           1          12           1
 AtmWgt=  12.0000000   1.0078250   1.0078250   1.0078250  12.0000000   1.0078250   1.0078250   1.0078250  12.0000000   1.0078250
 NucSpn=           0           1           1           1           0           1           1           1           0           1
 AtZEff=   0.0000000   0.0000000   0.0000000   0.0000000   0.0000000   0.0000000   0.0000000   0.0000000   0.0000000   0.0000000
 NQMom=    0.0000000   0.0000000   0.0000000   0.0000000   0.0000000   0.0000000   0.0000000   0.0000000   0.0000000   0.0000000
 NMagM=    0.0000000   2.7928460   2.7928460   2.7928460   0.0000000   2.7928460   2.7928460   2.7928460   0.0000000   2.7928460
 AtZNuc=   6.0000000   1.0000000   1.0000000   1.0000000   6.0000000   1.0000000   1.0000000   1.0000000   6.0000000   1.0000000

  Atom        81          82          83          84          85          86          87          88          89          90
 IAtWgt=           1           1          23          16          12           1           1           1          12           1
 AtmWgt=   1.0078250   1.0078250  22.9897697  15.9949146  12.0000000   1.0078250   1.0078250   1.0078250  12.0000000   1.0078250
 NucSpn=           1           1           3           0           0           1           1           1           0           1
 AtZEff=   0.0000000   0.0000000   0.0000000   0.0000000   0.0000000   0.0000000   0.0000000   0.0000000   0.0000000   0.0000000
 NQMom=    0.0000000   0.0000000  10.4000000   0.0000000   0.0000000   0.0000000   0.0000000   0.0000000   0.0000000   0.0000000
 NMagM=    2.7928460   2.7928460   2.2175200   0.0000000   0.0000000   2.7928460   2.7928460   2.7928460   0.0000000   2.7928460
 AtZNuc=   1.0000000   1.0000000  11.0000000   8.0000000   6.0000000   1.0000000   1.0000000   1.0000000   6.0000000   1.0000000

  Atom        91          92          93          94          95          96          97          98          99         100
 IAtWgt=           1           1          12          19          19          19          12          19          19          19
 AtmWgt=   1.0078250   1.0078250  12.0000000  18.9984033  18.9984033  18.9984033  12.0000000  18.9984033  18.9984033  18.9984033
 NucSpn=           1           1           0           1           1           1           0           1           1           1
 AtZEff=   0.0000000   0.0000000   0.0000000   0.0000000   0.0000000   0.0000000   0.0000000   0.0000000   0.0000000   0.0000000
 NQMom=    0.0000000   0.0000000   0.0000000   0.0000000   0.0000000   0.0000000   0.0000000   0.0000000   0.0000000   0.0000000
 NMagM=    2.7928460   2.7928460   0.0000000   2.6288670   2.6288670   2.6288670   0.0000000   2.6288670   2.6288670   2.6288670
 AtZNuc=   1.0000000   1.0000000   6.0000000   9.0000000   9.0000000   9.0000000   6.0000000   9.0000000   9.0000000   9.0000000
 Leave Link  101 at Sun Jun 16 11:40:31 2019, MaxMem=  6442450944 cpu:              17.2 elap:               0.6
 (Enter /home/ekwan/sw/g16/l103.exe)

 GradGradGradGradGradGradGradGradGradGradGradGradGradGradGradGradGradGrad
 Berny optimization.
 Initialization pass.
                           ----------------------------
                           !    Initial Parameters    !
                           ! (Angstroms and Degrees)  !
 --------------------------                            --------------------------
 ! Name  Definition              Value          Derivative Info.                !
 --------------------------------------------------------------------------------
 ! R1    R(1,2)                  1.5363         calculate D2E/DX2 analytically  !
 ! R2    R(1,5)                  1.5382         calculate D2E/DX2 analytically  !
 ! R3    R(1,8)                  1.0986         calculate D2E/DX2 analytically  !
 ! R4    R(1,14)                 1.4261         calculate D2E/DX2 analytically  !
 ! R5    R(2,3)                  1.5392         calculate D2E/DX2 analytically  !
 ! R6    R(2,7)                  1.1005         calculate D2E/DX2 analytically  !
 ! R7    R(2,13)                 1.4174         calculate D2E/DX2 analytically  !
 ! R8    R(3,6)                  1.101          calculate D2E/DX2 analytically  !
 ! R9    R(3,11)                 1.4213         calculate D2E/DX2 analytically  !
 ! R10   R(3,12)                 1.3965         calculate D2E/DX2 analytically  !
 ! R11   R(4,5)                  1.5414         calculate D2E/DX2 analytically  !
 ! R12   R(4,9)                  1.1003         calculate D2E/DX2 analytically  !
 ! R13   R(4,11)                 1.4484         calculate D2E/DX2 analytically  !
 ! R14   R(4,16)                 1.5476         calculate D2E/DX2 analytically  !
 ! R15   R(5,10)                 1.0995         calculate D2E/DX2 analytically  !
 ! R16   R(5,15)                 1.4251         calculate D2E/DX2 analytically  !
 ! R17   R(12,79)                1.4221         calculate D2E/DX2 analytically  !
 ! R18   R(13,20)                1.4196         calculate D2E/DX2 analytically  !
 ! R19   R(14,24)                1.4181         calculate D2E/DX2 analytically  !
 ! R20   R(15,28)                1.4188         calculate D2E/DX2 analytically  !
 ! R21   R(16,17)                1.1112         calculate D2E/DX2 analytically  !
 ! R22   R(16,18)                1.1154         calculate D2E/DX2 analytically  !
 ! R23   R(16,19)                1.3783         calculate D2E/DX2 analytically  !
 ! R24   R(19,37)                2.0722         calculate D2E/DX2 analytically  !
 ! R25   R(19,83)                2.2706         calculate D2E/DX2 analytically  !
 ! R26   R(20,21)                1.1015         calculate D2E/DX2 analytically  !
 ! R27   R(20,22)                1.0966         calculate D2E/DX2 analytically  !
 ! R28   R(20,23)                1.0947         calculate D2E/DX2 analytically  !
 ! R29   R(24,25)                1.099          calculate D2E/DX2 analytically  !
 ! R30   R(24,26)                1.1006         calculate D2E/DX2 analytically  !
 ! R31   R(24,27)                1.094          calculate D2E/DX2 analytically  !
 ! R32   R(28,29)                1.0984         calculate D2E/DX2 analytically  !
 ! R33   R(28,30)                1.1003         calculate D2E/DX2 analytically  !
 ! R34   R(28,31)                1.0955         calculate D2E/DX2 analytically  !
 ! R35   R(32,33)                1.5401         calculate D2E/DX2 analytically  !
 ! R36   R(32,36)                1.541          calculate D2E/DX2 analytically  !
 ! R37   R(32,39)                1.099          calculate D2E/DX2 analytically  !
 ! R38   R(32,45)                1.4136         calculate D2E/DX2 analytically  !
 ! R39   R(33,34)                1.5037         calculate D2E/DX2 analytically  !
 ! R40   R(33,38)                1.1055         calculate D2E/DX2 analytically  !
 ! R41   R(33,44)                1.4064         calculate D2E/DX2 analytically  !
 ! R42   R(34,37)                1.0793         calculate D2E/DX2 analytically  !
 ! R43   R(34,42)                1.28           calculate D2E/DX2 analytically  !
 ! R44   R(34,53)                2.2848         calculate D2E/DX2 analytically  !
 ! R45   R(35,36)                1.538          calculate D2E/DX2 analytically  !
 ! R46   R(35,40)                1.0955         calculate D2E/DX2 analytically  !
 ! R47   R(35,42)                1.4754         calculate D2E/DX2 analytically  !
 ! R48   R(35,47)                1.5195         calculate D2E/DX2 analytically  !
 ! R49   R(36,41)                1.0978         calculate D2E/DX2 analytically  !
 ! R50   R(36,46)                1.4148         calculate D2E/DX2 analytically  !
 ! R51   R(37,52)                2.4129         calculate D2E/DX2 analytically  !
 ! R52   R(43,51)                1.4756         calculate D2E/DX2 analytically  !
 ! R53   R(44,63)                1.4319         calculate D2E/DX2 analytically  !
 ! R54   R(45,67)                1.4244         calculate D2E/DX2 analytically  !
 ! R55   R(46,71)                1.4249         calculate D2E/DX2 analytically  !
 ! R56   R(47,48)                1.1019         calculate D2E/DX2 analytically  !
 ! R57   R(47,49)                1.1027         calculate D2E/DX2 analytically  !
 ! R58   R(47,50)                1.4082         calculate D2E/DX2 analytically  !
 ! R59   R(50,75)                1.4178         calculate D2E/DX2 analytically  !
 ! R60   R(51,52)                1.4921         calculate D2E/DX2 analytically  !
 ! R61   R(51,53)                1.5016         calculate D2E/DX2 analytically  !
 ! R62   R(51,54)                1.8139         calculate D2E/DX2 analytically  !
 ! R63   R(52,83)                2.3435         calculate D2E/DX2 analytically  !
 ! R64   R(54,55)                1.3955         calculate D2E/DX2 analytically  !
 ! R65   R(54,56)                1.3965         calculate D2E/DX2 analytically  !
 ! R66   R(55,57)                1.3995         calculate D2E/DX2 analytically  !
 ! R67   R(55,58)                1.0857         calculate D2E/DX2 analytically  !
 ! R68   R(56,59)                1.3967         calculate D2E/DX2 analytically  !
 ! R69   R(56,60)                1.0843         calculate D2E/DX2 analytically  !
 ! R70   R(57,61)                1.3974         calculate D2E/DX2 analytically  !
 ! R71   R(57,93)                1.5118         calculate D2E/DX2 analytically  !
 ! R72   R(59,61)                1.3983         calculate D2E/DX2 analytically  !
 ! R73   R(59,97)                1.5113         calculate D2E/DX2 analytically  !
 ! R74   R(61,62)                1.0853         calculate D2E/DX2 analytically  !
 ! R75   R(63,64)                1.0988         calculate D2E/DX2 analytically  !
 ! R76   R(63,65)                1.0942         calculate D2E/DX2 analytically  !
 ! R77   R(63,66)                1.093          calculate D2E/DX2 analytically  !
 ! R78   R(67,68)                1.0969         calculate D2E/DX2 analytically  !
 ! R79   R(67,69)                1.0996         calculate D2E/DX2 analytically  !
 ! R80   R(67,70)                1.0937         calculate D2E/DX2 analytically  !
 ! R81   R(71,72)                1.0977         calculate D2E/DX2 analytically  !
 ! R82   R(71,73)                1.0993         calculate D2E/DX2 analytically  !
 ! R83   R(71,74)                1.0934         calculate D2E/DX2 analytically  !
 ! R84   R(75,76)                1.093          calculate D2E/DX2 analytically  !
 ! R85   R(75,77)                1.101          calculate D2E/DX2 analytically  !
 ! R86   R(75,78)                1.1011         calculate D2E/DX2 analytically  !
 ! R87   R(79,80)                1.0931         calculate D2E/DX2 analytically  !
 ! R88   R(79,81)                1.0977         calculate D2E/DX2 analytically  !
 ! R89   R(79,82)                1.1008         calculate D2E/DX2 analytically  !
 ! R90   R(83,84)                2.3478         calculate D2E/DX2 analytically  !
 ! R91   R(84,85)                1.422          calculate D2E/DX2 analytically  !
 ! R92   R(84,89)                1.4199         calculate D2E/DX2 analytically  !
 ! R93   R(85,86)                1.1002         calculate D2E/DX2 analytically  !
 ! R94   R(85,87)                1.0931         calculate D2E/DX2 analytically  !
 ! R95   R(85,88)                1.0999         calculate D2E/DX2 analytically  !
 ! R96   R(89,90)                1.1            calculate D2E/DX2 analytically  !
 ! R97   R(89,91)                1.0938         calculate D2E/DX2 analytically  !
 ! R98   R(89,92)                1.1004         calculate D2E/DX2 analytically  !
 ! R99   R(93,94)                1.3525         calculate D2E/DX2 analytically  !
 ! R100  R(93,95)                1.3456         calculate D2E/DX2 analytically  !
 ! R101  R(93,96)                1.3452         calculate D2E/DX2 analytically  !
 ! R102  R(97,98)                1.3494         calculate D2E/DX2 analytically  !
 ! R103  R(97,99)                1.3484         calculate D2E/DX2 analytically  !
 ! R104  R(97,100)               1.3483         calculate D2E/DX2 analytically  !
 ! A1    A(2,1,5)              110.6742         calculate D2E/DX2 analytically  !
 ! A2    A(2,1,8)              108.3747         calculate D2E/DX2 analytically  !
 ! A3    A(2,1,14)             109.3501         calculate D2E/DX2 analytically  !
 ! A4    A(5,1,8)              108.7507         calculate D2E/DX2 analytically  !
 ! A5    A(5,1,14)             109.6538         calculate D2E/DX2 analytically  !
 ! A6    A(8,1,14)             110.0196         calculate D2E/DX2 analytically  !
 ! A7    A(1,2,3)              109.8679         calculate D2E/DX2 analytically  !
 ! A8    A(1,2,7)              108.8641         calculate D2E/DX2 analytically  !
 ! A9    A(1,2,13)             111.9808         calculate D2E/DX2 analytically  !
 ! A10   A(3,2,7)              106.605          calculate D2E/DX2 analytically  !
 ! A11   A(3,2,13)             109.003          calculate D2E/DX2 analytically  !
 ! A12   A(7,2,13)             110.3762         calculate D2E/DX2 analytically  !
 ! A13   A(2,3,6)              110.368          calculate D2E/DX2 analytically  !
 ! A14   A(2,3,11)             109.8081         calculate D2E/DX2 analytically  !
 ! A15   A(2,3,12)             108.8215         calculate D2E/DX2 analytically  !
 ! A16   A(6,3,11)             104.7882         calculate D2E/DX2 analytically  !
 ! A17   A(6,3,12)             110.388          calculate D2E/DX2 analytically  !
 ! A18   A(11,3,12)            112.6247         calculate D2E/DX2 analytically  !
 ! A19   A(5,4,9)              108.2262         calculate D2E/DX2 analytically  !
 ! A20   A(5,4,11)             110.1563         calculate D2E/DX2 analytically  !
 ! A21   A(5,4,16)             113.53           calculate D2E/DX2 analytically  !
 ! A22   A(9,4,11)             108.8441         calculate D2E/DX2 analytically  !
 ! A23   A(9,4,16)             109.2162         calculate D2E/DX2 analytically  !
 ! A24   A(11,4,16)            106.7824         calculate D2E/DX2 analytically  !
 ! A25   A(1,5,4)              112.1713         calculate D2E/DX2 analytically  !
 ! A26   A(1,5,10)             108.2396         calculate D2E/DX2 analytically  !
 ! A27   A(1,5,15)             109.1807         calculate D2E/DX2 analytically  !
 ! A28   A(4,5,10)             108.705          calculate D2E/DX2 analytically  !
 ! A29   A(4,5,15)             108.2383         calculate D2E/DX2 analytically  !
 ! A30   A(10,5,15)            110.3059         calculate D2E/DX2 analytically  !
 ! A31   A(3,11,4)             115.094          calculate D2E/DX2 analytically  !
 ! A32   A(3,12,79)            113.8565         calculate D2E/DX2 analytically  !
 ! A33   A(2,13,20)            114.2024         calculate D2E/DX2 analytically  !
 ! A34   A(1,14,24)            114.5379         calculate D2E/DX2 analytically  !
 ! A35   A(5,15,28)            114.8535         calculate D2E/DX2 analytically  !
 ! A36   A(4,16,17)            105.2887         calculate D2E/DX2 analytically  !
 ! A37   A(4,16,18)            105.3531         calculate D2E/DX2 analytically  !
 ! A38   A(4,16,19)            114.675          calculate D2E/DX2 analytically  !
 ! A39   A(17,16,18)           105.4043         calculate D2E/DX2 analytically  !
 ! A40   A(17,16,19)           113.4486         calculate D2E/DX2 analytically  !
 ! A41   A(18,16,19)           111.8615         calculate D2E/DX2 analytically  !
 ! A42   A(16,19,37)           129.9788         calculate D2E/DX2 analytically  !
 ! A43   A(16,19,83)           111.1359         calculate D2E/DX2 analytically  !
 ! A44   A(37,19,83)            70.5696         calculate D2E/DX2 analytically  !
 ! A45   A(13,20,21)           111.4696         calculate D2E/DX2 analytically  !
 ! A46   A(13,20,22)           111.7169         calculate D2E/DX2 analytically  !
 ! A47   A(13,20,23)           106.6859         calculate D2E/DX2 analytically  !
 ! A48   A(21,20,22)           108.8137         calculate D2E/DX2 analytically  !
 ! A49   A(21,20,23)           108.6937         calculate D2E/DX2 analytically  !
 ! A50   A(22,20,23)           109.3878         calculate D2E/DX2 analytically  !
 ! A51   A(14,24,25)           111.5473         calculate D2E/DX2 analytically  !
 ! A52   A(14,24,26)           111.4968         calculate D2E/DX2 analytically  !
 ! A53   A(14,24,27)           106.4789         calculate D2E/DX2 analytically  !
 ! A54   A(25,24,26)           108.9592         calculate D2E/DX2 analytically  !
 ! A55   A(25,24,27)           109.1322         calculate D2E/DX2 analytically  !
 ! A56   A(26,24,27)           109.1565         calculate D2E/DX2 analytically  !
 ! A57   A(15,28,29)           111.521          calculate D2E/DX2 analytically  !
 ! A58   A(15,28,30)           111.9731         calculate D2E/DX2 analytically  !
 ! A59   A(15,28,31)           106.5422         calculate D2E/DX2 analytically  !
 ! A60   A(29,28,30)           108.986          calculate D2E/DX2 analytically  !
 ! A61   A(29,28,31)           109.0028         calculate D2E/DX2 analytically  !
 ! A62   A(30,28,31)           108.7191         calculate D2E/DX2 analytically  !
 ! A63   A(33,32,36)           107.9091         calculate D2E/DX2 analytically  !
 ! A64   A(33,32,39)           109.1255         calculate D2E/DX2 analytically  !
 ! A65   A(33,32,45)           108.8772         calculate D2E/DX2 analytically  !
 ! A66   A(36,32,39)           109.9963         calculate D2E/DX2 analytically  !
 ! A67   A(36,32,45)           110.0201         calculate D2E/DX2 analytically  !
 ! A68   A(39,32,45)           110.849          calculate D2E/DX2 analytically  !
 ! A69   A(32,33,34)           111.4357         calculate D2E/DX2 analytically  !
 ! A70   A(32,33,38)           108.907          calculate D2E/DX2 analytically  !
 ! A71   A(32,33,44)           114.9656         calculate D2E/DX2 analytically  !
 ! A72   A(34,33,38)           102.0552         calculate D2E/DX2 analytically  !
 ! A73   A(34,33,44)           109.1954         calculate D2E/DX2 analytically  !
 ! A74   A(38,33,44)           109.4903         calculate D2E/DX2 analytically  !
 ! A75   A(33,34,37)           120.2479         calculate D2E/DX2 analytically  !
 ! A76   A(33,34,42)           123.2114         calculate D2E/DX2 analytically  !
 ! A77   A(33,34,53)            98.0932         calculate D2E/DX2 analytically  !
 ! A78   A(37,34,42)           114.9127         calculate D2E/DX2 analytically  !
 ! A79   A(37,34,53)            87.0686         calculate D2E/DX2 analytically  !
 ! A80   A(42,34,53)            97.0566         calculate D2E/DX2 analytically  !
 ! A81   A(36,35,40)           109.2681         calculate D2E/DX2 analytically  !
 ! A82   A(36,35,42)           112.0772         calculate D2E/DX2 analytically  !
 ! A83   A(36,35,47)           115.1271         calculate D2E/DX2 analytically  !
 ! A84   A(40,35,42)           104.4654         calculate D2E/DX2 analytically  !
 ! A85   A(40,35,47)           109.2118         calculate D2E/DX2 analytically  !
 ! A86   A(42,35,47)           106.1156         calculate D2E/DX2 analytically  !
 ! A87   A(32,36,35)           110.9054         calculate D2E/DX2 analytically  !
 ! A88   A(32,36,41)           108.7207         calculate D2E/DX2 analytically  !
 ! A89   A(32,36,46)           110.8302         calculate D2E/DX2 analytically  !
 ! A90   A(35,36,41)           109.3001         calculate D2E/DX2 analytically  !
 ! A91   A(35,36,46)           106.2839         calculate D2E/DX2 analytically  !
 ! A92   A(41,36,46)           110.786          calculate D2E/DX2 analytically  !
 ! A93   A(19,37,34)           105.4331         calculate D2E/DX2 analytically  !
 ! A94   A(19,37,52)           114.0663         calculate D2E/DX2 analytically  !
 ! A95   A(34,37,52)           125.9146         calculate D2E/DX2 analytically  !
 ! A96   A(34,42,35)           122.7071         calculate D2E/DX2 analytically  !
 ! A97   A(33,44,63)           114.2032         calculate D2E/DX2 analytically  !
 ! A98   A(32,45,67)           114.3808         calculate D2E/DX2 analytically  !
 ! A99   A(36,46,71)           114.2946         calculate D2E/DX2 analytically  !
 ! A100  A(35,47,48)           107.8705         calculate D2E/DX2 analytically  !
 ! A101  A(35,47,49)           108.9282         calculate D2E/DX2 analytically  !
 ! A102  A(35,47,50)           109.0233         calculate D2E/DX2 analytically  !
 ! A103  A(48,47,49)           108.0021         calculate D2E/DX2 analytically  !
 ! A104  A(48,47,50)           111.6393         calculate D2E/DX2 analytically  !
 ! A105  A(49,47,50)           111.283          calculate D2E/DX2 analytically  !
 ! A106  A(47,50,75)           112.5223         calculate D2E/DX2 analytically  !
 ! A107  A(43,51,52)           114.1144         calculate D2E/DX2 analytically  !
 ! A108  A(43,51,53)           113.7864         calculate D2E/DX2 analytically  !
 ! A109  A(43,51,54)           106.5029         calculate D2E/DX2 analytically  !
 ! A110  A(52,51,53)           111.8705         calculate D2E/DX2 analytically  !
 ! A111  A(52,51,54)           104.6215         calculate D2E/DX2 analytically  !
 ! A112  A(53,51,54)           104.8941         calculate D2E/DX2 analytically  !
 ! A113  A(37,52,51)            93.0655         calculate D2E/DX2 analytically  !
 ! A114  A(37,52,83)            63.7907         calculate D2E/DX2 analytically  !
 ! A115  A(51,52,83)           143.7876         calculate D2E/DX2 analytically  !
 ! A116  A(34,53,51)           116.0832         calculate D2E/DX2 analytically  !
 ! A117  A(51,54,55)           119.4236         calculate D2E/DX2 analytically  !
 ! A118  A(51,54,56)           119.5353         calculate D2E/DX2 analytically  !
 ! A119  A(55,54,56)           120.9648         calculate D2E/DX2 analytically  !
 ! A120  A(54,55,57)           119.098          calculate D2E/DX2 analytically  !
 ! A121  A(54,55,58)           120.1644         calculate D2E/DX2 analytically  !
 ! A122  A(57,55,58)           120.7359         calculate D2E/DX2 analytically  !
 ! A123  A(54,56,59)           119.2749         calculate D2E/DX2 analytically  !
 ! A124  A(54,56,60)           120.2337         calculate D2E/DX2 analytically  !
 ! A125  A(59,56,60)           120.4911         calculate D2E/DX2 analytically  !
 ! A126  A(55,57,61)           120.6947         calculate D2E/DX2 analytically  !
 ! A127  A(55,57,93)           119.3846         calculate D2E/DX2 analytically  !
 ! A128  A(61,57,93)           119.8444         calculate D2E/DX2 analytically  !
 ! A129  A(56,59,61)           120.6032         calculate D2E/DX2 analytically  !
 ! A130  A(56,59,97)           120.0442         calculate D2E/DX2 analytically  !
 ! A131  A(61,59,97)           119.3068         calculate D2E/DX2 analytically  !
 ! A132  A(57,61,59)           119.3626         calculate D2E/DX2 analytically  !
 ! A133  A(57,61,62)           120.2533         calculate D2E/DX2 analytically  !
 ! A134  A(59,61,62)           120.3841         calculate D2E/DX2 analytically  !
 ! A135  A(44,63,64)           110.3528         calculate D2E/DX2 analytically  !
 ! A136  A(44,63,65)           111.1238         calculate D2E/DX2 analytically  !
 ! A137  A(44,63,66)           105.8492         calculate D2E/DX2 analytically  !
 ! A138  A(64,63,65)           109.9049         calculate D2E/DX2 analytically  !
 ! A139  A(64,63,66)           109.4914         calculate D2E/DX2 analytically  !
 ! A140  A(65,63,66)           110.0387         calculate D2E/DX2 analytically  !
 ! A141  A(45,67,68)           111.4543         calculate D2E/DX2 analytically  !
 ! A142  A(45,67,69)           111.0801         calculate D2E/DX2 analytically  !
 ! A143  A(45,67,70)           106.3872         calculate D2E/DX2 analytically  !
 ! A144  A(68,67,69)           109.2626         calculate D2E/DX2 analytically  !
 ! A145  A(68,67,70)           109.4587         calculate D2E/DX2 analytically  !
 ! A146  A(69,67,70)           109.131          calculate D2E/DX2 analytically  !
 ! A147  A(46,71,72)           111.1822         calculate D2E/DX2 analytically  !
 ! A148  A(46,71,73)           111.2155         calculate D2E/DX2 analytically  !
 ! A149  A(46,71,74)           106.4178         calculate D2E/DX2 analytically  !
 ! A150  A(72,71,73)           109.2567         calculate D2E/DX2 analytically  !
 ! A151  A(72,71,74)           109.4307         calculate D2E/DX2 analytically  !
 ! A152  A(73,71,74)           109.2775         calculate D2E/DX2 analytically  !
 ! A153  A(50,75,76)           106.9335         calculate D2E/DX2 analytically  !
 ! A154  A(50,75,77)           111.2962         calculate D2E/DX2 analytically  !
 ! A155  A(50,75,78)           111.3114         calculate D2E/DX2 analytically  !
 ! A156  A(76,75,77)           109.2341         calculate D2E/DX2 analytically  !
 ! A157  A(76,75,78)           109.2994         calculate D2E/DX2 analytically  !
 ! A158  A(77,75,78)           108.7223         calculate D2E/DX2 analytically  !
 ! A159  A(12,79,80)           106.6978         calculate D2E/DX2 analytically  !
 ! A160  A(12,79,81)           111.6264         calculate D2E/DX2 analytically  !
 ! A161  A(12,79,82)           110.8646         calculate D2E/DX2 analytically  !
 ! A162  A(80,79,81)           109.359          calculate D2E/DX2 analytically  !
 ! A163  A(80,79,82)           109.2259         calculate D2E/DX2 analytically  !
 ! A164  A(81,79,82)           109.0135         calculate D2E/DX2 analytically  !
 ! A165  A(19,83,52)           109.4644         calculate D2E/DX2 analytically  !
 ! A166  A(19,83,84)           139.2491         calculate D2E/DX2 analytically  !
 ! A167  A(52,83,84)           106.1179         calculate D2E/DX2 analytically  !
 ! A168  A(83,84,85)           122.0372         calculate D2E/DX2 analytically  !
 ! A169  A(83,84,89)           125.0615         calculate D2E/DX2 analytically  !
 ! A170  A(85,84,89)           112.5796         calculate D2E/DX2 analytically  !
 ! A171  A(84,85,86)           110.8355         calculate D2E/DX2 analytically  !
 ! A172  A(84,85,87)           107.1995         calculate D2E/DX2 analytically  !
 ! A173  A(84,85,88)           110.8325         calculate D2E/DX2 analytically  !
 ! A174  A(86,85,87)           109.4136         calculate D2E/DX2 analytically  !
 ! A175  A(86,85,88)           109.0072         calculate D2E/DX2 analytically  !
 ! A176  A(87,85,88)           109.5229         calculate D2E/DX2 analytically  !
 ! A177  A(84,89,90)           110.9623         calculate D2E/DX2 analytically  !
 ! A178  A(84,89,91)           107.3069         calculate D2E/DX2 analytically  !
 ! A179  A(84,89,92)           110.9586         calculate D2E/DX2 analytically  !
 ! A180  A(90,89,91)           109.3219         calculate D2E/DX2 analytically  !
 ! A181  A(90,89,92)           108.9307         calculate D2E/DX2 analytically  !
 ! A182  A(91,89,92)           109.3256         calculate D2E/DX2 analytically  !
 ! A183  A(57,93,94)           111.2567         calculate D2E/DX2 analytically  !
 ! A184  A(57,93,95)           111.9488         calculate D2E/DX2 analytically  !
 ! A185  A(57,93,96)           111.7833         calculate D2E/DX2 analytically  !
 ! A186  A(94,93,95)           106.9214         calculate D2E/DX2 analytically  !
 ! A187  A(94,93,96)           106.8923         calculate D2E/DX2 analytically  !
 ! A188  A(95,93,96)           107.7587         calculate D2E/DX2 analytically  !
 ! A189  A(59,97,98)           112.1186         calculate D2E/DX2 analytically  !
 ! A190  A(59,97,99)           111.5223         calculate D2E/DX2 analytically  !
 ! A191  A(59,97,100)          111.6988         calculate D2E/DX2 analytically  !
 ! A192  A(98,97,99)           106.9004         calculate D2E/DX2 analytically  !
 ! A193  A(98,97,100)          107.5377         calculate D2E/DX2 analytically  !
 ! A194  A(99,97,100)          106.7582         calculate D2E/DX2 analytically  !
 ! D1    D(5,1,2,3)            -52.8987         calculate D2E/DX2 analytically  !
 ! D2    D(5,1,2,7)             63.4974         calculate D2E/DX2 analytically  !
 ! D3    D(5,1,2,13)          -174.1789         calculate D2E/DX2 analytically  !
 ! D4    D(8,1,2,3)             66.2697         calculate D2E/DX2 analytically  !
 ! D5    D(8,1,2,7)           -177.3342         calculate D2E/DX2 analytically  !
 ! D6    D(8,1,2,13)           -55.0104         calculate D2E/DX2 analytically  !
 ! D7    D(14,1,2,3)          -173.7977         calculate D2E/DX2 analytically  !
 ! D8    D(14,1,2,7)           -57.4016         calculate D2E/DX2 analytically  !
 ! D9    D(14,1,2,13)           64.9221         calculate D2E/DX2 analytically  !
 ! D10   D(2,1,5,4)             50.0752         calculate D2E/DX2 analytically  !
 ! D11   D(2,1,5,10)           -69.8531         calculate D2E/DX2 analytically  !
 ! D12   D(2,1,5,15)           170.0474         calculate D2E/DX2 analytically  !
 ! D13   D(8,1,5,4)            -68.866          calculate D2E/DX2 analytically  !
 ! D14   D(8,1,5,10)           171.2057         calculate D2E/DX2 analytically  !
 ! D15   D(8,1,5,15)            51.1061         calculate D2E/DX2 analytically  !
 ! D16   D(14,1,5,4)           170.7939         calculate D2E/DX2 analytically  !
 ! D17   D(14,1,5,10)           50.8656         calculate D2E/DX2 analytically  !
 ! D18   D(14,1,5,15)          -69.234          calculate D2E/DX2 analytically  !
 ! D19   D(2,1,14,24)         -126.2453         calculate D2E/DX2 analytically  !
 ! D20   D(5,1,14,24)          112.2372         calculate D2E/DX2 analytically  !
 ! D21   D(8,1,14,24)           -7.3281         calculate D2E/DX2 analytically  !
 ! D22   D(1,2,3,6)            172.7345         calculate D2E/DX2 analytically  !
 ! D23   D(1,2,3,11)            57.7031         calculate D2E/DX2 analytically  !
 ! D24   D(1,2,3,12)           -65.9905         calculate D2E/DX2 analytically  !
 ! D25   D(7,2,3,6)             54.9266         calculate D2E/DX2 analytically  !
 ! D26   D(7,2,3,11)           -60.1048         calculate D2E/DX2 analytically  !
 ! D27   D(7,2,3,12)           176.2016         calculate D2E/DX2 analytically  !
 ! D28   D(13,2,3,6)           -64.2155         calculate D2E/DX2 analytically  !
 ! D29   D(13,2,3,11)         -179.2468         calculate D2E/DX2 analytically  !
 ! D30   D(13,2,3,12)           57.0596         calculate D2E/DX2 analytically  !
 ! D31   D(1,2,13,20)         -100.5407         calculate D2E/DX2 analytically  !
 ! D32   D(3,2,13,20)          137.6816         calculate D2E/DX2 analytically  !
 ! D33   D(7,2,13,20)           20.9166         calculate D2E/DX2 analytically  !
 ! D34   D(2,3,11,4)           -61.7349         calculate D2E/DX2 analytically  !
 ! D35   D(6,3,11,4)           179.7302         calculate D2E/DX2 analytically  !
 ! D36   D(12,3,11,4)           59.7055         calculate D2E/DX2 analytically  !
 ! D37   D(2,3,12,79)         -170.4706         calculate D2E/DX2 analytically  !
 ! D38   D(6,3,12,79)          -49.2078         calculate D2E/DX2 analytically  !
 ! D39   D(11,3,12,79)          67.5296         calculate D2E/DX2 analytically  !
 ! D40   D(9,4,5,1)             68.4944         calculate D2E/DX2 analytically  !
 ! D41   D(9,4,5,10)          -171.8489         calculate D2E/DX2 analytically  !
 ! D42   D(9,4,5,15)           -52.0251         calculate D2E/DX2 analytically  !
 ! D43   D(11,4,5,1)           -50.3944         calculate D2E/DX2 analytically  !
 ! D44   D(11,4,5,10)           69.2623         calculate D2E/DX2 analytically  !
 ! D45   D(11,4,5,15)         -170.9139         calculate D2E/DX2 analytically  !
 ! D46   D(16,4,5,1)          -170.0841         calculate D2E/DX2 analytically  !
 ! D47   D(16,4,5,10)          -50.4274         calculate D2E/DX2 analytically  !
 ! D48   D(16,4,5,15)           69.3964         calculate D2E/DX2 analytically  !
 ! D49   D(5,4,11,3)            57.6586         calculate D2E/DX2 analytically  !
 ! D50   D(9,4,11,3)           -60.8518         calculate D2E/DX2 analytically  !
 ! D51   D(16,4,11,3)         -178.6379         calculate D2E/DX2 analytically  !
 ! D52   D(5,4,16,17)          -58.849          calculate D2E/DX2 analytically  !
 ! D53   D(5,4,16,18)         -169.9873         calculate D2E/DX2 analytically  !
 ! D54   D(5,4,16,19)           66.571          calculate D2E/DX2 analytically  !
 ! D55   D(9,4,16,17)           62.0173         calculate D2E/DX2 analytically  !
 ! D56   D(9,4,16,18)          -49.121          calculate D2E/DX2 analytically  !
 ! D57   D(9,4,16,19)         -172.5627         calculate D2E/DX2 analytically  !
 ! D58   D(11,4,16,17)         179.5586         calculate D2E/DX2 analytically  !
 ! D59   D(11,4,16,18)          68.4203         calculate D2E/DX2 analytically  !
 ! D60   D(11,4,16,19)         -55.0214         calculate D2E/DX2 analytically  !
 ! D61   D(1,5,15,28)          111.4562         calculate D2E/DX2 analytically  !
 ! D62   D(4,5,15,28)         -126.1782         calculate D2E/DX2 analytically  !
 ! D63   D(10,5,15,28)          -7.3642         calculate D2E/DX2 analytically  !
 ! D64   D(3,12,79,80)         174.9076         calculate D2E/DX2 analytically  !
 ! D65   D(3,12,79,81)         -65.672          calculate D2E/DX2 analytically  !
 ! D66   D(3,12,79,82)          56.075          calculate D2E/DX2 analytically  !
 ! D67   D(2,13,20,21)         -60.9033         calculate D2E/DX2 analytically  !
 ! D68   D(2,13,20,22)          61.0792         calculate D2E/DX2 analytically  !
 ! D69   D(2,13,20,23)        -179.4213         calculate D2E/DX2 analytically  !
 ! D70   D(1,14,24,25)         -58.1821         calculate D2E/DX2 analytically  !
 ! D71   D(1,14,24,26)          63.8867         calculate D2E/DX2 analytically  !
 ! D72   D(1,14,24,27)        -177.147          calculate D2E/DX2 analytically  !
 ! D73   D(5,15,28,29)         -57.4814         calculate D2E/DX2 analytically  !
 ! D74   D(5,15,28,30)          64.9451         calculate D2E/DX2 analytically  !
 ! D75   D(5,15,28,31)        -176.314          calculate D2E/DX2 analytically  !
 ! D76   D(4,16,19,37)         -35.9454         calculate D2E/DX2 analytically  !
 ! D77   D(4,16,19,83)          45.932          calculate D2E/DX2 analytically  !
 ! D78   D(17,16,19,37)         85.0904         calculate D2E/DX2 analytically  !
 ! D79   D(17,16,19,83)        166.9678         calculate D2E/DX2 analytically  !
 ! D80   D(18,16,19,37)       -155.8315         calculate D2E/DX2 analytically  !
 ! D81   D(18,16,19,83)        -73.9541         calculate D2E/DX2 analytically  !
 ! D82   D(16,19,37,34)       -127.7645         calculate D2E/DX2 analytically  !
 ! D83   D(16,19,37,52)         90.0734         calculate D2E/DX2 analytically  !
 ! D84   D(83,19,37,34)        130.5109         calculate D2E/DX2 analytically  !
 ! D85   D(83,19,37,52)        -11.6512         calculate D2E/DX2 analytically  !
 ! D86   D(16,19,83,52)       -114.8301         calculate D2E/DX2 analytically  !
 ! D87   D(16,19,83,84)         95.7167         calculate D2E/DX2 analytically  !
 ! D88   D(37,19,83,52)         11.6167         calculate D2E/DX2 analytically  !
 ! D89   D(37,19,83,84)       -137.8365         calculate D2E/DX2 analytically  !
 ! D90   D(36,32,33,34)        -49.4932         calculate D2E/DX2 analytically  !
 ! D91   D(36,32,33,38)         62.324          calculate D2E/DX2 analytically  !
 ! D92   D(36,32,33,44)       -174.4125         calculate D2E/DX2 analytically  !
 ! D93   D(39,32,33,34)         70.0075         calculate D2E/DX2 analytically  !
 ! D94   D(39,32,33,38)       -178.1753         calculate D2E/DX2 analytically  !
 ! D95   D(39,32,33,44)        -54.9118         calculate D2E/DX2 analytically  !
 ! D96   D(45,32,33,34)       -168.8821         calculate D2E/DX2 analytically  !
 ! D97   D(45,32,33,38)        -57.065          calculate D2E/DX2 analytically  !
 ! D98   D(45,32,33,44)         66.1986         calculate D2E/DX2 analytically  !
 ! D99   D(33,32,36,35)         59.0905         calculate D2E/DX2 analytically  !
 ! D100  D(33,32,36,41)        -61.1092         calculate D2E/DX2 analytically  !
 ! D101  D(33,32,36,46)        176.8961         calculate D2E/DX2 analytically  !
 ! D102  D(39,32,36,35)        -59.8572         calculate D2E/DX2 analytically  !
 ! D103  D(39,32,36,41)        179.9432         calculate D2E/DX2 analytically  !
 ! D104  D(39,32,36,46)         57.9485         calculate D2E/DX2 analytically  !
 ! D105  D(45,32,36,35)        177.7521         calculate D2E/DX2 analytically  !
 ! D106  D(45,32,36,41)         57.5525         calculate D2E/DX2 analytically  !
 ! D107  D(45,32,36,46)        -64.4422         calculate D2E/DX2 analytically  !
 ! D108  D(33,32,45,67)       -137.199          calculate D2E/DX2 analytically  !
 ! D109  D(36,32,45,67)        104.7357         calculate D2E/DX2 analytically  !
 ! D110  D(39,32,45,67)        -17.1496         calculate D2E/DX2 analytically  !
 ! D111  D(32,33,34,37)       -163.2636         calculate D2E/DX2 analytically  !
 ! D112  D(32,33,34,42)         32.031          calculate D2E/DX2 analytically  !
 ! D113  D(32,33,34,53)        -71.9384         calculate D2E/DX2 analytically  !
 ! D114  D(38,33,34,37)         80.6446         calculate D2E/DX2 analytically  !
 ! D115  D(38,33,34,42)        -84.0608         calculate D2E/DX2 analytically  !
 ! D116  D(38,33,34,53)        171.9698         calculate D2E/DX2 analytically  !
 ! D117  D(44,33,34,37)        -35.1794         calculate D2E/DX2 analytically  !
 ! D118  D(44,33,34,42)        160.1153         calculate D2E/DX2 analytically  !
 ! D119  D(44,33,34,53)         56.1458         calculate D2E/DX2 analytically  !
 ! D120  D(32,33,44,63)        -92.0082         calculate D2E/DX2 analytically  !
 ! D121  D(34,33,44,63)        141.9097         calculate D2E/DX2 analytically  !
 ! D122  D(38,33,44,63)         30.9439         calculate D2E/DX2 analytically  !
 ! D123  D(33,34,37,19)        -55.5764         calculate D2E/DX2 analytically  !
 ! D124  D(33,34,37,52)         80.6682         calculate D2E/DX2 analytically  !
 ! D125  D(42,34,37,19)        110.34           calculate D2E/DX2 analytically  !
 ! D126  D(42,34,37,52)       -113.4155         calculate D2E/DX2 analytically  !
 ! D127  D(53,34,37,19)       -153.2382         calculate D2E/DX2 analytically  !
 ! D128  D(53,34,37,52)        -16.9936         calculate D2E/DX2 analytically  !
 ! D129  D(33,34,42,35)        -20.8688         calculate D2E/DX2 analytically  !
 ! D130  D(37,34,42,35)        173.6826         calculate D2E/DX2 analytically  !
 ! D131  D(53,34,42,35)         83.6439         calculate D2E/DX2 analytically  !
 ! D132  D(33,34,53,51)       -115.6587         calculate D2E/DX2 analytically  !
 ! D133  D(37,34,53,51)          4.4866         calculate D2E/DX2 analytically  !
 ! D134  D(42,34,53,51)        119.2372         calculate D2E/DX2 analytically  !
 ! D135  D(40,35,36,32)         67.9144         calculate D2E/DX2 analytically  !
 ! D136  D(40,35,36,41)       -172.2313         calculate D2E/DX2 analytically  !
 ! D137  D(40,35,36,46)        -52.626          calculate D2E/DX2 analytically  !
 ! D138  D(42,35,36,32)        -47.3844         calculate D2E/DX2 analytically  !
 ! D139  D(42,35,36,41)         72.4698         calculate D2E/DX2 analytically  !
 ! D140  D(42,35,36,46)       -167.9248         calculate D2E/DX2 analytically  !
 ! D141  D(47,35,36,32)       -168.7889         calculate D2E/DX2 analytically  !
 ! D142  D(47,35,36,41)        -48.9346         calculate D2E/DX2 analytically  !
 ! D143  D(47,35,36,46)         70.6708         calculate D2E/DX2 analytically  !
 ! D144  D(36,35,42,34)         27.9467         calculate D2E/DX2 analytically  !
 ! D145  D(40,35,42,34)        -90.2428         calculate D2E/DX2 analytically  !
 ! D146  D(47,35,42,34)        154.3993         calculate D2E/DX2 analytically  !
 ! D147  D(36,35,47,48)        -65.963          calculate D2E/DX2 analytically  !
 ! D148  D(36,35,47,49)        177.0461         calculate D2E/DX2 analytically  !
 ! D149  D(36,35,47,50)         55.4366         calculate D2E/DX2 analytically  !
 ! D150  D(40,35,47,48)         57.3636         calculate D2E/DX2 analytically  !
 ! D151  D(40,35,47,49)        -59.6273         calculate D2E/DX2 analytically  !
 ! D152  D(40,35,47,50)        178.7633         calculate D2E/DX2 analytically  !
 ! D153  D(42,35,47,48)        169.4516         calculate D2E/DX2 analytically  !
 ! D154  D(42,35,47,49)         52.4607         calculate D2E/DX2 analytically  !
 ! D155  D(42,35,47,50)        -69.1487         calculate D2E/DX2 analytically  !
 ! D156  D(32,36,46,71)        114.4243         calculate D2E/DX2 analytically  !
 ! D157  D(35,36,46,71)       -124.9868         calculate D2E/DX2 analytically  !
 ! D158  D(41,36,46,71)         -6.3546         calculate D2E/DX2 analytically  !
 ! D159  D(19,37,52,51)        162.8214         calculate D2E/DX2 analytically  !
 ! D160  D(19,37,52,83)         11.8688         calculate D2E/DX2 analytically  !
 ! D161  D(34,37,52,51)         29.7171         calculate D2E/DX2 analytically  !
 ! D162  D(34,37,52,83)       -121.2355         calculate D2E/DX2 analytically  !
 ! D163  D(33,44,63,64)        -58.5152         calculate D2E/DX2 analytically  !
 ! D164  D(33,44,63,65)         63.6666         calculate D2E/DX2 analytically  !
 ! D165  D(33,44,63,66)       -176.8917         calculate D2E/DX2 analytically  !
 ! D166  D(32,45,67,68)        -60.0897         calculate D2E/DX2 analytically  !
 ! D167  D(32,45,67,69)         62.008          calculate D2E/DX2 analytically  !
 ! D168  D(32,45,67,70)       -179.3418         calculate D2E/DX2 analytically  !
 ! D169  D(36,46,71,72)        -62.1076         calculate D2E/DX2 analytically  !
 ! D170  D(36,46,71,73)         59.8871         calculate D2E/DX2 analytically  !
 ! D171  D(36,46,71,74)        178.8065         calculate D2E/DX2 analytically  !
 ! D172  D(35,47,50,75)        178.8358         calculate D2E/DX2 analytically  !
 ! D173  D(48,47,50,75)        -62.0869         calculate D2E/DX2 analytically  !
 ! D174  D(49,47,50,75)         58.6674         calculate D2E/DX2 analytically  !
 ! D175  D(47,50,75,76)        179.7893         calculate D2E/DX2 analytically  !
 ! D176  D(47,50,75,77)        -60.9833         calculate D2E/DX2 analytically  !
 ! D177  D(47,50,75,78)         60.4739         calculate D2E/DX2 analytically  !
 ! D178  D(43,51,52,37)       -149.4642         calculate D2E/DX2 analytically  !
 ! D179  D(43,51,52,83)       -101.9577         calculate D2E/DX2 analytically  !
 ! D180  D(53,51,52,37)        -18.481          calculate D2E/DX2 analytically  !
 ! D181  D(53,51,52,83)         29.0255         calculate D2E/DX2 analytically  !
 ! D182  D(54,51,52,37)         94.5329         calculate D2E/DX2 analytically  !
 ! D183  D(54,51,52,83)        142.0394         calculate D2E/DX2 analytically  !
 ! D184  D(43,51,53,34)        147.1627         calculate D2E/DX2 analytically  !
 ! D185  D(52,51,53,34)         16.0123         calculate D2E/DX2 analytically  !
 ! D186  D(54,51,53,34)        -96.8318         calculate D2E/DX2 analytically  !
 ! D187  D(43,51,54,55)        -34.1358         calculate D2E/DX2 analytically  !
 ! D188  D(43,51,54,56)        149.0114         calculate D2E/DX2 analytically  !
 ! D189  D(52,51,54,55)         87.04           calculate D2E/DX2 analytically  !
 ! D190  D(52,51,54,56)        -89.8128         calculate D2E/DX2 analytically  !
 ! D191  D(53,51,54,55)       -155.0718         calculate D2E/DX2 analytically  !
 ! D192  D(53,51,54,56)         28.0754         calculate D2E/DX2 analytically  !
 ! D193  D(37,52,83,19)        -10.4731         calculate D2E/DX2 analytically  !
 ! D194  D(37,52,83,84)        149.3243         calculate D2E/DX2 analytically  !
 ! D195  D(51,52,83,19)        -65.6256         calculate D2E/DX2 analytically  !
 ! D196  D(51,52,83,84)         94.1718         calculate D2E/DX2 analytically  !
 ! D197  D(51,54,55,57)       -176.3306         calculate D2E/DX2 analytically  !
 ! D198  D(51,54,55,58)          4.137          calculate D2E/DX2 analytically  !
 ! D199  D(56,54,55,57)          0.476          calculate D2E/DX2 analytically  !
 ! D200  D(56,54,55,58)       -179.0564         calculate D2E/DX2 analytically  !
 ! D201  D(51,54,56,59)        176.6046         calculate D2E/DX2 analytically  !
 ! D202  D(51,54,56,60)         -3.2044         calculate D2E/DX2 analytically  !
 ! D203  D(55,54,56,59)         -0.1985         calculate D2E/DX2 analytically  !
 ! D204  D(55,54,56,60)        179.9924         calculate D2E/DX2 analytically  !
 ! D205  D(54,55,57,61)         -0.4041         calculate D2E/DX2 analytically  !
 ! D206  D(54,55,57,93)        176.4154         calculate D2E/DX2 analytically  !
 ! D207  D(58,55,57,61)        179.1255         calculate D2E/DX2 analytically  !
 ! D208  D(58,55,57,93)         -4.055          calculate D2E/DX2 analytically  !
 ! D209  D(54,56,59,61)         -0.1574         calculate D2E/DX2 analytically  !
 ! D210  D(54,56,59,97)        177.3634         calculate D2E/DX2 analytically  !
 ! D211  D(60,56,59,61)        179.6512         calculate D2E/DX2 analytically  !
 ! D212  D(60,56,59,97)         -2.828          calculate D2E/DX2 analytically  !
 ! D213  D(55,57,61,59)          0.0574         calculate D2E/DX2 analytically  !
 ! D214  D(55,57,61,62)       -179.8849         calculate D2E/DX2 analytically  !
 ! D215  D(93,57,61,59)       -176.7475         calculate D2E/DX2 analytically  !
 ! D216  D(93,57,61,62)          3.3102         calculate D2E/DX2 analytically  !
 ! D217  D(55,57,93,94)        -85.5872         calculate D2E/DX2 analytically  !
 ! D218  D(55,57,93,95)        154.8432         calculate D2E/DX2 analytically  !
 ! D219  D(55,57,93,96)         33.8338         calculate D2E/DX2 analytically  !
 ! D220  D(61,57,93,94)         91.2597         calculate D2E/DX2 analytically  !
 ! D221  D(61,57,93,95)        -28.3098         calculate D2E/DX2 analytically  !
 ! D222  D(61,57,93,96)       -149.3192         calculate D2E/DX2 analytically  !
 ! D223  D(56,59,61,57)          0.2266         calculate D2E/DX2 analytically  !
 ! D224  D(56,59,61,62)       -179.8312         calculate D2E/DX2 analytically  !
 ! D225  D(97,59,61,57)       -177.3123         calculate D2E/DX2 analytically  !
 ! D226  D(97,59,61,62)          2.6299         calculate D2E/DX2 analytically  !
 ! D227  D(56,59,97,98)         21.4827         calculate D2E/DX2 analytically  !
 ! D228  D(56,59,97,99)        -98.359          calculate D2E/DX2 analytically  !
 ! D229  D(56,59,97,100)       142.2671         calculate D2E/DX2 analytically  !
 ! D230  D(61,59,97,98)       -160.9644         calculate D2E/DX2 analytically  !
 ! D231  D(61,59,97,99)         79.1939         calculate D2E/DX2 analytically  !
 ! D232  D(61,59,97,100)       -40.18           calculate D2E/DX2 analytically  !
 ! D233  D(19,83,84,85)        140.0953         calculate D2E/DX2 analytically  !
 ! D234  D(19,83,84,89)        -32.9011         calculate D2E/DX2 analytically  !
 ! D235  D(52,83,84,85)         -9.984          calculate D2E/DX2 analytically  !
 ! D236  D(52,83,84,89)        177.0196         calculate D2E/DX2 analytically  !
 ! D237  D(83,84,85,86)       -113.4759         calculate D2E/DX2 analytically  !
 ! D238  D(83,84,85,87)          5.8709         calculate D2E/DX2 analytically  !
 ! D239  D(83,84,85,88)        125.3484         calculate D2E/DX2 analytically  !
 ! D240  D(89,84,85,86)         60.3188         calculate D2E/DX2 analytically  !
 ! D241  D(89,84,85,87)        179.6656         calculate D2E/DX2 analytically  !
 ! D242  D(89,84,85,88)        -60.8569         calculate D2E/DX2 analytically  !
 ! D243  D(83,84,89,90)       -125.6908         calculate D2E/DX2 analytically  !
 ! D244  D(83,84,89,91)         -6.3171         calculate D2E/DX2 analytically  !
 ! D245  D(83,84,89,92)        113.059          calculate D2E/DX2 analytically  !
 ! D246  D(85,84,89,90)         60.7365         calculate D2E/DX2 analytically  !
 ! D247  D(85,84,89,91)       -179.8898         calculate D2E/DX2 analytically  !
 ! D248  D(85,84,89,92)        -60.5137         calculate D2E/DX2 analytically  !
 --------------------------------------------------------------------------------
 Trust Radius=5.00D-02 FncErr=1.00D-07 GrdErr=1.00D-06 EigMax=2.50D+02 EigMin=1.00D-04
 Number of steps in this run=    556 maximum allowed number of steps=    600.
 Search for a saddle point of order  1.
 GradGradGradGradGradGradGradGradGradGradGradGradGradGradGradGradGradGrad

 Leave Link  103 at Sun Jun 16 11:40:31 2019, MaxMem=  6442450944 cpu:               4.6 elap:               0.2
 (Enter /home/ekwan/sw/g16/l202.exe)
 Stoichiometry    C30H47F6NaO15S
 Framework group  C1[X(C30H47F6NaO15S)]
 Deg. of freedom   294
 Full point group                 C1      NOp   1
 Largest Abelian subgroup         C1      NOp   1
 Largest concise Abelian subgroup C1      NOp   1
                         Standard orientation:                         
 ---------------------------------------------------------------------
 Center     Atomic      Atomic             Coordinates (Angstroms)
 Number     Number       Type             X           Y           Z
 ---------------------------------------------------------------------
      1          6           0       -2.181255    1.013230    2.504375
      2          6           0       -2.604474    1.931812    1.347893
      3          6           0       -1.961865    3.319785    1.520262
      4          6           0       -0.045235    2.404794    2.683628
      5          6           0       -0.649749    0.987441    2.644854
      6          1           0       -2.152744    3.943298    0.633096
      7          1           0       -2.214438    1.519573    0.405040
      8          1           0       -2.614665    1.405450    3.434597
      9          1           0       -0.349588    2.883064    3.626669
     10          1           0       -0.233876    0.450265    1.780358
     11          8           0       -0.547463    3.192067    1.576408
     12          8           0       -2.492548    3.923281    2.662384
     13          8           0       -4.012220    2.080632    1.276487
     14          8           0       -2.662790   -0.306672    2.259942
     15          8           0       -0.301761    0.320853    3.855457
     16          6           0        1.498810    2.421027    2.579378
     17          1           0        1.857052    1.819010    3.441886
     18          1           0        1.799088    3.471144    2.805907
     19          8           0        1.998237    1.994445    1.367595
     20          6           0       -4.632775    1.277191    0.284255
     21          1           0       -4.264082    1.524940   -0.723739
     22          1           0       -4.470101    0.208294    0.467508
     23          1           0       -5.704791    1.494553    0.329003
     24          6           0       -3.429731   -0.858948    3.317140
     25          1           0       -2.858467   -0.892528    4.255435
     26          1           0       -4.356779   -0.289430    3.483106
     27          1           0       -3.684343   -1.879313    3.015654
     28          6           0        0.336414   -0.934498    3.682779
     29          1           0       -0.283470   -1.624025    3.093905
     30          1           0        1.318963   -0.833612    3.198031
     31          1           0        0.480222   -1.351818    4.685384
     32          6           0        4.361806   -0.619240   -1.223017
     33          6           0        3.439052    0.469320   -0.643728
     34          6           0        2.168644   -0.120945   -0.097161
     35          6           0        3.112303   -2.333609    0.166755
     36          6           0        4.489845   -1.739921   -0.173039
     37          1           0        1.314078    0.510051    0.093750
     38          1           0        3.907796    0.889989    0.264862
     39          1           0        3.914752   -1.017129   -2.144747
     40          1           0        2.725887   -2.872612   -0.705212
     41          1           0        4.938707   -1.320651    0.736858
     42          8           0        2.106399   -1.286487    0.428278
     43          8           0       -0.285126    0.321172   -3.851237
     44          8           0        3.119777    1.511510   -1.532501
     45          8           0        5.630453   -0.052510   -1.483111
     46          8           0        5.270775   -2.809342   -0.671291
     47          6           0        3.086794   -3.254245    1.375354
     48          1           0        3.683564   -4.148120    1.132191
     49          1           0        2.048170   -3.577016    1.557296
     50          8           0        3.610625   -2.566794    2.487172
     51         16           0       -0.091278    0.072532   -2.409686
     52          8           0       -0.272324    1.280695   -1.552916
     53          8           0        1.180966   -0.656797   -2.086593
     54          6           0       -1.417454   -1.054368   -1.898284
     55          6           0       -2.672386   -0.954203   -2.500330
     56          6           0       -1.187455   -1.963538   -0.863581
     57          6           0       -3.712045   -1.774049   -2.047083
     58          1           0       -2.832714   -0.253612   -3.314051
     59          6           0       -2.233396   -2.779218   -0.426026
     60          1           0       -0.207562   -2.031541   -0.404262
     61          6           0       -3.499896   -2.688381   -1.011779
     62          1           0       -4.310858   -3.322054   -0.667129
     63          6           0        4.005479    2.634489   -1.462815
     64          1           0        4.013271    3.052583   -0.446712
     65          1           0        5.021190    2.354555   -1.758274
     66          1           0        3.603673    3.375220   -2.158895
     67          6           0        6.207161   -0.446554   -2.724545
     68          1           0        6.350330   -1.532961   -2.773539
     69          1           0        5.582997   -0.124406   -3.570540
     70          1           0        7.178634    0.052068   -2.785552
     71          6           0        6.504929   -3.003044    0.014078
     72          1           0        7.154067   -2.123012   -0.081480
     73          1           0        6.338965   -3.217179    1.079515
     74          1           0        6.987779   -3.863986   -0.456211
     75          6           0        3.597063   -3.352500    3.667216
     76          1           0        4.022748   -2.737366    4.464172
     77          1           0        2.571401   -3.643412    3.942152
     78          1           0        4.203040   -4.264052    3.548020
     79          6           0       -2.135988    5.292207    2.807985
     80          1           0       -2.681711    5.668159    3.677338
     81          1           0       -1.057809    5.413942    2.974596
     82          1           0       -2.428921    5.870419    1.918264
     83         11           0        0.872501    2.942587   -0.361423
     84          8           0        1.064782    4.773705   -1.818220
     85          6           0        0.732976    4.678273   -3.197637
     86          1           0        1.629152    4.796601   -3.824790
     87          1           0        0.304955    3.685543   -3.359193
     88          1           0       -0.003542    5.445983   -3.476819
     89          6           0        1.641665    6.026674   -1.481673
     90          1           0        0.944164    6.850513   -1.693049
     91          1           0        1.863165    6.005775   -0.410749
     92          1           0        2.573077    6.194613   -2.042961
     93          6           0       -5.094250   -1.614296   -2.638264
     94          9           0       -5.790859   -0.645418   -2.001669
     95          9           0       -5.816990   -2.745079   -2.540212
     96          9           0       -5.044674   -1.270428   -3.937820
     97          6           0       -1.988860   -3.810508    0.651321
     98          9           0       -0.898603   -3.522409    1.392362
     99          9           0       -1.793263   -5.037162    0.126652
    100          9           0       -3.037445   -3.910378    1.493045
 ---------------------------------------------------------------------
 Rotational constants (GHZ):           0.0544352           0.0416961           0.0360437
 Leave Link  202 at Sun Jun 16 11:40:31 2019, MaxMem=  6442450944 cpu:               5.3 elap:               0.2
 (Enter /home/ekwan/sw/g16/l301.exe)
 Standard basis: 6-31G(d) (6D, 7F)
 Centers:      19     53     43     52
 SP 1 1.00
     Exponent=  8.4500000000D-02 Coefficients=  1.0000000000D+00  1.0000000000D+00
 ****
 Ernie: Thresh=  0.10000D-02 Tol=  0.10000D-05 Strict=F.
 There are   913 symmetry adapted cartesian basis functions of A   symmetry.
 There are   913 symmetry adapted basis functions of A   symmetry.
   913 basis functions,  1736 primitive gaussians,   913 cartesian basis functions
   214 alpha electrons      214 beta electrons
       nuclear repulsion energy      9529.9811233273 Hartrees.
 IExCor= 1412 DFT=T Ex+Corr=B98 ExCW=0 ScaHFX=  0.219800
 ScaDFX=  1.000000  1.000000  1.000000  1.000000 ScalE2=  1.000000  1.000000
 IRadAn=      5 IRanWt=     -1 IRanGd=            0 ICorTp=0 IEmpDi=  4
 NAtoms=  100 NActive=  100 NUniq=  100 SFac= 1.00D+00 NAtFMM=   60 NAOKFM=T Big=T
 Integral buffers will be    131072 words long.
 Raffenetti 2 integral format.
 Two-electron integral symmetry is turned on.
 Force inversion solution in PCM.
 ------------------------------------------------------------------------------
 Polarizable Continuum Model (PCM)
 =================================
 Model                : PCM.
 Atomic radii         : UFF (Universal Force Field).
 Polarization charges : Total charges.
 Charge compensation  : None.
 Solution method      : Matrix inversion.
 Cavity type          : Scaled VdW (van der Waals Surface) (Alpha=1.100).
 Cavity algorithm     : GePol (No added spheres)
                        Default sphere list used, NSphG=  100.
                        Lebedev-Laikov grids with approx.  5.0 points / Ang**2.
                        Smoothing algorithm: York/Karplus (Gamma=1.0000).
                        Polarization charges: spherical gaussians, with
                                              point-specific exponents (IZeta= 3).
                        Self-potential: point-specific (ISelfS= 7).
                        Self-field    : sphere-specific E.n sum rule (ISelfD= 2).
 1st derivatives      : Analytical E(r).r(x)/FMM algorithm (CHGder, D1EAlg=3).
                        Cavity 1st derivative terms included.
 2nd derivatives      : Analytical E(r).r(xy)/FMM algorithm (CHGder, D2EAlg=3).
                        Cavity 2nd derivative terms included.
 Solvent              : TetraHydroFuran, Eps=   7.425700 Eps(inf)=   1.974025
 ------------------------------------------------------------------------------
 GePol: Number of generator spheres                  =     100
 GePol: Total number of spheres                      =     100
 GePol: Number of exposed spheres                    =     100 (100.00%)
 GePol: Number of points                             =    6642
 GePol: Average weight of points                     =       0.12
 GePol: Minimum weight of points                     =   0.28D-10
 GePol: Maximum weight of points                     =    0.21593
 GePol: Number of points with low weight             =     491
 GePol: Fraction of low-weight points (<1% of avg)   =       7.39%
 GePol: Cavity surface area                          =    815.355 Ang**2
 GePol: Cavity volume                                =   1001.535 Ang**3
 Leave Link  301 at Sun Jun 16 11:40:32 2019, MaxMem=  6442450944 cpu:               8.2 elap:               0.3
 (Enter /home/ekwan/sw/g16/l302.exe)
 NPDir=0 NMtPBC=     1 NCelOv=     1 NCel=       1 NClECP=     1 NCelD=      1
         NCelK=      1 NCelE2=     1 NClLst=     1 CellRange=     0.0.
 One-electron integrals computed using PRISM.
 One-electron integral symmetry used in STVInt
 NBasis=   913 RedAO= T EigKep=  3.93D-04  NBF=   913
 NBsUse=   913 1.00D-06 EigRej= -1.00D+00 NBFU=   913
 Precomputing XC quadrature grid using
 IXCGrd= 4 IRadAn=           5 IRanWt=          -1 IRanGd=           0 AccXCQ= 0.00D+00.
 Generated NRdTot=       0 NPtTot=           0 NUsed=           0 NTot=          32
 NSgBfM=   865   856   857   861   865 MxSgAt=   100 MxSgA2=   100.
 Leave Link  302 at Sun Jun 16 11:40:46 2019, MaxMem=  6442450944 cpu:             450.8 elap:              14.6
[...]
 ,0.00001500,0.00015187,0.00002777,-0.00001873,-0.00009801,0.00001588,-
 0.00000640,0.00010893,-0.00011115,0.00003135,-0.00006858,0.00010697,-0
 .00005227,0.00328083,0.00205471,-0.00106744,-0.00067402,-0.00121585,-0
 .00019779,-0.00162314,-0.00006908,-0.00006428,-0.00052657,0.00059366,0
 .00236568,0.00029054,-0.00091254,0.00043478,0.00386561,-0.00055399,0.0
 0077418,-0.00011212,0.00036275,0.00234522,0.00010908,-0.00014611,-0.00
 019313,0.00857044,-0.04474583,-0.00761882,0.00035251,-0.00056157,-0.00
 098685,-0.00332921,-0.00161863,-0.00008142,0.00065245,-0.00072150,-0.0
 0089010,0.00006323,0.00009838,-0.00000485,-0.00000396,-0.00001020,-0.0
 0000831,-0.00002292,-0.00001454,0.00000302,0.00000092,-0.00000965,0.00
 000281,0.00003525,-0.00003363,-0.00006807,-0.00000596,0.00001374,0.000
 00673,-0.00000035,0.00000184,0.00000555,-0.00000914,0.00000054,0.00000
 924,0.00005481,-0.00001904,0.00003676,-0.00000446,0.00000331,-0.000005
 99,-0.00000194,-0.00000527,-0.00001013,-0.00002063,0.00000814,0.000002
 84,0.00004538,-0.00007149,0.00006416,0.00000153,0.00000805,-0.00000496
 ,0.00000114,-0.00001661,-0.00000218,-0.00003446,0.00002213,-0.00000198
 ,0.00002111,0.00011011,0.00000815,0.00000392,-0.00001733,-0.00001173,-
 0.00001231,-0.00001098,0.00000124,-0.00000305,-0.00001410,0.00000912,0
 .00009750,0.00020999,0.00006177,-0.00004080,-0.00006518,0.00000750,0.0
 0001948,0.00003036,-0.00001309,-0.00001362,-0.00000789,0.00000361,-0.0
 0000223,-0.00000990,-0.00002350,0.00000183,-0.00000636,-0.00000154,0.0
 0003227,0.00005494,0.00001460,0.00000093,-0.00000947,0.00000001,0.0000
 0012,-0.00000105,-0.00000317,-0.00001113,-0.00000780,0.00000546,-0.002
 86329,-0.00004952,-0.00096722,0.00087591,-0.00038988,0.00001436,0.0008
 4657,0.00042250,0.00023869,0.00074260,-0.00020235,0.00087033,0.0303636
 7,-0.24566660,-0.04886747,-0.02604583,-0.03052883,-0.03645307,-0.04056
 465,0.33163409,0.00008276,0.00022545,0.00002462,-0.00004762,0.00000488
 ,-0.00009929,-0.00000486,0.00003053,0.00000778,-0.00001906,0.00008412,
 -0.00003471,-0.00003204,0.00008723,-0.00012965,0.00000022,-0.00002647,
 0.00000581,0.00000285,-0.00000115,0.00000956,-0.00000641,-0.00002496,-
 0.00000279,-0.00000605,-0.00000994,0.00000224,0.00001338,0.00001065,-0
 .00001053,0.00001542,-0.00006280,0.00005987,0.00000462,-0.00003598,0.0
 0000899,0.00006208,0.00000394,0.00010304,-0.00002898,-0.00039220,-0.00
 000562,0.00003441,-0.00037787,0.00001426,0.00005771,0.00000303,-0.0000
 6781,0.00000879,-0.00000188,0.00002164,-0.00002031,-0.00000847,0.00001
 487,-0.00005191,0.00000036,0.00010122,-0.00001945,-0.00001911,-0.00009
 071,-0.00000529,-0.00003554,0.00003468,0.00000592,0.00000012,-0.000036
 48,0.00000061,0.00000639,0.00000917,0.00021458,0.00042290,-0.00001531,
 -0.00002665,-0.00005957,-0.00000557,0.00000626,-0.00012919,-0.00003014
 ,-0.00030301,0.00002380,0.00024783,0.00023290,0.00045300,0.00022441,-0
 .00013636,0.00002961,0.00010206,-0.00005279,-0.00004431,-0.00003281,-0
 .00003081,-0.00004015,-0.00005334,-0.00002160,-0.00000129,-0.00002928,
 -0.00000164,0.00000884,-0.00000740,-0.00011460,0.00003628,-0.00028026,
 -0.00003477,-0.00000741,-0.00009020,0.00002285,-0.00001186,0.00000314,
 0.00001130,-0.00000251,-0.00001529,0.00000872,0.00000208,-0.00000306,-
 0.00000412,0.00000419,0.00001194,-0.00000164,0.00000163,0.00000589,0.0
 0000990,0.00000506,0.00000090,0.00001804,-0.00009479,0.00013670,0.0001
 9681,0.00021872,-0.00015595,0.00001932,0.00000564,0.00002480,-0.000000
 22,-0.00000011,0.00003066,0.00000157,0.00000179,0.00002511,0.00018843,
 0.00007951,-0.00005917,-0.00004889,0.00000098,0.00001353,0.00006332,-0
 .00006436,0.00003506,-0.00008483,-0.00001818,0.00003765,-0.00075451,-0
 .00060711,0.00001483,0.00013995,0.00032469,0.00012996,0.00041401,0.000
 06929,0.00013926,-0.00009475,-0.00046549,-0.00082929,0.00012030,0.0004
 5192,-0.00030908,-0.00125263,-0.00010045,0.00036289,0.00046445,-0.0004
 5147,-0.00019539,-0.00000428,0.00001529,0.00007137,-0.00239764,0.01567
 001,0.01016995,0.00011161,0.00037029,0.00006549,0.00058801,0.00040359,
 0.00028035,-0.00012559,0.00011454,-0.00004738,-0.00000719,-0.00001674,
 -0.00000271,0.00000220,0.00000435,0.00000463,0.00000161,0.00000218,-0.
 00000061,-0.00000014,-0.00000235,0.00000008,-0.00000038,-0.00000657,-0
 .00001893,-0.00000254,0.00000261,-0.00000103,0.00000185,-0.00000370,0.
 00000517,0.00000174,0.00000200,0.00000182,-0.00000540,0.00000117,-0.00
 001377,0.00000068,0.00000098,0.00000056,0.00000346,-0.00000191,0.00000
 587,-0.00000297,0.00000189,0.00000086,0.00007839,0.00001104,-0.0000205
 6,-0.00000783,-0.00000467,0.00000065,-0.00002601,-0.00001306,0.0000156
 1,-0.00001768,0.00000676,0.00000475,0.00000174,0.00002722,-0.00000208,
 -0.00000052,-0.00000116,-0.00000097,-0.00000148,-0.00000138,-0.0000007
 9,0.00000092,-0.00000571,0.00000497,-0.00001125,-0.00003343,-0.0000650
 7,0.00000935,0.00001683,0.00001912,-0.00000684,-0.00001127,-0.00001410
 ,0.00000008,0.00000018,0.00000204,0.00000321,0.00000352,0.00000326,0.0
 0000011,0.00000160,0.00000205,-0.00000611,-0.00001354,-0.00000796,0.00
 000032,0.00000261,-0.00000036,0.00000139,0.00000148,0.00000337,0.00000
 093,0.00000198,-0.00000011,0.00069315,-0.00020298,0.00013373,-0.000217
 03,0.00013999,0.00003265,-0.00019616,-0.00002638,-0.00003022,-0.000168
 38,0.00006375,-0.00010977,0.00758648,-0.04789383,-0.08767502,-0.019250
 03,-0.04538341,-0.02002804,-0.01932706,0.11765979,0.12318154,-0.000200
 76,-0.00039014,-0.00005763,-0.00002061,0.00005349,0.00009115,-0.000136
 34,0.00000304,-0.00001505,0.00005971,-0.00000386,-0.00002300,-0.000149
 06,0.00020186,-0.00002011,0.00001438,0.00002528,-0.00000027,-0.0000063
 3,0.00000368,-0.00002094,0.00002115,0.00001243,-0.00000702,0.00000298,
 -0.00001735,-0.00000885,0.00005943,-0.00001087,-0.00004336,0.00009542,
 -0.00004419,0.00000859,0.00004358,0.00000898,-0.00002874,0.00010237,0.
 00005534,-0.00004885,0.00047136,0.00057074,-0.00014885,0.00020259,-0.0
 0038867,-0.00006716,-0.00008794,0.00003272,0.00012356,0.00001253,0.000
 00760,-0.00001837,0.00002574,-0.00003504,-0.00003894,0.00005822,-0.000
 13022,-0.00015004,-0.00002001,-0.00012003,0.00004890,0.00001234,0.0000
 6700,-0.00004644,-0.00002351,0.00001372,0.00004961,0.00001102,-0.00000
 743,-0.00000241,-0.00084071,-0.00129631,0.00030052,0.00008478,0.000274
 71,0.00011304,0.00006502,0.00029142,0.00005994,0.00064815,0.00023206,-
 0.00062666,0.00014285,0.00048928,0.00023331,-0.00017783,0.00009600,0.0
 0019147,0.00001877,-0.00000022,-0.00002130,-0.00004555,-0.00005547,-0.
 00007936,0.00005728,0.00003457,-0.00004105,-0.00002859,0.00004521,-0.0
 0002355,0.00016278,0.00048030,0.00003692,0.00005286,0.00002916,-0.0000
 3971,0.00011410,-0.00003660,-0.00000753,-0.00004337,0.00003412,0.00002
 380,-0.00000403,0.00000266,0.00002049,0.00000012,-0.00000473,-0.000008
 83,0.00004198,0.00000148,-0.00004311,-0.00001583,-0.00000356,-0.000001
 20,-0.00013942,-0.00032223,0.00009762,-0.00017433,-0.00028458,0.000444
 76,-0.00005739,-0.00011545,0.00002735,-0.00010610,-0.00004370,0.000061
 31,-0.00012540,0.00002172,-0.00000017,0.00048651,0.00025866,0.00007691
 ,-0.00008167,-0.00001400,0.00001207,0.00013618,-0.00016248,0.00016538,
 -0.00022191,-0.00008106,-0.00024640,0.00079044,0.00088349,-0.00032168,
 -0.00012469,-0.00052083,-0.00016101,-0.00035354,-0.00019784,0.00005411
 ,-0.00027134,-0.00034245,-0.00038678,0.00039850,0.00014361,0.00015617,
 0.00133330,-0.00077229,0.00172540,0.00108409,-0.00099229,0.00047055,0.
 00010837,0.00012529,0.00004813,-0.00555253,-0.00240480,0.01250559,0.00
 037019,0.00072456,-0.00024527,-0.00261084,-0.00042495,-0.00248107,0.00
 153870,0.00109689,0.00062068,0.00004681,0.00007385,0.00000828,-0.00000
 553,-0.00000624,-0.00000940,-0.00001096,-0.00000575,-0.00000034,-0.000
 00261,-0.00000970,0.00000497,0.00002678,-0.00001088,-0.00004950,0.0000
 0416,0.00000370,0.00000427,0.00000047,0.00000527,0.00000710,-0.0000115
 9,-0.00000323,0.00000649,0.00008870,-0.00001095,0.00004127,-0.00001492
 ,-0.00000942,-0.00000404,0.00000281,0.00000042,-0.00000612,-0.00000733
 ,0.00000705,-0.00000093,0.00007111,-0.00008113,0.00012306,-0.00002144,
 -0.00000762,-0.00002491,-0.00001195,0.00001288,0.00001670,-0.00001220,
 0.00002574,-0.00000465,-0.00001092,-0.00001031,0.00000030,0.00000147,-
 0.00000134,-0.00000200,0.00000534,0.00000365,0.00000243,-0.00000076,0.
 00000263,-0.00000097,-0.00001246,0.00011251,0.00004058,-0.00000148,-0.
 00003036,-0.00000650,0.00000154,0.00001465,0.00000126,0.00000013,-0.00
 000004,-0.00000080,-0.00000727,-0.00000256,-0.00000641,0.00000203,-0.0
 0000702,-0.00000034,0.00000644,0.00002401,0.00000784,0.00000176,-0.000
 00632,0.00000167,-0.00000211,0.00000011,-0.00000166,-0.00000155,-0.000
 00251,-0.00000021,-0.00099605,-0.00016748,0.00011986,0.00034793,-0.000
 14438,-0.00009900,0.00030090,0.00018297,-0.00003191,0.00023045,-0.0000
 2863,0.00009961,-0.16855617,-0.02106538,0.09461263,-0.07833338,-0.0170
 5451,0.01191357,-0.01808091,0.02613887,0.03347961,0.26775465,0.0000851
 0,0.00019229,0.00001968,-0.00005293,0.00002155,0.00004808,0.00001517,0
 .00009965,0.00005628,-0.00000499,0.00004402,0.00000957,0.00001361,-0.0
 0000118,0.00009940,-0.00000300,-0.00001503,-0.00000204,0.00000634,0.00
 001190,-0.00001646,-0.00001069,-0.00003190,-0.00001167,0.00000213,-0.0
 0001582,-0.00001356,0.00004234,-0.00001207,-0.00002755,-0.00000734,-0.
 00005236,-0.00003450,0.00000465,-0.00009815,-0.00005398,0.00001261,-0.
 00009237,-0.00006239,0.00004461,-0.00018389,-0.00025047,-0.00005338,0.
 00000060,-0.00008457,-0.00000137,-0.00001417,0.00006383,0.00000047,0.0
 0000920,-0.00002061,-0.00000580,-0.00003082,-0.00002289,-0.00002969,-0
 .00006292,-0.00008614,-0.00001252,0.00009903,0.00004814,0.00000168,0.0
 0003242,-0.00001642,-0.00004768,-0.00002685,0.00004938,0.00002685,-0.0
 0002827,-0.00000771,0.00031743,0.00035593,0.00004609,-0.00004279,-0.00
 015026,-0.00008831,-0.00004753,-0.00021318,-0.00010811,0.00003585,-0.0
 0166464,-0.00072099,0.00007323,0.00002240,0.00006053,-0.00001778,-0.00
 001603,0.00002447,-0.00000719,0.00000412,-0.00000260,-0.00001888,-0.00
 000750,-0.00003821,0.00006009,-0.00000987,-0.00001316,-0.00000354,0.00
 000854,-0.00002356,0.00023694,0.00012272,0.00029426,0.00012331,-0.0001
 4162,0.00000756,0.00004182,-0.00001313,0.00000096,-0.00002403,0.000019
 22,0.00001993,-0.00000986,-0.00000372,0.00001640,0.00000529,-0.0000069
 6,-0.00000999,0.00000214,-0.00000545,0.00000020,-0.00000475,-0.0000003
 5,0.00000063,-0.00016090,0.00006903,-0.00008593,-0.00038360,-0.0003504
 4,0.00064442,-0.00007313,-0.00005151,0.00000412,-0.00006541,0.00000144
 ,0.00002590,-0.00006864,0.00004726,-0.00000221,0.00005476,0.00001560,0
 .00002064,-0.00002919,0.00000492,-0.00000635,0.00003977,-0.00003881,0.
 00003037,-0.00002435,0.00004007,-0.00006503,0.00192387,0.00095906,-0.0
 0057012,-0.00044128,-0.00074296,-0.00018622,-0.00083787,-0.00005302,-0
 .00006737,0.00008301,-0.00175808,0.00006856,-0.00051668,-0.00050659,0.
 00045424,0.00230919,0.00020964,0.00259689,0.00006721,-0.00021018,-0.00
 031635,-0.00000363,0.00006820,0.00003573,-0.02045539,0.00182684,0.0219
 1341,-0.00006900,0.00059196,0.00011091,-0.00073898,-0.00065809,0.00053
 189,0.00020071,-0.00021150,0.00073583,0.00003434,0.00005498,-0.0000010
 1,-0.00000274,-0.00000628,-0.00000581,-0.00001158,-0.00000746,0.000001
 53,0.00000031,-0.00000448,0.00000165,0.00001791,-0.00001301,-0.0000284
 4,-0.00000118,0.00000533,0.00000365,-0.00000061,0.00000246,0.00000156,
 -0.00000569,-0.00000081,0.00000404,0.00003454,-0.00000933,0.00002431,-
 0.00000374,-0.00000020,-0.00000314,-0.00000170,-0.00000140,-0.00000667
 ,-0.00000813,0.00000360,0.00000066,-0.00000377,-0.00004384,0.00004978,
 0.00000147,0.00000372,-0.00000510,0.00000903,0.00000022,-0.00000461,-0
 .00000790,0.00000980,-0.00000297,0.00001064,0.00005348,0.00000577,0.00
 000216,-0.00000926,-0.00000629,-0.00000629,-0.00000574,0.00000094,-0.0
 0000211,-0.00000704,0.00000373,0.00005310,0.00011879,0.00004405,-0.000
 02079,-0.00003657,-0.00000098,0.00001004,0.00001733,-0.00000323,-0.000
 00605,-0.00000352,0.00000125,-0.00000265,-0.00000538,-0.00001212,0.000
 00110,-0.00000412,-0.00000114,0.00001674,0.00003066,0.00000935,0.00000
 053,-0.00000560,0.00000017,-0.00000041,-0.00000064,-0.00000239,-0.0000
 0554,-0.00000430,0.00000251,-0.00136383,0.00001744,-0.00051965,0.00043
 772,-0.00018397,0.00000730,0.00042193,0.00018779,0.00010749,0.00029980
 ,-0.00007513,0.00033960,-0.01940272,-0.07855696,0.02372083,-0.01553426
 ,0.00874672,0.00209879,0.03852392,-0.00698227,-0.04040558,0.01496004,0
 .07931704,0.00020994,0.00049541,0.00007664,-0.00005391,-0.00004460,-0.
 00020478,0.00008894,-0.00001370,0.00000290,-0.00007205,0.00008155,-0.0
 0003109,0.00007592,-0.00007008,-0.00014985,-0.00000964,-0.00004467,0.0
 0000735,0.00000802,-0.00000838,0.00003426,-0.00002384,-0.00002283,0.00
 001566,-0.00000914,0.00000749,0.00001502,-0.00004723,0.00002558,0.0000
 3254,-0.00004265,-0.00001207,0.00007686,-0.00002501,-0.00000535,0.0000
 5333,0.00002359,0.00002460,0.00019395,-0.00040241,-0.00073595,0.000229
 69,-0.00010382,-0.00007339,0.00011527,0.00012547,-0.00001773,-0.000186
 81,-0.00000014,-0.00001132,0.00004560,-0.00003897,0.00002876,0.0000533
 0,-0.00007658,0.00011790,0.00025741,-0.00001749,-0.00002301,-0.0001599
 7,-0.00001270,-0.00008847,0.00007185,0.00003258,0.00000533,-0.00010059
 ,-0.00001383,0.00002133,0.00001593,0.00118624,0.00145847,-0.00019751,-
 0.00010525,-0.00024454,-0.00005118,-0.00009623,-0.00046178,-0.00010426
 ,-0.00090556,-0.00080618,0.00012703,0.00003960,0.00004059,0.00001815,0
 .00007286,-0.00003709,-0.00010752,-0.00005866,-0.00004520,-0.00001459,
 0.00002265,0.00001344,0.00003380,-0.00009190,-0.00000848,0.00000554,0.
 00001420,-0.00001712,0.00002169,-0.00037393,-0.00031059,-0.00052741,-0
 .00015319,0.00009869,-0.00006526,-0.00006451,0.00001448,0.00000289,0.0
 0004941,-0.00003684,-0.00004429,0.00001881,0.00000325,-0.00002613,-0.0
 0000748,0.00001149,0.00002366,-0.00002124,0.00000429,0.00002484,0.0000
 1938,0.00000604,0.00000089,0.00021389,0.00001716,0.00014768,0.00062265
 ,0.00065869,-0.00103909,0.00010456,0.00010115,0.00000890,0.00009983,0.
 00001924,-0.00002192,0.00011109,-0.00004292,0.00002302,-0.00006285,-0.
 00004118,-0.00011990,0.00000985,0.00000296,0.00001380,0.00001375,0.000
 02124,-0.00001471,0.00003999,-0.00000424,0.00018981,-0.00287357,-0.001
 79549,0.00060098,0.00057891,0.00128691,0.00043381,0.00129758,0.0001871
 1,0.00015152,0.00139438,0.00200533,-0.00008579,0.00018696,0.00047335,-
 0.00053163,-0.00449005,0.00175478,-0.00540471,0.00000862,0.00047480,0.
 00001433,-0.00002408,-0.00005780,-0.00003599,0.03436677,0.01084241,-0.
 02208571,0.00002244,-0.00046778,-0.00004698,0.00153576,0.00041311,0.00
 009160,-0.00013676,0.00015015,-0.00152923,-0.00005520,-0.00009483,-0.0
 0000578,0.00000740,0.00001221,0.00001345,0.00001594,0.00001104,-0.0000
 0126,0.00000073,0.00000599,-0.00000363,-0.00002634,0.00000919,0.000028
 82,-0.00000296,-0.00000349,-0.00000552,0.00000174,-0.00000726,-0.00000
 017,0.00001124,0.00000368,-0.00000464,-0.00007054,0.00001196,-0.000048
 81,0.00001027,0.00000577,0.00000430,0.00000309,-0.00000126,0.00001245,
 0.00000661,-0.00000429,0.00000125,0.00003823,0.00007266,-0.00010607,0.
 00000416,-0.00000158,0.00001571,-0.00002194,-0.00001863,0.00000717,-0.
 00000689,-0.00001187,0.00000873,0.00000397,0.00001409,-0.00000442,-0.0
 0000269,0.00000328,0.00000252,-0.00000208,-0.00000166,-0.00000288,0.00
 000215,-0.00000557,0.00000464,-0.00003630,-0.00017575,-0.00013276,0.00
 002261,0.00005781,0.00002345,-0.00001471,-0.00003135,-0.00001256,0.000
 00411,0.00000280,0.00000176,0.00000985,0.00000828,0.00001598,-0.000001
 51,0.00000894,0.00000289,-0.00002062,-0.00004650,-0.00001902,-0.000000
 72,0.00000998,-0.00000150,0.00000285,0.00000170,0.00000593,0.00000521,
 0.00000632,-0.00000159,0.00214031,-0.00024694,0.00054939,-0.00073801,0
 .00039330,0.00008378,-0.00064673,-0.00021933,-0.00012476,-0.00047648,0
 .00015250,-0.00047546,0.08733695,0.02475444,-0.16604062,-0.00263745,-0
 .00061928,0.02232292,0.03548222,-0.02893193,-0.02534560,-0.15252841,-0
 .01044269,0.19888733\\0.00000094,-0.00000231,-0.00000113,0.00000042,-0
 .00000101,0.00000089,-0.00000009,-0.00000056,0.00000205,-0.00000038,-0
 .00000043,0.00000089,-0.00000212,-0.00000194,-0.00000025,0.00000042,0.
 00000036,0.00000207,0.00000062,0.00000129,0.00000049,0.00000029,-0.000
 00121,0.00000081,0.00000133,-0.00000167,0.00000183,0.00000144,-0.00000
 094,0.00000089,0.00000013,-0.00000019,0.00000193,0.00000040,-0.0000010
 5,0.00000262,0.00000099,0.00000208,-0.00000007,-0.00000169,0.00000189,
 -0.00000010,0.00000305,0.00000005,0.00000066,-0.00000197,-0.00000344,0
 .00000097,-0.00000023,-0.00000221,0.00000031,0.00000076,-0.00000206,0.
 00000191,0.00000456,-0.00000003,0.00000090,-0.00000115,-0.00000121,0.0
 0000146,0.00000040,0.00000109,0.00000034,0.00000007,0.00000091,0.00000
 070,0.00000064,0.00000083,0.00000067,0.00000038,-0.00000247,0.00000053
 ,-0.00000041,-0.00000153,-0.00000068,-0.00000014,-0.00000110,-0.000000
 50,0.00000028,-0.00000117,-0.00000112,-0.00000141,-0.00000255,-0.00000
 045,-0.00000012,-0.00000125,-0.00000091,0.00000048,-0.00000222,-0.0000
 0021,-0.00000049,-0.00000240,-0.00000112,-0.00000077,0.00000028,-0.000
 00154,-0.00000051,0.00000048,0.00000099,-0.00000007,0.00000161,-0.0000
 0288,-0.00000081,-0.00000062,-0.00000226,-0.00000016,-0.00000188,-0.00
 000102,-0.00000251,-0.00000181,-0.00000477,0.00000054,-0.00000027,-0.0
 0000014,0.00000045,0.00000095,-0.00000090,-0.00000081,0.00000096,-0.00
 000186,0.00000020,-0.00000013,-0.00000138,0.00000150,0.00000074,0.0000
 0269,-0.00000012,-0.00000069,0.00000010,0.00000036,-0.00000026,0.00000
 009,0.,0.00000042,0.00000010,-0.00000017,0.00000054,-0.00000241,-0.000
 00012,-0.00000108,-0.00000187,-0.00000024,-0.00000103,-0.00000236,-0.0
 0000066,-0.00000118,-0.00000229,-0.00000166,-0.00000101,-0.00000120,-0
 .00000079,0.00000106,0.00000244,0.00000065,0.00000436,-0.00000243,0.00
 000022,0.00000208,0.00000076,-0.00000010,0.00000107,0.00000057,-0.0000
 0025,0.00000279,-0.00000076,-0.00000026,0.00000212,-0.00000186,-0.0000
 0074,0.00000148,-0.00000054,-0.00000012,0.00000199,0.,-0.00000088,-0.0
 0000003,-0.00000206,0.00000013,0.00000043,-0.00000112,0.00000075,0.000
 00025,-0.00000304,-0.00000085,0.00000086,-0.00000160,0.00000095,0.0000
 0047,0.00000123,0.00000044,-0.00000050,0.00000196,0.00000001,0.0000003
 7,0.00000066,-0.00000020,0.00000103,0.00000138,-0.00000028,0.00000056,
 -0.00000006,-0.00000006,0.00000106,-0.00000111,-0.00000032,0.00000127,
 -0.00000051,-0.00000028,0.00000086,-0.00000039,-0.00000098,-0.00000148
 ,-0.00000127,-0.00000023,-0.00000067,-0.00000148,-0.00000028,-0.000001
 09,-0.00000225,-0.00000065,-0.00000022,-0.00000224,0.00000068,-0.00000
 231,-0.00000239,-0.00000024,-0.00000270,-0.00000170,-0.00000055,-0.000
 00224,-0.00000205,-0.00000074,-0.00000224,-0.00000247,0.00000026,-0.00
 000085,0.00000291,0.00000089,-0.00000147,0.00000292,0.00000105,-0.0000
 0118,0.00000267,0.00000069,-0.00000046,0.00000295,-0.00000241,0.000002
 24,0.00000753,-0.00000175,0.00000154,0.00000243,0.00000211,0.,0.000002
 08,0.00000056,0.00000288,0.00000258,0.00000142,0.00000412,0.00000117,0
 .00000020,0.00000123,0.00000333,0.00000134,0.00000126,0.00000062,0.000
 00068,0.00000097,0.00000283,0.00000073,-0.00000102,0.00000372,0.000000
 98,0.00000091,0.00000323,-0.00000033,0.00000234,-0.00000148,0.00000010
 ,0.00000268,-0.00000049,-0.00000081,0.00000228,-0.00000088,-0.00000030
 ,0.00000247,-0.00000031,-0.00000051,-0.00000075,-0.00000245,-0.0000001
 3,-0.00000082,-0.00000258,-0.00000141,0.00000069,-0.00000262,-0.000000
 29,0.00000075,-0.00000127\\\@


 A politician is a person who can make waves and then
 make you think he's the only one who can save the ship.
 -- Ivern Ball
 Job cpu time:       5 days  3 hours 37 minutes 38.3 seconds.
 Elapsed time:       0 days  4 hours  3 minutes 41.5 seconds.
 File lengths (MBytes):  RWF=  10109 Int=      0 D2E=      0 Chk=     90 Scr=      1
 Normal termination of Gaussian 16 at Sun Jun 16 19:42:10 2019.
