 Entering Gaussian System, Link 0=g16
 Input=clay_new-glu_gluC6-BCDR-Na2_1Me2O-bisCF3-ts-n12sx-custom-pcm_thf.gjf
 Output=clay_new-glu_gluC6-BCDR-Na2_1Me2O-bisCF3-ts-n12sx-custom-pcm_thf.out
 Initial command:
 /home/ekwan/sw/g16/l1.exe "/scratch/users/ekwan/clay_new-glu_gluC6-BCDR-Na2_1Me2O-bisCF3-ts-n12sx-custom-pcm_thf/Gau-33596.inp" -scrdir="/scratch/users/ekwan/clay_new-glu_gluC6-BCDR-Na2_1Me2O-bisCF3-ts-n12sx-custom-pcm_thf/"
 Entering Link 1 = /home/ekwan/sw/g16/l1.exe PID=     33598.
  
 Copyright (c) 1988,1990,1992,1993,1995,1998,2003,2009,2016,
            Gaussian, Inc.  All Rights Reserved.
  
 This is part of the Gaussian(R) 16 program.  It is based on
 the Gaussian(R) 09 system (copyright 2009, Gaussian, Inc.),
 the Gaussian(R) 03 system (copyright 2003, Gaussian, Inc.),
 the Gaussian(R) 98 system (copyright 1998, Gaussian, Inc.),
 the Gaussian(R) 94 system (copyright 1995, Gaussian, Inc.),
 the Gaussian 92(TM) system (copyright 1992, Gaussian, Inc.),
 the Gaussian 90(TM) system (copyright 1990, Gaussian, Inc.),
 the Gaussian 88(TM) system (copyright 1988, Gaussian, Inc.),
 the Gaussian 86(TM) system (copyright 1986, Carnegie Mellon
 University), and the Gaussian 82(TM) system (copyright 1983,
 Carnegie Mellon University). Gaussian is a federally registered
 trademark of Gaussian, Inc.
  
 This software contains proprietary and confidential information,
 including trade secrets, belonging to Gaussian, Inc.
  
 This software is provided under written license and may be
 used, copied, transmitted, or stored only in accord with that
 written license.
  
 The following legend is applicable only to US Government
 contracts under FAR:
  
                    RESTRICTED RIGHTS LEGEND
  
 Use, reproduction and disclosure by the US Government is
 subject to restrictions as set forth in subparagraphs (a)
 and (c) of the Commercial Computer Software - Restricted
 Rights clause in FAR 52.227-19.
  
 Gaussian, Inc.
 340 Quinnipiac St., Bldg. 40, Wallingford CT 06492
  
  
 ---------------------------------------------------------------
 Warning -- This program may not be used in any manner that
 competes with the business of Gaussian, Inc. or will provide
 assistance to any competitor of Gaussian, Inc.  The licensee
 of this program is prohibited from giving any competitor of
 Gaussian, Inc. access to this program.  By using this program,
 the user acknowledges that Gaussian, Inc. is engaged in the
 business of creating and licensing software in the field of
 computational chemistry and represents and warrants to the
 licensee that it is not a competitor of Gaussian, Inc. and that
 it will not use this program in any manner prohibited above.
 ---------------------------------------------------------------
  

 Cite this work as:
 Gaussian 16, Revision A.03,
 M. J. Frisch, G. W. Trucks, H. B. Schlegel, G. E. Scuseria, 
 M. A. Robb, J. R. Cheeseman, G. Scalmani, V. Barone, 
 G. A. Petersson, H. Nakatsuji, X. Li, M. Caricato, A. V. Marenich, 
 J. Bloino, B. G. Janesko, R. Gomperts, B. Mennucci, H. P. Hratchian, 
 J. V. Ortiz, A. F. Izmaylov, J. L. Sonnenberg, D. Williams-Young, 
 F. Ding, F. Lipparini, F. Egidi, J. Goings, B. Peng, A. Petrone, 
 T. Henderson, D. Ranasinghe, V. G. Zakrzewski, J. Gao, N. Rega, 
 G. Zheng, W. Liang, M. Hada, M. Ehara, K. Toyota, R. Fukuda, 
 J. Hasegawa, M. Ishida, T. Nakajima, Y. Honda, O. Kitao, H. Nakai, 
 T. Vreven, K. Throssell, J. A. Montgomery, Jr., J. E. Peralta, 
 F. Ogliaro, M. J. Bearpark, J. J. Heyd, E. N. Brothers, K. N. Kudin, 
 V. N. Staroverov, T. A. Keith, R. Kobayashi, J. Normand, 
 K. Raghavachari, A. P. Rendell, J. C. Burant, S. S. Iyengar, 
 J. Tomasi, M. Cossi, J. M. Millam, M. Klene, C. Adamo, R. Cammi, 
 J. W. Ochterski, R. L. Martin, K. Morokuma, O. Farkas, 
 J. B. Foresman, and D. J. Fox, Gaussian, Inc., Wallingford CT, 2016.
 
 ******************************************
 Gaussian 16:  AS64L-G16RevA.03 25-Dec-2016
                16-Jun-2019 
 ******************************************
 %mem=48GB
 %nprocshared=32
 Will use up to   32 processors via shared memory.
 ----------------------------------------------------------------------
 #p opt=(ts,calcfc,noeigentest,maxstep=5) freq=noraman pop=none 6-31g* 
 scrf=(pcm,solvent=tetrahydrofuran) n12sx extrabasis
 ----------------------------------------------------------------------
 1/5=1,8=5,10=4,11=1,18=20,26=3,38=1/1,3;
 2/9=110,12=2,17=6,18=5,40=1/2;
 3/5=1,6=6,7=1,10=1,11=2,25=1,30=1,70=2201,71=2,72=20,74=-69,140=1/1,2,3;
 4//1;
 5/5=2,38=5,53=20/2;
 8/6=4,10=90,11=11/1;
 11/6=1,8=1,9=11,15=111,16=1/1,2,10;
 10/6=1,13=1/2;
 7/10=1,18=20,25=1/1,2,3,16;
 1/5=1,8=5,10=4,11=1,18=20,26=3/3(2);
 2/9=110/2;
 99//99;
 2/9=110/2;
 3/5=7,6=1,7=1,11=2,25=1,30=1,70=2205,71=1,72=20,74=-69,82=7/1,2,3;
 4/5=5,16=3,69=1/1;
 5/5=2,38=5,53=20/2;
 7//1,2,3,16;
 1/5=1,8=5,11=1,18=20,26=3/3(-5);
 2/9=110/2;
 99/9=1/99;
 Leave Link    1 at Sun Jun 16 18:28:37 2019, MaxMem=  6442450944 cpu:               5.5 elap:               0.2
 (Enter /home/ekwan/sw/g16/l101.exe)
 -----
 title
 -----
 Symbolic Z-matrix:
 Charge =  0 Multiplicity = 1
 6                    -1.91138   1.47653   2.25267 
 6                    -2.24181   2.25972   0.98932 
 6                    -1.42877   3.55002   0.95621 
 6                     0.36447   2.5843    2.22164 
 6                    -0.40559   1.27522   2.38182 
 1                    -1.56612   4.05808  -0.00345 
 1                    -1.93374   1.67454   0.11707 
 1                    -2.26309   2.05566   3.11044 
 1                     0.1348    3.22035   3.08168 
 1                    -0.08877   0.58541   1.59518 
 8                    -0.05338   3.25287   1.02449 
 8                    -1.84259   4.36812   1.99679 
 8                    -3.60679   2.58117   0.90996 
 8                    -2.57181   0.22714   2.21444 
 8                    -0.10785   0.73135   3.65058 
 6                     1.88149   2.39165   2.13231 
 1                     2.16461   1.87006   3.06345 
 1                     2.31354   3.409     2.22249 
 8                     2.31157   1.7586    0.99669 
 6                    -4.371     1.72699   0.09489 
 1                    -4.02255   1.74514  -0.94307 
 1                    -4.34439   0.69785   0.45524 
 1                    -5.39678   2.09045   0.12076 
 6                    -3.22078  -0.13482   3.40938 
 1                    -2.52409  -0.1723    4.24954 
 1                    -4.02703   0.5649    3.65172 
 1                    -3.64502  -1.1234    3.25235 
 6                     0.36852  -0.59252   3.63909 
 1                    -0.35217  -1.27105   3.17624 
 1                     1.32315  -0.67851   3.11214 
 1                     0.51434  -0.88718   4.67756 
 6                     3.97216  -1.38416  -1.29935 
 6                     3.26231  -0.10541  -0.86339 
 6                     1.94673  -0.40519  -0.23003 
 6                     2.52314  -2.66742   0.31294 
 6                     3.94969  -2.35719  -0.12117 
 1                     1.20157   0.35708  -0.13221 
 1                     3.82558   0.34325  -0.03179 
 1                     3.44538  -1.81784  -2.15338 
 1                     2.02523  -3.23296  -0.4745 
 1                     4.48303  -1.89738   0.71317 
 8                     1.73372  -1.45657   0.46368 
 8                    -0.44225  -0.03982  -3.89937 
 8                     3.06553   0.86362  -1.84946 
 8                     5.29973  -1.07828  -1.63255 
 8                     4.54369  -3.57829  -0.47404 
 6                     2.40762  -3.42242   1.61144 
 1                     2.81776  -4.42661   1.45755 
 1                     1.34607  -3.52703   1.86557 
 8                     3.10102  -2.7324    2.60923 
 16                   -0.24351  -0.14669  -2.44994 
 8                    -0.18384   1.15739  -1.74236 
 8                     0.90225  -1.02761  -2.06006 
 6                    -1.68814  -0.9696   -1.79174 
 6                    -2.9209   -0.7823   -2.39855 
 6                    -1.56598  -1.74618  -0.64825 
 6                    -4.04539  -1.37812  -1.83994 
 1                    -2.99876  -0.1888   -3.29768 
 6                    -2.69601  -2.34345  -0.10996 
 1                    -0.60167  -1.88647  -0.18403 
 6                    -3.94031  -2.16191  -0.6989 
 1                    -4.81858  -2.62551  -0.27516 
 6                     4.20438   1.63922  -2.18436 
 1                     4.74758   1.93741  -1.28531 
 1                     4.87614   1.0934   -2.84344 
 1                     3.83513   2.52953  -2.68713 
 6                     5.80273  -1.75641  -2.76347 
 1                     5.76122  -2.83799  -2.63073 
 1                     5.24633  -1.48515  -3.66555 
 1                     6.83864  -1.44682  -2.88192 
 6                     5.71     -3.9017    0.25299 
 1                     6.50251  -3.17265   0.07122 
 1                     5.50664  -3.94819   1.32604 
 1                     6.0368   -4.87991  -0.09149 
 6                     2.98001  -3.3228    3.87889 
 1                     3.55931  -2.71978   4.57338 
 1                     1.93621  -3.34492   4.20845 
 1                     3.36864  -4.34618   3.88162 
 6                    -1.31243   5.6731    1.95854 
 1                    -1.77934   6.23245   2.7654 
 1                    -0.23011   5.67158   2.10153 
 1                    -1.54251   6.16063   1.00592 
 11                    1.3386    2.65728  -0.84013 
 8                     2.63112   4.51738  -1.26181 
 6                     2.58055   5.55252  -2.21286 
 1                     3.5037    5.5914   -2.79892 
 1                     1.74399   5.35088  -2.87768 
 1                     2.43022   6.52245  -1.72983 
 6                     3.68335   4.66082  -0.33279 
 1                     3.57797   5.59038   0.23401 
 1                     3.62926   3.80754   0.34106 
 1                     4.65206   4.6666   -0.8422 
 6                    -5.39402  -1.10967  -2.43447 
 9                    -5.93824   0.00769  -1.91888 
 9                    -6.25287  -2.1075   -2.19457 
 9                    -5.32759  -0.93482  -3.75896 
 6                    -2.56668  -3.24506   1.07871 
 9                    -1.46676  -2.97567   1.79868 
 9                    -2.48512  -4.53272   0.71188 
 9                    -3.62388  -3.1428    1.89737 
 
 Add virtual bond connecting atoms H37        and H10        Dist= 4.10D+00.
 Add virtual bond connecting atoms H37        and O19        Dist= 4.00D+00.
 Add virtual bond connecting atoms O52        and H37        Dist= 4.29D+00.
 Add virtual bond connecting atoms O52        and Na83       Dist= 4.38D+00.
 Add virtual bond connecting atoms O53        and C34        Dist= 4.15D+00.
 ITRead=  0  0  0  0  0  0  0  0  0  0  0  0  0  0  0  0  0  0  0  0
 ITRead=  0  0  0  0  0  0  0  0  0  0  0  0  0  0  0  0  0  0  0  0
 ITRead=  0  0  0  0  0  0  0  0  0  0  0  0  0  0  0  0  0  0  0  0
 ITRead=  0  0  0  0  0  0  0  0  0  0  0  0  0  0  0  0  0  0  0  0
 ITRead=  0  0  0  0  0  0  0  0  0  0  0  0  0  0  0  0  0  0  0  0
 MicOpt= -1 -1 -1 -1 -1 -1 -1 -1 -1 -1 -1 -1 -1 -1 -1 -1 -1 -1 -1 -1
 MicOpt= -1 -1 -1 -1 -1 -1 -1 -1 -1 -1 -1 -1 -1 -1 -1 -1 -1 -1 -1 -1
 MicOpt= -1 -1 -1 -1 -1 -1 -1 -1 -1 -1 -1 -1 -1 -1 -1 -1 -1 -1 -1 -1
 MicOpt= -1 -1 -1 -1 -1 -1 -1 -1 -1 -1 -1 -1 -1 -1 -1 -1 -1 -1 -1 -1
 MicOpt= -1 -1 -1 -1 -1 -1 -1 -1 -1 -1 -1 -1 -1 -1 -1 -1 -1 -1 -1 -1
 NAtoms=    100 NQM=      100 NQMF=       0 NMMI=      0 NMMIF=      0
                NMic=       0 NMicF=      0.
                    Isotopes and Nuclear Properties:
 (Nuclear quadrupole moments (NQMom) in fm**2, nuclear magnetic moments (NMagM)
  in nuclear magnetons)

  Atom         1           2           3           4           5           6           7           8           9          10
 IAtWgt=          12          12          12          12          12           1           1           1           1           1
 AtmWgt=  12.0000000  12.0000000  12.0000000  12.0000000  12.0000000   1.0078250   1.0078250   1.0078250   1.0078250   1.0078250
 NucSpn=           0           0           0           0           0           1           1           1           1           1
 AtZEff=   0.0000000   0.0000000   0.0000000   0.0000000   0.0000000   0.0000000   0.0000000   0.0000000   0.0000000   0.0000000
 NQMom=    0.0000000   0.0000000   0.0000000   0.0000000   0.0000000   0.0000000   0.0000000   0.0000000   0.0000000   0.0000000
 NMagM=    0.0000000   0.0000000   0.0000000   0.0000000   0.0000000   2.7928460   2.7928460   2.7928460   2.7928460   2.7928460
 AtZNuc=   6.0000000   6.0000000   6.0000000   6.0000000   6.0000000   1.0000000   1.0000000   1.0000000   1.0000000   1.0000000

  Atom        11          12          13          14          15          16          17          18          19          20
 IAtWgt=          16          16          16          16          16          12           1           1          16          12
 AtmWgt=  15.9949146  15.9949146  15.9949146  15.9949146  15.9949146  12.0000000   1.0078250   1.0078250  15.9949146  12.0000000
 NucSpn=           0           0           0           0           0           0           1           1           0           0
 AtZEff=   0.0000000   0.0000000   0.0000000   0.0000000   0.0000000   0.0000000   0.0000000   0.0000000   0.0000000   0.0000000
 NQMom=    0.0000000   0.0000000   0.0000000   0.0000000   0.0000000   0.0000000   0.0000000   0.0000000   0.0000000   0.0000000
 NMagM=    0.0000000   0.0000000   0.0000000   0.0000000   0.0000000   0.0000000   2.7928460   2.7928460   0.0000000   0.0000000
 AtZNuc=   8.0000000   8.0000000   8.0000000   8.0000000   8.0000000   6.0000000   1.0000000   1.0000000   8.0000000   6.0000000

  Atom        21          22          23          24          25          26          27          28          29          30
 IAtWgt=           1           1           1          12           1           1           1          12           1           1
 AtmWgt=   1.0078250   1.0078250   1.0078250  12.0000000   1.0078250   1.0078250   1.0078250  12.0000000   1.0078250   1.0078250
 NucSpn=           1           1           1           0           1           1           1           0           1           1
 AtZEff=   0.0000000   0.0000000   0.0000000   0.0000000   0.0000000   0.0000000   0.0000000   0.0000000   0.0000000   0.0000000
 NQMom=    0.0000000   0.0000000   0.0000000   0.0000000   0.0000000   0.0000000   0.0000000   0.0000000   0.0000000   0.0000000
 NMagM=    2.7928460   2.7928460   2.7928460   0.0000000   2.7928460   2.7928460   2.7928460   0.0000000   2.7928460   2.7928460
 AtZNuc=   1.0000000   1.0000000   1.0000000   6.0000000   1.0000000   1.0000000   1.0000000   6.0000000   1.0000000   1.0000000

  Atom        31          32          33          34          35          36          37          38          39          40
 IAtWgt=           1          12          12          12          12          12           1           1           1           1
 AtmWgt=   1.0078250  12.0000000  12.0000000  12.0000000  12.0000000  12.0000000   1.0078250   1.0078250   1.0078250   1.0078250
 NucSpn=           1           0           0           0           0           0           1           1           1           1
 AtZEff=   0.0000000   0.0000000   0.0000000   0.0000000   0.0000000   0.0000000   0.0000000   0.0000000   0.0000000   0.0000000
 NQMom=    0.0000000   0.0000000   0.0000000   0.0000000   0.0000000   0.0000000   0.0000000   0.0000000   0.0000000   0.0000000
 NMagM=    2.7928460   0.0000000   0.0000000   0.0000000   0.0000000   0.0000000   2.7928460   2.7928460   2.7928460   2.7928460
 AtZNuc=   1.0000000   6.0000000   6.0000000   6.0000000   6.0000000   6.0000000   1.0000000   1.0000000   1.0000000   1.0000000

  Atom        41          42          43          44          45          46          47          48          49          50
 IAtWgt=           1          16          16          16          16          16          12           1           1          16
 AtmWgt=   1.0078250  15.9949146  15.9949146  15.9949146  15.9949146  15.9949146  12.0000000   1.0078250   1.0078250  15.9949146
 NucSpn=           1           0           0           0           0           0           0           1           1           0
 AtZEff=   0.0000000   0.0000000   0.0000000   0.0000000   0.0000000   0.0000000   0.0000000   0.0000000   0.0000000   0.0000000
 NQMom=    0.0000000   0.0000000   0.0000000   0.0000000   0.0000000   0.0000000   0.0000000   0.0000000   0.0000000   0.0000000
 NMagM=    2.7928460   0.0000000   0.0000000   0.0000000   0.0000000   0.0000000   0.0000000   2.7928460   2.7928460   0.0000000
 AtZNuc=   1.0000000   8.0000000   8.0000000   8.0000000   8.0000000   8.0000000   6.0000000   1.0000000   1.0000000   8.0000000

  Atom        51          52          53          54          55          56          57          58          59          60
 IAtWgt=          32          16          16          12          12          12          12           1          12           1
 AtmWgt=  31.9720718  15.9949146  15.9949146  12.0000000  12.0000000  12.0000000  12.0000000   1.0078250  12.0000000   1.0078250
 NucSpn=           0           0           0           0           0           0           0           1           0           1
 AtZEff=   0.0000000   0.0000000   0.0000000   0.0000000   0.0000000   0.0000000   0.0000000   0.0000000   0.0000000   0.0000000
 NQMom=    0.0000000   0.0000000   0.0000000   0.0000000   0.0000000   0.0000000   0.0000000   0.0000000   0.0000000   0.0000000
 NMagM=    0.0000000   0.0000000   0.0000000   0.0000000   0.0000000   0.0000000   0.0000000   2.7928460   0.0000000   2.7928460
 AtZNuc=  16.0000000   8.0000000   8.0000000   6.0000000   6.0000000   6.0000000   6.0000000   1.0000000   6.0000000   1.0000000

  Atom        61          62          63          64          65          66          67          68          69          70
 IAtWgt=          12           1          12           1           1           1          12           1           1           1
 AtmWgt=  12.0000000   1.0078250  12.0000000   1.0078250   1.0078250   1.0078250  12.0000000   1.0078250   1.0078250   1.0078250
 NucSpn=           0           1           0           1           1           1           0           1           1           1
 AtZEff=   0.0000000   0.0000000   0.0000000   0.0000000   0.0000000   0.0000000   0.0000000   0.0000000   0.0000000   0.0000000
 NQMom=    0.0000000   0.0000000   0.0000000   0.0000000   0.0000000   0.0000000   0.0000000   0.0000000   0.0000000   0.0000000
 NMagM=    0.0000000   2.7928460   0.0000000   2.7928460   2.7928460   2.7928460   0.0000000   2.7928460   2.7928460   2.7928460
 AtZNuc=   6.0000000   1.0000000   6.0000000   1.0000000   1.0000000   1.0000000   6.0000000   1.0000000   1.0000000   1.0000000

  Atom        71          72          73          74          75          76          77          78          79          80
 IAtWgt=          12           1           1           1          12           1           1           1          12           1
 AtmWgt=  12.0000000   1.0078250   1.0078250   1.0078250  12.0000000   1.0078250   1.0078250   1.0078250  12.0000000   1.0078250
 NucSpn=           0           1           1           1           0           1           1           1           0           1
 AtZEff=   0.0000000   0.0000000   0.0000000   0.0000000   0.0000000   0.0000000   0.0000000   0.0000000   0.0000000   0.0000000
 NQMom=    0.0000000   0.0000000   0.0000000   0.0000000   0.0000000   0.0000000   0.0000000   0.0000000   0.0000000   0.0000000
 NMagM=    0.0000000   2.7928460   2.7928460   2.7928460   0.0000000   2.7928460   2.7928460   2.7928460   0.0000000   2.7928460
 AtZNuc=   6.0000000   1.0000000   1.0000000   1.0000000   6.0000000   1.0000000   1.0000000   1.0000000   6.0000000   1.0000000

  Atom        81          82          83          84          85          86          87          88          89          90
 IAtWgt=           1           1          23          16          12           1           1           1          12           1
 AtmWgt=   1.0078250   1.0078250  22.9897697  15.9949146  12.0000000   1.0078250   1.0078250   1.0078250  12.0000000   1.0078250
 NucSpn=           1           1           3           0           0           1           1           1           0           1
 AtZEff=   0.0000000   0.0000000   0.0000000   0.0000000   0.0000000   0.0000000   0.0000000   0.0000000   0.0000000   0.0000000
 NQMom=    0.0000000   0.0000000  10.4000000   0.0000000   0.0000000   0.0000000   0.0000000   0.0000000   0.0000000   0.0000000
 NMagM=    2.7928460   2.7928460   2.2175200   0.0000000   0.0000000   2.7928460   2.7928460   2.7928460   0.0000000   2.7928460
 AtZNuc=   1.0000000   1.0000000  11.0000000   8.0000000   6.0000000   1.0000000   1.0000000   1.0000000   6.0000000   1.0000000

  Atom        91          92          93          94          95          96          97          98          99         100
 IAtWgt=           1           1          12          19          19          19          12          19          19          19
 AtmWgt=   1.0078250   1.0078250  12.0000000  18.9984033  18.9984033  18.9984033  12.0000000  18.9984033  18.9984033  18.9984033
 NucSpn=           1           1           0           1           1           1           0           1           1           1
 AtZEff=   0.0000000   0.0000000   0.0000000   0.0000000   0.0000000   0.0000000   0.0000000   0.0000000   0.0000000   0.0000000
 NQMom=    0.0000000   0.0000000   0.0000000   0.0000000   0.0000000   0.0000000   0.0000000   0.0000000   0.0000000   0.0000000
 NMagM=    2.7928460   2.7928460   0.0000000   2.6288670   2.6288670   2.6288670   0.0000000   2.6288670   2.6288670   2.6288670
 AtZNuc=   1.0000000   1.0000000   6.0000000   9.0000000   9.0000000   9.0000000   6.0000000   9.0000000   9.0000000   9.0000000
 Leave Link  101 at Sun Jun 16 18:28:37 2019, MaxMem=  6442450944 cpu:              18.2 elap:               0.7
 (Enter /home/ekwan/sw/g16/l103.exe)

 GradGradGradGradGradGradGradGradGradGradGradGradGradGradGradGradGradGrad
 Berny optimization.
 Initialization pass.
                           ----------------------------
                           !    Initial Parameters    !
                           ! (Angstroms and Degrees)  !
 --------------------------                            --------------------------
 ! Name  Definition              Value          Derivative Info.                !
 --------------------------------------------------------------------------------
 ! R1    R(1,2)                  1.5227         calculate D2E/DX2 analytically  !
 ! R2    R(1,5)                  1.5247         calculate D2E/DX2 analytically  !
 ! R3    R(1,8)                  1.0931         calculate D2E/DX2 analytically  !
 ! R4    R(1,14)                 1.4137         calculate D2E/DX2 analytically  !
 ! R5    R(2,3)                  1.5255         calculate D2E/DX2 analytically  !
 ! R6    R(2,7)                  1.0946         calculate D2E/DX2 analytically  !
 ! R7    R(2,13)                 1.4046         calculate D2E/DX2 analytically  !
 ! R8    R(3,6)                  1.0945         calculate D2E/DX2 analytically  !
 ! R9    R(3,11)                 1.4088         calculate D2E/DX2 analytically  !
 ! R10   R(3,12)                 1.3868         calculate D2E/DX2 analytically  !
 ! R11   R(4,5)                  1.5272         calculate D2E/DX2 analytically  !
 ! R12   R(4,9)                  1.0941         calculate D2E/DX2 analytically  !
 ! R13   R(4,11)                 1.4334         calculate D2E/DX2 analytically  !
 ! R14   R(4,16)                 1.5318         calculate D2E/DX2 analytically  !
 ! R15   R(5,10)                 1.0932         calculate D2E/DX2 analytically  !
 ! R16   R(5,15)                 1.4122         calculate D2E/DX2 analytically  !
 ! R17   R(10,37)                2.1682         calculate D2E/DX2 analytically  !
 ! R18   R(12,79)                1.4091         calculate D2E/DX2 analytically  !
 ! R19   R(13,20)                1.4064         calculate D2E/DX2 analytically  !
 ! R20   R(14,24)                1.4071         calculate D2E/DX2 analytically  !
 ! R21   R(15,28)                1.407          calculate D2E/DX2 analytically  !
 ! R22   R(16,17)                1.1042         calculate D2E/DX2 analytically  !
 ! R23   R(16,18)                1.109          calculate D2E/DX2 analytically  !
 ! R24   R(16,19)                1.3694         calculate D2E/DX2 analytically  !
 ! R25   R(19,37)                2.1144         calculate D2E/DX2 analytically  !
 ! R26   R(19,83)                2.2645         calculate D2E/DX2 analytically  !
 ! R27   R(20,21)                1.095          calculate D2E/DX2 analytically  !
 ! R28   R(20,22)                1.0907         calculate D2E/DX2 analytically  !
 ! R29   R(20,23)                1.0886         calculate D2E/DX2 analytically  !
 ! R30   R(24,25)                1.0921         calculate D2E/DX2 analytically  !
 ! R31   R(24,26)                1.0947         calculate D2E/DX2 analytically  !
 ! R32   R(24,27)                1.0872         calculate D2E/DX2 analytically  !
 ! R33   R(28,29)                1.0927         calculate D2E/DX2 analytically  !
 ! R34   R(28,30)                1.0938         calculate D2E/DX2 analytically  !
 ! R35   R(28,31)                1.0893         calculate D2E/DX2 analytically  !
 ! R36   R(32,33)                1.5262         calculate D2E/DX2 analytically  !
 ! R37   R(32,36)                1.5282         calculate D2E/DX2 analytically  !
 ! R38   R(32,39)                1.0931         calculate D2E/DX2 analytically  !
 ! R39   R(32,45)                1.4025         calculate D2E/DX2 analytically  !
 ! R40   R(33,34)                1.4906         calculate D2E/DX2 analytically  !
 ! R41   R(33,38)                1.1001         calculate D2E/DX2 analytically  !
 ! R42   R(33,44)                1.3965         calculate D2E/DX2 analytically  !
 ! R43   R(34,37)                1.0705         calculate D2E/DX2 analytically  !
 ! R44   R(34,42)                1.2775         calculate D2E/DX2 analytically  !
 ! R45   R(34,53)                2.1971         calculate D2E/DX2 analytically  !
 ! R46   R(35,36)                1.5231         calculate D2E/DX2 analytically  !
 ! R47   R(35,40)                1.0899         calculate D2E/DX2 analytically  !
 ! R48   R(35,42)                1.4533         calculate D2E/DX2 analytically  !
 ! R49   R(35,47)                1.5065         calculate D2E/DX2 analytically  !
 ! R50   R(36,41)                1.0918         calculate D2E/DX2 analytically  !
 ! R51   R(36,46)                1.403          calculate D2E/DX2 analytically  !
 ! R52   R(37,52)                2.2699         calculate D2E/DX2 analytically  !
 ! R53   R(43,51)                1.4669         calculate D2E/DX2 analytically  !
 ! R54   R(44,63)                1.418          calculate D2E/DX2 analytically  !
 ! R55   R(45,67)                1.4113         calculate D2E/DX2 analytically  !
 ! R56   R(46,71)                1.4119         calculate D2E/DX2 analytically  !
 ! R57   R(47,48)                1.0956         calculate D2E/DX2 analytically  !
 ! R58   R(47,49)                1.0965         calculate D2E/DX2 analytically  !
 ! R59   R(47,50)                1.3973         calculate D2E/DX2 analytically  !
 ! R60   R(50,75)                1.4054         calculate D2E/DX2 analytically  !
 ! R61   R(51,52)                1.4849         calculate D2E/DX2 analytically  !
 ! R62   R(51,53)                1.4969         calculate D2E/DX2 analytically  !
 ! R63   R(51,54)                1.7881         calculate D2E/DX2 analytically  !
 ! R64   R(52,83)                2.3198         calculate D2E/DX2 analytically  !
 ! R65   R(54,55)                1.3867         calculate D2E/DX2 analytically  !
 ! R66   R(54,56)                1.3876         calculate D2E/DX2 analytically  !
 ! R67   R(55,57)                1.3898         calculate D2E/DX2 analytically  !
 ! R68   R(55,58)                1.0802         calculate D2E/DX2 analytically  !
 ! R69   R(56,59)                1.3869         calculate D2E/DX2 analytically  !
 ! R70   R(56,60)                1.0794         calculate D2E/DX2 analytically  !
 ! R71   R(57,61)                1.3883         calculate D2E/DX2 analytically  !
 ! R72   R(57,93)                1.4981         calculate D2E/DX2 analytically  !
 ! R73   R(59,61)                1.3886         calculate D2E/DX2 analytically  !
 ! R74   R(59,97)                1.4975         calculate D2E/DX2 analytically  !
 ! R75   R(61,62)                1.0797         calculate D2E/DX2 analytically  !
 ! R76   R(63,64)                1.0919         calculate D2E/DX2 analytically  !
 ! R77   R(63,65)                1.0879         calculate D2E/DX2 analytically  !
 ! R78   R(63,66)                1.0871         calculate D2E/DX2 analytically  !
 ! R79   R(67,68)                1.0905         calculate D2E/DX2 analytically  !
 ! R80   R(67,69)                1.094          calculate D2E/DX2 analytically  !
 ! R81   R(67,70)                1.0877         calculate D2E/DX2 analytically  !
 ! R82   R(71,72)                1.0921         calculate D2E/DX2 analytically  !
 ! R83   R(71,73)                1.0931         calculate D2E/DX2 analytically  !
 ! R84   R(71,74)                1.0874         calculate D2E/DX2 analytically  !
 ! R85   R(75,76)                1.087          calculate D2E/DX2 analytically  !
 ! R86   R(75,77)                1.0948         calculate D2E/DX2 analytically  !
 ! R87   R(75,78)                1.0947         calculate D2E/DX2 analytically  !
 ! R88   R(79,80)                1.0871         calculate D2E/DX2 analytically  !
 ! R89   R(79,81)                1.0917         calculate D2E/DX2 analytically  !
 ! R90   R(79,82)                1.0946         calculate D2E/DX2 analytically  !
 ! R91   R(83,84)                2.304          calculate D2E/DX2 analytically  !
 ! R92   R(84,85)                1.4066         calculate D2E/DX2 analytically  !
 ! R93   R(84,89)                1.411          calculate D2E/DX2 analytically  !
 ! R94   R(85,86)                1.0942         calculate D2E/DX2 analytically  !
 ! R95   R(85,87)                1.0874         calculate D2E/DX2 analytically  !
 ! R96   R(85,88)                1.0939         calculate D2E/DX2 analytically  !
 ! R97   R(89,90)                1.0938         calculate D2E/DX2 analytically  !
 ! R98   R(89,91)                1.0886         calculate D2E/DX2 analytically  !
 ! R99   R(89,92)                1.0945         calculate D2E/DX2 analytically  !
 ! R100  R(93,94)                1.3456         calculate D2E/DX2 analytically  !
 ! R101  R(93,95)                1.3382         calculate D2E/DX2 analytically  !
 ! R102  R(93,96)                1.3376         calculate D2E/DX2 analytically  !
 ! R103  R(97,98)                1.3419         calculate D2E/DX2 analytically  !
 ! R104  R(97,99)                1.3414         calculate D2E/DX2 analytically  !
 ! R105  R(97,100)               1.341          calculate D2E/DX2 analytically  !
 ! A1    A(2,1,5)              110.6407         calculate D2E/DX2 analytically  !
 ! A2    A(2,1,8)              107.9831         calculate D2E/DX2 analytically  !
 ! A3    A(2,1,14)             109.3139         calculate D2E/DX2 analytically  !
 ! A4    A(5,1,8)              108.7387         calculate D2E/DX2 analytically  !
 ! A5    A(5,1,14)             110.3024         calculate D2E/DX2 analytically  !
 ! A6    A(8,1,14)             109.8242         calculate D2E/DX2 analytically  !
 ! A7    A(1,2,3)              109.7191         calculate D2E/DX2 analytically  !
 ! A8    A(1,2,7)              108.9716         calculate D2E/DX2 analytically  !
 ! A9    A(1,2,13)             112.0537         calculate D2E/DX2 analytically  !
 ! A10   A(3,2,7)              106.5523         calculate D2E/DX2 analytically  !
 ! A11   A(3,2,13)             108.8535         calculate D2E/DX2 analytically  !
 ! A12   A(7,2,13)             110.5385         calculate D2E/DX2 analytically  !
 ! A13   A(2,3,6)              110.1693         calculate D2E/DX2 analytically  !
 ! A14   A(2,3,11)             109.9305         calculate D2E/DX2 analytically  !
 ! A15   A(2,3,12)             108.8835         calculate D2E/DX2 analytically  !
 ! A16   A(6,3,11)             105.2436         calculate D2E/DX2 analytically  !
 ! A17   A(6,3,12)             110.2799         calculate D2E/DX2 analytically  !
 ! A18   A(11,3,12)            112.2948         calculate D2E/DX2 analytically  !
 ! A19   A(5,4,9)              108.0613         calculate D2E/DX2 analytically  !
 ! A20   A(5,4,11)             109.9013         calculate D2E/DX2 analytically  !
 ! A21   A(5,4,16)             113.4329         calculate D2E/DX2 analytically  !
 ! A22   A(9,4,11)             108.9153         calculate D2E/DX2 analytically  !
 ! A23   A(9,4,16)             109.0782         calculate D2E/DX2 analytically  !
 ! A24   A(11,4,16)            107.376          calculate D2E/DX2 analytically  !
 ! A25   A(1,5,4)              112.0814         calculate D2E/DX2 analytically  !
 ! A26   A(1,5,10)             107.9744         calculate D2E/DX2 analytically  !
 ! A27   A(1,5,15)             109.5839         calculate D2E/DX2 analytically  !
 ! A28   A(4,5,10)             108.6195         calculate D2E/DX2 analytically  !
 ! A29   A(4,5,15)             108.5447         calculate D2E/DX2 analytically  !
 ! A30   A(10,5,15)            110.0232         calculate D2E/DX2 analytically  !
 ! A31   A(5,10,37)            144.3152         calculate D2E/DX2 analytically  !
 ! A32   A(3,11,4)             115.0528         calculate D2E/DX2 analytically  !
 ! A33   A(3,12,79)            114.4369         calculate D2E/DX2 analytically  !
 ! A34   A(2,13,20)            114.9489         calculate D2E/DX2 analytically  !
 ! A35   A(1,14,24)            114.823          calculate D2E/DX2 analytically  !
 ! A36   A(5,15,28)            115.2404         calculate D2E/DX2 analytically  !
 ! A37   A(4,16,17)            105.3168         calculate D2E/DX2 analytically  !
 ! A38   A(4,16,18)            105.4096         calculate D2E/DX2 analytically  !
 ! A39   A(4,16,19)            114.6782         calculate D2E/DX2 analytically  !
 ! A40   A(17,16,18)           105.3594         calculate D2E/DX2 analytically  !
 ! A41   A(17,16,19)           113.6039         calculate D2E/DX2 analytically  !
 ! A42   A(18,16,19)           111.6643         calculate D2E/DX2 analytically  !
 ! A43   A(16,19,37)           125.7528         calculate D2E/DX2 analytically  !
 ! A44   A(16,19,83)           110.747          calculate D2E/DX2 analytically  !
 ! A45   A(37,19,83)            66.6988         calculate D2E/DX2 analytically  !
 ! A46   A(13,20,21)           111.4915         calculate D2E/DX2 analytically  !
 ! A47   A(13,20,22)           111.6127         calculate D2E/DX2 analytically  !
 ! A48   A(13,20,23)           107.186          calculate D2E/DX2 analytically  !
 ! A49   A(21,20,22)           108.7248         calculate D2E/DX2 analytically  !
 ! A50   A(21,20,23)           108.4726         calculate D2E/DX2 analytically  !
 ! A51   A(22,20,23)           109.279          calculate D2E/DX2 analytically  !
 ! A52   A(14,24,25)           111.587          calculate D2E/DX2 analytically  !
 ! A53   A(14,24,26)           111.2994         calculate D2E/DX2 analytically  !
 ! A54   A(14,24,27)           106.9311         calculate D2E/DX2 analytically  !
 ! A55   A(25,24,26)           108.752          calculate D2E/DX2 analytically  !
 ! A56   A(25,24,27)           109.1993         calculate D2E/DX2 analytically  !
 ! A57   A(26,24,27)           109.0138         calculate D2E/DX2 analytically  !
 ! A58   A(15,28,29)           111.3726         calculate D2E/DX2 analytically  !
 ! A59   A(15,28,30)           111.9253         calculate D2E/DX2 analytically  !
 ! A60   A(15,28,31)           106.9818         calculate D2E/DX2 analytically  !
 ! A61   A(29,28,30)           108.8282         calculate D2E/DX2 analytically  !
 ! A62   A(29,28,31)           108.9135         calculate D2E/DX2 analytically  !
 ! A63   A(30,28,31)           108.735          calculate D2E/DX2 analytically  !
 ! A64   A(33,32,36)           107.8444         calculate D2E/DX2 analytically  !
 ! A65   A(33,32,39)           109.3568         calculate D2E/DX2 analytically  !
 ! A66   A(33,32,45)           108.99           calculate D2E/DX2 analytically  !
 ! A67   A(36,32,39)           110.0374         calculate D2E/DX2 analytically  !
 ! A68   A(36,32,45)           109.6296         calculate D2E/DX2 analytically  !
 ! A69   A(39,32,45)           110.9198         calculate D2E/DX2 analytically  !
 ! A70   A(32,33,34)           111.3084         calculate D2E/DX2 analytically  !
 ! A71   A(32,33,38)           108.6337         calculate D2E/DX2 analytically  !
 ! A72   A(32,33,44)           116.4401         calculate D2E/DX2 analytically  !
 ! A73   A(34,33,38)           102.2829         calculate D2E/DX2 analytically  !
 ! A74   A(34,33,44)           108.3753         calculate D2E/DX2 analytically  !
 ! A75   A(38,33,44)           108.8403         calculate D2E/DX2 analytically  !
 ! A76   A(33,34,37)           120.6642         calculate D2E/DX2 analytically  !
 ! A77   A(33,34,42)           122.9169         calculate D2E/DX2 analytically  !
 ! A78   A(33,34,53)            97.0438         calculate D2E/DX2 analytically  !
 ! A79   A(37,34,42)           114.8577         calculate D2E/DX2 analytically  !
 ! A80   A(37,34,53)            86.9573         calculate D2E/DX2 analytically  !
 ! A81   A(42,34,53)            98.0411         calculate D2E/DX2 analytically  !
 ! A82   A(36,35,40)           109.127          calculate D2E/DX2 analytically  !
 ! A83   A(36,35,42)           111.6311         calculate D2E/DX2 analytically  !
 ! A84   A(36,35,47)           114.8084         calculate D2E/DX2 analytically  !
 ! A85   A(40,35,42)           105.0178         calculate D2E/DX2 analytically  !
 ! A86   A(40,35,47)           109.1273         calculate D2E/DX2 analytically  !
 ! A87   A(42,35,47)           106.6488         calculate D2E/DX2 analytically  !
 ! A88   A(32,36,35)           111.2969         calculate D2E/DX2 analytically  !
 ! A89   A(32,36,41)           108.2897         calculate D2E/DX2 analytically  !
 ! A90   A(32,36,46)           110.7344         calculate D2E/DX2 analytically  !
 ! A91   A(35,36,41)           108.9964         calculate D2E/DX2 analytically  !
 ! A92   A(35,36,46)           106.9153         calculate D2E/DX2 analytically  !
 ! A93   A(41,36,46)           110.6058         calculate D2E/DX2 analytically  !
 ! A94   A(10,37,19)            79.4705         calculate D2E/DX2 analytically  !
 ! A95   A(10,37,34)           124.199          calculate D2E/DX2 analytically  !
 ! A96   A(10,37,52)            99.4845         calculate D2E/DX2 analytically  !
 ! A97   A(19,37,34)            98.9374         calculate D2E/DX2 analytically  !
 ! A98   A(19,37,52)           117.7381         calculate D2E/DX2 analytically  !
 ! A99   A(34,37,52)           127.6699         calculate D2E/DX2 analytically  !
 ! A100  A(34,42,35)           122.6027         calculate D2E/DX2 analytically  !
 ! A101  A(33,44,63)           115.6684         calculate D2E/DX2 analytically  !
 ! A102  A(32,45,67)           115.0205         calculate D2E/DX2 analytically  !
 ! A103  A(36,46,71)           114.8082         calculate D2E/DX2 analytically  !
 ! A104  A(35,47,48)           108.0341         calculate D2E/DX2 analytically  !
 ! A105  A(35,47,49)           108.7729         calculate D2E/DX2 analytically  !
 ! A106  A(35,47,50)           109.2658         calculate D2E/DX2 analytically  !
 ! A107  A(48,47,49)           107.9096         calculate D2E/DX2 analytically  !
 ! A108  A(48,47,50)           111.54           calculate D2E/DX2 analytically  !
 ! A109  A(49,47,50)           111.2243         calculate D2E/DX2 analytically  !
 ! A110  A(47,50,75)           113.2606         calculate D2E/DX2 analytically  !
 ! A111  A(43,51,52)           114.3499         calculate D2E/DX2 analytically  !
 ! A112  A(43,51,53)           113.8241         calculate D2E/DX2 analytically  !
 ! A113  A(43,51,54)           106.7255         calculate D2E/DX2 analytically  !
 ! A114  A(52,51,53)           111.2209         calculate D2E/DX2 analytically  !
 ! A115  A(52,51,54)           105.1433         calculate D2E/DX2 analytically  !
 ! A116  A(53,51,54)           104.5769         calculate D2E/DX2 analytically  !
 ! A117  A(37,52,51)            93.0323         calculate D2E/DX2 analytically  !
 ! A118  A(37,52,83)            63.3542         calculate D2E/DX2 analytically  !
 ! A119  A(51,52,83)           141.2184         calculate D2E/DX2 analytically  !
 ! A120  A(34,53,51)           114.4618         calculate D2E/DX2 analytically  !
 ! A121  A(51,54,55)           119.6683         calculate D2E/DX2 analytically  !
 ! A122  A(51,54,56)           119.3245         calculate D2E/DX2 analytically  !
 ! A123  A(55,54,56)           120.96           calculate D2E/DX2 analytically  !
 ! A124  A(54,55,57)           119.0447         calculate D2E/DX2 analytically  !
 ! A125  A(54,55,58)           120.1681         calculate D2E/DX2 analytically  !
 ! A126  A(57,55,58)           120.7845         calculate D2E/DX2 analytically  !
 ! A127  A(54,56,59)           119.2824         calculate D2E/DX2 analytically  !
 ! A128  A(54,56,60)           120.3841         calculate D2E/DX2 analytically  !
 ! A129  A(59,56,60)           120.3333         calculate D2E/DX2 analytically  !
 ! A130  A(55,57,61)           120.7406         calculate D2E/DX2 analytically  !
 ! A131  A(55,57,93)           119.4753         calculate D2E/DX2 analytically  !
 ! A132  A(61,57,93)           119.7011         calculate D2E/DX2 analytically  !
 ! A133  A(56,59,61)           120.6124         calculate D2E/DX2 analytically  !
 ! A134  A(56,59,97)           119.8013         calculate D2E/DX2 analytically  !
 ! A135  A(61,59,97)           119.5226         calculate D2E/DX2 analytically  !
 ! A136  A(57,61,59)           119.356          calculate D2E/DX2 analytically  !
 ! A137  A(57,61,62)           120.2251         calculate D2E/DX2 analytically  !
 ! A138  A(59,61,62)           120.4189         calculate D2E/DX2 analytically  !
 ! A139  A(44,63,64)           110.7602         calculate D2E/DX2 analytically  !
 ! A140  A(44,63,65)           111.3819         calculate D2E/DX2 analytically  !
 ! A141  A(44,63,66)           106.5224         calculate D2E/DX2 analytically  !
 ! A142  A(64,63,65)           109.1862         calculate D2E/DX2 analytically  !
 ! A143  A(64,63,66)           109.0331         calculate D2E/DX2 analytically  !
 ! A144  A(65,63,66)           109.9042         calculate D2E/DX2 analytically  !
 ! A145  A(45,67,68)           111.4359         calculate D2E/DX2 analytically  !
 ! A146  A(45,67,69)           111.1213         calculate D2E/DX2 analytically  !
 ! A147  A(45,67,70)           106.8552         calculate D2E/DX2 analytically  !
 ! A148  A(68,67,69)           109.0821         calculate D2E/DX2 analytically  !
 ! A149  A(68,67,70)           109.3792         calculate D2E/DX2 analytically  !
 ! A150  A(69,67,70)           108.9052         calculate D2E/DX2 analytically  !
 ! A151  A(46,71,72)           111.152          calculate D2E/DX2 analytically  !
 ! A152  A(46,71,73)           111.1948         calculate D2E/DX2 analytically  !
 ! A153  A(46,71,74)           106.9302         calculate D2E/DX2 analytically  !
 ! A154  A(72,71,73)           109.0738         calculate D2E/DX2 analytically  !
 ! A155  A(72,71,74)           109.2522         calculate D2E/DX2 analytically  !
 ! A156  A(73,71,74)           109.1852         calculate D2E/DX2 analytically  !
 ! A157  A(50,75,76)           107.3525         calculate D2E/DX2 analytically  !
 ! A158  A(50,75,77)           111.2546         calculate D2E/DX2 analytically  !
 ! A159  A(50,75,78)           111.3708         calculate D2E/DX2 analytically  !
 ! A160  A(76,75,77)           109.0858         calculate D2E/DX2 analytically  !
 ! A161  A(76,75,78)           109.1378         calculate D2E/DX2 analytically  !
 ! A162  A(77,75,78)           108.5927         calculate D2E/DX2 analytically  !
 ! A163  A(12,79,80)           107.1435         calculate D2E/DX2 analytically  !
 ! A164  A(12,79,81)           111.6017         calculate D2E/DX2 analytically  !
 ! A165  A(12,79,82)           110.9178         calculate D2E/DX2 analytically  !
 ! A166  A(80,79,81)           109.2259         calculate D2E/DX2 analytically  !
 ! A167  A(80,79,82)           109.056          calculate D2E/DX2 analytically  !
 ! A168  A(81,79,82)           108.844          calculate D2E/DX2 analytically  !
 ! A169  A(19,83,52)           109.9287         calculate D2E/DX2 analytically  !
 ! A170  A(19,83,84)           103.1684         calculate D2E/DX2 analytically  !
 ! A171  A(52,83,84)           144.982          calculate D2E/DX2 analytically  !
 ! A172  A(83,84,85)           134.2433         calculate D2E/DX2 analytically  !
 ! A173  A(83,84,89)           112.3288         calculate D2E/DX2 analytically  !
 ! A174  A(85,84,89)           113.4019         calculate D2E/DX2 analytically  !
 ! A175  A(84,85,86)           110.9755         calculate D2E/DX2 analytically  !
 ! A176  A(84,85,87)           107.7317         calculate D2E/DX2 analytically  !
 ! A177  A(84,85,88)           111.0319         calculate D2E/DX2 analytically  !
 ! A178  A(86,85,87)           109.1592         calculate D2E/DX2 analytically  !
 ! A179  A(86,85,88)           108.7203         calculate D2E/DX2 analytically  !
 ! A180  A(87,85,88)           109.1865         calculate D2E/DX2 analytically  !
 ! A181  A(84,89,90)           110.8379         calculate D2E/DX2 analytically  !
 ! A182  A(84,89,91)           106.9076         calculate D2E/DX2 analytically  !
 ! A183  A(84,89,92)           110.74           calculate D2E/DX2 analytically  !
 ! A184  A(90,89,91)           109.9115         calculate D2E/DX2 analytically  !
 ! A185  A(90,89,92)           108.7811         calculate D2E/DX2 analytically  !
 ! A186  A(91,89,92)           109.6468         calculate D2E/DX2 analytically  !
 ! A187  A(57,93,94)           111.1521         calculate D2E/DX2 analytically  !
 ! A188  A(57,93,95)           111.9009         calculate D2E/DX2 analytically  !
 ! A189  A(57,93,96)           111.8187         calculate D2E/DX2 analytically  !
 ! A190  A(94,93,95)           106.9126         calculate D2E/DX2 analytically  !
 ! A191  A(94,93,96)           106.9148         calculate D2E/DX2 analytically  !
 ! A192  A(95,93,96)           107.869          calculate D2E/DX2 analytically  !
 ! A193  A(59,97,98)           112.073          calculate D2E/DX2 analytically  !
 ! A194  A(59,97,99)           111.4778         calculate D2E/DX2 analytically  !
 ! A195  A(59,97,100)          111.7508         calculate D2E/DX2 analytically  !
 ! A196  A(98,97,99)           106.8339         calculate D2E/DX2 analytically  !
 ! A197  A(98,97,100)          107.6585         calculate D2E/DX2 analytically  !
 ! A198  A(99,97,100)          106.7438         calculate D2E/DX2 analytically  !
 ! D1    D(5,1,2,3)            -52.8664         calculate D2E/DX2 analytically  !
 ! D2    D(5,1,2,7)             63.4444         calculate D2E/DX2 analytically  !
 ! D3    D(5,1,2,13)          -173.903          calculate D2E/DX2 analytically  !
 ! D4    D(8,1,2,3)             66.0277         calculate D2E/DX2 analytically  !
 ! D5    D(8,1,2,7)           -177.6616         calculate D2E/DX2 analytically  !
 ! D6    D(8,1,2,13)           -55.009          calculate D2E/DX2 analytically  !
 ! D7    D(14,1,2,3)          -174.5281         calculate D2E/DX2 analytically  !
 ! D8    D(14,1,2,7)           -58.2174         calculate D2E/DX2 analytically  !
 ! D9    D(14,1,2,13)           64.4352         calculate D2E/DX2 analytically  !
 ! D10   D(2,1,5,4)             50.5505         calculate D2E/DX2 analytically  !
 ! D11   D(2,1,5,10)           -69.0433         calculate D2E/DX2 analytically  !
 ! D12   D(2,1,5,15)           171.1225         calculate D2E/DX2 analytically  !
 ! D13   D(8,1,5,4)            -67.8848         calculate D2E/DX2 analytically  !
 ! D14   D(8,1,5,10)           172.5214         calculate D2E/DX2 analytically  !
 ! D15   D(8,1,5,15)            52.6872         calculate D2E/DX2 analytically  !
 ! D16   D(14,1,5,4)           171.6283         calculate D2E/DX2 analytically  !
 ! D17   D(14,1,5,10)           52.0345         calculate D2E/DX2 analytically  !
 ! D18   D(14,1,5,15)          -67.7997         calculate D2E/DX2 analytically  !
 ! D19   D(2,1,14,24)         -134.2733         calculate D2E/DX2 analytically  !
 ! D20   D(5,1,14,24)          103.8609         calculate D2E/DX2 analytically  !
 ! D21   D(8,1,14,24)          -15.9725         calculate D2E/DX2 analytically  !
 ! D22   D(1,2,3,6)            173.0333         calculate D2E/DX2 analytically  !
 ! D23   D(1,2,3,11)            57.4937         calculate D2E/DX2 analytically  !
 ! D24   D(1,2,3,12)           -65.9092         calculate D2E/DX2 analytically  !
 ! D25   D(7,2,3,6)             55.2059         calculate D2E/DX2 analytically  !
 ! D26   D(7,2,3,11)           -60.3336         calculate D2E/DX2 analytically  !
 ! D27   D(7,2,3,12)           176.2634         calculate D2E/DX2 analytically  !
 ! D28   D(13,2,3,6)           -64.0191         calculate D2E/DX2 analytically  !
 ! D29   D(13,2,3,11)         -179.5586         calculate D2E/DX2 analytically  !
 ! D30   D(13,2,3,12)           57.0384         calculate D2E/DX2 analytically  !
 ! D31   D(1,2,13,20)          -98.7603         calculate D2E/DX2 analytically  !
 ! D32   D(3,2,13,20)          139.7046         calculate D2E/DX2 analytically  !
 ! D33   D(7,2,13,20)           22.9989         calculate D2E/DX2 analytically  !
 ! D34   D(2,3,11,4)           -61.8635         calculate D2E/DX2 analytically  !
 ! D35   D(6,3,11,4)           179.5198         calculate D2E/DX2 analytically  !
 ! D36   D(12,3,11,4)           59.5193         calculate D2E/DX2 analytically  !
 ! D37   D(2,3,12,79)         -170.9066         calculate D2E/DX2 analytically  !
 ! D38   D(6,3,12,79)          -49.9169         calculate D2E/DX2 analytically  !
 ! D39   D(11,3,12,79)          67.113          calculate D2E/DX2 analytically  !
 ! D40   D(9,4,5,1)             67.7174         calculate D2E/DX2 analytically  !
 ! D41   D(9,4,5,10)          -173.0673         calculate D2E/DX2 analytically  !
 ! D42   D(9,4,5,15)           -53.4553         calculate D2E/DX2 analytically  !
 ! D43   D(11,4,5,1)           -51.0126         calculate D2E/DX2 analytically  !
 ! D44   D(11,4,5,10)           68.2027         calculate D2E/DX2 analytically  !
 ! D45   D(11,4,5,15)         -172.1853         calculate D2E/DX2 analytically  !
 ! D46   D(16,4,5,1)          -171.2155         calculate D2E/DX2 analytically  !
 ! D47   D(16,4,5,10)          -52.0002         calculate D2E/DX2 analytically  !
 ! D48   D(16,4,5,15)           67.6118         calculate D2E/DX2 analytically  !
 ! D49   D(5,4,11,3)            58.0681         calculate D2E/DX2 analytically  !
 ! D50   D(9,4,11,3)           -60.1353         calculate D2E/DX2 analytically  !
 ! D51   D(16,4,11,3)         -178.122          calculate D2E/DX2 analytically  !
 ! D52   D(5,4,16,17)          -57.9872         calculate D2E/DX2 analytically  !
 ! D53   D(5,4,16,18)         -169.1095         calculate D2E/DX2 analytically  !
 ! D54   D(5,4,16,19)           67.6558         calculate D2E/DX2 analytically  !
 ! D55   D(9,4,16,17)           62.5064         calculate D2E/DX2 analytically  !
 ! D56   D(9,4,16,18)          -48.6158         calculate D2E/DX2 analytically  !
 ! D57   D(9,4,16,19)         -171.8506         calculate D2E/DX2 analytically  !
 ! D58   D(11,4,16,17)        -179.6127         calculate D2E/DX2 analytically  !
 ! D59   D(11,4,16,18)          69.2651         calculate D2E/DX2 analytically  !
 ! D60   D(11,4,16,19)         -53.9697         calculate D2E/DX2 analytically  !
 ! D61   D(1,5,10,37)          120.7302         calculate D2E/DX2 analytically  !
 ! D62   D(4,5,10,37)           -1.0286         calculate D2E/DX2 analytically  !
 ! D63   D(15,5,10,37)        -119.713          calculate D2E/DX2 analytically  !
 ! D64   D(1,5,15,28)          111.6921         calculate D2E/DX2 analytically  !
 ! D65   D(4,5,15,28)         -125.6103         calculate D2E/DX2 analytically  !
 ! D66   D(10,5,15,28)          -6.88           calculate D2E/DX2 analytically  !
 ! D67   D(5,10,37,19)          28.9408         calculate D2E/DX2 analytically  !
 ! D68   D(5,10,37,34)         122.6526         calculate D2E/DX2 analytically  !
 ! D69   D(5,10,37,52)         -87.733          calculate D2E/DX2 analytically  !
 ! D70   D(3,12,79,80)         174.95           calculate D2E/DX2 analytically  !
 ! D71   D(3,12,79,81)         -65.5266         calculate D2E/DX2 analytically  !
 ! D72   D(3,12,79,82)          56.0238         calculate D2E/DX2 analytically  !
 ! D73   D(2,13,20,21)         -61.1997         calculate D2E/DX2 analytically  !
 ! D74   D(2,13,20,22)          60.6097         calculate D2E/DX2 analytically  !
 ! D75   D(2,13,20,23)        -179.7689         calculate D2E/DX2 analytically  !
 ! D76   D(1,14,24,25)         -58.3415         calculate D2E/DX2 analytically  !
 ! D77   D(1,14,24,26)          63.3486         calculate D2E/DX2 analytically  !
 ! D78   D(1,14,24,27)        -177.6908         calculate D2E/DX2 analytically  !
 ! D79   D(5,15,28,29)         -58.8376         calculate D2E/DX2 analytically  !
 ! D80   D(5,15,28,30)          63.2426         calculate D2E/DX2 analytically  !
 ! D81   D(5,15,28,31)        -177.7489         calculate D2E/DX2 analytically  !
 ! D82   D(4,16,19,37)         -28.2888         calculate D2E/DX2 analytically  !
 ! D83   D(4,16,19,83)          47.3229         calculate D2E/DX2 analytically  !
 ! D84   D(17,16,19,37)         92.9115         calculate D2E/DX2 analytically  !
 ! D85   D(17,16,19,83)        168.5233         calculate D2E/DX2 analytically  !
 ! D86   D(18,16,19,37)       -148.102          calculate D2E/DX2 analytically  !
 ! D87   D(18,16,19,83)        -72.4902         calculate D2E/DX2 analytically  !
 ! D88   D(16,19,37,10)         -8.3194         calculate D2E/DX2 analytically  !
 ! D89   D(16,19,37,34)       -131.6515         calculate D2E/DX2 analytically  !
 ! D90   D(16,19,37,52)         86.9375         calculate D2E/DX2 analytically  !
 ! D91   D(83,19,37,10)       -107.827          calculate D2E/DX2 analytically  !
 ! D92   D(83,19,37,34)        128.8408         calculate D2E/DX2 analytically  !
 ! D93   D(83,19,37,52)        -12.5702         calculate D2E/DX2 analytically  !
 ! D94   D(16,19,83,52)       -109.5754         calculate D2E/DX2 analytically  !
 ! D95   D(16,19,83,84)         82.0487         calculate D2E/DX2 analytically  !
 ! D96   D(37,19,83,52)         11.5654         calculate D2E/DX2 analytically  !
 ! D97   D(37,19,83,84)       -156.8105         calculate D2E/DX2 analytically  !
 ! D98   D(36,32,33,34)        -49.1563         calculate D2E/DX2 analytically  !
 ! D99   D(36,32,33,38)         62.7139         calculate D2E/DX2 analytically  !
 ! D100  D(36,32,33,44)       -174.0366         calculate D2E/DX2 analytically  !
 ! D101  D(39,32,33,34)         70.4877         calculate D2E/DX2 analytically  !
 ! D102  D(39,32,33,38)       -177.6421         calculate D2E/DX2 analytically  !
 ! D103  D(39,32,33,44)        -54.3927         calculate D2E/DX2 analytically  !
 ! D104  D(45,32,33,34)       -168.1041         calculate D2E/DX2 analytically  !
 ! D105  D(45,32,33,38)        -56.2339         calculate D2E/DX2 analytically  !
 ! D106  D(45,32,33,44)         67.0156         calculate D2E/DX2 analytically  !
 ! D107  D(33,32,36,35)         58.9307         calculate D2E/DX2 analytically  !
 ! D108  D(33,32,36,41)        -60.8577         calculate D2E/DX2 analytically  !
 ! D109  D(33,32,36,46)        177.7127         calculate D2E/DX2 analytically  !
 ! D110  D(39,32,36,35)        -60.2813         calculate D2E/DX2 analytically  !
 ! D111  D(39,32,36,41)        179.9303         calculate D2E/DX2 analytically  !
 ! D112  D(39,32,36,46)         58.5007         calculate D2E/DX2 analytically  !
 ! D113  D(45,32,36,35)        177.4699         calculate D2E/DX2 analytically  !
 ! D114  D(45,32,36,41)         57.6815         calculate D2E/DX2 analytically  !
 ! D115  D(45,32,36,46)        -63.7481         calculate D2E/DX2 analytically  !
 ! D116  D(33,32,45,67)       -140.3409         calculate D2E/DX2 analytically  !
 ! D117  D(36,32,45,67)        101.8319         calculate D2E/DX2 analytically  !
 ! D118  D(39,32,45,67)        -19.8893         calculate D2E/DX2 analytically  !
 ! D119  D(32,33,34,37)       -161.7843         calculate D2E/DX2 analytically  !
 ! D120  D(32,33,34,42)         33.2035         calculate D2E/DX2 analytically  !
 ! D121  D(32,33,34,53)        -71.1492         calculate D2E/DX2 analytically  !
 ! D122  D(38,33,34,37)         82.3718         calculate D2E/DX2 analytically  !
 ! D123  D(38,33,34,42)        -82.6405         calculate D2E/DX2 analytically  !
 ! D124  D(38,33,34,53)        173.0069         calculate D2E/DX2 analytically  !
 ! D125  D(44,33,34,37)        -32.4992         calculate D2E/DX2 analytically  !
 ! D126  D(44,33,34,42)        162.4885         calculate D2E/DX2 analytically  !
 ! D127  D(44,33,34,53)         58.1358         calculate D2E/DX2 analytically  !
 ! D128  D(32,33,44,63)        -77.433          calculate D2E/DX2 analytically  !
 ! D129  D(34,33,44,63)        156.2091         calculate D2E/DX2 analytically  !
 ! D130  D(38,33,44,63)         45.7093         calculate D2E/DX2 analytically  !
 ! D131  D(33,34,37,10)       -141.3941         calculate D2E/DX2 analytically  !
 ! D132  D(33,34,37,19)        -58.1008         calculate D2E/DX2 analytically  !
 ! D133  D(33,34,37,52)         77.6774         calculate D2E/DX2 analytically  !
 ! D134  D(42,34,37,10)         24.763          calculate D2E/DX2 analytically  !
 ! D135  D(42,34,37,19)        108.0563         calculate D2E/DX2 analytically  !
 ! D136  D(42,34,37,52)       -116.1655         calculate D2E/DX2 analytically  !
 ! D137  D(53,34,37,10)        122.2187         calculate D2E/DX2 analytically  !
 ! D138  D(53,34,37,19)       -154.4881         calculate D2E/DX2 analytically  !
 ! D139  D(53,34,37,52)        -18.7099         calculate D2E/DX2 analytically  !
 ! D140  D(33,34,42,35)        -23.4584         calculate D2E/DX2 analytically  !
 ! D141  D(37,34,42,35)        170.7331         calculate D2E/DX2 analytically  !
 ! D142  D(53,34,42,35)         80.3681         calculate D2E/DX2 analytically  !
 ! D143  D(33,34,53,51)       -115.9815         calculate D2E/DX2 analytically  !
 ! D144  D(37,34,53,51)          4.552          calculate D2E/DX2 analytically  !
 ! D145  D(42,34,53,51)        119.237          calculate D2E/DX2 analytically  !
 ! D146  D(40,35,36,32)         67.3555         calculate D2E/DX2 analytically  !
 ! D147  D(40,35,36,41)       -173.2761         calculate D2E/DX2 analytically  !
 ! D148  D(40,35,36,46)        -53.69           calculate D2E/DX2 analytically  !
 ! D149  D(42,35,36,32)        -48.275          calculate D2E/DX2 analytically  !
 ! D150  D(42,35,36,41)         71.0933         calculate D2E/DX2 analytically  !
 ! D151  D(42,35,36,46)       -169.3205         calculate D2E/DX2 analytically  !
 ! D152  D(47,35,36,32)       -169.7985         calculate D2E/DX2 analytically  !
 ! D153  D(47,35,36,41)        -50.4302         calculate D2E/DX2 analytically  !
 ! D154  D(47,35,36,46)         69.156          calculate D2E/DX2 analytically  !
 ! D155  D(36,35,42,34)         30.1441         calculate D2E/DX2 analytically  !
 ! D156  D(40,35,42,34)        -87.9772         calculate D2E/DX2 analytically  !
 ! D157  D(47,35,42,34)        156.2804         calculate D2E/DX2 analytically  !
 ! D158  D(36,35,47,48)        -67.2432         calculate D2E/DX2 analytically  !
 ! D159  D(36,35,47,49)        175.8694         calculate D2E/DX2 analytically  !
 ! D160  D(36,35,47,50)         54.2787         calculate D2E/DX2 analytically  !
 ! D161  D(40,35,47,48)         55.6027         calculate D2E/DX2 analytically  !
 ! D162  D(40,35,47,49)        -61.2848         calculate D2E/DX2 analytically  !
 ! D163  D(40,35,47,50)        177.1245         calculate D2E/DX2 analytically  !
 ! D164  D(42,35,47,48)        168.5554         calculate D2E/DX2 analytically  !
 ! D165  D(42,35,47,49)         51.6679         calculate D2E/DX2 analytically  !
 ! D166  D(42,35,47,50)        -69.9227         calculate D2E/DX2 analytically  !
 ! D167  D(32,36,46,71)        116.7535         calculate D2E/DX2 analytically  !
 ! D168  D(35,36,46,71)       -121.8445         calculate D2E/DX2 analytically  !
 ! D169  D(41,36,46,71)         -3.3009         calculate D2E/DX2 analytically  !
 ! D170  D(10,37,52,51)       -116.5013         calculate D2E/DX2 analytically  !
 ! D171  D(10,37,52,83)         95.6323         calculate D2E/DX2 analytically  !
 ! D172  D(19,37,52,51)        160.4761         calculate D2E/DX2 analytically  !
 ! D173  D(19,37,52,83)         12.6097         calculate D2E/DX2 analytically  !
 ! D174  D(34,37,52,51)         31.5925         calculate D2E/DX2 analytically  !
 ! D175  D(34,37,52,83)       -116.2739         calculate D2E/DX2 analytically  !
 ! D176  D(33,44,63,64)        -43.0846         calculate D2E/DX2 analytically  !
 ! D177  D(33,44,63,65)         78.6412         calculate D2E/DX2 analytically  !
 ! D178  D(33,44,63,66)       -161.5238         calculate D2E/DX2 analytically  !
 ! D179  D(32,45,67,68)        -58.8887         calculate D2E/DX2 analytically  !
 ! D180  D(32,45,67,69)         62.9936         calculate D2E/DX2 analytically  !
 ! D181  D(32,45,67,70)       -178.3233         calculate D2E/DX2 analytically  !
 ! D182  D(36,46,71,72)        -63.0768         calculate D2E/DX2 analytically  !
 ! D183  D(36,46,71,73)         58.6485         calculate D2E/DX2 analytically  !
 ! D184  D(36,46,71,74)        177.7573         calculate D2E/DX2 analytically  !
 ! D185  D(35,47,50,75)        176.3485         calculate D2E/DX2 analytically  !
 ! D186  D(48,47,50,75)        -64.2758         calculate D2E/DX2 analytically  !
 ! D187  D(49,47,50,75)         56.2519         calculate D2E/DX2 analytically  !
 ! D188  D(47,50,75,76)        179.4263         calculate D2E/DX2 analytically  !
 ! D189  D(47,50,75,77)        -61.2909         calculate D2E/DX2 analytically  !
 ! D190  D(47,50,75,78)         60.0129         calculate D2E/DX2 analytically  !
 ! D191  D(43,51,52,37)       -149.9487         calculate D2E/DX2 analytically  !
 ! D192  D(43,51,52,83)       -100.572          calculate D2E/DX2 analytically  !
 ! D193  D(53,51,52,37)        -19.3053         calculate D2E/DX2 analytically  !
 ! D194  D(53,51,52,83)         30.0714         calculate D2E/DX2 analytically  !
 ! D195  D(54,51,52,37)         93.325          calculate D2E/DX2 analytically  !
 ! D196  D(54,51,52,83)        142.7017         calculate D2E/DX2 analytically  !
 ! D197  D(43,51,53,34)        147.1483         calculate D2E/DX2 analytically  !
 ! D198  D(52,51,53,34)         16.2324         calculate D2E/DX2 analytically  !
 ! D199  D(54,51,53,34)        -96.7553         calculate D2E/DX2 analytically  !
 ! D200  D(43,51,54,55)        -32.0768         calculate D2E/DX2 analytically  !
 ! D201  D(43,51,54,56)        150.3982         calculate D2E/DX2 analytically  !
 ! D202  D(52,51,54,55)         89.7486         calculate D2E/DX2 analytically  !
 ! D203  D(52,51,54,56)        -87.7764         calculate D2E/DX2 analytically  !
 ! D204  D(53,51,54,55)       -153.0038         calculate D2E/DX2 analytically  !
 ! D205  D(53,51,54,56)         29.4712         calculate D2E/DX2 analytically  !
 ! D206  D(37,52,83,19)        -11.0639         calculate D2E/DX2 analytically  !
 ! D207  D(37,52,83,84)        148.9437         calculate D2E/DX2 analytically  !
 ! D208  D(51,52,83,19)        -69.0593         calculate D2E/DX2 analytically  !
 ! D209  D(51,52,83,84)         90.9483         calculate D2E/DX2 analytically  !
 ! D210  D(51,54,55,57)       -177.0451         calculate D2E/DX2 analytically  !
 ! D211  D(51,54,55,58)          3.5415         calculate D2E/DX2 analytically  !
 ! D212  D(56,54,55,57)          0.4385         calculate D2E/DX2 analytically  !
 ! D213  D(56,54,55,58)       -178.9748         calculate D2E/DX2 analytically  !
 ! D214  D(51,54,56,59)        177.611          calculate D2E/DX2 analytically  !
 ! D215  D(51,54,56,60)         -2.5622         calculate D2E/DX2 analytically  !
 ! D216  D(55,54,56,59)          0.1188         calculate D2E/DX2 analytically  !
 ! D217  D(55,54,56,60)        179.9456         calculate D2E/DX2 analytically  !
 ! D218  D(54,55,57,61)         -0.6593         calculate D2E/DX2 analytically  !
 ! D219  D(54,55,57,93)        176.0168         calculate D2E/DX2 analytically  !
 ! D220  D(58,55,57,61)        178.7503         calculate D2E/DX2 analytically  !
 ! D221  D(58,55,57,93)         -4.5736         calculate D2E/DX2 analytically  !
 ! D222  D(54,56,59,61)         -0.4674         calculate D2E/DX2 analytically  !
 ! D223  D(54,56,59,97)        176.6167         calculate D2E/DX2 analytically  !
 ! D224  D(60,56,59,61)        179.7057         calculate D2E/DX2 analytically  !
 ! D225  D(60,56,59,97)         -3.2102         calculate D2E/DX2 analytically  !
 ! D226  D(55,57,61,59)          0.3197         calculate D2E/DX2 analytically  !
 ! D227  D(55,57,61,62)       -179.6488         calculate D2E/DX2 analytically  !
 ! D228  D(93,57,61,59)       -176.349          calculate D2E/DX2 analytically  !
 ! D229  D(93,57,61,62)          3.6825         calculate D2E/DX2 analytically  !
 ! D230  D(55,57,93,94)        -86.3072         calculate D2E/DX2 analytically  !
 ! D231  D(55,57,93,95)        154.238          calculate D2E/DX2 analytically  !
 ! D232  D(55,57,93,96)         33.0952         calculate D2E/DX2 analytically  !
 ! D233  D(61,57,93,94)         90.4039         calculate D2E/DX2 analytically  !
 ! D234  D(61,57,93,95)        -29.0508         calculate D2E/DX2 analytically  !
 ! D235  D(61,57,93,96)       -150.1936         calculate D2E/DX2 analytically  !
 ! D236  D(56,59,61,57)          0.2506         calculate D2E/DX2 analytically  !
 ! D237  D(56,59,61,62)       -179.781          calculate D2E/DX2 analytically  !
 ! D238  D(97,59,61,57)       -176.8415         calculate D2E/DX2 analytically  !
 ! D239  D(97,59,61,62)          3.1269         calculate D2E/DX2 analytically  !
 ! D240  D(56,59,97,98)         24.312          calculate D2E/DX2 analytically  !
 ! D241  D(56,59,97,99)        -95.3825         calculate D2E/DX2 analytically  !
 ! D242  D(56,59,97,100)       145.257          calculate D2E/DX2 analytically  !
 ! D243  D(61,59,97,98)       -158.572          calculate D2E/DX2 analytically  !
 ! D244  D(61,59,97,99)         81.7335         calculate D2E/DX2 analytically  !
 ! D245  D(61,59,97,100)       -37.627          calculate D2E/DX2 analytically  !
 ! D246  D(19,83,84,85)       -177.65           calculate D2E/DX2 analytically  !
 ! D247  D(19,83,84,89)          0.3157         calculate D2E/DX2 analytically  !
 ! D248  D(52,83,84,85)         21.6251         calculate D2E/DX2 analytically  !
 ! D249  D(52,83,84,89)       -160.4093         calculate D2E/DX2 analytically  !
 ! D250  D(83,84,85,86)       -121.5769         calculate D2E/DX2 analytically  !
 ! D251  D(83,84,85,87)         -2.1311         calculate D2E/DX2 analytically  !
 ! D252  D(83,84,85,88)        117.381          calculate D2E/DX2 analytically  !
 ! D253  D(89,84,85,86)         60.4737         calculate D2E/DX2 analytically  !
 ! D254  D(89,84,85,87)        179.9194         calculate D2E/DX2 analytically  !
 ! D255  D(89,84,85,88)        -60.5685         calculate D2E/DX2 analytically  !
 ! D256  D(83,84,89,90)       -117.7152         calculate D2E/DX2 analytically  !
 ! D257  D(83,84,89,91)          2.0578         calculate D2E/DX2 analytically  !
 ! D258  D(83,84,89,92)        121.4552         calculate D2E/DX2 analytically  !
 ! D259  D(85,84,89,90)         60.6969         calculate D2E/DX2 analytically  !
 ! D260  D(85,84,89,91)       -179.5301         calculate D2E/DX2 analytically  !
 ! D261  D(85,84,89,92)        -60.1327         calculate D2E/DX2 analytically  !
 --------------------------------------------------------------------------------
 Trust Radius=5.00D-02 FncErr=1.00D-07 GrdErr=1.00D-06 EigMax=2.50D+02 EigMin=1.00D-04
 Number of steps in this run=    574 maximum allowed number of steps=    600.
 Search for a saddle point of order  1.
 GradGradGradGradGradGradGradGradGradGradGradGradGradGradGradGradGradGrad

 Leave Link  103 at Sun Jun 16 18:28:38 2019, MaxMem=  6442450944 cpu:               4.3 elap:               0.2
 (Enter /home/ekwan/sw/g16/l202.exe)
 Stoichiometry    C30H47F6NaO15S
 Framework group  C1[X(C30H47F6NaO15S)]
 Deg. of freedom   294
 Full point group                 C1      NOp   1
 Largest Abelian subgroup         C1      NOp   1
 Largest concise Abelian subgroup C1      NOp   1
                         Standard orientation:                         
 ---------------------------------------------------------------------
 Center     Atomic      Atomic             Coordinates (Angstroms)
 Number     Number       Type             X           Y           Z
 ---------------------------------------------------------------------
      1          6           0       -1.911378    1.476527    2.252670
      2          6           0       -2.241808    2.259716    0.989321
      3          6           0       -1.428773    3.550020    0.956205
      4          6           0        0.364471    2.584300    2.221642
      5          6           0       -0.405593    1.275215    2.381819
      6          1           0       -1.566118    4.058084   -0.003446
      7          1           0       -1.933742    1.674541    0.117069
      8          1           0       -2.263085    2.055657    3.110439
      9          1           0        0.134802    3.220347    3.081675
     10          1           0       -0.088774    0.585411    1.595175
     11          8           0       -0.053383    3.252866    1.024488
     12          8           0       -1.842586    4.368120    1.996787
     13          8           0       -3.606792    2.581167    0.909964
     14          8           0       -2.571805    0.227141    2.214439
     15          8           0       -0.107852    0.731349    3.650583
     16          6           0        1.881494    2.391651    2.132307
     17          1           0        2.164614    1.870063    3.063453
     18          1           0        2.313543    3.408998    2.222492
     19          8           0        2.311570    1.758596    0.996686
     20          6           0       -4.371001    1.726991    0.094889
     21          1           0       -4.022546    1.745135   -0.943072
     22          1           0       -4.344392    0.697850    0.455237
     23          1           0       -5.396781    2.090449    0.120761
     24          6           0       -3.220776   -0.134820    3.409379
     25          1           0       -2.524090   -0.172298    4.249542
     26          1           0       -4.027026    0.564902    3.651718
     27          1           0       -3.645020   -1.123400    3.252352
     28          6           0        0.368516   -0.592517    3.639092
     29          1           0       -0.352166   -1.271052    3.176239
     30          1           0        1.323148   -0.678511    3.112136
     31          1           0        0.514338   -0.887179    4.677556
     32          6           0        3.972156   -1.384159   -1.299348
     33          6           0        3.262305   -0.105413   -0.863390
     34          6           0        1.946727   -0.405193   -0.230026
     35          6           0        2.523144   -2.667418    0.312939
     36          6           0        3.949690   -2.357194   -0.121173
     37          1           0        1.201567    0.357077   -0.132208
     38          1           0        3.825580    0.343248   -0.031794
     39          1           0        3.445378   -1.817838   -2.153380
     40          1           0        2.025231   -3.232958   -0.474502
     41          1           0        4.483025   -1.897381    0.713166
     42          8           0        1.733723   -1.456565    0.463676
     43          8           0       -0.442247   -0.039815   -3.899365
     44          8           0        3.065534    0.863621   -1.849461
     45          8           0        5.299734   -1.078285   -1.632553
     46          8           0        4.543688   -3.578288   -0.474043
     47          6           0        2.407615   -3.422416    1.611435
     48          1           0        2.817757   -4.426610    1.457545
     49          1           0        1.346072   -3.527033    1.865567
     50          8           0        3.101022   -2.732396    2.609229
     51         16           0       -0.243506   -0.146690   -2.449936
     52          8           0       -0.183835    1.157391   -1.742360
     53          8           0        0.902252   -1.027612   -2.060057
     54          6           0       -1.688138   -0.969596   -1.791736
     55          6           0       -2.920897   -0.782301   -2.398546
     56          6           0       -1.565975   -1.746180   -0.648254
     57          6           0       -4.045387   -1.378121   -1.839943
     58          1           0       -2.998755   -0.188802   -3.297683
     59          6           0       -2.696012   -2.343445   -0.109961
     60          1           0       -0.601665   -1.886472   -0.184030
     61          6           0       -3.940312   -2.161910   -0.698899
     62          1           0       -4.818583   -2.625510   -0.275155
     63          6           0        4.204377    1.639220   -2.184361
     64          1           0        4.747584    1.937414   -1.285311
     65          1           0        4.876143    1.093401   -2.843440
     66          1           0        3.835126    2.529532   -2.687125
     67          6           0        5.802726   -1.756406   -2.763465
     68          1           0        5.761219   -2.837990   -2.630727
     69          1           0        5.246333   -1.485154   -3.665554
     70          1           0        6.838640   -1.446823   -2.881921
     71          6           0        5.709996   -3.901695    0.252989
     72          1           0        6.502511   -3.172650    0.071215
     73          1           0        5.506637   -3.948190    1.326039
     74          1           0        6.036803   -4.879914   -0.091488
     75          6           0        2.980011   -3.322804    3.878893
     76          1           0        3.559309   -2.719777    4.573384
     77          1           0        1.936210   -3.344915    4.208454
     78          1           0        3.368635   -4.346180    3.881617
     79          6           0       -1.312430    5.673104    1.958544
     80          1           0       -1.779336    6.232447    2.765402
     81          1           0       -0.230105    5.671579    2.101528
     82          1           0       -1.542507    6.160625    1.005924
     83         11           0        1.338603    2.657278   -0.840127
     84          8           0        2.631116    4.517382   -1.261810
     85          6           0        2.580549    5.552521   -2.212858
     86          1           0        3.503704    5.591398   -2.798922
     87          1           0        1.743988    5.350878   -2.877675
     88          1           0        2.430216    6.522455   -1.729830
     89          6           0        3.683352    4.660816   -0.332788
     90          1           0        3.577970    5.590383    0.234014
     91          1           0        3.629260    3.807541    0.341064
     92          1           0        4.652061    4.666601   -0.842200
     93          6           0       -5.394015   -1.109673   -2.434466
     94          9           0       -5.938243    0.007690   -1.918876
     95          9           0       -6.252874   -2.107499   -2.194573
     96          9           0       -5.327589   -0.934817   -3.758960
     97          6           0       -2.566680   -3.245064    1.078713
     98          9           0       -1.466757   -2.975668    1.798682
     99          9           0       -2.485115   -4.532720    0.711883
    100          9           0       -3.623878   -3.142799    1.897369
 ---------------------------------------------------------------------
 Rotational constants (GHZ):           0.0575670           0.0430352           0.0366109
 Leave Link  202 at Sun Jun 16 18:28:38 2019, MaxMem=  6442450944 cpu:               4.6 elap:               0.2
 (Enter /home/ekwan/sw/g16/l301.exe)
 Standard basis: 6-31G(d) (6D, 7F)
 Centers:      19     53     43     52
 SP 1 1.00
     Exponent=  8.4500000000D-02 Coefficients=  1.0000000000D+00  1.0000000000D+00
 ****
 Ernie: Thresh=  0.10000D-02 Tol=  0.10000D-05 Strict=F.
 There are   913 symmetry adapted cartesian basis functions of A   symmetry.
 There are   913 symmetry adapted basis functions of A   symmetry.
   913 basis functions,  1736 primitive gaussians,   913 cartesian basis functions
   214 alpha electrons      214 beta electrons
       nuclear repulsion energy      9695.6422868094 Hartrees.
 IExCor= 5547 DFT=T Ex+Corr=N12SX ExCW=0 ScaHFX=  0.250000
 ScaDFX=  1.000000  1.000000  1.000000  1.000000 ScalE2=  1.000000  1.000000
 IRadAn=      5 IRanWt=     -1 IRanGd=            0 ICorTp=0 IEmpDi=  4
 HFx  wShort=  0.110000 wLong=  0.000000 cFull=  0.000000 cShort=  1.000000 cLong=  0.000000
 DFx  wShort=  0.110000 wLong=  0.000000 cFull=  0.000000 cShort=  1.000000 cLong=  0.000000
 NAtoms=  100 NActive=  100 NUniq=  100 SFac= 1.00D+00 NAtFMM=   60 NAOKFM=T Big=T
 Integral buffers will be    131072 words long.
 Raffenetti 2 integral format.
 Two-electron integral symmetry is turned on.
 Force inversion solution in PCM.
 ------------------------------------------------------------------------------
 Polarizable Continuum Model (PCM)
 =================================
 Model                : PCM.
 Atomic radii         : UFF (Universal Force Field).
 Polarization charges : Total charges.
 Charge compensation  : None.
 Solution method      : Matrix inversion.
 Cavity type          : Scaled VdW (van der Waals Surface) (Alpha=1.100).
 Cavity algorithm     : GePol (No added spheres)
                        Default sphere list used, NSphG=  100.
                        Lebedev-Laikov grids with approx.  5.0 points / Ang**2.
                        Smoothing algorithm: York/Karplus (Gamma=1.0000).
                        Polarization charges: spherical gaussians, with
                                              point-specific exponents (IZeta= 3).
                        Self-potential: point-specific (ISelfS= 7).
                        Self-field    : sphere-specific E.n sum rule (ISelfD= 2).
 1st derivatives      : Analytical E(r).r(x)/FMM algorithm (CHGder, D1EAlg=3).
                        Cavity 1st derivative terms included.
 2nd derivatives      : Analytical E(r).r(xy)/FMM algorithm (CHGder, D2EAlg=3).
                        Cavity 2nd derivative terms included.
 Solvent              : TetraHydroFuran, Eps=   7.425700 Eps(inf)=   1.974025
[...]
 ,-0.00005479,0.00004709,-0.00012760,0.00005394,0.00006964,-0.00011067,
 0.00014520,0.00000711,0.00015644,-0.00001415,-0.00006174,-0.00010571,0
 .00003890,-0.00000527,0.00013688,-0.00017188,0.00003355,-0.00005207,0.
 00013981,-0.00004789,0.00350868,0.00132966,-0.00134758,-0.00086716,-0.
 00104674,-0.00000207,-0.00160039,0.00017506,-0.00005522,-0.00034091,0.
 00085358,0.00231600,0.00018603,-0.00085692,0.00051138,0.00363608,-0.00
 061279,0.00069712,-0.00009234,0.00063914,0.00230445,0.00009785,-0.0001
 6643,-0.00017956,0.00359069,-0.04635672,-0.00074943,0.00028876,-0.0008
 0469,-0.00091883,-0.00348113,-0.00085179,0.00009427,0.00040339,-0.0008
 3740,-0.00087361,0.00010137,0.00007116,-0.00004566,-0.00001783,-0.0000
 0790,-0.00000349,-0.00002326,-0.00000357,0.00001343,0.00000087,-0.0000
 0585,0.00000522,0.00003035,-0.00005259,-0.00006500,-0.00000450,0.00001
 525,0.00000329,0.00000020,0.00000104,0.00000657,-0.00000851,0.00000367
 ,0.00000914,0.00004665,-0.00002327,0.00003577,-0.00000291,0.00000440,-
 0.00000675,-0.00000192,-0.00000859,-0.00000918,-0.00002033,0.00001209,
 0.00000298,0.00004681,-0.00007117,0.00006919,0.00000517,0.00000682,-0.
 00000427,-0.00000411,-0.00002189,0.00000526,-0.00003405,0.00003129,-0.
 00000173,0.00004394,0.00013378,-0.00000803,0.00000171,-0.00002217,-0.0
 0001110,-0.00001796,-0.00001144,0.00000336,-0.00000579,-0.00001690,0.0
 0001409,0.00014975,0.00018251,-0.00000288,-0.00004223,-0.00004976,0.00
 000963,0.00001069,0.00003003,-0.00002520,-0.00000964,-0.00000237,0.000
 00572,-0.00000045,0.00000193,-0.00000464,0.00000016,-0.00000690,-0.000
 00136,0.00003028,0.00000861,0.00001434,-0.00000090,-0.00000749,-0.0000
 0134,0.00001748,0.00000833,-0.00000226,-0.00000943,-0.00000438,0.00000
 670,-0.00279629,0.00017249,-0.00097029,0.00078503,-0.00046173,0.000064
 51,0.00088168,0.00032711,0.00019535,0.00069626,-0.00019049,0.00088511,
 0.01498583,-0.27675525,-0.03294850,-0.03108234,-0.03431187,-0.03332891
 ,-0.01912365,0.38358707,0.00016616,0.00027235,-0.00003547,-0.00007219,
 -0.00000827,-0.00013613,-0.00000342,0.00000423,-0.00000159,-0.00002134
 ,0.00008290,-0.00005550,-0.00002013,0.00006251,-0.00017847,-0.00000415
 ,-0.00002643,0.00001023,0.00000096,-0.00001542,0.00000500,-0.00002048,
 -0.00003552,0.00000269,-0.00000718,-0.00000383,0.00000857,0.00000642,0
 .00001335,-0.00000862,0.00001860,-0.00004438,0.00008347,0.00000418,-0.
 00001449,0.00002743,0.00010953,0.00006501,0.00015644,-0.00006625,-0.00
 047824,0.00016083,-0.00001575,-0.00039813,0.00010145,0.00006266,-0.000
 01957,-0.00008972,0.00001156,0.00000018,0.00002736,-0.00002113,0.00000
 511,0.00002280,-0.00004132,0.00004857,0.00013279,-0.00004616,-0.000081
 68,-0.00013916,-0.00001237,-0.00004675,0.00006970,0.00000633,0.0000047
 2,-0.00007880,-0.00000527,0.00001839,0.00001466,0.00023600,0.00042222,
 -0.00010024,-0.00003580,-0.00005757,0.00001472,-0.00001732,-0.00015537
 ,-0.00001372,-0.00025663,0.00010325,0.00034608,0.00025738,0.00048149,0
 .00012740,-0.00003832,0.00002453,0.00011905,-0.00007361,-0.00005676,-0
 .00003457,-0.00004733,-0.00004752,-0.00004693,-0.00003946,0.00000506,-
 0.00002261,0.00000529,0.00001091,0.00000103,-0.00020865,-0.00005629,-0
 .00038519,-0.00007315,0.00004103,-0.00009776,0.00000895,-0.00001005,0.
 00000520,0.00000231,-0.00000561,-0.00001299,0.00001210,-0.00000195,-0.
 00001144,-0.00000659,0.00000713,0.00001400,-0.00000545,0.00000404,0.00
 000561,0.00001210,0.00000358,-0.00000069,0.00007293,-0.00009608,0.0001
 8221,0.00033544,0.00022584,-0.00034154,0.00004452,0.00001307,0.0000202
 2,0.00001985,-0.00000204,0.00002149,0.00002173,-0.00001485,0.00002712,
 0.00018737,0.00003884,-0.00008128,-0.00003702,0.00000750,0.00001595,0.
 00006429,-0.00006649,0.00003966,-0.00008765,-0.00000732,0.00005791,-0.
 00129751,-0.00066523,0.00028456,0.00030783,0.00044556,0.00009524,0.000
 63940,0.00001871,0.00014884,-0.00014338,-0.00073465,-0.00097344,0.0000
 7776,0.00050474,-0.00044365,-0.00163832,0.00010010,0.00030085,0.000458
 11,-0.00065151,-0.00053798,-0.00002342,0.00004509,0.00009970,-0.001514
 22,0.02350611,0.00835832,0.00011136,0.00047552,0.00010823,0.00117636,0
 .00044204,0.00030548,-0.00019214,0.00024428,0.00004553,-0.00002379,-0.
 00002208,0.00000781,0.00000750,0.00000343,0.00000419,0.00000284,0.0000
 0174,-0.00000201,-0.00000129,-0.00000167,-0.00000229,-0.00000568,-0.00
 000141,-0.00000857,-0.00000173,0.00000058,-0.00000245,0.00000109,-0.00
 000403,0.00000488,0.00000355,0.00000145,0.00000018,-0.00001504,0.00000
 458,-0.00002230,0.00000189,0.00000071,0.00000167,0.00000465,-0.0000013
 3,0.00000783,-0.00000018,0.00000092,0.00000060,0.00007847,-0.00000048,
 -0.00003605,-0.00000879,-0.00000414,0.00000249,-0.00002787,0.00000165,
 0.00001760,-0.00001128,0.00000661,0.00000469,0.00000139,0.00001680,-0.
 00000438,-0.00000085,0.00000104,0.00000002,-0.00000023,-0.00000004,-0.
 00000124,0.00000103,-0.00000426,0.00000505,-0.00003588,-0.00006260,-0.
 00006122,0.00001201,0.00001035,0.00001631,-0.00000336,-0.00000299,-0.0
 0000437,-0.00000014,-0.00000077,-0.00000006,0.00000291,-0.00000175,0.0
 0000198,0.00000013,0.00000225,0.00000210,-0.00001168,-0.00000131,-0.00
 001413,0.00000124,0.00000429,0.00000163,-0.00000003,-0.00000252,-0.000
 00114,0.00000147,0.00000009,0.00000129,0.00103308,-0.00028744,0.000278
 01,-0.00029648,0.00022586,0.00000715,-0.00031595,-0.00004810,-0.000050
 20,-0.00025060,0.00009968,-0.00023094,0.00183926,-0.03170793,-0.080890
 30,-0.02029282,-0.04310773,-0.01156642,-0.00655891,0.09519685,0.100756
 43,-0.00023100,-0.00029293,0.00000522,-0.00002114,0.00007522,0.0000838
 3,-0.00013389,0.00005626,-0.00000250,0.00005996,0.00001025,-0.00002506
 ,-0.00012418,0.00023805,-0.00005722,0.00001623,0.00001613,-0.00000238,
 -0.00000521,0.00001120,-0.00001837,0.00001972,-0.00000603,-0.00001150,
 -0.00000129,-0.00002437,-0.00000791,0.00004249,0.00001333,-0.00002458,
 0.00008116,-0.00007701,0.00001718,0.00004299,-0.00003195,-0.00003985,0
 .00011190,-0.00000245,-0.00007366,0.00068038,0.00041873,-0.00038842,0.
 00017124,-0.00053082,-0.00002316,-0.00007286,0.00006195,0.00012366,0.0
 0001656,0.00000662,-0.00002043,0.00001082,-0.00005201,-0.00003170,0.00
 001406,-0.00017592,-0.00014637,-0.00003420,-0.00009188,0.00009067,0.00
 002339,0.00006842,-0.00007474,-0.00003515,0.00000130,0.00008901,0.0000
 1797,-0.00002079,-0.00000225,-0.00071073,-0.00106437,0.00068329,0.0001
 2471,0.00030560,0.00008696,0.00007832,0.00021873,-0.00000177,0.0001651
 3,-0.00059979,-0.00109060,0.00024774,0.00066262,0.00017245,-0.00009807
 ,0.00013257,0.00024128,-0.00001697,-0.00002993,-0.00003337,-0.00008126
 ,-0.00007933,-0.00008880,0.00007154,0.00001996,-0.00005040,-0.00002897
 ,0.00004781,-0.00003766,0.00028466,0.00051646,0.00000401,0.00007741,0.
 00000104,-0.00006128,0.00012079,-0.00006792,-0.00000523,-0.00001167,0.
 00002416,-0.00000366,-0.00000440,0.00000929,0.00002892,0.00000255,-0.0
 0000515,-0.00000935,0.00005268,-0.00000864,-0.00004592,-0.00001511,0.0
 0000280,0.00000047,-0.00024465,-0.00030954,0.00015277,-0.00025494,-0.0
 0021702,0.00055115,-0.00009191,-0.00010550,0.00005687,-0.00012939,-0.0
 0001507,0.00007835,-0.00013813,0.00005592,-0.00000074,0.00058106,0.000
 19487,0.00003622,-0.00009776,-0.00000031,0.00001668,0.00016462,-0.0002
 1481,0.00018536,-0.00028528,-0.00006904,-0.00026755,0.00111319,0.00076
 509,-0.00052429,-0.00026675,-0.00056001,-0.00008333,-0.00046110,-0.000
 13865,0.00008540,-0.00035439,-0.00053802,-0.00028026,0.00038171,0.0000
 6813,0.00017677,0.00152495,-0.00077845,0.00215162,0.00093920,-0.001004
 11,0.00059652,0.00013546,0.00012064,0.00001985,-0.00866402,0.00057882,
 0.01544689,0.00053280,0.00064959,-0.00035779,-0.00295717,-0.00034248,-
 0.00279267,0.00195133,0.00083303,0.00082937,0.00007753,0.00006198,-0.0
 0002198,-0.00001313,-0.00000262,-0.00000517,-0.00001399,-0.00000169,0.
 00000447,-0.00000237,-0.00000870,0.00000742,0.00002884,-0.00002885,-0.
 00005476,0.00000492,0.00000472,0.00000280,0.00000205,0.00000629,0.0000
 0734,-0.00001334,-0.00000032,0.00000722,0.00009628,-0.00002423,0.00004
 616,-0.00001820,-0.00000820,-0.00000284,0.00000649,-0.00000115,-0.0000
 0490,-0.00000708,0.00000893,-0.00000203,0.00006688,-0.00009335,0.00015
 210,-0.00002348,-0.00000666,-0.00002466,-0.00000833,0.00002132,0.00001
 371,-0.00000799,0.00003093,-0.00000727,-0.00000699,0.00000701,0.000000
 24,0.00000113,-0.00000474,-0.00000318,0.00000373,0.00000160,0.00000244
 ,-0.00000148,0.00000036,0.00000039,0.00002269,0.00013048,0.00001219,-0
 .00000646,-0.00003485,0.00000228,-0.00000071,0.00002055,-0.00001254,-0
 .00000125,-0.00000120,0.00000248,-0.00000116,0.00000201,0.00000077,-0.
 00000070,-0.00000688,-0.00000193,0.00000675,0.00000884,0.00000524,0.00
 000013,-0.00000796,-0.00000033,0.00000828,0.00000841,0.00000085,-0.000
 00095,-0.00000128,0.00000112,-0.00113862,-0.00003307,0.00009272,0.0003
 5677,-0.00020922,-0.00006992,0.00036854,0.00016019,-0.00005521,0.00025
 087,-0.00005322,0.00013503,-0.18620593,0.00029530,0.10618737,-0.082262
 27,-0.00664321,0.01233172,-0.01291597,0.03055843,0.02652573,0.28706138
 ,0.00024299,0.00039308,-0.00000448,-0.00008506,0.00001264,-0.00000222,
 0.00007441,0.00012486,0.00005818,-0.00002447,0.00007792,0.00000035,0.0
 0005894,-0.00004918,0.00007922,-0.00001186,-0.00003146,0.00000319,0.00
 001475,0.00001999,0.00000071,-0.00003055,-0.00003445,-0.00000197,-0.00
 000045,-0.00001426,-0.00000713,0.00001253,0.00001469,0.00000087,-0.000
 04775,-0.00005492,-0.00001831,-0.00002200,-0.00013422,-0.00003484,-0.0
 0000370,-0.00012182,-0.00002387,-0.00011947,-0.00022815,-0.00008073,-0
 .00014041,0.00006067,-0.00006054,0.00002968,-0.00002574,0.00002901,0.0
 0000172,0.00000660,-0.00001380,-0.00002296,-0.00002540,-0.00000569,-0.
 00006433,-0.00003257,-0.00003184,0.00000310,0.00012553,0.00001234,0.00
 000053,0.00002209,-0.00001400,-0.00001768,-0.00004041,0.00002219,0.000
 02543,-0.00003279,-0.00000236,0.00102567,0.00091181,-0.00053206,-0.000
 15319,-0.00036383,-0.00011097,-0.00018799,-0.00050363,-0.00011799,-0.0
 0096330,-0.00266979,-0.00074218,0.00007724,-0.00006753,0.00003961,0.00
 002178,-0.00002252,0.00000167,-0.00001683,-0.00000090,-0.00000147,-0.0
 0001343,0.00000081,-0.00002757,0.00004284,-0.00002277,-0.00000689,-0.0
 0000190,-0.00000249,-0.00002180,0.00019793,0.00005022,0.00024254,0.000
 08649,-0.00016090,0.00001772,0.00002190,-0.00001328,0.00000299,0.00001
 244,-0.00000104,-0.00000820,-0.00000812,-0.00000105,0.00001349,0.00000
 442,-0.00000644,-0.00000621,-0.00000399,-0.00000599,0.00000971,0.00000
 040,0.00000143,0.00000124,-0.00013024,0.00012247,-0.00009503,-0.000318
 09,-0.00012872,0.00049243,-0.00006543,-0.00001655,0.00001229,-0.000044
 49,0.00002020,0.00001768,-0.00003822,0.00005127,-0.00000379,-0.0000024
 8,-0.00001727,-0.00000778,-0.00002129,0.00001127,-0.00000620,0.0000324
 7,-0.00003732,0.00001394,0.00001049,0.00005280,-0.00002463,0.00156398,
 0.00034505,-0.00055240,-0.00043876,-0.00045264,-0.00003326,-0.00063351
 ,0.00007624,-0.00005432,0.00003210,-0.00151456,0.00033784,-0.00057653,
 -0.00032207,0.00042423,0.00170545,0.00041559,0.00177758,-0.00011344,-0
 .00006034,-0.00033133,-0.00000335,0.00005367,0.00001280,-0.01587119,0.
 00721637,0.01759890,-0.00000792,0.00047892,0.00004638,-0.00023839,-0.0
 0045352,0.00079962,-0.00008092,-0.00028144,0.00056703,0.00003842,0.000
 02757,-0.00001752,-0.00000712,-0.00000340,-0.00000163,-0.00000847,-0.0
 0000137,0.00000520,0.00000075,-0.00000170,0.00000177,0.00001094,-0.000
 01706,-0.00001965,-0.00000129,0.00000506,0.00000164,-0.00000017,0.0000
 0098,0.00000112,-0.00000334,0.00000091,0.00000294,0.00001663,-0.000008
 30,0.00001589,-0.00000087,0.00000147,-0.00000268,-0.00000196,-0.000002
 56,-0.00000469,-0.00000651,0.00000371,0.00000090,-0.00000841,-0.000022
 44,0.00003152,0.00000567,0.00000317,-0.00000130,0.00000675,-0.00000881
 ,-0.00000341,-0.00000780,0.00000832,-0.00000144,0.00002405,0.00006905,
 -0.00000269,0.00000058,-0.00001123,-0.00000561,-0.00000993,-0.00000654
 ,0.00000154,-0.00000341,-0.00000956,0.00000720,0.00007082,0.00007431,-
 0.00000545,-0.00001887,-0.00001981,0.00000263,0.00000454,0.00001180,-0
 .00000975,-0.00000392,-0.00000074,0.00000246,-0.00000041,0.00000073,-0
 .00000201,0.00000026,-0.00000267,-0.00000068,0.00001357,0.00000343,0.0
 0000734,-0.00000044,-0.00000300,-0.00000073,0.00000711,0.00000291,-0.0
 0000102,-0.00000414,-0.00000184,0.00000277,-0.00098373,0.00008667,-0.0
 0045958,0.00028306,-0.00014706,0.00004210,0.00032641,0.00010604,0.0000
 8046,0.00020726,-0.00005163,0.00027435,0.00138722,-0.07456940,0.002351
 01,-0.00752337,0.01140794,0.00230757,0.04430035,-0.02333271,-0.0442623
 0,-0.02288625,0.08369352,0.00034895,0.00058537,0.00001385,-0.00012232,
 -0.00006961,-0.00024022,0.00009810,-0.00004570,0.00000687,-0.00008190,
 0.00009683,-0.00005651,0.00007846,-0.00012565,-0.00014994,-0.00001852,
 -0.00004777,0.00001453,0.00000983,-0.00002797,0.00002199,-0.00003308,-
 0.00001167,0.00002053,-0.00000737,0.00001334,0.00001752,-0.00002700,0.
 00000625,0.00000912,-0.00002934,0.00001057,0.00009304,-0.00002290,0.00
 001135,0.00006538,0.00009450,0.00010921,0.00025805,-0.00060800,-0.0007
 1933,0.00062886,-0.00016872,-0.00000293,0.00014894,0.00012843,-0.00007
 288,-0.00019906,0.00000064,-0.00000496,0.00004917,-0.00003392,0.000046
 46,0.00005123,-0.00004786,0.00018841,0.00027673,-0.00005350,-0.0000871
 7,-0.00022099,-0.00002606,-0.00009766,0.00012349,0.00001156,-0.0000013
 6,-0.00014691,-0.00001515,0.00003544,0.00001949,0.00174668,0.00153314,
 -0.00090206,-0.00019363,-0.00037002,-0.00004467,-0.00023695,-0.0006489
 0,-0.00006130,-0.00121322,-0.00108564,0.00030185,0.00005101,-0.0000434
 6,0.00000088,0.00005322,-0.00004808,-0.00008181,-0.00005703,-0.0000311
 7,-0.00000534,0.00002695,0.00001914,0.00002761,-0.00010351,0.00000654,
 0.00001151,0.00002420,-0.00001021,0.00003344,-0.00050787,-0.00041186,-
 0.00057857,-0.00016299,0.00013413,-0.00007451,-0.00007050,0.00003254,0
 .00000363,0.00000614,-0.00002330,-0.00001749,0.00002139,-0.00000828,-0
 .00003763,-0.00001001,0.00001468,0.00002463,-0.00003238,0.00001128,0.0
 0002681,0.00002039,0.00000103,-0.00000138,0.00029388,0.00001658,0.0001
 6345,0.00074500,0.00044334,-0.00116275,0.00013888,0.00008475,-0.000014
 61,0.00011770,-0.00000366,-0.00003220,0.00011879,-0.00007028,0.0000287
 8,-0.00009057,-0.00004665,-0.00012376,0.00001705,0.00000363,0.00001374
 ,0.00000964,0.00002470,-0.00001242,0.00005843,0.00001380,0.00021200,-0
 .00329652,-0.00132326,0.00090812,0.00083821,0.00123896,0.00026115,0.00
 140332,0.00002624,0.00014877,0.00171615,0.00194742,-0.00043764,0.00022
 804,0.00040047,-0.00063389,-0.00443369,0.00185993,-0.00587846,0.000162
 34,0.00047680,-0.00005561,-0.00004564,-0.00007147,-0.00001747,0.038699
 99,0.00377897,-0.02598434,-0.00011167,-0.00049667,0.00000842,0.0017314
 2,0.00020518,0.00001648,-0.00000265,0.00003875,-0.00156937,-0.00009004
 ,-0.00007517,0.00003136,0.00002010,0.00000724,0.00000833,0.00001605,0.
 00000393,-0.00000731,-0.00000052,0.00000415,-0.00000794,-0.00002776,0.
 00002365,0.00003338,-0.00000359,-0.00000470,-0.00000475,-0.00000007,-0
 .00000783,-0.00000011,0.00001287,0.00000095,-0.00000558,-0.00007662,0.
 00002089,-0.00005534,0.00001267,0.00000515,0.00000400,0.00000209,-0.00
 000026,0.00001234,0.00000652,-0.00000578,0.00000208,0.00004455,0.00005
 481,-0.00012666,0.00000452,-0.00000022,0.00001618,-0.00002414,-0.00000
 914,0.00001012,-0.00000700,-0.00001177,0.00000955,0.00000452,0.0000114
 6,-0.00000489,-0.00000222,0.00000494,0.00000217,-0.00000185,-0.0000011
 0,-0.00000334,0.00000213,-0.00000527,0.00000568,-0.00008084,-0.0001853
 2,-0.00009499,0.00002347,0.00004050,0.00001729,-0.00000465,-0.00001991
 ,0.00000582,0.00000172,0.00000022,-0.00000219,0.00000428,-0.00000363,0
 .00000245,0.00000079,0.00000787,0.00000372,-0.00002216,-0.00000775,-0.
 00002223,0.00000172,0.00001103,0.00000229,-0.00000684,-0.00000933,-0.0
 0000193,0.00000348,0.00000131,0.00000025,0.00222644,-0.00046443,0.0006
 4714,-0.00070721,0.00050469,0.00002761,-0.00071872,-0.00015619,-0.0001
 0943,-0.00047823,0.00016812,-0.00053114,0.09808839,0.00437684,-0.17463
 801,-0.00317486,0.00092541,0.02225520,0.02841732,-0.03262490,-0.015964
 15,-0.16060109,0.02001187,0.20321388\\0.00000020,0.,0.00000065,0.00000
 016,-0.00000018,0.00000155,0.00000056,0.00000051,0.00000178,0.00000011
 ,-0.00000108,0.00000114,-0.00000011,-0.00000159,0.00000035,0.00000032,
 0.00000043,0.00000203,0.00000027,0.00000014,0.00000059,0.00000026,-0.0
 0000127,0.00000097,0.00000038,-0.00000153,0.00000131,0.00000061,0.0000
 0009,0.00000048,0.00000042,-0.00000070,0.00000195,0.00000041,-0.000001
 18,0.00000225,0.00000052,0.00000011,0.00000145,0.00000018,-0.00000089,
 -0.00000017,0.00000030,-0.00000153,0.00000006,-0.00000040,-0.00000190,
 0.00000106,0.00000043,-0.00000165,0.00000108,0.00000064,-0.00000070,0.
 00000202,0.00000032,0.00000056,0.00000082,0.00000023,0.00000044,0.0000
 0030,-0.00000023,0.00000083,0.00000051,-0.00000003,0.00000051,0.000000
 50,0.00000002,0.00000076,0.00000105,-0.00000045,-0.00000102,0.00000011
 ,-0.00000002,-0.00000190,-0.00000024,0.00000005,-0.00000132,0.00000018
 ,-0.00000010,-0.00000129,-0.00000073,0.00000008,-0.00000183,-0.0000000
 8,-0.00000037,-0.00000164,-0.00000094,-0.00000032,-0.00000219,-0.00000
 019,-0.00000007,-0.00000245,-0.00000087,-0.00000047,0.00000069,-0.0000
 0151,-0.00000014,0.00000035,0.00000141,-0.00000053,-0.00000054,-0.0000
 0104,-0.00000003,-0.00000034,-0.00000134,-0.00000011,0.00000043,-0.000
 00077,0.00000046,-0.00000062,0.00000006,-0.00000077,-0.00000072,-0.000
 00016,-0.00000025,0.00000076,-0.00000110,-0.00000035,0.00000018,-0.000
 00205,-0.00000065,-0.00000065,-0.00000140,0.00000036,0.00000096,-0.000
 00092,-0.00000003,0.00000219,0.00000041,0.,0.00000093,-0.00000048,-0.0
 0000055,0.00000050,-0.00000047,-0.00000056,-0.00000038,-0.00000218,-0.
 00000051,-0.00000043,-0.00000141,-0.00000034,-0.00000127,-0.00000276,-
 0.00000025,-0.00000100,-0.00000231,-0.00000050,-0.00000137,-0.00000217
 ,-0.00000035,0.00000218,-0.00000029,0.00000070,0.00000195,0.00000077,0
 .00000070,0.00000086,-0.00000047,-0.00000052,0.00000130,-0.00000042,0.
 00000073,0.00000157,-0.00000023,0.00000015,0.00000124,-0.00000165,-0.0
 0000055,0.00000250,-0.00000194,-0.00000011,0.00000235,-0.00000026,-0.0
 0000007,0.00000022,-0.00000107,-0.00000097,0.00000024,-0.00000135,-0.0
 0000075,0.00000044,-0.00000030,-0.00000010,0.00000098,-0.00000154,0.00
 000050,0.00000059,0.00000149,0.00000014,0.00000020,0.00000070,-0.00000
 023,0.00000144,0.00000041,0.00000004,0.00000149,0.00000058,0.00000012,
 0.00000113,-0.00000149,-0.00000036,0.00000106,-0.00000170,-0.00000016,
 0.00000149,-0.00000081,-0.00000055,0.00000080,-0.00000098,-0.00000026,
 -0.00000082,-0.00000181,-0.00000031,-0.00000031,-0.00000205,-0.0000005
 3,-0.00000108,-0.00000258,-0.00000068,-0.00000030,-0.00000277,-0.00000
 059,-0.00000262,-0.00000194,-0.00000022,-0.00000262,-0.00000163,-0.000
 00029,-0.00000208,-0.00000189,-0.00000053,-0.00000203,-0.00000224,0.00
 000071,-0.00000047,0.00000228,0.00000065,-0.00000102,0.00000340,0.0000
 0060,-0.00000091,0.00000297,0.00000077,-0.00000021,0.00000346,-0.00000
 079,-0.00000025,0.00000149,0.00000091,0.00000073,0.00000187,0.00000019
 ,0.00000122,0.00000295,0.00000096,0.00000138,0.00000255,0.00000069,0.0
 0000174,0.00000278,0.00000074,0.00000094,0.00000335,-0.00000009,0.0000
 0113,0.00000289,0.00000035,-0.00000044,0.00000260,0.00000141,-0.000001
 30,0.00000123,0.00000062,0.00000023,0.00000233,-0.00000006,0.00000173,
 0.,0.00000021,0.00000293,0.00000053,-0.00000030,0.00000204,-0.00000132
 ,-0.00000011,0.00000288,-0.00000103,0.,0.00000035,-0.00000169,-0.00000
 048,-0.00000062,-0.00000178,-0.00000067,-0.00000016,-0.00000251,-0.000
 00042,-0.00000033,-0.00000168\\\@


 LIFE CAN ONLY BE UNDERSTOOD BACKWARD, BUT MUST
 BE LIVED FORWARD. -- KIRKEGAARD
 Job cpu time:       5 days  1 hours 28 minutes 29.6 seconds.
 Elapsed time:       0 days  4 hours  5 minutes 43.4 seconds.
 File lengths (MBytes):  RWF=  10003 Int=      0 D2E=      0 Chk=     88 Scr=      1
 Normal termination of Gaussian 16 at Mon Jun 17 02:27:09 2019.
