 Entering Gaussian System, Link 0=g16
 Input=clay_new-glu_gluC6-bisCF3-sm-b3lyp-custom-pcm_thf.gjf
 Output=clay_new-glu_gluC6-bisCF3-sm-b3lyp-custom-pcm_thf.out
 Initial command:
 /home/ekwan/sw/g16/l1.exe "/scratch/users/ekwan/clay_new-glu_gluC6-bisCF3-sm-b3lyp-custom-pcm_thf/Gau-15710.inp" -scrdir="/scratch/users/ekwan/clay_new-glu_gluC6-bisCF3-sm-b3lyp-custom-pcm_thf/"
 Entering Link 1 = /home/ekwan/sw/g16/l1.exe PID=     15711.
  
 Copyright (c) 1988,1990,1992,1993,1995,1998,2003,2009,2016,
            Gaussian, Inc.  All Rights Reserved.
  
 This is part of the Gaussian(R) 16 program.  It is based on
 the Gaussian(R) 09 system (copyright 2009, Gaussian, Inc.),
 the Gaussian(R) 03 system (copyright 2003, Gaussian, Inc.),
 the Gaussian(R) 98 system (copyright 1998, Gaussian, Inc.),
 the Gaussian(R) 94 system (copyright 1995, Gaussian, Inc.),
 the Gaussian 92(TM) system (copyright 1992, Gaussian, Inc.),
 the Gaussian 90(TM) system (copyright 1990, Gaussian, Inc.),
 the Gaussian 88(TM) system (copyright 1988, Gaussian, Inc.),
 the Gaussian 86(TM) system (copyright 1986, Carnegie Mellon
 University), and the Gaussian 82(TM) system (copyright 1983,
 Carnegie Mellon University). Gaussian is a federally registered
 trademark of Gaussian, Inc.
  
 This software contains proprietary and confidential information,
 including trade secrets, belonging to Gaussian, Inc.
  
 This software is provided under written license and may be
 used, copied, transmitted, or stored only in accord with that
 written license.
  
 The following legend is applicable only to US Government
 contracts under FAR:
  
                    RESTRICTED RIGHTS LEGEND
  
 Use, reproduction and disclosure by the US Government is
 subject to restrictions as set forth in subparagraphs (a)
 and (c) of the Commercial Computer Software - Restricted
 Rights clause in FAR 52.227-19.
  
 Gaussian, Inc.
 340 Quinnipiac St., Bldg. 40, Wallingford CT 06492
  
  
 ---------------------------------------------------------------
 Warning -- This program may not be used in any manner that
 competes with the business of Gaussian, Inc. or will provide
 assistance to any competitor of Gaussian, Inc.  The licensee
 of this program is prohibited from giving any competitor of
 Gaussian, Inc. access to this program.  By using this program,
 the user acknowledges that Gaussian, Inc. is engaged in the
 business of creating and licensing software in the field of
 computational chemistry and represents and warrants to the
 licensee that it is not a competitor of Gaussian, Inc. and that
 it will not use this program in any manner prohibited above.
 ---------------------------------------------------------------
  

 Cite this work as:
 Gaussian 16, Revision A.03,
 M. J. Frisch, G. W. Trucks, H. B. Schlegel, G. E. Scuseria, 
 M. A. Robb, J. R. Cheeseman, G. Scalmani, V. Barone, 
 G. A. Petersson, H. Nakatsuji, X. Li, M. Caricato, A. V. Marenich, 
 J. Bloino, B. G. Janesko, R. Gomperts, B. Mennucci, H. P. Hratchian, 
 J. V. Ortiz, A. F. Izmaylov, J. L. Sonnenberg, D. Williams-Young, 
 F. Ding, F. Lipparini, F. Egidi, J. Goings, B. Peng, A. Petrone, 
 T. Henderson, D. Ranasinghe, V. G. Zakrzewski, J. Gao, N. Rega, 
 G. Zheng, W. Liang, M. Hada, M. Ehara, K. Toyota, R. Fukuda, 
 J. Hasegawa, M. Ishida, T. Nakajima, Y. Honda, O. Kitao, H. Nakai, 
 T. Vreven, K. Throssell, J. A. Montgomery, Jr., J. E. Peralta, 
 F. Ogliaro, M. J. Bearpark, J. J. Heyd, E. N. Brothers, K. N. Kudin, 
 V. N. Staroverov, T. A. Keith, R. Kobayashi, J. Normand, 
 K. Raghavachari, A. P. Rendell, J. C. Burant, S. S. Iyengar, 
 J. Tomasi, M. Cossi, J. M. Millam, M. Klene, C. Adamo, R. Cammi, 
 J. W. Ochterski, R. L. Martin, K. Morokuma, O. Farkas, 
 J. B. Foresman, and D. J. Fox, Gaussian, Inc., Wallingford CT, 2016.
 
 ******************************************
 Gaussian 16:  AS64L-G16RevA.03 25-Dec-2016
                15-Jun-2019 
 ******************************************
 %nprocshared=32
 Will use up to   32 processors via shared memory.
 %mem=48GB
 ----------------------------------------------------------------------
 #p opt freq=noraman pop=none 6-31g* scrf=(pcm,solvent=tetrahydrofuran)
  b3lyp extrabasis
 ----------------------------------------------------------------------
 1/18=20,19=15,26=3,38=1/1,3;
 2/9=110,12=2,17=6,18=5,40=1/2;
 3/5=1,6=6,7=1,10=1,11=2,25=1,30=1,70=2201,71=1,72=20,74=-5/1,2,3;
 4//1;
 5/5=2,38=5,53=20/2;
 7//1,2,3,16;
 1/18=20,19=15,26=3/3(2);
 2/9=110/2;
 99//99;
 2/9=110/2;
 3/5=7,6=1,7=1,11=2,25=1,30=1,70=2205,71=1,72=20,74=-5,82=7/1,2,3;
 4/5=5,16=3,69=1/1;
 5/5=2,38=5,53=20/2;
 7//1,2,3,16;
 1/18=20,19=15,26=3/3(-5);
 2/9=110/2;
 99/9=1/99;
 Leave Link    1 at Sat Jun 15 06:58:55 2019, MaxMem=  6442450944 cpu:               4.5 elap:               0.2
 (Enter /home/ekwan/sw/g16/l101.exe)
 -----
 title
 -----
 Symbolic Z-matrix:
 Charge =  0 Multiplicity = 1
 6                     3.52059  -0.24728   0.74605 
 6                     3.36655  -0.50686  -0.75875 
 6                     1.8953   -0.37617  -1.2029 
 6                     1.3737    1.10163   0.62284 
 6                     2.82407   1.06559   1.12788 
 1                     1.79289  -0.42086  -2.28677 
 1                     3.91053   0.28879  -1.29188 
 1                     3.05671  -1.06687   1.31195 
 1                     0.79342   0.34042   1.16174 
 1                     3.37112   1.90264   0.67635 
 8                     1.31265   0.81566  -0.79699 
 8                     1.18676  -1.53227  -0.63771 
 8                     3.91586  -1.76722  -1.07484 
 8                     4.89311  -0.12739   1.09155 
 8                     2.77555   1.20435   2.54146 
 6                     0.69556   2.45036   0.86107 
 1                     0.60039   2.57301   1.94388 
 1                    -0.31197   2.4325    0.42393 
 8                     1.42452   3.57246   0.39378 
 16                   -0.12317  -2.1383   -1.40458 
 8                    -0.22318  -3.51465  -0.92588 
 8                    -0.01222  -1.84416  -2.8364 
 6                    -1.49662  -1.2008   -0.73225 
 6                    -2.16754  -1.69516   0.38452 
 6                    -1.85631   0.00128  -1.33862 
 6                    -3.23229  -0.95685   0.9029 
 1                    -1.86962  -2.6348    0.83463 
 6                    -2.91503   0.72925  -0.79627 
 1                    -1.32798   0.36118  -2.21297 
 6                    -3.6057    0.25479   0.32007 
 1                    -4.42991   0.82541   0.73186 
 6                     4.34609  -1.91084  -2.42621 
 1                     3.50633  -1.89036  -3.1331 
 1                     5.06292  -1.12361  -2.69748 
 1                     4.8364   -2.88413  -2.49291 
 6                     5.48437  -1.30863   1.6247 
 1                     6.51893  -1.05337   1.86887 
 1                     4.97069  -1.62968   2.54211 
 1                     5.47183  -2.12911   0.89972 
 6                     3.71283   2.13317   3.07917 
 1                     3.55474   2.14241   4.16087 
 1                     4.74307   1.82975   2.86333 
 1                     3.54105   3.14371   2.68333 
 6                     1.19881   3.91138  -0.97079 
 1                     1.65225   4.89385  -1.12782 
 1                     0.12277   3.9743   -1.188 
 1                     1.65367   3.18837  -1.65733 
 6                    -4.01922  -1.50236   2.06946 
 9                    -3.25269  -2.27284   2.86789 
 9                    -5.0528   -2.26555   1.65111 
 9                    -4.53667  -0.51163   2.82492 
 6                    -3.26535   2.07253  -1.38539 
 9                    -2.52722   3.06118  -0.81845 
 9                    -4.55999   2.38616  -1.18666 
 9                    -3.02539   2.11432  -2.71056 
 
 ITRead=  0  0  0  0  0  0  0  0  0  0  0  0  0  0  0  0  0  0  0  0
 ITRead=  0  0  0  0  0  0  0  0  0  0  0  0  0  0  0  0  0  0  0  0
 ITRead=  0  0  0  0  0  0  0  0  0  0  0  0  0  0  0
 MicOpt= -1 -1 -1 -1 -1 -1 -1 -1 -1 -1 -1 -1 -1 -1 -1 -1 -1 -1 -1 -1
 MicOpt= -1 -1 -1 -1 -1 -1 -1 -1 -1 -1 -1 -1 -1 -1 -1 -1 -1 -1 -1 -1
 MicOpt= -1 -1 -1 -1 -1 -1 -1 -1 -1 -1 -1 -1 -1 -1 -1
 NAtoms=     55 NQM=       55 NQMF=       0 NMMI=      0 NMMIF=      0
                NMic=       0 NMicF=      0.
                    Isotopes and Nuclear Properties:
 (Nuclear quadrupole moments (NQMom) in fm**2, nuclear magnetic moments (NMagM)
  in nuclear magnetons)

  Atom         1           2           3           4           5           6           7           8           9          10
 IAtWgt=          12          12          12          12          12           1           1           1           1           1
 AtmWgt=  12.0000000  12.0000000  12.0000000  12.0000000  12.0000000   1.0078250   1.0078250   1.0078250   1.0078250   1.0078250
 NucSpn=           0           0           0           0           0           1           1           1           1           1
 AtZEff=   0.0000000   0.0000000   0.0000000   0.0000000   0.0000000   0.0000000   0.0000000   0.0000000   0.0000000   0.0000000
 NQMom=    0.0000000   0.0000000   0.0000000   0.0000000   0.0000000   0.0000000   0.0000000   0.0000000   0.0000000   0.0000000
 NMagM=    0.0000000   0.0000000   0.0000000   0.0000000   0.0000000   2.7928460   2.7928460   2.7928460   2.7928460   2.7928460
 AtZNuc=   6.0000000   6.0000000   6.0000000   6.0000000   6.0000000   1.0000000   1.0000000   1.0000000   1.0000000   1.0000000

  Atom        11          12          13          14          15          16          17          18          19          20
 IAtWgt=          16          16          16          16          16          12           1           1          16          32
 AtmWgt=  15.9949146  15.9949146  15.9949146  15.9949146  15.9949146  12.0000000   1.0078250   1.0078250  15.9949146  31.9720718
 NucSpn=           0           0           0           0           0           0           1           1           0           0
 AtZEff=   0.0000000   0.0000000   0.0000000   0.0000000   0.0000000   0.0000000   0.0000000   0.0000000   0.0000000   0.0000000
 NQMom=    0.0000000   0.0000000   0.0000000   0.0000000   0.0000000   0.0000000   0.0000000   0.0000000   0.0000000   0.0000000
 NMagM=    0.0000000   0.0000000   0.0000000   0.0000000   0.0000000   0.0000000   2.7928460   2.7928460   0.0000000   0.0000000
 AtZNuc=   8.0000000   8.0000000   8.0000000   8.0000000   8.0000000   6.0000000   1.0000000   1.0000000   8.0000000  16.0000000

  Atom        21          22          23          24          25          26          27          28          29          30
 IAtWgt=          16          16          12          12          12          12           1          12           1          12
 AtmWgt=  15.9949146  15.9949146  12.0000000  12.0000000  12.0000000  12.0000000   1.0078250  12.0000000   1.0078250  12.0000000
 NucSpn=           0           0           0           0           0           0           1           0           1           0
 AtZEff=   0.0000000   0.0000000   0.0000000   0.0000000   0.0000000   0.0000000   0.0000000   0.0000000   0.0000000   0.0000000
 NQMom=    0.0000000   0.0000000   0.0000000   0.0000000   0.0000000   0.0000000   0.0000000   0.0000000   0.0000000   0.0000000
 NMagM=    0.0000000   0.0000000   0.0000000   0.0000000   0.0000000   0.0000000   2.7928460   0.0000000   2.7928460   0.0000000
 AtZNuc=   8.0000000   8.0000000   6.0000000   6.0000000   6.0000000   6.0000000   1.0000000   6.0000000   1.0000000   6.0000000

  Atom        31          32          33          34          35          36          37          38          39          40
 IAtWgt=           1          12           1           1           1          12           1           1           1          12
 AtmWgt=   1.0078250  12.0000000   1.0078250   1.0078250   1.0078250  12.0000000   1.0078250   1.0078250   1.0078250  12.0000000
 NucSpn=           1           0           1           1           1           0           1           1           1           0
 AtZEff=   0.0000000   0.0000000   0.0000000   0.0000000   0.0000000   0.0000000   0.0000000   0.0000000   0.0000000   0.0000000
 NQMom=    0.0000000   0.0000000   0.0000000   0.0000000   0.0000000   0.0000000   0.0000000   0.0000000   0.0000000   0.0000000
 NMagM=    2.7928460   0.0000000   2.7928460   2.7928460   2.7928460   0.0000000   2.7928460   2.7928460   2.7928460   0.0000000
 AtZNuc=   1.0000000   6.0000000   1.0000000   1.0000000   1.0000000   6.0000000   1.0000000   1.0000000   1.0000000   6.0000000

  Atom        41          42          43          44          45          46          47          48          49          50
 IAtWgt=           1           1           1          12           1           1           1          12          19          19
 AtmWgt=   1.0078250   1.0078250   1.0078250  12.0000000   1.0078250   1.0078250   1.0078250  12.0000000  18.9984033  18.9984033
 NucSpn=           1           1           1           0           1           1           1           0           1           1
 AtZEff=   0.0000000   0.0000000   0.0000000   0.0000000   0.0000000   0.0000000   0.0000000   0.0000000   0.0000000   0.0000000
 NQMom=    0.0000000   0.0000000   0.0000000   0.0000000   0.0000000   0.0000000   0.0000000   0.0000000   0.0000000   0.0000000
 NMagM=    2.7928460   2.7928460   2.7928460   0.0000000   2.7928460   2.7928460   2.7928460   0.0000000   2.6288670   2.6288670
 AtZNuc=   1.0000000   1.0000000   1.0000000   6.0000000   1.0000000   1.0000000   1.0000000   6.0000000   9.0000000   9.0000000

  Atom        51          52          53          54          55
 IAtWgt=          19          12          19          19          19
 AtmWgt=  18.9984033  12.0000000  18.9984033  18.9984033  18.9984033
 NucSpn=           1           0           1           1           1
 AtZEff=   0.0000000   0.0000000   0.0000000   0.0000000   0.0000000
 NQMom=    0.0000000   0.0000000   0.0000000   0.0000000   0.0000000
 NMagM=    2.6288670   0.0000000   2.6288670   2.6288670   2.6288670
 AtZNuc=   9.0000000   6.0000000   9.0000000   9.0000000   9.0000000
 Leave Link  101 at Sat Jun 15 06:58:55 2019, MaxMem=  6442450944 cpu:              17.7 elap:               0.7
 (Enter /home/ekwan/sw/g16/l103.exe)

 GradGradGradGradGradGradGradGradGradGradGradGradGradGradGradGradGradGrad
 Berny optimization.
 Initialization pass.
                           ----------------------------
                           !    Initial Parameters    !
                           ! (Angstroms and Degrees)  !
 --------------------------                            --------------------------
 ! Name  Definition              Value          Derivative Info.                !
 --------------------------------------------------------------------------------
 ! R1    R(1,2)                  1.5348         estimate D2E/DX2                !
 ! R2    R(1,5)                  1.5345         estimate D2E/DX2                !
 ! R3    R(1,8)                  1.0987         estimate D2E/DX2                !
 ! R4    R(1,14)                 1.4204         estimate D2E/DX2                !
 ! R5    R(2,3)                  1.5424         estimate D2E/DX2                !
 ! R6    R(2,7)                  1.1014         estimate D2E/DX2                !
 ! R7    R(2,13)                 1.4107         estimate D2E/DX2                !
 ! R8    R(3,6)                  1.0896         estimate D2E/DX2                !
 ! R9    R(3,11)                 1.3873         estimate D2E/DX2                !
 ! R10   R(3,12)                 1.469          estimate D2E/DX2                !
 ! R11   R(4,5)                  1.5362         estimate D2E/DX2                !
 ! R12   R(4,9)                  1.0985         estimate D2E/DX2                !
 ! R13   R(4,11)                 1.4496         estimate D2E/DX2                !
 ! R14   R(4,16)                 1.5283         estimate D2E/DX2                !
 ! R15   R(5,10)                 1.0972         estimate D2E/DX2                !
 ! R16   R(5,15)                 1.4212         estimate D2E/DX2                !
 ! R17   R(12,20)                1.6344         estimate D2E/DX2                !
 ! R18   R(13,32)                1.4255         estimate D2E/DX2                !
 ! R19   R(14,36)                1.4245         estimate D2E/DX2                !
 ! R20   R(15,40)                1.4249         estimate D2E/DX2                !
 ! R21   R(16,17)                1.0939         estimate D2E/DX2                !
 ! R22   R(16,18)                1.0984         estimate D2E/DX2                !
 ! R23   R(16,19)                1.4173         estimate D2E/DX2                !
 ! R24   R(19,44)                1.424          estimate D2E/DX2                !
 ! R25   R(20,21)                1.4607         estimate D2E/DX2                !
 ! R26   R(20,22)                1.4659         estimate D2E/DX2                !
 ! R27   R(20,23)                1.7937         estimate D2E/DX2                !
 ! R28   R(23,24)                1.3934         estimate D2E/DX2                !
 ! R29   R(23,25)                1.3936         estimate D2E/DX2                !
 ! R30   R(24,26)                1.3955         estimate D2E/DX2                !
 ! R31   R(24,27)                1.0836         estimate D2E/DX2                !
 ! R32   R(25,28)                1.3946         estimate D2E/DX2                !
 ! R33   R(25,29)                1.0831         estimate D2E/DX2                !
 ! R34   R(26,30)                1.3954         estimate D2E/DX2                !
 ! R35   R(26,48)                1.5092         estimate D2E/DX2                !
 ! R36   R(28,30)                1.3958         estimate D2E/DX2                !
 ! R37   R(28,52)                1.508          estimate D2E/DX2                !
 ! R38   R(30,31)                1.0837         estimate D2E/DX2                !
 ! R39   R(32,33)                1.0979         estimate D2E/DX2                !
 ! R40   R(32,34)                1.0987         estimate D2E/DX2                !
 ! R41   R(32,35)                1.0919         estimate D2E/DX2                !
 ! R42   R(36,37)                1.0932         estimate D2E/DX2                !
 ! R43   R(36,38)                1.0994         estimate D2E/DX2                !
 ! R44   R(36,39)                1.095          estimate D2E/DX2                !
 ! R45   R(40,41)                1.0932         estimate D2E/DX2                !
 ! R46   R(40,42)                1.0955         estimate D2E/DX2                !
 ! R47   R(40,43)                1.0988         estimate D2E/DX2                !
 ! R48   R(44,45)                1.0934         estimate D2E/DX2                !
 ! R49   R(44,46)                1.0995         estimate D2E/DX2                !
 ! R50   R(44,47)                1.0959         estimate D2E/DX2                !
 ! R51   R(48,49)                1.3486         estimate D2E/DX2                !
 ! R52   R(48,50)                1.3512         estimate D2E/DX2                !
 ! R53   R(48,51)                1.3491         estimate D2E/DX2                !
 ! R54   R(52,53)                1.3578         estimate D2E/DX2                !
 ! R55   R(52,54)                1.3468         estimate D2E/DX2                !
 ! R56   R(52,55)                1.3474         estimate D2E/DX2                !
 ! A1    A(2,1,5)              110.0672         estimate D2E/DX2                !
 ! A2    A(2,1,8)              109.6613         estimate D2E/DX2                !
 ! A3    A(2,1,14)             110.4719         estimate D2E/DX2                !
 ! A4    A(5,1,8)              108.5679         estimate D2E/DX2                !
 ! A5    A(5,1,14)             107.8106         estimate D2E/DX2                !
 ! A6    A(8,1,14)             110.2216         estimate D2E/DX2                !
 ! A7    A(1,2,3)              111.3306         estimate D2E/DX2                !
 ! A8    A(1,2,7)              107.628          estimate D2E/DX2                !
 ! A9    A(1,2,13)             109.3724         estimate D2E/DX2                !
 ! A10   A(3,2,7)              105.6945         estimate D2E/DX2                !
 ! A11   A(3,2,13)             112.4947         estimate D2E/DX2                !
 ! A12   A(7,2,13)             110.1581         estimate D2E/DX2                !
 ! A13   A(2,3,6)              111.8779         estimate D2E/DX2                !
 ! A14   A(2,3,11)             112.9015         estimate D2E/DX2                !
 ! A15   A(2,3,12)             106.4159         estimate D2E/DX2                !
 ! A16   A(6,3,11)             106.6663         estimate D2E/DX2                !
 ! A17   A(6,3,12)             107.764          estimate D2E/DX2                !
 ! A18   A(11,3,12)            111.1585         estimate D2E/DX2                !
 ! A19   A(5,4,9)              108.7361         estimate D2E/DX2                !
 ! A20   A(5,4,11)             110.9246         estimate D2E/DX2                !
 ! A21   A(5,4,16)             112.8539         estimate D2E/DX2                !
 ! A22   A(9,4,11)             108.7573         estimate D2E/DX2                !
 ! A23   A(9,4,16)             107.4986         estimate D2E/DX2                !
 ! A24   A(11,4,16)            107.9436         estimate D2E/DX2                !
 ! A25   A(1,5,4)              111.5195         estimate D2E/DX2                !
 ! A26   A(1,5,10)             108.906          estimate D2E/DX2                !
 ! A27   A(1,5,15)             110.2752         estimate D2E/DX2                !
 ! A28   A(4,5,10)             108.5145         estimate D2E/DX2                !
 ! A29   A(4,5,15)             107.0061         estimate D2E/DX2                !
 ! A30   A(10,5,15)            110.6017         estimate D2E/DX2                !
 ! A31   A(3,11,4)             115.9987         estimate D2E/DX2                !
 ! A32   A(3,12,20)            119.8584         estimate D2E/DX2                !
 ! A33   A(2,13,32)            114.8317         estimate D2E/DX2                !
 ! A34   A(1,14,36)            114.9686         estimate D2E/DX2                !
 ! A35   A(5,15,40)            114.6152         estimate D2E/DX2                !
 ! A36   A(4,16,17)            106.9693         estimate D2E/DX2                !
 ! A37   A(4,16,18)            109.3065         estimate D2E/DX2                !
 ! A38   A(4,16,19)            114.7757         estimate D2E/DX2                !
 ! A39   A(17,16,18)           108.4183         estimate D2E/DX2                !
 ! A40   A(17,16,19)           106.4            estimate D2E/DX2                !
 ! A41   A(18,16,19)           110.6969         estimate D2E/DX2                !
 ! A42   A(16,19,44)           115.0134         estimate D2E/DX2                !
 ! A43   A(12,20,21)           104.507          estimate D2E/DX2                !
 ! A44   A(12,20,22)           108.8583         estimate D2E/DX2                !
 ! A45   A(12,20,23)           104.1243         estimate D2E/DX2                !
 ! A46   A(21,20,22)           120.9544         estimate D2E/DX2                !
 ! A47   A(21,20,23)           108.4954         estimate D2E/DX2                !
 ! A48   A(22,20,23)           108.6142         estimate D2E/DX2                !
 ! A49   A(20,23,24)           118.9248         estimate D2E/DX2                !
 ! A50   A(20,23,25)           119.0374         estimate D2E/DX2                !
 ! A51   A(24,23,25)           122.0372         estimate D2E/DX2                !
 ! A52   A(23,24,26)           118.5134         estimate D2E/DX2                !
 ! A53   A(23,24,27)           120.5405         estimate D2E/DX2                !
 ! A54   A(26,24,27)           120.9454         estimate D2E/DX2                !
 ! A55   A(23,25,28)           118.4889         estimate D2E/DX2                !
 ! A56   A(23,25,29)           120.7952         estimate D2E/DX2                !
 ! A57   A(28,25,29)           120.7157         estimate D2E/DX2                !
 ! A58   A(24,26,30)           120.5569         estimate D2E/DX2                !
 ! A59   A(24,26,48)           119.5852         estimate D2E/DX2                !
 ! A60   A(30,26,48)           119.8131         estimate D2E/DX2                !
 ! A61   A(25,28,30)           120.6113         estimate D2E/DX2                !
 ! A62   A(25,28,52)           119.3003         estimate D2E/DX2                !
 ! A63   A(30,28,52)           120.0177         estimate D2E/DX2                !
 ! A64   A(26,30,28)           119.7875         estimate D2E/DX2                !
 ! A65   A(26,30,31)           120.1315         estimate D2E/DX2                !
 ! A66   A(28,30,31)           120.081          estimate D2E/DX2                !
 ! A67   A(13,32,33)           112.1894         estimate D2E/DX2                !
 ! A68   A(13,32,34)           111.0259         estimate D2E/DX2                !
 ! A69   A(13,32,35)           106.4551         estimate D2E/DX2                !
 ! A70   A(33,32,34)           109.0688         estimate D2E/DX2                !
 ! A71   A(33,32,35)           108.7107         estimate D2E/DX2                !
 ! A72   A(34,32,35)           109.3071         estimate D2E/DX2                !
 ! A73   A(14,36,37)           106.426          estimate D2E/DX2                !
 ! A74   A(14,36,38)           111.1341         estimate D2E/DX2                !
 ! A75   A(14,36,39)           111.6424         estimate D2E/DX2                !
 ! A76   A(37,36,38)           108.9045         estimate D2E/DX2                !
 ! A77   A(37,36,39)           109.4922         estimate D2E/DX2                !
 ! A78   A(38,36,39)           109.1685         estimate D2E/DX2                !
 ! A79   A(15,40,41)           106.4856         estimate D2E/DX2                !
 ! A80   A(15,40,42)           111.3289         estimate D2E/DX2                !
 ! A81   A(15,40,43)           111.1442         estimate D2E/DX2                !
 ! A82   A(41,40,42)           109.4683         estimate D2E/DX2                !
 ! A83   A(41,40,43)           109.03           estimate D2E/DX2                !
 ! A84   A(42,40,43)           109.3155         estimate D2E/DX2                !
 ! A85   A(19,44,45)           106.6031         estimate D2E/DX2                !
 ! A86   A(19,44,46)           110.9796         estimate D2E/DX2                !
 ! A87   A(19,44,47)           112.1793         estimate D2E/DX2                !
 ! A88   A(45,44,46)           109.0292         estimate D2E/DX2                !
 ! A89   A(45,44,47)           109.312          estimate D2E/DX2                !
 ! A90   A(46,44,47)           108.6738         estimate D2E/DX2                !
 ! A91   A(26,48,49)           111.5778         estimate D2E/DX2                !
 ! A92   A(26,48,50)           111.327          estimate D2E/DX2                !
 ! A93   A(26,48,51)           111.5547         estimate D2E/DX2                !
 ! A94   A(49,48,50)           107.1811         estimate D2E/DX2                !
 ! A95   A(49,48,51)           107.8208         estimate D2E/DX2                !
 ! A96   A(50,48,51)           107.1442         estimate D2E/DX2                !
 ! A97   A(28,52,53)           111.0492         estimate D2E/DX2                !
 ! A98   A(28,52,54)           111.9053         estimate D2E/DX2                !
 ! A99   A(28,52,55)           111.7447         estimate D2E/DX2                !
 ! A100  A(53,52,54)           106.9409         estimate D2E/DX2                !
 ! A101  A(53,52,55)           106.9336         estimate D2E/DX2                !
 ! A102  A(54,52,55)           108.005          estimate D2E/DX2                !
 ! D1    D(5,1,2,3)            -50.3216         estimate D2E/DX2                !
 ! D2    D(5,1,2,7)             65.0693         estimate D2E/DX2                !
 ! D3    D(5,1,2,13)          -175.2596         estimate D2E/DX2                !
 ! D4    D(8,1,2,3)             69.0529         estimate D2E/DX2                !
 ! D5    D(8,1,2,7)           -175.5561         estimate D2E/DX2                !
 ! D6    D(8,1,2,13)           -55.885          estimate D2E/DX2                !
 ! D7    D(14,1,2,3)          -169.2666         estimate D2E/DX2                !
 ! D8    D(14,1,2,7)           -53.8756         estimate D2E/DX2                !
 ! D9    D(14,1,2,13)           65.7955         estimate D2E/DX2                !
 ! D10   D(2,1,5,4)             51.9152         estimate D2E/DX2                !
 ! D11   D(2,1,5,10)           -67.8105         estimate D2E/DX2                !
 ! D12   D(2,1,5,15)           170.6541         estimate D2E/DX2                !
 ! D13   D(8,1,5,4)            -68.1235         estimate D2E/DX2                !
 ! D14   D(8,1,5,10)           172.1508         estimate D2E/DX2                !
 ! D15   D(8,1,5,15)            50.6154         estimate D2E/DX2                !
 ! D16   D(14,1,5,4)           172.4763         estimate D2E/DX2                !
 ! D17   D(14,1,5,10)           52.7506         estimate D2E/DX2                !
 ! D18   D(14,1,5,15)          -68.7848         estimate D2E/DX2                !
 ! D19   D(2,1,14,36)          -98.1731         estimate D2E/DX2                !
 ! D20   D(5,1,14,36)          141.5202         estimate D2E/DX2                !
 ! D21   D(8,1,14,36)           23.1759         estimate D2E/DX2                !
 ! D22   D(1,2,3,6)            172.0617         estimate D2E/DX2                !
 ! D23   D(1,2,3,11)            51.7215         estimate D2E/DX2                !
 ! D24   D(1,2,3,12)           -70.4834         estimate D2E/DX2                !
 ! D25   D(7,2,3,6)             55.4834         estimate D2E/DX2                !
 ! D26   D(7,2,3,11)           -64.8568         estimate D2E/DX2                !
 ! D27   D(7,2,3,12)           172.9383         estimate D2E/DX2                !
 ! D28   D(13,2,3,6)           -64.7678         estimate D2E/DX2                !
 ! D29   D(13,2,3,11)          174.892          estimate D2E/DX2                !
 ! D30   D(13,2,3,12)           52.6871         estimate D2E/DX2                !
 ! D31   D(1,2,13,32)         -155.1608         estimate D2E/DX2                !
 ! D32   D(3,2,13,32)           80.5801         estimate D2E/DX2                !
 ! D33   D(7,2,13,32)          -37.0594         estimate D2E/DX2                !
 ! D34   D(2,3,11,4)           -54.899          estimate D2E/DX2                !
 ! D35   D(6,3,11,4)          -178.1784         estimate D2E/DX2                !
 ! D36   D(12,3,11,4)           64.6042         estimate D2E/DX2                !
 ! D37   D(2,3,12,20)         -150.9874         estimate D2E/DX2                !
 ! D38   D(6,3,12,20)          -30.835          estimate D2E/DX2                !
 ! D39   D(11,3,12,20)          85.7113         estimate D2E/DX2                !
 ! D40   D(9,4,5,1)             66.672          estimate D2E/DX2                !
 ! D41   D(9,4,5,10)          -173.3712         estimate D2E/DX2                !
 ! D42   D(9,4,5,15)           -54.0001         estimate D2E/DX2                !
 ! D43   D(11,4,5,1)           -52.8803         estimate D2E/DX2                !
 ! D44   D(11,4,5,10)           67.0766         estimate D2E/DX2                !
 ! D45   D(11,4,5,15)         -173.5524         estimate D2E/DX2                !
 ! D46   D(16,4,5,1)          -174.1509         estimate D2E/DX2                !
 ! D47   D(16,4,5,10)          -54.1941         estimate D2E/DX2                !
 ! D48   D(16,4,5,15)           65.177          estimate D2E/DX2                !
 ! D49   D(5,4,11,3)            55.3745         estimate D2E/DX2                !
 ! D50   D(9,4,11,3)           -64.165          estimate D2E/DX2                !
 ! D51   D(16,4,11,3)          179.4913         estimate D2E/DX2                !
 ! D52   D(5,4,16,17)          -66.3184         estimate D2E/DX2                !
 ! D53   D(5,4,16,18)          176.4932         estimate D2E/DX2                !
 ! D54   D(5,4,16,19)           51.4539         estimate D2E/DX2                !
 ! D55   D(9,4,16,17)           53.5734         estimate D2E/DX2                !
 ! D56   D(9,4,16,18)          -63.615          estimate D2E/DX2                !
 ! D57   D(9,4,16,19)          171.3457         estimate D2E/DX2                !
 ! D58   D(11,4,16,17)         170.7346         estimate D2E/DX2                !
 ! D59   D(11,4,16,18)          53.5462         estimate D2E/DX2                !
 ! D60   D(11,4,16,19)         -71.4931         estimate D2E/DX2                !
 ! D61   D(1,5,15,40)          104.1658         estimate D2E/DX2                !
 ! D62   D(4,5,15,40)         -134.3734         estimate D2E/DX2                !
 ! D63   D(10,5,15,40)         -16.3572         estimate D2E/DX2                !
 ! D64   D(3,12,20,21)         157.5481         estimate D2E/DX2                !
 ! D65   D(3,12,20,22)          27.0207         estimate D2E/DX2                !
 ! D66   D(3,12,20,23)         -88.686          estimate D2E/DX2                !
 ! D67   D(2,13,32,33)         -66.9632         estimate D2E/DX2                !
 ! D68   D(2,13,32,34)          55.366          estimate D2E/DX2                !
 ! D69   D(2,13,32,35)         174.2394         estimate D2E/DX2                !
 ! D70   D(1,14,36,37)        -178.2284         estimate D2E/DX2                !
 ! D71   D(1,14,36,38)         -59.7978         estimate D2E/DX2                !
 ! D72   D(1,14,36,39)          62.3497         estimate D2E/DX2                !
 ! D73   D(5,15,40,41)         179.441          estimate D2E/DX2                !
 ! D74   D(5,15,40,42)         -61.3048         estimate D2E/DX2                !
 ! D75   D(5,15,40,43)          60.8181         estimate D2E/DX2                !
 ! D76   D(4,16,19,44)          86.7811         estimate D2E/DX2                !
 ! D77   D(17,16,19,44)       -155.1247         estimate D2E/DX2                !
 ! D78   D(18,16,19,44)        -37.5265         estimate D2E/DX2                !
 ! D79   D(16,19,44,45)        168.5683         estimate D2E/DX2                !
 ! D80   D(16,19,44,46)         49.9659         estimate D2E/DX2                !
 ! D81   D(16,19,44,47)        -71.8126         estimate D2E/DX2                !
 ! D82   D(12,20,23,24)        -91.5781         estimate D2E/DX2                !
 ! D83   D(12,20,23,25)         88.1572         estimate D2E/DX2                !
 ! D84   D(21,20,23,24)         19.3104         estimate D2E/DX2                !
 ! D85   D(21,20,23,25)       -160.9544         estimate D2E/DX2                !
 ! D86   D(22,20,23,24)        152.5439         estimate D2E/DX2                !
 ! D87   D(22,20,23,25)        -27.7208         estimate D2E/DX2                !
 ! D88   D(20,23,24,26)        179.8127         estimate D2E/DX2                !
 ! D89   D(20,23,24,27)         -0.4978         estimate D2E/DX2                !
 ! D90   D(25,23,24,26)          0.0857         estimate D2E/DX2                !
 ! D91   D(25,23,24,27)        179.7752         estimate D2E/DX2                !
 ! D92   D(20,23,25,28)       -179.2015         estimate D2E/DX2                !
 ! D93   D(20,23,25,29)          0.9755         estimate D2E/DX2                !
 ! D94   D(24,23,25,28)          0.5252         estimate D2E/DX2                !
 ! D95   D(24,23,25,29)       -179.2979         estimate D2E/DX2                !
 ! D96   D(23,24,26,30)         -0.5658         estimate D2E/DX2                !
 ! D97   D(23,24,26,48)        176.9954         estimate D2E/DX2                !
 ! D98   D(27,24,26,30)        179.746          estimate D2E/DX2                !
 ! D99   D(27,24,26,48)         -2.6928         estimate D2E/DX2                !
 ! D100  D(23,25,28,30)         -0.6665         estimate D2E/DX2                !
 ! D101  D(23,25,28,52)        176.2768         estimate D2E/DX2                !
 ! D102  D(29,25,28,30)        179.1567         estimate D2E/DX2                !
 ! D103  D(29,25,28,52)         -3.9            estimate D2E/DX2                !
 ! D104  D(24,26,30,28)          0.4269         estimate D2E/DX2                !
 ! D105  D(24,26,30,31)       -179.6374         estimate D2E/DX2                !
 ! D106  D(48,26,30,28)       -177.1288         estimate D2E/DX2                !
 ! D107  D(48,26,30,31)          2.8069         estimate D2E/DX2                !
 ! D108  D(24,26,48,49)         30.388          estimate D2E/DX2                !
 ! D109  D(24,26,48,50)        -89.309          estimate D2E/DX2                !
 ! D110  D(24,26,48,51)        151.0565         estimate D2E/DX2                !
 ! D111  D(30,26,48,49)       -152.0324         estimate D2E/DX2                !
 ! D112  D(30,26,48,50)         88.2705         estimate D2E/DX2                !
 ! D113  D(30,26,48,51)        -31.3639         estimate D2E/DX2                !
 ! D114  D(25,28,30,26)          0.2028         estimate D2E/DX2                !
 ! D115  D(25,28,30,31)       -179.7329         estimate D2E/DX2                !
 ! D116  D(52,28,30,26)       -176.7186         estimate D2E/DX2                !
 ! D117  D(52,28,30,31)          3.3456         estimate D2E/DX2                !
 ! D118  D(25,28,52,53)        -86.7586         estimate D2E/DX2                !
 ! D119  D(25,28,52,54)        153.8177         estimate D2E/DX2                !
 ! D120  D(25,28,52,55)         32.5487         estimate D2E/DX2                !
 ! D121  D(30,28,52,53)         90.2032         estimate D2E/DX2                !
 ! D122  D(30,28,52,54)        -29.2205         estimate D2E/DX2                !
 ! D123  D(30,28,52,55)       -150.4895         estimate D2E/DX2                !
 --------------------------------------------------------------------------------
 Trust Radius=3.00D-01 FncErr=1.00D-07 GrdErr=1.00D-06 EigMax=2.50D+02 EigMin=1.00D-04
 Number of steps in this run=    291 maximum allowed number of steps=    330.
 GradGradGradGradGradGradGradGradGradGradGradGradGradGradGradGradGradGrad

 Leave Link  103 at Sat Jun 15 06:58:55 2019, MaxMem=  6442450944 cpu:               2.8 elap:               0.1
 (Enter /home/ekwan/sw/g16/l202.exe)
 Stoichiometry    C18H22F6O8S
 Framework group  C1[X(C18H22F6O8S)]
 Deg. of freedom   159
 Full point group                 C1      NOp   1
 Largest Abelian subgroup         C1      NOp   1
 Largest concise Abelian subgroup C1      NOp   1
                         Standard orientation:                         
 ---------------------------------------------------------------------
 Center     Atomic      Atomic             Coordinates (Angstroms)
 Number     Number       Type             X           Y           Z
 ---------------------------------------------------------------------
      1          6           0        3.520591   -0.247282    0.746052
      2          6           0        3.366553   -0.506855   -0.758748
      3          6           0        1.895303   -0.376170   -1.202899
      4          6           0        1.373704    1.101631    0.622835
      5          6           0        2.824072    1.065593    1.127879
      6          1           0        1.792888   -0.420856   -2.286774
      7          1           0        3.910527    0.288791   -1.291880
      8          1           0        3.056712   -1.066870    1.311945
      9          1           0        0.793417    0.340415    1.161739
     10          1           0        3.371120    1.902638    0.676353
     11          8           0        1.312648    0.815661   -0.796988
     12          8           0        1.186760   -1.532273   -0.637714
     13          8           0        3.915859   -1.767216   -1.074838
     14          8           0        4.893111   -0.127394    1.091554
     15          8           0        2.775550    1.204346    2.541463
     16          6           0        0.695563    2.450364    0.861068
     17          1           0        0.600386    2.573014    1.943876
     18          1           0       -0.311973    2.432503    0.423932
     19          8           0        1.424523    3.572464    0.393776
     20         16           0       -0.123166   -2.138298   -1.404581
     21          8           0       -0.223175   -3.514651   -0.925884
     22          8           0       -0.012218   -1.844161   -2.836395
     23          6           0       -1.496622   -1.200802   -0.732246
     24          6           0       -2.167542   -1.695156    0.384523
     25          6           0       -1.856310    0.001279   -1.338616
     26          6           0       -3.232294   -0.956845    0.902900
     27          1           0       -1.869620   -2.634798    0.834631
     28          6           0       -2.915034    0.729253   -0.796274
     29          1           0       -1.327979    0.361180   -2.212968
     30          6           0       -3.605700    0.254785    0.320068
     31          1           0       -4.429911    0.825405    0.731862
     32          6           0        4.346087   -1.910841   -2.426209
     33          1           0        3.506327   -1.890357   -3.133096
     34          1           0        5.062917   -1.123613   -2.697481
     35          1           0        4.836400   -2.884129   -2.492908
     36          6           0        5.484367   -1.308630    1.624698
     37          1           0        6.518934   -1.053374    1.868869
     38          1           0        4.970686   -1.629678    2.542111
     39          1           0        5.471832   -2.129112    0.899722
     40          6           0        3.712826    2.133166    3.079165
     41          1           0        3.554738    2.142407    4.160870
     42          1           0        4.743065    1.829745    2.863330
     43          1           0        3.541052    3.143712    2.683325
     44          6           0        1.198810    3.911378   -0.970787
     45          1           0        1.652251    4.893845   -1.127818
     46          1           0        0.122770    3.974302   -1.188002
     47          1           0        1.653669    3.188367   -1.657332
     48          6           0       -4.019223   -1.502361    2.069461
     49          9           0       -3.252688   -2.272836    2.867889
     50          9           0       -5.052802   -2.265555    1.651112
     51          9           0       -4.536669   -0.511627    2.824919
     52          6           0       -3.265349    2.072532   -1.385394
     53          9           0       -2.527215    3.061182   -0.818449
     54          9           0       -4.559992    2.386161   -1.186655
     55          9           0       -3.025392    2.114320   -2.710557
 ---------------------------------------------------------------------
 Rotational constants (GHZ):           0.1497427           0.0798724           0.0733026
 Leave Link  202 at Sat Jun 15 06:58:56 2019, MaxMem=  6442450944 cpu:               5.5 elap:               0.2
 (Enter /home/ekwan/sw/g16/l301.exe)
 Standard basis: 6-31G(d) (6D, 7F)
 Centers:      12     22     21
 SP 1 1.00
     Exponent=  8.4500000000D-02 Coefficients=  1.0000000000D+00  1.0000000000D+00
 ****
 Ernie: Thresh=  0.10000D-02 Tol=  0.10000D-05 Strict=F.
 There are   555 symmetry adapted cartesian basis functions of A   symmetry.
 There are   555 symmetry adapted basis functions of A   symmetry.
   555 basis functions,  1048 primitive gaussians,   555 cartesian basis functions
   132 alpha electrons      132 beta electrons
       nuclear repulsion energy      4258.0709350682 Hartrees.
 IExCor=  402 DFT=T Ex+Corr=B3LYP ExCW=0 ScaHFX=  0.200000
 ScaDFX=  0.800000  0.720000  1.000000  0.810000 ScalE2=  1.000000  1.000000
 IRadAn=      5 IRanWt=     -1 IRanGd=            0 ICorTp=0 IEmpDi=  4
 NAtoms=   55 NActive=   55 NUniq=   55 SFac= 1.00D+00 NAtFMM=   60 NAOKFM=F Big=F
 Integral buffers will be    131072 words long.
 Raffenetti 2 integral format.
 Two-electron integral symmetry is turned on.
 ------------------------------------------------------------------------------
 Polarizable Continuum Model (PCM)
 =================================
 Model                : PCM.
 Atomic radii         : UFF (Universal Force Field).
 Polarization charges : Total charges.
 Charge compensation  : None.
 Solution method      : On-the-fly selection.
 Cavity type          : Scaled VdW (van der Waals Surface) (Alpha=1.100).
 Cavity algorithm     : GePol (No added spheres)
                        Default sphere list used, NSphG=   55.
                        Lebedev-Laikov grids with approx.  5.0 points / Ang**2.
                        Smoothing algorithm: York/Karplus (Gamma=1.0000).
                        Polarization charges: spherical gaussians, with
                                              point-specific exponents (IZeta= 3).
                        Self-potential: point-specific (ISelfS= 7).
                        Self-field    : sphere-specific E.n sum rule (ISelfD= 2).
 1st derivatives      : Analytical E(r).r(x)/FMM algorithm (CHGder, D1EAlg=3).
                        Cavity 1st derivative terms included.
 Solvent              : TetraHydroFuran, Eps=   7.425700 Eps(inf)=   1.974025
 ------------------------------------------------------------------------------
 GePol: Number of generator spheres                  =      55
 GePol: Total number of spheres                      =      55
 GePol: Number of exposed spheres                    =      55 (100.00%)
 GePol: Number of points                             =    4031
 GePol: Average weight of points                     =       0.13
 GePol: Minimum weight of points                     =   0.16D-11
 GePol: Maximum weight of points                     =    0.20577
 GePol: Number of points with low weight             =     254
 GePol: Fraction of low-weight points (<1% of avg)   =       6.30%
 GePol: Cavity surface area                          =    510.522 Ang**2
 GePol: Cavity volume                                =    582.852 Ang**3
 Leave Link  301 at Sat Jun 15 06:58:56 2019, MaxMem=  6442450944 cpu:               7.6 elap:               0.3
 (Enter /home/ekwan/sw/g16/l302.exe)
 NPDir=0 NMtPBC=     1 NCelOv=     1 NCel=       1 NClECP=     1 NCelD=      1
         NCelK=      1 NCelE2=     1 NClLst=     1 CellRange=     0.0.
 One-electron integrals computed using PRISM.
 One-electron integral symmetry used in STVInt
 NBasis=   555 RedAO= T EigKep=  4.10D-04  NBF=   555
 NBsUse=   555 1.00D-06 EigRej= -1.00D+00 NBFU=   555
 Precomputing XC quadrature grid using
 IXCGrd= 4 IRadAn=           5 IRanWt=          -1 IRanGd=           0 AccXCQ= 0.00D+00.
 Generated NRdTot=       0 NPtTot=           0 NUsed=           0 NTot=          32
 NSgBfM=   543   542   542   543   543 MxSgAt=    55 MxSgA2=    55.
 Leave Link  302 at Sat Jun 15 06:59:06 2019, MaxMem=  6442450944 cpu:             288.1 elap:               9.7
 (Enter /home/ekwan/sw/g16/l303.exe)
 DipDrv:  MaxL=1.
 Leave Link  303 at Sat Jun 15 06:59:06 2019, MaxMem=  6442450944 cpu:              11.8 elap:               0.5
 (Enter /home/ekwan/sw/g16/l401.exe)
 ExpMin= 8.45D-02 ExpMax= 2.19D+04 ExpMxC= 3.30D+03 IAcc=3 IRadAn=         5 AccDes= 0.00D+00
 Harris functional with IExCor=  402 and IRadAn=       5 diagonalized for initial guess.
 HarFok:  IExCor=  402 AccDes= 0.00D+00 IRadAn=         5 IDoV= 1 UseB2=F ITyADJ=14
 ICtDFT=  3500011 ScaDFX=  1.000000  1.000000  1.000000  1.000000
 FoFCou: FMM=F IPFlag=           0 FMFlag=      100000 FMFlg1=           0
         NFxFlg=           0 DoJE=T BraDBF=F KetDBF=T FulRan=T
         wScrn=  0.000000 ICntrl=       500 IOpCl=  0 I1Cent=   200000004 NGrid=           0
         NMat0=    1 NMatS0=      1 NMatT0=    0 NMatD0=    1 NMtDS0=    0 NMtDT0=    0
 Petite list used in FoFCou.
 Harris En= -2298.02438413516    
 JPrj=0 DoOrth=F DoCkMO=F.
 Leave Link  401 at Sat Jun 15 06:59:14 2019, MaxMem=  6442450944 cpu:             249.0 elap:               8.1
 (Enter /home/ekwan/sw/g16/l502.exe)
 Integral symmetry usage will be decided dynamically.
 Closed shell SCF:
 Using DIIS extrapolation, IDIIS=  1040.
 NGot=  6442450944 LenX=  6441811192 LenY=  6441502612
 Requested convergence on RMS density matrix=1.00D-08 within 128 cycles.
 Requested convergence on MAX density matrix=1.00D-06.
 Requested convergence on             energy=1.00D-06.
 No special actions if energy rises.
 Fock matrices will be formed incrementally for  20 cycles.

 Cycle   1  Pass 1  IDiag  1:
 FoFJK:  IHMeth= 1 ICntrl=       0 DoSepK=F KAlg= 0 I1Cent=           0 FoldK=F
 IRaf= 690000000 NMat=       1 IRICut=       1 DoRegI=T DoRafI=F ISym2E= 0 IDoP0=0 IntGTp=1.
 FoFCou: FMM=F IPFlag=           0 FMFlag=      100000 FMFlg1=           0
         NFxFlg=           0 DoJE=F BraDBF=F KetDBF=F FulRan=T
         wScrn=  0.000000 ICntrl=         0 IOpCl=  0 I1Cent=           0 NGrid=           0
         NMat0=    1 NMatS0=      1 NMatT0=    0 NMatD0=    1 NMtDS0=    0 NMtDT0=    0
 Symmetry not used in FoFCou.
 Inv3:  Mode=1 IEnd=    48746883.
 Iteration    1 A*A^-1 deviation from unit magnitude is 6.99D-15 for   4031.
 Iteration    1 A*A^-1 deviation from orthogonality  is 3.83D-15 for   4014   2809.
 Iteration    1 A^-1*A deviation from unit magnitude is 6.99D-15 for   4031.
 Iteration    1 A^-1*A deviation from orthogonality  is 2.48D-15 for   4011   3441.
 E= -2297.36025550238    
 DIIS: error= 2.83D-02 at cycle   1 NSaved=   1.
 NSaved= 1 IEnMin= 1 EnMin= -2297.36025550238     IErMin= 1 ErrMin= 2.83D-02
 ErrMax= 2.83D-02  0.00D+00 EMaxC= 1.00D-01 BMatC= 9.04D-01 BMatP= 9.04D-01
 IDIUse=3 WtCom= 7.17D-01 WtEn= 2.83D-01
 Coeff-Com:  0.100D+01
 Coeff-En:   0.100D+01
 Coeff:      0.100D+01
 Gap=     0.145 Goal=   None    Shift=    0.000
 GapD=    0.145 DampG=1.000 DampE=0.500 DampFc=0.5000 IDamp=-1.
 Damping current iteration by 5.00D-01
 RMSDP=4.27D-03 MaxDP=5.80D-01              OVMax= 2.05D-01

 Cycle   2  Pass 1  IDiag  1:
 RMSU=  2.13D-03    CP:  9.97D-01
 E= -2297.56134141210     Delta-E=       -0.201085909720 Rises=F Damp=T
 DIIS: error= 8.92D-03 at cycle   2 NSaved=   2.
 NSaved= 2 IEnMin= 2 EnMin= -2297.56134141210     IErMin= 2 ErrMin= 8.92D-03
 ErrMax= 8.92D-03  0.00D+00 EMaxC= 1.00D-01 BMatC= 1.21D-01 BMatP= 9.04D-01
 IDIUse=3 WtCom= 9.11D-01 WtEn= 8.92D-02
 Coeff-Com:  0.207D+00 0.793D+00
 Coeff-En:   0.343D+00 0.657D+00
 Coeff:      0.219D+00 0.781D+00
 Gap=     0.208 Goal=   None    Shift=    0.000
 RMSDP=1.30D-03 MaxDP=1.43D-01 DE=-2.01D-01 OVMax= 1.63D-01

 Cycle   3  Pass 1  IDiag  1:
 RMSU=  1.03D-03    CP:  9.90D-01  6.29D-01
 E= -2298.02663585040     Delta-E=       -0.465294438302 Rises=F Damp=F
 DIIS: error= 7.03D-03 at cycle   3 NSaved=   3.
 NSaved= 3 IEnMin= 3 EnMin= -2298.02663585040     IErMin= 3 ErrMin= 7.03D-03
 ErrMax= 7.03D-03  0.00D+00 EMaxC= 1.00D-01 BMatC= 7.40D-02 BMatP= 1.21D-01
 IDIUse=3 WtCom= 9.30D-01 WtEn= 7.03D-02
 Coeff-Com:  0.587D-01 0.440D+00 0.501D+00
 Coeff-En:   0.000D+00 0.000D+00 0.100D+01
 Coeff:      0.546D-01 0.409D+00 0.536D+00
 Gap=     0.172 Goal=   None    Shift=    0.000
 RMSDP=7.24D-04 MaxDP=4.40D-02 DE=-4.65D-01 OVMax= 6.08D-02

 Cycle   4  Pass 1  IDiag  1:
 RMSU=  4.46D-04    CP:  9.93D-01  7.49D-01  5.06D-01
 E= -2298.07612192263     Delta-E=       -0.049486072236 Rises=F Damp=F
 DIIS: error= 3.01D-03 at cycle   4 NSaved=   4.
 NSaved= 4 IEnMin= 4 EnMin= -2298.07612192263     IErMin= 4 ErrMin= 3.01D-03
 ErrMax= 3.01D-03  0.00D+00 EMaxC= 1.00D-01 BMatC= 1.60D-02 BMatP= 7.40D-02
 IDIUse=3 WtCom= 9.70D-01 WtEn= 3.01D-02
 Coeff-Com: -0.184D-02 0.115D+00 0.332D+00 0.555D+00
 Coeff-En:   0.000D+00 0.000D+00 0.191D+00 0.809D+00
 Coeff:     -0.179D-02 0.112D+00 0.327D+00 0.562D+00
 Gap=     0.172 Goal=   None    Shift=    0.000
 RMSDP=2.56D-04 MaxDP=1.91D-02 DE=-4.95D-02 OVMax= 2.34D-02

 Cycle   5  Pass 1  IDiag  1:
 RMSU=  1.18D-04    CP:  9.93D-01  7.24D-01  6.36D-01  6.04D-01
 E= -2298.08803860038     Delta-E=       -0.011916677749 Rises=F Damp=F
 DIIS: error= 9.08D-04 at cycle   5 NSaved=   5.
 NSaved= 5 IEnMin= 5 EnMin= -2298.08803860038     IErMin= 5 ErrMin= 9.08D-04
 ErrMax= 9.08D-04  0.00D+00 EMaxC= 1.00D-01 BMatC= 1.22D-03 BMatP= 1.60D-02
 IDIUse=3 WtCom= 9.91D-01 WtEn= 9.08D-03
 Coeff-Com: -0.489D-02 0.286D-01 0.133D+00 0.311D+00 0.532D+00
 Coeff-En:   0.000D+00 0.000D+00 0.000D+00 0.282D-02 0.997D+00
 Coeff:     -0.485D-02 0.283D-01 0.132D+00 0.308D+00 0.537D+00
 Gap=     0.172 Goal=   None    Shift=    0.000
 RMSDP=6.76D-05 MaxDP=5.65D-03 DE=-1.19D-02 OVMax= 6.46D-03

 Cycle   6  Pass 1  IDiag  1:
 RMSU=  3.88D-05    CP:  9.93D-01  7.29D-01  6.39D-01  6.50D-01  5.79D-01
 E= -2298.08900197115     Delta-E=       -0.000963370770 Rises=F Damp=F
 DIIS: error= 2.12D-04 at cycle   6 NSaved=   6.
 NSaved= 6 IEnMin= 6 EnMin= -2298.08900197115     IErMin= 6 ErrMin= 2.12D-04
 ErrMax= 2.12D-04  0.00D+00 EMaxC= 1.00D-01 BMatC= 8.04D-05 BMatP= 1.22D-03
 IDIUse=3 WtCom= 9.98D-01 WtEn= 2.12D-03
 Coeff-Com: -0.238D-02 0.453D-02 0.357D-01 0.102D+00 0.272D+00 0.588D+00
 Coeff-En:   0.000D+00 0.000D+00 0.000D+00 0.000D+00 0.000D+00 0.100D+01
 Coeff:     -0.238D-02 0.452D-02 0.356D-01 0.102D+00 0.271D+00 0.589D+00
 Gap=     0.172 Goal=   None    Shift=    0.000
 RMSDP=1.87D-05 MaxDP=1.36D-03 DE=-9.63D-04 OVMax= 1.44D-03

 Cycle   7  Pass 1  IDiag  1:
 RMSU=  1.01D-05    CP:  9.93D-01  7.28D-01  6.39D-01  6.56D-01  6.28D-01
                    CP:  6.35D-01
 E= -2298.08906407679     Delta-E=       -0.000062105632 Rises=F Damp=F
 DIIS: error= 5.58D-05 at cycle   7 NSaved=   7.
 NSaved= 7 IEnMin= 7 EnMin= -2298.08906407679     IErMin= 7 ErrMin= 5.58D-05
 ErrMax= 5.58D-05  0.00D+00 EMaxC= 1.00D-01 BMatC= 6.24D-06 BMatP= 8.04D-05
 IDIUse=1 WtCom= 1.00D+00 WtEn= 0.00D+00
 Coeff-Com: -0.104D-02 0.570D-03 0.109D-01 0.360D-01 0.115D+00 0.316D+00
 Coeff-Com:  0.523D+00
 Coeff:     -0.104D-02 0.570D-03 0.109D-01 0.360D-01 0.115D+00 0.316D+00
 Coeff:      0.523D+00
 Gap=     0.172 Goal=   None    Shift=    0.000
 RMSDP=5.16D-06 MaxDP=3.09D-04 DE=-6.21D-05 OVMax= 3.78D-04

 Cycle   8  Pass 1  IDiag  1:
 RMSU=  3.36D-06    CP:  9.93D-01  7.28D-01  6.39D-01  6.56D-01  6.31D-01
                    CP:  6.75D-01  6.47D-01
 E= -2298.08906862131     Delta-E=       -0.000004544522 Rises=F Damp=F
 DIIS: error= 2.09D-05 at cycle   8 NSaved=   8.
 NSaved= 8 IEnMin= 8 EnMin= -2298.08906862131     IErMin= 8 ErrMin= 2.09D-05
 ErrMax= 2.09D-05  0.00D+00 EMaxC= 1.00D-01 BMatC= 6.41D-07 BMatP= 6.24D-06
 IDIUse=1 WtCom= 1.00D+00 WtEn= 0.00D+00
 Coeff-Com: -0.284D-03-0.207D-03 0.151D-02 0.689D-02 0.304D-01 0.103D+00
 Coeff-Com:  0.283D+00 0.576D+00
 Coeff:     -0.284D-03-0.207D-03 0.151D-02 0.689D-02 0.304D-01 0.103D+00
 Coeff:      0.283D+00 0.576D+00
 Gap=     0.172 Goal=   None    Shift=    0.000
 RMSDP=1.82D-06 MaxDP=1.29D-04 DE=-4.54D-06 OVMax= 1.67D-04

 Cycle   9  Pass 1  IDiag  1:
 RMSU=  1.24D-06    CP:  9.93D-01  7.28D-01  6.39D-01  6.56D-01  6.33D-01
                    CP:  6.81D-01  6.80D-01  6.40D-01
 E= -2298.08906903119     Delta-E=       -0.000000409878 Rises=F Damp=F
 DIIS: error= 8.92D-06 at cycle   9 NSaved=   9.
 NSaved= 9 IEnMin= 9 EnMin= -2298.08906903119     IErMin= 9 ErrMin= 8.92D-06
 ErrMax= 8.92D-06  0.00D+00 EMaxC= 1.00D-01 BMatC= 1.05D-07 BMatP= 6.41D-07
 IDIUse=1 WtCom= 1.00D+00 WtEn= 0.00D+00
 Coeff-Com: -0.390D-04-0.140D-03-0.378D-03-0.433D-03 0.356D-02 0.203D-01
 Coeff-Com:  0.985D-01 0.339D+00 0.539D+00
 Coeff:     -0.390D-04-0.140D-03-0.378D-03-0.433D-03 0.356D-02 0.203D-01
 Coeff:      0.985D-01 0.339D+00 0.539D+00
 Gap=     0.172 Goal=   None    Shift=    0.000
 RMSDP=7.31D-07 MaxDP=5.65D-05 DE=-4.10D-07 OVMax= 8.21D-05

 Cycle  10  Pass 1  IDiag  1:
 RMSU=  3.73D-07    CP:  9.93D-01  7.28D-01  6.39D-01  6.56D-01  6.33D-01
                    CP:  6.80D-01  6.91D-01  7.23D-01  5.75D-01
 E= -2298.08906911776     Delta-E=       -0.000000086576 Rises=F Damp=F
 DIIS: error= 2.73D-06 at cycle  10 NSaved=  10.
 NSaved=10 IEnMin=10 EnMin= -2298.08906911776     IErMin=10 ErrMin= 2.73D-06
 ErrMax= 2.73D-06  0.00D+00 EMaxC= 1.00D-01 BMatC= 1.12D-08 BMatP= 1.05D-07
 IDIUse=1 WtCom= 1.00D+00 WtEn= 0.00D+00
 Coeff-Com: -0.297D-06-0.524D-04-0.331D-03-0.819D-03-0.628D-03 0.272D-02
 Coeff-Com:  0.313D-01 0.142D+00 0.316D+00 0.510D+00
 Coeff:     -0.297D-06-0.524D-04-0.331D-03-0.819D-03-0.628D-03 0.272D-02
 Coeff:      0.313D-01 0.142D+00 0.316D+00 0.510D+00
 Gap=     0.172 Goal=   None    Shift=    0.000
 RMSDP=2.23D-07 MaxDP=1.70D-05 DE=-8.66D-08 OVMax= 2.34D-05

 Cycle  11  Pass 1  IDiag  1:
 RMSU=  1.44D-07    CP:  9.93D-01  7.28D-01  6.39D-01  6.56D-01  6.33D-01
                    CP:  6.81D-01  6.96D-01  7.24D-01  6.39D-01  6.31D-01
 E= -2298.08906912591     Delta-E=       -0.000000008145 Rises=F Damp=F
 DIIS: error= 6.54D-07 at cycle  11 NSaved=  11.
 NSaved=11 IEnMin=11 EnMin= -2298.08906912591     IErMin=11 ErrMin= 6.54D-07
 ErrMax= 6.54D-07  0.00D+00 EMaxC= 1.00D-01 BMatC= 1.12D-09 BMatP= 1.12D-08
 IDIUse=1 WtCom= 1.00D+00 WtEn= 0.00D+00
 Coeff-Com:  0.489D-05-0.133D-04-0.157D-03-0.445D-03-0.951D-03-0.130D-02
 Coeff-Com:  0.443D-02 0.350D-01 0.109D+00 0.290D+00 0.565D+00
 Coeff:      0.489D-05-0.133D-04-0.157D-03-0.445D-03-0.951D-03-0.130D-02
 Coeff:      0.443D-02 0.350D-01 0.109D+00 0.290D+00 0.565D+00
 Gap=     0.172 Goal=   None    Shift=    0.000
 RMSDP=7.36D-08 MaxDP=5.67D-06 DE=-8.15D-09 OVMax= 8.90D-06

 Cycle  12  Pass 1  IDiag  1:
 RMSU=  4.48D-08    CP:  9.93D-01  7.28D-01  6.39D-01  6.56D-01  6.33D-01
                    CP:  6.81D-01  6.95D-01  7.26D-01  6.52D-01  7.04D-01
                    CP:  6.85D-01
 E= -2298.08906912682     Delta-E=       -0.000000000908 Rises=F Damp=F
 DIIS: error= 2.73D-07 at cycle  12 NSaved=  12.
 NSaved=12 IEnMin=12 EnMin= -2298.08906912682     IErMin=12 ErrMin= 2.73D-07
 ErrMax= 2.73D-07  0.00D+00 EMaxC= 1.00D-01 BMatC= 1.10D-10 BMatP= 1.12D-09
 IDIUse=1 WtCom= 1.00D+00 WtEn= 0.00D+00
 Coeff-Com:  0.251D-05-0.193D-05-0.533D-04-0.156D-03-0.468D-03-0.101D-02
 Coeff-Com: -0.986D-03 0.348D-02 0.251D-01 0.103D+00 0.305D+00 0.566D+00
 Coeff:      0.251D-05-0.193D-05-0.533D-04-0.156D-03-0.468D-03-0.101D-02
 Coeff:     -0.986D-03 0.348D-02 0.251D-01 0.103D+00 0.305D+00 0.566D+00
 Gap=     0.172 Goal=   None    Shift=    0.000
 RMSDP=2.54D-08 MaxDP=1.55D-06 DE=-9.08D-10 OVMax= 3.56D-06

 Cycle  13  Pass 1  IDiag  1:
 RMSU=  1.69D-08    CP:  9.93D-01  7.28D-01  6.39D-01  6.56D-01  6.33D-01
                    CP:  6.81D-01  6.95D-01  7.28D-01  6.53D-01  7.07D-01
                    CP:  7.22D-01  6.26D-01
 E= -2298.08906912687     Delta-E=       -0.000000000055 Rises=F Damp=F
 DIIS: error= 1.15D-07 at cycle  13 NSaved=  13.
 NSaved=13 IEnMin=13 EnMin= -2298.08906912687     IErMin=13 ErrMin= 1.15D-07
 ErrMax= 1.15D-07  0.00D+00 EMaxC= 1.00D-01 BMatC= 1.62D-11 BMatP= 1.10D-10
 IDIUse=1 WtCom= 1.00D+00 WtEn= 0.00D+00
 Coeff-Com:  0.725D-06 0.881D-06-0.881D-05-0.263D-04-0.136D-03-0.377D-03
 Coeff-Com: -0.996D-03-0.254D-02-0.408D-03 0.178D-01 0.861D-01 0.316D+00
 Coeff-Com:  0.585D+00
 Coeff:      0.725D-06 0.881D-06-0.881D-05-0.263D-04-0.136D-03-0.377D-03
 Coeff:     -0.996D-03-0.254D-02-0.408D-03 0.178D-01 0.861D-01 0.316D+00
 Coeff:      0.585D+00
 Gap=     0.172 Goal=   None    Shift=    0.000
 RMSDP=9.63D-09 MaxDP=7.06D-07 DE=-5.55D-11 OVMax= 2.04D-06

 Error on total polarization charges =  0.01057
 SCF Done:  E(RB3LYP) =  -2298.08906913     A.U. after   13 cycles
            NFock= 13  Conv=0.96D-08     -V/T= 2.0075
 KE= 2.280891450740D+03 PE=-1.392278480276D+04 EE= 5.085733347827D+03
 Leave Link  502 at Sat Jun 15 07:03:27 2019, MaxMem=  6442450944 cpu:            7560.0 elap:             252.4
 (Enter /home/ekwan/sw/g16/l701.exe)
 ... and contract with generalized density number  0.
 Compute integral first derivatives.
 D1PCM: PCM CHGder 1st derivatives, ID1Alg=3 FixD1E=F DoIter=F DoCFld=F I1PDM=0.
 GePol: Maximum number of non-zero 1st derivatives   =     225
 Leave Link  701 at Sat Jun 15 07:03:39 2019, MaxMem=  6442450944 cpu:             361.5 elap:              12.2
 (Enter /home/ekwan/sw/g16/l702.exe)
 L702 exits ... SP integral derivatives will be done elsewhere.
 Leave Link  702 at Sat Jun 15 07:03:40 2019, MaxMem=  6442450944 cpu:               3.0 elap:               0.3
 (Enter /home/ekwan/sw/g16/l703.exe)
 Integral derivatives from FoFJK, PRISM(SPDF).
 Compute integral first derivatives, UseDBF=F ICtDFT=           0.
 Calling FoFJK, ICntrl=      2127 FMM=F ISym2X=0 I1Cent= 0 IOpClX= 0 NMat=1 NMatS=1 NMatT=0.
 FoFJK:  IHMeth= 1 ICntrl=    2127 DoSepK=F KAlg= 0 I1Cent=           0 FoldK=F
 IRaf=         0 NMat=       1 IRICut=       1 DoRegI=T DoRafI=F ISym2E= 0 IDoP0=0 IntGTp=1.
 FoFCou: FMM=F IPFlag=           0 FMFlag=      100000 FMFlg1=         800
         NFxFlg=           0 DoJE=F BraDBF=F KetDBF=F FulRan=T
         wScrn=  0.000000 ICntrl=      2127 IOpCl=  0 I1Cent=           0 NGrid=           0
         NMat0=    1 NMatS0=      1 NMatT0=    0 NMatD0=    1 NMtDS0=    0 NMtDT0=    0
 Symmetry not used in FoFCou.
 Leave Link  703 at Sat Jun 15 07:04:18 2019, MaxMem=  6442450944 cpu:            1137.0 elap:              38.1
 (Enter /home/ekwan/sw/g16/l716.exe)
 Dipole        = 4.39878708D-01 1.43417559D+00 5.27212832D-02
 ***** Axes restored to original set *****
 -------------------------------------------------------------------
 Center     Atomic                   Forces (Hartrees/Bohr)
 Number     Number              X              Y              Z
 -------------------------------------------------------------------
      1        6           0.000000386    0.000004426   -0.000000599
      2        6          -0.000002894    0.000007701    0.000004495
      3        6           0.000003013    0.000028867   -0.000003821
      4        6           0.000001453   -0.000000532   -0.000004078
      5        6           0.000003049   -0.000000990   -0.000003589
      6        1           0.000000938   -0.000002259    0.000000284
      7        1          -0.000000313   -0.000000947   -0.000002536
      8        1           0.000001526    0.000000208    0.000000766
      9        1           0.000001096    0.000000634    0.000000912
     10        1          -0.000000169    0.000000814   -0.000001050
     11        8          -0.000000215   -0.000010634    0.000001241
     12        8          -0.000001999   -0.000015070    0.000004054
     13        8           0.000005410   -0.000005564   -0.000008239
     14        8          -0.000001203    0.000000796   -0.000001397
     15        8           0.000000231    0.000002096   -0.000000373
     16        6          -0.000003351   -0.000000110    0.000002597
     17        1          -0.000001486    0.000001358   -0.000001723
     18        1           0.000000044   -0.000002451   -0.000001840
     19        8           0.000001250    0.000002400   -0.000003661
     20       16          -0.000007166   -0.000018397   -0.000010715
     21        8           0.000004384    0.000021662   -0.000004819
     22        8          -0.000000313   -0.000008013    0.000023837
     23        6           0.000006609   -0.000000013   -0.000010489
     24        6          -0.000004672    0.000001699    0.000006368
     25        6          -0.000004190   -0.000001036    0.000008502
     26        6           0.000000972   -0.000006849    0.000005596
     27        1           0.000002496   -0.000001858    0.000002850
     28        6           0.000001041   -0.000001325   -0.000001466
     29        1          -0.000000654   -0.000001987   -0.000001165
     30        6           0.000000894    0.000001615    0.000001340
     31        1           0.000000435   -0.000002560    0.000001355
     32        6          -0.000002660    0.000001992    0.000009618
     33        1           0.000000074   -0.000001252   -0.000001150
     34        1           0.000000092    0.000001184   -0.000001672
     35        1           0.000001264    0.000000073   -0.000000431
     36        6           0.000001684    0.000004237   -0.000000988
     37        1           0.000000710    0.000004154   -0.000000797
     38        1           0.000001479    0.000002635   -0.000001286
     39        1           0.000001652    0.000002473   -0.000000529
     40        6          -0.000001314    0.000003262   -0.000002674
     41        1           0.000000641    0.000003092   -0.000001590
     42        1           0.000000167    0.000003140   -0.000001877
     43        1          -0.000000600    0.000002466   -0.000002224
     44        6          -0.000003970    0.000001063   -0.000000017
     45        1          -0.000002441   -0.000001089   -0.000002632
     46        1          -0.000001438   -0.000001130   -0.000001654
     47        1          -0.000001231   -0.000001894   -0.000002830
     48        6           0.000003842   -0.000000977   -0.000001269
     49        9           0.000002015   -0.000000799    0.000003174
     50        9           0.000001547   -0.000003199    0.000003229
     51        9           0.000000156   -0.000000234    0.000003352
     52        6          -0.000001794   -0.000009395   -0.000003379
     53        9          -0.000001006    0.000000873    0.000001800
     54        9          -0.000002982   -0.000002188    0.000000372
     55        9          -0.000002487   -0.000002163    0.000002820
 -------------------------------------------------------------------
 Cartesian Forces:  Max     0.000028867 RMS     0.000005014
 Leave Link  716 at Sat Jun 15 07:04:18 2019, MaxMem=  6442450944 cpu:               2.8 elap:               0.1
 (Enter /home/ekwan/sw/g16/l103.exe)

 GradGradGradGradGradGradGradGradGradGradGradGradGradGradGradGradGradGrad
 Berny optimization.
 FormGI is forming the generalized inverse of G from B-inverse, IUseBI=4.
 Internal  Forces:  Max     0.000023895 RMS     0.000002809
 Search for a local minimum.
 Step number   1 out of a maximum of  291
 All quantities printed in internal units (Hartrees-Bohrs-Radians)
 RMS Force = .28093D-05 SwitMx=.10000D-02 MixMth= 2
 Mixed Optimization -- En-DIIS/RFO-DIIS
 Second derivative matrix not updated -- first step.
 ITU=  0
     Eigenvalues ---    0.00392   0.00454   0.00513   0.00562   0.00644
     Eigenvalues ---    0.00660   0.00779   0.01299   0.01355   0.01363
     Eigenvalues ---    0.01368   0.01374   0.01411   0.01422   0.01462
     Eigenvalues ---    0.01490   0.01550   0.01560   0.01585   0.02147
     Eigenvalues ---    0.02148   0.02155   0.02161   0.02164   0.02167
     Eigenvalues ---    0.02172   0.02823   0.03229   0.04303   0.04494
     Eigenvalues ---    0.04626   0.04768   0.04847   0.05183   0.05210
     Eigenvalues ---    0.05725   0.06014   0.06520   0.06946   0.06988
     Eigenvalues ---    0.07119   0.07779   0.09269   0.09978   0.10003
     Eigenvalues ---    0.10030   0.10055   0.10546   0.10562   0.10581
     Eigenvalues ---    0.10583   0.10690   0.10706   0.10782   0.10794
     Eigenvalues ---    0.10889   0.10945   0.11461   0.11687   0.11815
     Eigenvalues ---    0.14124   0.15011   0.16000   0.16000   0.16000
     Eigenvalues ---    0.16000   0.16000   0.16000   0.16000   0.16000
     Eigenvalues ---    0.16000   0.16000   0.16000   0.16000   0.16000
     Eigenvalues ---    0.16000   0.16000   0.16411   0.16866   0.17517
     Eigenvalues ---    0.18687   0.19725   0.19760   0.20839   0.22139
     Eigenvalues ---    0.23478   0.23484   0.23502   0.24963   0.24978
     Eigenvalues ---    0.25000   0.25000   0.25000   0.25000   0.25000
     Eigenvalues ---    0.25000   0.25000   0.25000   0.25000   0.25000
     Eigenvalues ---    0.25000   0.25000   0.25000   0.26620   0.26781
     Eigenvalues ---    0.28214   0.28320   0.28625   0.29581   0.31430
     Eigenvalues ---    0.31548   0.33522   0.33732   0.33753   0.33813
     Eigenvalues ---    0.33825   0.33826   0.33854   0.33857   0.33919
     Eigenvalues ---    0.33997   0.34140   0.34189   0.34246   0.34368
     Eigenvalues ---    0.34423   0.34441   0.34445   0.34599   0.34857
     Eigenvalues ---    0.35545   0.35558   0.35620   0.35857   0.37035
     Eigenvalues ---    0.41649   0.41732   0.41793   0.41860   0.42279
     Eigenvalues ---    0.42392   0.42399   0.42464   0.42863   0.43888
     Eigenvalues ---    0.45103   0.45905   0.46356   0.46456   0.46540
     Eigenvalues ---    0.46674   0.53389   0.54765   0.55217   0.55322
     Eigenvalues ---    0.55587   0.55701   0.89169   0.91337
 RFO step:  Lambda= 0.00000000D+00 EMin= 3.91549532D-03
 Linear search not attempted -- first point.
 Iteration  1 RMS(Cart)=  0.00019051 RMS(Int)=  0.00000001
 Iteration  2 RMS(Cart)=  0.00000002 RMS(Int)=  0.00000000
 ITry= 1 IFail=0 DXMaxC= 1.07D-03 DCOld= 1.00D+10 DXMaxT= 3.00D-01 DXLimC= 3.00D+00 Rises=F
 Variable       Old X    -DE/DX   Delta X   Delta X   Delta X     New X
                                 (Linear)    (Quad)   (Total)
    R1        2.90030   0.00000   0.00000   0.00000   0.00000   2.90030
    R2        2.89971   0.00000   0.00000  -0.00001  -0.00001   2.89970
    R3        2.07624   0.00000   0.00000   0.00000   0.00000   2.07625
    R4        2.68418   0.00000   0.00000   0.00000   0.00000   2.68418
    R5        2.91467   0.00000   0.00000   0.00001   0.00001   2.91467
    R6        2.08144   0.00000   0.00000   0.00000   0.00000   2.08144
    R7        2.66589   0.00001   0.00000   0.00002   0.00002   2.66591
    R8        2.05908   0.00000   0.00000   0.00000   0.00000   2.05908
    R9        2.62169  -0.00001   0.00000  -0.00003  -0.00003   2.62167
   R10        2.77606   0.00002   0.00000   0.00004   0.00004   2.77610
   R11        2.90301   0.00000   0.00000   0.00000   0.00000   2.90301
   R12        2.07578   0.00000   0.00000   0.00000   0.00000   2.07578
   R13        2.73939   0.00000   0.00000  -0.00001  -0.00001   2.73938
   R14        2.88807   0.00000   0.00000   0.00000   0.00000   2.88807
   R15        2.07335   0.00000   0.00000   0.00000   0.00000   2.07335
   R16        2.68569   0.00000   0.00000   0.00000   0.00000   2.68569
   R17        3.08856   0.00000   0.00000   0.00001   0.00001   3.08857
   R18        2.69372  -0.00001   0.00000  -0.00002  -0.00002   2.69371
   R19        2.69188   0.00000   0.00000   0.00000   0.00000   2.69187
   R20        2.69266   0.00000   0.00000   0.00000   0.00000   2.69265
   R21        2.06713   0.00000   0.00000   0.00000   0.00000   2.06713
   R22        2.07572   0.00000   0.00000   0.00000   0.00000   2.07572
   R23        2.67838   0.00000   0.00000   0.00001   0.00001   2.67839
   R24        2.69101   0.00000   0.00000   0.00000   0.00000   2.69101
   R25        2.76023  -0.00002   0.00000  -0.00003  -0.00003   2.76020
   R26        2.77018  -0.00002   0.00000  -0.00003  -0.00003   2.77016
   R27        3.38958   0.00000   0.00000   0.00000   0.00000   3.38958
   R28        2.63323   0.00001   0.00000   0.00001   0.00001   2.63324
   R29        2.63348   0.00000   0.00000   0.00000   0.00000   2.63348
   R30        2.63718   0.00000   0.00000  -0.00001  -0.00001   2.63717
   R31        2.04779   0.00000   0.00000   0.00000   0.00000   2.04779
   R32        2.63546   0.00000   0.00000   0.00000   0.00000   2.63546
   R33        2.04680   0.00000   0.00000   0.00000   0.00000   2.04681
   R34        2.63695   0.00000   0.00000   0.00000   0.00000   2.63695
   R35        2.85199   0.00000   0.00000  -0.00001  -0.00001   2.85198
   R36        2.63775   0.00000   0.00000   0.00000   0.00000   2.63775
   R37        2.84978   0.00000   0.00000   0.00000   0.00000   2.84978
   R38        2.04798   0.00000   0.00000   0.00000   0.00000   2.04798
   R39        2.07466   0.00000   0.00000   0.00000   0.00000   2.07466
   R40        2.07626   0.00000   0.00000   0.00000   0.00000   2.07626
   R41        2.06331   0.00000   0.00000   0.00000   0.00000   2.06331
   R42        2.06586   0.00000   0.00000   0.00000   0.00000   2.06586
   R43        2.07748   0.00000   0.00000   0.00000   0.00000   2.07748
   R44        2.06918   0.00000   0.00000   0.00000   0.00000   2.06918
   R45        2.06591   0.00000   0.00000   0.00000   0.00000   2.06592
   R46        2.07013   0.00000   0.00000   0.00000   0.00000   2.07013
   R47        2.07646   0.00000   0.00000   0.00000   0.00000   2.07646
   R48        2.06621   0.00000   0.00000   0.00000   0.00000   2.06621
   R49        2.07784   0.00000   0.00000   0.00000   0.00000   2.07784
   R50        2.07094   0.00000   0.00000   0.00001   0.00001   2.07095
   R51        2.54847   0.00000   0.00000   0.00000   0.00000   2.54847
   R52        2.55342   0.00000   0.00000   0.00000   0.00000   2.55342
   R53        2.54939   0.00000   0.00000   0.00000   0.00000   2.54940
   R54        2.56592   0.00000   0.00000   0.00001   0.00001   2.56593
   R55        2.54515   0.00000   0.00000   0.00000   0.00000   2.54515
   R56        2.54614   0.00000   0.00000   0.00000   0.00000   2.54614
    A1        1.92104   0.00000   0.00000   0.00000   0.00000   1.92104
    A2        1.91395   0.00000   0.00000   0.00000   0.00000   1.91395
    A3        1.92810   0.00000   0.00000   0.00000   0.00000   1.92810
    A4        1.89487   0.00000   0.00000   0.00001   0.00001   1.89488
    A5        1.88165   0.00000   0.00000  -0.00001  -0.00001   1.88164
    A6        1.92373   0.00000   0.00000   0.00000   0.00000   1.92372
    A7        1.94309   0.00000   0.00000   0.00001   0.00001   1.94310
    A8        1.87846   0.00000   0.00000   0.00001   0.00001   1.87848
    A9        1.90891   0.00000   0.00000  -0.00001  -0.00001   1.90889
   A10        1.84472   0.00000   0.00000   0.00000   0.00000   1.84471
   A11        1.96340   0.00000   0.00000   0.00001   0.00001   1.96341
   A12        1.92262   0.00000   0.00000  -0.00002  -0.00002   1.92261
   A13        1.95264   0.00000   0.00000  -0.00001  -0.00001   1.95263
   A14        1.97050   0.00000   0.00000   0.00001   0.00001   1.97052
   A15        1.85731   0.00000   0.00000   0.00000   0.00000   1.85730
   A16        1.86168   0.00000   0.00000   0.00002   0.00002   1.86170
   A17        1.88084   0.00000   0.00000   0.00000   0.00000   1.88083
   A18        1.94008   0.00000   0.00000  -0.00002  -0.00002   1.94006
   A19        1.89780   0.00000   0.00000   0.00000   0.00000   1.89780
   A20        1.93600   0.00000   0.00000   0.00001   0.00001   1.93601
   A21        1.96967   0.00000   0.00000   0.00000   0.00000   1.96967
   A22        1.89817   0.00000   0.00000   0.00001   0.00001   1.89818
   A23        1.87620   0.00000   0.00000   0.00001   0.00001   1.87621
   A24        1.88397   0.00000   0.00000  -0.00003  -0.00003   1.88394
   A25        1.94638   0.00000   0.00000   0.00000   0.00000   1.94639
   A26        1.90077   0.00000   0.00000   0.00000   0.00000   1.90077
   A27        1.92467   0.00000   0.00000   0.00000   0.00000   1.92467
   A28        1.89393   0.00000   0.00000   0.00000   0.00000   1.89394
   A29        1.86761   0.00000   0.00000  -0.00001  -0.00001   1.86759
   A30        1.93036   0.00000   0.00000   0.00000   0.00000   1.93036
   A31        2.02456   0.00000   0.00000   0.00001   0.00001   2.02457
   A32        2.09192   0.00001   0.00000   0.00002   0.00002   2.09195
   A33        2.00419   0.00000   0.00000   0.00001   0.00001   2.00420
   A34        2.00658   0.00000   0.00000   0.00001   0.00001   2.00659
   A35        2.00041   0.00000   0.00000   0.00000   0.00000   2.00041
   A36        1.86697   0.00000   0.00000   0.00003   0.00003   1.86699
   A37        1.90776   0.00000   0.00000  -0.00003  -0.00003   1.90773
   A38        2.00321   0.00000   0.00000  -0.00002  -0.00002   2.00319
   A39        1.89226   0.00000   0.00000   0.00001   0.00001   1.89226
   A40        1.85703   0.00000   0.00000   0.00001   0.00001   1.85704
   A41        1.93203   0.00000   0.00000   0.00000   0.00000   1.93203
   A42        2.00736   0.00000   0.00000  -0.00001  -0.00001   2.00735
   A43        1.82399   0.00000   0.00000  -0.00003  -0.00003   1.82397
   A44        1.89994   0.00000   0.00000   0.00000   0.00000   1.89993
   A45        1.81731   0.00001   0.00000   0.00003   0.00003   1.81734
   A46        2.11105   0.00000   0.00000  -0.00001  -0.00001   2.11105
   A47        1.89360   0.00000   0.00000   0.00000   0.00000   1.89360
   A48        1.89568   0.00000   0.00000   0.00001   0.00001   1.89569
   A49        2.07563  -0.00001   0.00000  -0.00002  -0.00002   2.07561
   A50        2.07759   0.00001   0.00000   0.00004   0.00004   2.07763
   A51        2.12995   0.00000   0.00000  -0.00001  -0.00001   2.12994
   A52        2.06845   0.00000   0.00000   0.00001   0.00001   2.06846
   A53        2.10383   0.00000   0.00000  -0.00001  -0.00001   2.10382
   A54        2.11090   0.00000   0.00000   0.00000   0.00000   2.11089
   A55        2.06802   0.00000   0.00000   0.00001   0.00001   2.06803
   A56        2.10827   0.00000   0.00000   0.00000   0.00000   2.10827
   A57        2.10689   0.00000   0.00000   0.00000   0.00000   2.10688
   A58        2.10412   0.00000   0.00000  -0.00001  -0.00001   2.10411
   A59        2.08715   0.00000   0.00000   0.00000   0.00000   2.08716
   A60        2.09113   0.00000   0.00000   0.00000   0.00000   2.09114
   A61        2.10506   0.00000   0.00000   0.00000   0.00000   2.10506
   A62        2.08218   0.00000   0.00000   0.00001   0.00001   2.08219
   A63        2.09470   0.00000   0.00000  -0.00001  -0.00001   2.09469
   A64        2.09069   0.00000   0.00000   0.00000   0.00000   2.09069
   A65        2.09669   0.00000   0.00000   0.00000   0.00000   2.09669
   A66        2.09581   0.00000   0.00000   0.00000   0.00000   2.09581
   A67        1.95807   0.00000   0.00000   0.00001   0.00001   1.95808
   A68        1.93777   0.00000   0.00000   0.00001   0.00001   1.93777
   A69        1.85799   0.00000   0.00000   0.00000   0.00000   1.85799
   A70        1.90361   0.00000   0.00000   0.00000   0.00000   1.90361
   A71        1.89736   0.00000   0.00000  -0.00001  -0.00001   1.89735
   A72        1.90777   0.00000   0.00000   0.00000   0.00000   1.90776
   A73        1.85748   0.00000   0.00000   0.00000   0.00000   1.85748
   A74        1.93966   0.00000   0.00000   0.00000   0.00000   1.93966
   A75        1.94853   0.00000   0.00000   0.00000   0.00000   1.94853
   A76        1.90074   0.00000   0.00000   0.00000   0.00000   1.90074
   A77        1.91100   0.00000   0.00000   0.00000   0.00000   1.91100
   A78        1.90535   0.00000   0.00000   0.00000   0.00000   1.90535
   A79        1.85852   0.00000   0.00000   0.00000   0.00000   1.85852
   A80        1.94306   0.00000   0.00000   0.00000   0.00000   1.94306
   A81        1.93983   0.00000   0.00000   0.00000   0.00000   1.93983
   A82        1.91058   0.00000   0.00000   0.00000   0.00000   1.91058
   A83        1.90293   0.00000   0.00000   0.00000   0.00000   1.90293
   A84        1.90792   0.00000   0.00000   0.00000   0.00000   1.90792
   A85        1.86058   0.00000   0.00000   0.00000   0.00000   1.86058
   A86        1.93696   0.00000   0.00000   0.00000   0.00000   1.93696
   A87        1.95790   0.00000   0.00000   0.00000   0.00000   1.95789
   A88        1.90292   0.00000   0.00000   0.00000   0.00000   1.90292
   A89        1.90785   0.00000   0.00000   0.00000   0.00000   1.90785
   A90        1.89672   0.00000   0.00000   0.00000   0.00000   1.89671
   A91        1.94740   0.00000   0.00000   0.00000   0.00000   1.94740
   A92        1.94302   0.00000   0.00000   0.00000   0.00000   1.94302
   A93        1.94700   0.00000   0.00000   0.00000   0.00000   1.94700
   A94        1.87066   0.00000   0.00000   0.00000   0.00000   1.87066
   A95        1.88183   0.00000   0.00000   0.00000   0.00000   1.88183
   A96        1.87002   0.00000   0.00000   0.00000   0.00000   1.87002
   A97        1.93817   0.00000   0.00000   0.00000   0.00000   1.93817
   A98        1.95312   0.00000   0.00000   0.00000   0.00000   1.95312
[...]
 0000288,-0.00000412,0.00001354,0.00000189,-0.00087545,0.00016144,0.000
 19723,0.00017052,0.00006307,-0.00004212,-0.00038547,-0.00039066,0.0003
 6673,0.00026412,-0.00007030,-0.00007969,0.00090255,0.00214703,-0.00133
 268,-0.00011559,-0.00045158,0.00042150,-0.00062585,-0.00062125,0.00018
 032,-0.00033196,-0.00031688,0.00051372,-0.01398805,-0.03778222,0.52847
 764,0.00002067,-0.00015609,-0.00006886,0.00004494,0.00000608,-0.000072
 23,-0.00002895,-0.00071549,-0.00000422,-0.00030635,-0.00052264,-0.0004
 9493,0.00010199,0.00021258,0.00021887,-0.00001382,0.00004433,0.0000093
 7,0.00002324,0.00000495,0.00000624,-0.00000650,0.00001577,-0.00000767,
 -0.00000003,0.00004011,-0.00000949,0.00003641,-0.00002141,-0.00000139,
 -0.00014526,0.00049250,0.00027394,0.00055586,0.00042545,0.00002564,-0.
 00006304,0.00009647,0.00006324,-0.00014885,0.00012933,-0.00003402,-0.0
 0014396,0.00002769,-0.00008599,0.00207119,0.00059204,0.00050243,-0.000
 24907,0.00004618,-0.00016427,-0.00146425,0.00014953,-0.00063757,-0.001
 17628,-0.00033219,-0.00033059,-0.00096870,0.00005707,0.00025523,0.0002
 2856,-0.00020954,-0.00003879,0.00022287,-0.00001370,-0.00013210,0.0007
 9965,-0.00097348,0.00058113,0.00045931,-0.00013471,-0.00051863,-0.0011
 7369,-0.00064057,0.00079022,-0.00019554,0.00034926,-0.00001476,-0.0000
 1725,-0.00003103,-0.00003521,0.00694964,-0.00717648,-0.00405634,-0.000
 21199,-0.00018960,-0.00027320,0.00040913,0.00035605,0.00071441,-0.0000
 8662,0.00017666,-0.00042857,0.00000915,-0.00000260,-0.00004738,0.00000
 166,-0.00000637,0.00000984,0.00000202,-0.00000112,0.00000657,-0.000006
 93,0.00000693,0.00000692,0.00001927,-0.00007788,0.00004680,-0.00001284
 ,0.00001049,-0.00000762,0.00000322,0.00000908,-0.00000922,-0.00000442,
 0.00001787,-0.00000040,0.00009860,0.00005831,0.00007500,-0.00000549,-0
 .00000681,-0.00002211,-0.00002864,-0.00000584,-0.00000378,0.00000532,0
 .00000575,0.00000462,0.00137193,-0.00047223,0.00047109,-0.00028852,-0.
 00004777,-0.00001322,-0.00088083,0.00038996,-0.00005715,-0.00019835,0.
 00003204,0.00005181,0.00005366,0.00010124,-0.00043625,0.00004752,-0.00
 008668,0.00016483,-0.00007457,-0.00006589,0.00007526,-0.00003545,0.000
 00789,0.00013547,-0.10908189,-0.06501065,-0.02798108,0.16354519,-0.000
 06161,-0.00012718,-0.00012066,-0.00011891,0.00013171,-0.00007854,-0.00
 040968,-0.00111225,0.00026912,-0.00027638,-0.00050172,-0.00050790,0.00
 003083,0.00008946,0.00006716,-0.00002255,0.00005688,-0.00000689,0.0000
 8615,0.00000535,0.00001633,-0.00000564,0.00002604,-0.00001567,-0.00000
 464,0.00004586,-0.00004283,0.00005582,-0.00000807,0.00000555,0.0002033
 5,0.00068993,0.00034670,0.00162368,0.00063306,-0.00004787,0.00008586,0
 .00002168,-0.00001672,0.00002418,0.00008231,0.00004129,-0.00002517,0.0
 0010740,0.00006298,0.00104471,0.00016026,0.00052525,-0.00006615,0.0000
 5548,-0.00007245,0.00069876,-0.00092026,0.00030059,-0.00056382,0.00027
 565,-0.00046185,-0.00347799,0.00154720,0.00144477,0.00081067,-0.001091
 48,-0.00020801,0.00085262,-0.00031862,-0.00085799,0.00140426,-0.000243
 43,0.00160334,0.00011058,-0.00116415,0.00030695,-0.00250532,-0.0002396
 8,0.00206251,0.00162367,-0.00015031,0.00196074,-0.00017925,-0.00002390
 ,-0.00016645,-0.02317012,-0.04200936,-0.01338964,-0.00072657,-0.000494
 99,-0.00081381,0.00264611,-0.00161418,-0.00283432,-0.00091445,-0.00043
 658,-0.00064499,-0.00005783,0.00000156,0.00005028,0.00000189,-0.000002
 03,0.00001117,0.00001705,0.00001416,-0.00000658,0.00000132,-0.00000354
 ,-0.00000189,-0.00001482,-0.00001344,0.00001164,0.00000551,0.00000403,
 0.00000061,0.00000124,-0.00000345,-0.00000490,-0.00000787,0.00000748,0
 .00000238,0.00000817,-0.00005170,0.00001986,0.00000411,0.00000065,-0.0
 0000227,-0.00000944,0.00000500,-0.00000197,0.00001153,0.00002523,-0.00
 000333,0.00141210,-0.00039703,0.00071656,-0.00024586,-0.00002084,-0.00
 003004,-0.00000985,0.00042224,-0.00041832,-0.00027577,0.00002551,0.000
 03357,0.00183099,0.00076042,-0.00223504,-0.00014262,-0.00061107,0.0009
 7167,-0.00075406,-0.00048989,0.00032905,-0.00049024,0.00015699,0.00077
 098,-0.06740872,-0.18664449,-0.04691985,0.11692119,0.22364810,0.000015
 34,-0.00009278,-0.00005000,0.00003692,-0.00001679,-0.00004199,0.000031
 04,-0.00025575,-0.00006520,-0.00017963,-0.00032774,-0.00036958,0.00006
 815,0.00013884,0.00013022,-0.00001911,0.00003186,0.00001153,-0.0000021
 1,0.00000153,0.00000261,-0.00000257,0.00000426,-0.00000016,0.00000254,
 0.00000475,0.00001211,0.00001005,-0.00001560,-0.00000139,-0.00010036,0
 .00022580,0.00022777,0.00007151,0.00014024,0.00009364,-0.00004725,0.00
 005590,0.00006382,-0.00009853,0.00007701,-0.00001274,-0.00009480,0.000
 01389,-0.00003065,0.00120163,0.00051483,0.00038750,-0.00011522,0.00001
 325,-0.00007017,-0.00066018,-0.00005569,-0.00042539,-0.00062822,-0.000
 29170,0.00012982,-0.00010603,-0.00011728,-0.00041869,0.00002269,0.0000
 3811,0.00007267,0.00003990,-0.00002059,0.00015292,-0.00025921,0.000321
 07,-0.00048719,-0.00050768,0.00023595,0.00033598,0.00111907,0.00046277
 ,-0.00015534,-0.00006232,-0.00081661,0.00056210,-0.00000512,-0.0000198
 9,0.00001891,-0.00124724,0.00239377,0.01058479,-0.00024256,0.00026333,
 -0.00002861,0.00038812,-0.00088685,-0.00053507,-0.00005835,-0.00004090
 ,-0.00007929,0.00001131,-0.00000081,-0.00005492,0.00000533,-0.00000182
 ,0.00000912,-0.00000293,-0.00000293,0.00000495,-0.00000373,0.00000325,
 0.00000644,0.00001390,-0.00004546,0.00002256,-0.00000893,0.00000610,-0
 .00000533,0.00000077,0.00000475,-0.00000270,-0.00000274,0.00001203,-0.
 00000030,0.00006456,0.00003933,0.00004321,-0.00000101,-0.00000532,-0.0
 0000889,-0.00002027,-0.00000209,-0.00000198,0.00000403,0.00000135,-0.0
 0000036,0.00050986,-0.00004926,0.00001262,-0.00009025,-0.00003390,0.00
 002867,0.00023659,0.00009437,-0.00037072,-0.00011657,0.00002301,0.0000
 4631,0.00009118,-0.00016406,-0.00012843,0.00001458,-0.00004545,0.00010
 999,0.00000843,0.00003441,0.00002773,-0.00001342,0.00007201,0.00005977
 ,-0.02838598,-0.04556984,-0.08949452,0.06764219,0.09234282,0.12624736,
 0.00008887,-0.00006092,0.00004958,0.00016045,-0.00012928,-0.00000629,0
 .00029388,0.00008416,-0.00022125,-0.00000942,-0.00007006,0.00007086,0.
 00009955,0.00009813,0.00017151,0.00001438,-0.00000996,0.00001249,-0.00
 004443,0.00000377,-0.00001053,-0.00000391,-0.00000104,0.00000034,0.000
 00556,0.00001187,0.00001528,0.00000429,-0.00001281,-0.00000897,-0.0003
 4486,-0.00000105,-0.00007189,-0.00073895,-0.00006157,0.00003465,-0.000
 15150,0.00011036,0.00007726,-0.00019021,0.00008132,-0.00008760,-0.0001
 3512,-0.00004960,-0.00016643,0.00081631,0.00024419,0.00025959,-0.00009
 851,0.00000184,-0.00008584,0.00002019,-0.00011069,0.00012631,-0.000469
 00,-0.00014470,-0.00016965,0.00180947,-0.00103979,-0.00093139,-0.00051
 867,0.00104572,0.00007373,-0.00044066,0.00028476,0.00056033,-0.0007992
 8,0.00053062,0.00122683,0.00004851,0.00020825,-0.00041954,0.00037786,0
 .00417019,-0.00432712,0.00047277,0.00098780,-0.00053693,0.00007836,-0.
 00008680,-0.00010792,-0.02814514,0.01311528,0.00495817,0.00038063,-0.0
 0064678,-0.00019197,-0.00146612,-0.00110576,0.00369695,0.00051041,0.00
 016233,-0.00212686,0.00006071,-0.00000947,-0.00008874,-0.00000259,-0.0
 0000906,-0.00000024,-0.00000871,-0.00001199,0.00001449,-0.00001172,0.0
 0001416,0.00000827,0.00004013,-0.00008894,0.00004982,-0.00001909,0.000
 00841,-0.00000918,0.00000345,0.00001473,-0.00000974,0.00000196,0.00001
 443,-0.00000119,0.00009844,0.00009103,0.00006638,-0.00000793,-0.000008
 80,-0.00002365,-0.00002453,-0.00000908,-0.00000088,-0.00000438,-0.0000
 0880,0.00000553,0.00062965,-0.00012166,0.00023499,-0.00014347,-0.00005
 289,-0.00001381,-0.00001587,0.00025012,-0.00012698,-0.00005323,0.00001
 466,0.00000277,-0.00125500,-0.00024344,0.00105690,0.00015378,0.0002275
 4,-0.00038880,0.00054831,0.00029977,-0.00015270,0.00036306,-0.00014841
 ,-0.00040017,-0.24492272,0.06726188,0.01322928,-0.06956864,-0.02287095
 ,-0.01326278,0.37178657,-0.00006521,-0.00002727,-0.00007002,-0.0001223
 6,0.00011345,-0.00003282,-0.00030734,-0.00054609,0.00022827,-0.0001219
 4,-0.00018318,-0.00023583,-0.00003266,-0.00000075,-0.00004311,-0.00001
 327,0.00002599,-0.00001093,0.00005824,0.00000182,0.00001196,-0.0000007
 6,0.00001195,-0.00000817,-0.00000481,0.00001638,-0.00002907,0.00002119
 ,0.00000308,0.00000641,0.00022136,0.00029818,0.00016480,0.00103301,0.0
 0030394,-0.00004584,0.00010391,-0.00003780,-0.00004669,0.00009190,0.00
 000010,0.00005247,0.00004771,0.00006534,0.00009312,0.00015111,-0.00006
 346,0.00007896,-0.00000550,0.00002215,-0.00000111,0.00001944,-0.000163
 68,0.00003594,-0.00006792,0.00012759,-0.00009074,-0.00258468,0.0008976
 1,0.00106105,0.00074037,-0.00105136,-0.00009388,0.00059624,-0.00020088
 ,-0.00070068,0.00056348,-0.00187996,-0.00113903,0.00064689,-0.00063910
 ,0.00000156,-0.00017190,-0.00310607,0.00514122,0.00010781,-0.00009652,
 -0.00036067,0.00001094,0.00004354,0.00001124,0.03978175,-0.00808392,-0
 .00337095,0.00009611,0.00053558,0.00017898,0.00102448,-0.00109457,-0.0
 0000939,0.00076124,-0.00133608,0.00068264,-0.00005114,0.00000461,0.000
 06637,0.00000076,0.00000249,0.00000375,0.00001192,0.00001168,-0.000009
 12,0.00000529,-0.00000726,-0.00000496,-0.00002380,0.00003190,-0.000015
 04,0.00001060,-0.00000179,0.00000435,-0.00000064,-0.00000756,0.0000014
 9,-0.00000414,-0.00000331,0.00000150,-0.00003900,-0.00005899,-0.000019
 49,0.00000454,0.00000409,0.00000822,0.00000710,0.00000533,-0.00000047,
 0.00000604,0.00001389,-0.00000321,0.00020760,-0.00007678,0.00010859,-0
 .00001906,0.00001385,-0.00000460,0.00000619,0.00006377,-0.00004786,-0.
 00005587,-0.00000081,0.00001202,0.00110156,0.00062657,-0.00143535,-0.0
 0007652,-0.00032238,0.00051080,-0.00051966,-0.00033496,0.00021870,-0.0
 0033861,0.00007363,0.00049959,0.06036285,-0.09861275,-0.00032221,-0.03
 777296,0.01023522,-0.00275642,-0.06942686,0.09274177,0.00001466,-0.000
 00487,-0.00000014,0.00002430,-0.00003033,0.00000213,0.00006516,0.00012
 949,-0.00008513,0.00001489,-0.00000939,-0.00003627,0.00001331,0.000012
 19,0.00001350,-0.00000681,0.00000368,0.00000584,-0.00001689,-0.0000007
 9,-0.00000224,0.00000025,-0.00000329,0.00000350,0.00000129,-0.00000801
 ,0.00001383,-0.00000487,-0.00000381,-0.00000110,-0.00004108,-0.0000374
 3,0.00003514,-0.00028609,-0.00007182,0.00006201,-0.00002592,0.00001262
 ,0.00003026,-0.00002686,0.00000809,-0.00000343,-0.00002110,-0.00000642
 ,-0.00000399,0.00011393,0.00006999,0.00000270,0.00000156,-0.00000310,0
 .00000540,0.00002194,-0.00001971,0.00003574,-0.00006244,-0.00005174,0.
 00006694,0.00058219,-0.00022877,-0.00052209,-0.00015512,0.00025998,0.0
 0007819,-0.00012676,0.00001598,0.00027196,-0.00080042,0.00041847,0.000
 43129,-0.00012289,0.00025318,-0.00003500,0.00032455,0.00164423,-0.0013
 5603,-0.00060350,-0.00025645,0.00062092,-0.00006049,0.00003179,0.00005
 725,-0.00826886,0.00464585,0.01050993,-0.00030895,0.00031359,0.0000745
 8,-0.00015751,0.00066676,-0.00208534,-0.00151288,0.00085029,0.00034181
 ,0.00001051,-0.00000089,-0.00003276,0.00000355,0.00000042,0.00000309,-
 0.00000404,-0.00000300,0.00000254,-0.00000101,0.00000091,0.00000281,0.
 00000620,-0.00000874,0.00000099,-0.00000290,0.00000075,-0.00000158,-0.
 00000060,0.00000108,0.00000111,0.00000015,0.00000261,-0.00000012,0.000
 01474,0.00001208,0.00000599,0.00000061,-0.00000148,0.00000036,-0.00000
 488,0.00000002,-0.00000010,0.00000075,-0.00000192,-0.00000088,0.000062
 62,-0.00001466,-0.00003915,-0.00001134,-0.00000405,0.00000564,0.000037
 10,0.00004374,-0.00003908,-0.00002992,0.00000853,0.00000896,-0.0001841
 1,-0.00042948,0.00033551,-0.00001674,0.00012543,-0.00013642,0.00014669
 ,0.00013216,-0.00003676,0.00005213,0.00007894,-0.00010085,0.01833396,-
 0.00254880,-0.07564736,-0.01902501,-0.00207055,0.01064690,-0.04473553,
 0.00954688,0.08412662,0.00002080,-0.00001479,0.00001873,0.00003655,-0.
 00002482,-0.00000667,0.00005975,-0.00007953,-0.00001187,-0.00000311,-0
 .00000510,0.00007088,0.00002479,0.00001674,0.00003881,0.00001337,-0.00
 000441,-0.00000098,-0.00000221,0.00000227,-0.00000188,-0.00000149,0.00
 000192,-0.00000283,0.00000146,0.00000895,-0.00000726,0.00000504,-0.000
 00126,-0.00000194,-0.00008338,0.00003430,-0.00005230,-0.00005491,0.000
 05312,-0.00002591,-0.00003476,0.00003150,0.00000811,-0.00004456,0.0000
 2181,-0.00002634,-0.00003144,-0.00001025,-0.00004894,0.00012644,0.0000
 0222,0.00006504,-0.00002149,0.00000119,-0.00002513,0.00002006,-0.00001
 762,0.00003627,-0.00008590,0.00000899,-0.00010845,0.00014920,-0.000385
 33,0.00010132,0.00000065,0.00013239,-0.00004104,-0.00005852,0.00010940
 ,-0.00001462,0.00047440,-0.00052001,-0.00044813,0.00005241,0.00013554,
 -0.00008573,-0.00194558,0.00086523,-0.00024748,0.00026612,-0.00003626,
 -0.00067948,0.00007526,0.00002714,-0.00005094,0.01033613,0.00127969,-0
 .00171935,0.00084762,0.00043529,-0.00120652,-0.00048035,0.00119252,0.0
 0007057,0.00021960,0.00033447,-0.00032799,0.00001281,-0.00000330,-0.00
 000982,-0.00000270,-0.00000393,-0.00000158,0.00000025,-0.00000178,0.00
 000346,-0.00000374,0.00000447,0.00000079,0.00001001,-0.00002442,0.0000
 1509,-0.00000430,0.00000220,-0.00000203,0.00000133,0.00000399,-0.00000
 386,0.00000050,0.00000328,0.00000006,0.00002194,0.00001961,0.00001609,
 -0.00000225,-0.00000212,-0.00000700,-0.00000529,-0.00000249,0.00000006
 ,-0.00000157,-0.00000100,0.00000173,0.00015695,-0.00003179,0.00010090,
 -0.00003802,-0.00001824,-0.00001388,-0.00003193,0.00007558,0.00003741,
 0.00002197,-0.00000025,-0.00000671,-0.00027082,0.00000218,0.00011607,0
 .00003523,0.00005536,-0.00009569,0.00009822,0.00005324,-0.00001761,0.0
 0006682,-0.00003940,-0.00005210,-0.07661629,-0.00111337,0.02735246,0.0
 0950573,-0.00670007,-0.02526459,-0.02927388,0.00402499,0.05677846,0.08
 643707,-0.00004579,-0.00003263,-0.00005126,-0.00008649,0.00007818,-0.0
 0002338,-0.00025140,-0.00047214,0.00016745,-0.00010560,-0.00016885,-0.
 00017809,-0.00001781,0.00001089,-0.00001194,-0.00000954,0.00001781,-0.
 00000687,0.00004557,0.00000254,0.00000799,-0.00000138,0.00001137,-0.00
 000814,-0.00000401,0.00001909,-0.00002570,0.00002110,0.00000185,0.0000
 0420,0.00015910,0.00027292,0.00012154,0.00081705,0.00022527,-0.0000316
 1,0.00007100,-0.00001628,-0.00003455,0.00005614,0.00001241,0.00003127,
 0.00002646,0.00005246,0.00005482,0.00020380,-0.00005049,0.00011922,-0.
 00001854,0.00001943,-0.00001554,0.00006012,-0.00016003,0.00000178,-0.0
 0010991,0.00011573,-0.00012893,-0.00185157,0.00107525,0.00062693,0.000
 41839,-0.00058027,-0.00006622,0.00047739,-0.00021647,-0.00048338,-0.00
 064296,0.00018150,0.00000424,-0.00025449,-0.00047073,0.00085240,0.0008
 7259,-0.00125983,0.00090003,-0.00119403,-0.00166178,0.00079708,-0.0000
 2062,0.00003949,0.00004375,-0.00509060,0.00041890,0.03585397,0.0001309
 7,-0.00113053,0.00126670,0.00422579,-0.00295523,0.00017470,0.00013781,
 0.00037225,0.00019795,-0.00003813,0.00000203,0.00004954,-0.00000067,0.
 00000031,0.00000293,0.00001024,0.00000912,-0.00000606,0.00000287,-0.00
 000408,-0.00000355,-0.00001580,0.00001451,-0.00000459,0.00000701,-0.00
 000032,0.00000268,0.00000022,-0.00000435,-0.00000095,-0.00000338,-0.00
 000110,0.00000123,-0.00002275,-0.00004186,-0.00000803,0.00000259,0.000
 00247,0.00000311,0.00000359,0.00000332,-0.00000043,0.00000436,0.000011
 83,-0.00000187,0.00024486,-0.00007234,0.00012590,-0.00003115,0.0000046
 8,-0.00000760,-0.00001712,0.00006241,-0.00001499,-0.00004348,-0.000001
 20,0.00000777,0.00125075,0.00018258,-0.00156825,-0.00003995,-0.0003625
 9,0.00063602,-0.00063873,-0.00034057,0.00024189,-0.00031583,0.00009359
 ,0.00045407,0.00042528,-0.08106259,0.02698029,-0.00610904,-0.00054122,
 -0.04593505,0.00720380,0.01164177,-0.01347022,0.00010194,0.07665150,0.
 00005772,-0.00003817,-0.00000755,0.00010030,-0.00008792,-0.00000850,0.
 00025649,0.00026770,-0.00028901,0.00002607,-0.00007601,-0.00015584,0.0
 0006787,0.00006768,0.00008730,-0.00002244,0.00001629,0.00002125,-0.000
 05190,-0.00000231,-0.00000515,0.00000005,-0.00000976,0.00001140,0.0000
 0638,-0.00002608,0.00005026,-0.00001576,-0.00001541,-0.00000520,-0.000
 24940,-0.00006093,0.00014426,-0.00080677,-0.00010981,0.00019835,-0.000
 10587,0.00006088,0.00011198,-0.00011899,0.00004480,-0.00002027,-0.0000
 9818,-0.00002695,-0.00004252,0.00067528,0.00033105,0.00012260,-0.00003
 673,-0.00001001,-0.00000856,0.00009749,-0.00011702,-0.00000239,-0.0003
 4829,-0.00024434,0.00023741,0.00189022,-0.00097347,-0.00151264,-0.0004
 8176,0.00065557,0.00022692,-0.00042221,0.00010702,0.00088966,-0.000057
 05,0.00125088,0.00049389,-0.00031561,0.00033651,-0.00017291,0.00321820
 ,-0.00157364,-0.00098762,0.00172315,0.00060921,-0.00113399,-0.00012627
 ,-0.00007598,0.00004268,0.00799440,0.00728492,-0.03701663,-0.00201724,
 0.00066311,0.00005475,-0.00476360,0.00527009,-0.00026170,-0.00030572,-
 0.00063275,0.00039194,0.00003915,-0.00000282,-0.00012021,0.00001170,0.
 00000009,0.00001157,-0.00001399,-0.00001096,0.00000996,-0.00000461,0.0
 0000427,0.00001089,0.00002489,-0.00004211,0.00001170,-0.00001249,0.000
 00418,-0.00000656,-0.00000121,0.00000569,0.00000239,0.00000014,0.00001
 149,-0.00000100,0.00006837,0.00005854,0.00003501,-0.00000036,-0.000006
 22,-0.00000429,-0.00002088,-0.00000226,-0.00000134,0.00000174,-0.00000
 793,-0.00000128,0.00026042,-0.00002651,-0.00016987,-0.00005609,-0.0000
 2472,0.00002246,0.00009863,0.00009631,-0.00011580,-0.00011062,0.000032
 60,0.00003420,-0.00147779,-0.00049207,0.00152656,0.00002492,0.00052770
 ,-0.00081319,0.00073473,0.00045294,-0.00017595,0.00029958,0.00003826,-
 0.00044608,0.02301639,0.03425841,-0.26043207,-0.01711903,-0.03229255,-
 0.05721243,0.04268226,-0.00782320,-0.02763758,-0.05421567,-0.00764429,
 0.38401873\\-0.00000031,-0.00000435,0.00000063,0.00000293,-0.00000770,
 -0.00000446,-0.00000319,-0.00002870,0.00000392,-0.00000144,0.00000047,
 0.00000388,-0.00000297,0.00000092,0.00000365,-0.00000092,0.00000224,-0
 .00000032,0.00000031,0.00000094,0.00000253,-0.00000155,-0.00000023,-0.
 00000076,-0.00000112,-0.00000067,-0.00000084,0.00000015,-0.00000081,0.
 00000104,0.00000024,0.00001067,-0.00000131,0.00000193,0.00001497,-0.00
 000396,-0.00000538,0.00000553,0.00000822,0.00000114,-0.00000082,0.0000
 0139,-0.00000019,-0.00000206,0.00000039,0.00000335,0.00000022,-0.00000
 259,0.00000148,-0.00000137,0.00000174,-0.00000005,0.00000243,0.0000018
 4,-0.00000126,-0.00000241,0.00000361,0.00000761,0.00001851,0.00001049,
 -0.00000447,-0.00002184,0.00000496,0.00000024,0.00000802,-0.00002392,-
 0.00000634,-0.00000022,0.00001041,0.00000453,-0.00000199,-0.00000599,0
 .00000427,0.00000138,-0.00000888,-0.00000118,0.00000706,-0.00000557,-0
 .00000247,0.00000186,-0.00000289,-0.00000129,0.00000141,0.00000167,0.0
 0000067,0.00000195,0.00000117,-0.00000100,-0.00000161,-0.00000124,-0.0
 0000033,0.00000250,-0.00000141,0.00000268,-0.00000202,-0.00000965,-0.0
 0000008,0.00000126,0.00000116,-0.00000009,-0.00000118,0.00000168,-0.00
 000127,-0.00000006,0.00000044,-0.00000169,-0.00000419,0.00000097,-0.00
 000072,-0.00000416,0.00000080,-0.00000148,-0.00000264,0.00000129,-0.00
 000165,-0.00000249,0.00000053,0.00000130,-0.00000330,0.00000268,-0.000
 00064,-0.00000309,0.00000158,-0.00000017,-0.00000314,0.00000188,0.0000
 0060,-0.00000246,0.00000222,0.00000399,-0.00000108,0.00000008,0.000002
 43,0.00000108,0.00000263,0.00000144,0.00000113,0.00000165,0.00000122,0
 .00000190,0.00000283,-0.00000393,0.00000105,0.00000131,-0.00000197,0.0
 0000075,-0.00000314,-0.00000153,0.00000319,-0.00000324,-0.00000011,0.0
 0000020,-0.00000340,0.00000169,0.00000953,0.00000341,0.00000104,-0.000
 00088,-0.00000178,0.00000302,0.00000215,-0.00000037,0.00000252,0.00000
 215,-0.00000293\\\@


 WERE I TO AWAIT PERFECTION, MY BOOK WOULD NEVER BE FINISHED.
                                    -- HISTORY OF CHINESE WRITING

                                       TAI T'UNG, 13TH CENTURY
 Job cpu time:       0 days 21 hours  8 minutes 25.7 seconds.
 Elapsed time:       0 days  0 hours 42 minutes 41.4 seconds.
 File lengths (MBytes):  RWF=   2332 Int=      0 D2E=      0 Chk=     41 Scr=      1
 Normal termination of Gaussian 16 at Sat Jun 15 07:47:29 2019.
