 Entering Gaussian System, Link 0=g16
 Input=clay_new-glu_gluC6-BCDR-Na2_1Me2O-bisCF3-ts-lcwpbe_d3bj-custom-pcm_thf.gjf
 Output=clay_new-glu_gluC6-BCDR-Na2_1Me2O-bisCF3-ts-lcwpbe_d3bj-custom-pcm_thf.out
 Initial command:
 /home/ekwan/sw/g16/l1.exe "/scratch/users/ekwan/clay_new-glu_gluC6-BCDR-Na2_1Me2O-bisCF3-ts-lcwpbe_d3bj-custom-pcm_thf/Gau-6889.inp" -scrdir="/scratch/users/ekwan/clay_new-glu_gluC6-BCDR-Na2_1Me2O-bisCF3-ts-lcwpbe_d3bj-custom-pcm_thf/"
 Entering Link 1 = /home/ekwan/sw/g16/l1.exe PID=      6892.
  
 Copyright (c) 1988,1990,1992,1993,1995,1998,2003,2009,2016,
            Gaussian, Inc.  All Rights Reserved.
  
 This is part of the Gaussian(R) 16 program.  It is based on
 the Gaussian(R) 09 system (copyright 2009, Gaussian, Inc.),
 the Gaussian(R) 03 system (copyright 2003, Gaussian, Inc.),
 the Gaussian(R) 98 system (copyright 1998, Gaussian, Inc.),
 the Gaussian(R) 94 system (copyright 1995, Gaussian, Inc.),
 the Gaussian 92(TM) system (copyright 1992, Gaussian, Inc.),
 the Gaussian 90(TM) system (copyright 1990, Gaussian, Inc.),
 the Gaussian 88(TM) system (copyright 1988, Gaussian, Inc.),
 the Gaussian 86(TM) system (copyright 1986, Carnegie Mellon
 University), and the Gaussian 82(TM) system (copyright 1983,
 Carnegie Mellon University). Gaussian is a federally registered
 trademark of Gaussian, Inc.
  
 This software contains proprietary and confidential information,
 including trade secrets, belonging to Gaussian, Inc.
  
 This software is provided under written license and may be
 used, copied, transmitted, or stored only in accord with that
 written license.
  
 The following legend is applicable only to US Government
 contracts under FAR:
  
                    RESTRICTED RIGHTS LEGEND
  
 Use, reproduction and disclosure by the US Government is
 subject to restrictions as set forth in subparagraphs (a)
 and (c) of the Commercial Computer Software - Restricted
 Rights clause in FAR 52.227-19.
  
 Gaussian, Inc.
 340 Quinnipiac St., Bldg. 40, Wallingford CT 06492
  
  
 ---------------------------------------------------------------
 Warning -- This program may not be used in any manner that
 competes with the business of Gaussian, Inc. or will provide
 assistance to any competitor of Gaussian, Inc.  The licensee
 of this program is prohibited from giving any competitor of
 Gaussian, Inc. access to this program.  By using this program,
 the user acknowledges that Gaussian, Inc. is engaged in the
 business of creating and licensing software in the field of
 computational chemistry and represents and warrants to the
 licensee that it is not a competitor of Gaussian, Inc. and that
 it will not use this program in any manner prohibited above.
 ---------------------------------------------------------------
  

 Cite this work as:
 Gaussian 16, Revision A.03,
 M. J. Frisch, G. W. Trucks, H. B. Schlegel, G. E. Scuseria, 
 M. A. Robb, J. R. Cheeseman, G. Scalmani, V. Barone, 
 G. A. Petersson, H. Nakatsuji, X. Li, M. Caricato, A. V. Marenich, 
 J. Bloino, B. G. Janesko, R. Gomperts, B. Mennucci, H. P. Hratchian, 
 J. V. Ortiz, A. F. Izmaylov, J. L. Sonnenberg, D. Williams-Young, 
 F. Ding, F. Lipparini, F. Egidi, J. Goings, B. Peng, A. Petrone, 
 T. Henderson, D. Ranasinghe, V. G. Zakrzewski, J. Gao, N. Rega, 
 G. Zheng, W. Liang, M. Hada, M. Ehara, K. Toyota, R. Fukuda, 
 J. Hasegawa, M. Ishida, T. Nakajima, Y. Honda, O. Kitao, H. Nakai, 
 T. Vreven, K. Throssell, J. A. Montgomery, Jr., J. E. Peralta, 
 F. Ogliaro, M. J. Bearpark, J. J. Heyd, E. N. Brothers, K. N. Kudin, 
 V. N. Staroverov, T. A. Keith, R. Kobayashi, J. Normand, 
 K. Raghavachari, A. P. Rendell, J. C. Burant, S. S. Iyengar, 
 J. Tomasi, M. Cossi, J. M. Millam, M. Klene, C. Adamo, R. Cammi, 
 J. W. Ochterski, R. L. Martin, K. Morokuma, O. Farkas, 
 J. B. Foresman, and D. J. Fox, Gaussian, Inc., Wallingford CT, 2016.
 
 ******************************************
 Gaussian 16:  AS64L-G16RevA.03 25-Dec-2016
                16-Jun-2019 
 ******************************************
 %mem=48GB
 %nprocshared=32
 Will use up to   32 processors via shared memory.
 ----------------------------------------------------------------------
 #p opt=(ts,calcfc,noeigentest,maxstep=5) freq=noraman pop=none extraba
 sis 6-31g* scrf=(pcm,solvent=tetrahydrofuran) lc-wpbe empiricaldispers
 ion=gd3bj
 ----------------------------------------------------------------------
 1/5=1,8=5,10=4,11=1,18=20,26=3,38=1/1,3;
 2/9=110,12=2,17=6,18=5,40=1/2;
 3/5=1,6=6,7=1,10=1,11=2,25=1,30=1,70=2201,71=2,72=20,74=-41,124=41,140=1/1,2,3;
 4//1;
 5/5=2,38=5,53=20/2;
 8/6=4,10=90,11=11/1;
 11/6=1,8=1,9=11,15=111,16=1/1,2,10;
 10/6=1,13=1/2;
 7/10=1,18=20,25=1/1,2,3,16;
 1/5=1,8=5,10=4,11=1,18=20,26=3/3(2);
 2/9=110/2;
 99//99;
 2/9=110/2;
 3/5=7,6=1,7=1,11=2,25=1,30=1,70=2205,71=1,72=20,74=-41,82=7,124=41/1,2,3;
 4/5=5,16=3,69=1/1;
 5/5=2,38=5,53=20/2;
 7//1,2,3,16;
 1/5=1,8=5,11=1,18=20,26=3/3(-5);
 2/9=110/2;
 99/9=1/99;
 Leave Link    1 at Sun Jun 16 16:14:45 2019, MaxMem=  6442450944 cpu:               4.1 elap:               0.2
 (Enter /home/ekwan/sw/g16/l101.exe)
 -----
 title
 -----
 Symbolic Z-matrix:
 Charge =  0 Multiplicity = 1
 6                    -1.71661   1.54223   2.26935 
 6                    -2.02017   2.30299   0.99069 
 6                    -1.13039   3.53274   0.88932 
 6                     0.6022    2.51479   2.17276 
 6                    -0.22842   1.25226   2.36611 
 1                    -1.25434   4.01408  -0.08993 
 1                    -1.77526   1.66593   0.13169 
 1                    -2.01959   2.16419   3.12122 
 1                     0.39199   3.19193   3.01089 
 1                     0.02048   0.53037   1.58026 
 8                     0.22596   3.15663   0.9484 
 8                    -1.46978   4.41143   1.91042 
 8                    -3.36504   2.7126    0.94247 
 8                    -2.45593   0.33845   2.25889 
 8                     0.05631   0.70176   3.63557 
 6                     2.10378   2.25486   2.09929 
 1                     2.37488   1.78177   3.06151 
 1                     2.57966   3.25761   2.1164 
 8                     2.49587   1.52435   1.00161 
 6                    -4.17401   1.88705   0.13513 
 1                    -3.8612    1.9283   -0.91625 
 1                    -4.14446   0.84848   0.47622 
 1                    -5.19555   2.2645    0.21014 
 6                    -3.02404   0.00938   3.50677 
 1                    -2.25556  -0.10756   4.27666 
 1                    -3.73912   0.77773   3.82828 
 1                    -3.55313  -0.93422   3.37544 
 6                     0.74226  -0.52948   3.57325 
 1                     0.12447  -1.29672   3.0924 
 1                     1.6855   -0.44282   3.02474 
 1                     0.95109  -0.83183   4.60168 
 6                     3.71644  -1.60813  -1.37175 
 6                     3.1396   -0.27457  -0.92469 
 6                     1.82013  -0.44584  -0.24793 
 6                     2.16726  -2.74971   0.23909 
 6                     3.61063  -2.57024  -0.19632 
 1                     1.12937   0.37462  -0.17223 
 1                     3.76639   0.13078  -0.11369 
 1                     3.15044  -1.98845  -2.23045 
 1                     1.59735  -3.22166  -0.56623 
 1                     4.18778  -2.15962   0.63982 
 8                     1.51757  -1.46604   0.45577 
 8                    -0.55033   0.08459  -3.86581 
 8                     2.98507   0.70306  -1.9155 
 8                     5.07213  -1.42721  -1.69689 
 8                     4.08899  -3.84088  -0.55586 
 6                     1.99973  -3.53905   1.50912 
 1                     2.31006  -4.57373   1.30969 
 1                     0.93721  -3.54851   1.79071 
 8                     2.78482  -2.95101   2.50871 
 16                   -0.3328   -0.04134  -2.42393 
 8                    -0.16255   1.2492   -1.71482 
 8                     0.7428   -1.00991  -2.05682 
 6                    -1.81026  -0.76021  -1.73958 
 6                    -3.03279  -0.54208  -2.35062 
 6                    -1.71395  -1.51197  -0.58068 
 6                    -4.17352  -1.08699  -1.78061 
 1                    -3.08878   0.03938  -3.26466 
 6                    -2.86005  -2.06447  -0.03659 
 1                    -0.75122  -1.67504  -0.11068 
 6                    -4.09494  -1.8546   -0.62892 
 1                    -4.99122  -2.2856   -0.19696 
 6                     4.1984    1.29764  -2.35553 
 1                     4.8674    1.4853   -1.51011 
 1                     4.70758   0.66379  -3.08347 
 1                     3.92755   2.24636  -2.81933 
 6                     5.48721  -2.15229  -2.83785 
 1                     5.31503  -3.2248   -2.71085 
 1                     4.96172  -1.80634  -3.73684 
 1                     6.55561  -1.96685  -2.95722 
 6                     5.22621  -4.24505   0.18366 
 1                     6.06967  -3.5702    0.00308 
 1                     5.00737  -4.2713    1.25738 
 1                     5.48531  -5.24801  -0.15751 
 6                     2.66015  -3.61949   3.7424 
 1                     3.28994  -3.09314   4.46019 
 1                     1.62146  -3.60691   4.09675 
 1                     2.99395  -4.66228   3.6638 
 6                    -0.79541   5.64904   1.81895 
 1                    -1.20305   6.29351   2.59828 
 1                     0.28229   5.53045   1.97248 
 1                    -0.96602   6.1143    0.83964 
 11                    1.61101   2.5814   -0.86416 
 8                     3.16395   4.26946  -1.10096 
 6                     3.26659   5.39317  -1.94466 
 1                     4.17009   5.335    -2.56463 
 1                     2.38731   5.40282  -2.59024 
 1                     3.29633   6.32087  -1.36001 
 6                     4.25673   4.15678  -0.21119 
 1                     4.30577   5.02737   0.45446 
 1                     4.09385   3.24822   0.37281 
 1                     5.20049   4.08016  -0.76626 
 6                    -5.51579  -0.78099  -2.37754 
 9                    -6.02539   0.35327  -1.86052 
 9                    -6.40302  -1.75688  -2.13589 
 9                    -5.44253  -0.61071  -3.7048 
 6                    -2.75015  -2.96748   1.15633 
 9                    -1.68882  -2.66672   1.92247 
 9                    -2.60861  -4.25001   0.78001 
 9                    -3.84527  -2.9056    1.9311 
 
 Add virtual bond connecting atoms H37        and H10        Dist= 3.93D+00.
 Add virtual bond connecting atoms H37        and O19        Dist= 4.04D+00.
 Add virtual bond connecting atoms H38        and O19        Dist= 4.14D+00.
 Add virtual bond connecting atoms O52        and H37        Dist= 4.15D+00.
 Add virtual bond connecting atoms O53        and C34        Dist= 4.12D+00.
 Add virtual bond connecting atoms O84        and Na83       Dist= 4.36D+00.
 Add virtual bond connecting atoms Na83       and O11        Dist= 4.45D+00.
 Add virtual bond connecting atoms Na83       and O19        Dist= 4.38D+00.
 Add virtual bond connecting atoms Na83       and H37        Dist= 4.46D+00.
 Add virtual bond connecting atoms Na83       and O52        Dist= 4.49D+00.
 Add virtual bond connecting atoms H91        and H18        Dist= 4.36D+00.
 ITRead=  0  0  0  0  0  0  0  0  0  0  0  0  0  0  0  0  0  0  0  0
 ITRead=  0  0  0  0  0  0  0  0  0  0  0  0  0  0  0  0  0  0  0  0
 ITRead=  0  0  0  0  0  0  0  0  0  0  0  0  0  0  0  0  0  0  0  0
 ITRead=  0  0  0  0  0  0  0  0  0  0  0  0  0  0  0  0  0  0  0  0
 ITRead=  0  0  0  0  0  0  0  0  0  0  0  0  0  0  0  0  0  0  0  0
 MicOpt= -1 -1 -1 -1 -1 -1 -1 -1 -1 -1 -1 -1 -1 -1 -1 -1 -1 -1 -1 -1
 MicOpt= -1 -1 -1 -1 -1 -1 -1 -1 -1 -1 -1 -1 -1 -1 -1 -1 -1 -1 -1 -1
 MicOpt= -1 -1 -1 -1 -1 -1 -1 -1 -1 -1 -1 -1 -1 -1 -1 -1 -1 -1 -1 -1
 MicOpt= -1 -1 -1 -1 -1 -1 -1 -1 -1 -1 -1 -1 -1 -1 -1 -1 -1 -1 -1 -1
 MicOpt= -1 -1 -1 -1 -1 -1 -1 -1 -1 -1 -1 -1 -1 -1 -1 -1 -1 -1 -1 -1
 NAtoms=    100 NQM=      100 NQMF=       0 NMMI=      0 NMMIF=      0
                NMic=       0 NMicF=      0.
                    Isotopes and Nuclear Properties:
 (Nuclear quadrupole moments (NQMom) in fm**2, nuclear magnetic moments (NMagM)
  in nuclear magnetons)

  Atom         1           2           3           4           5           6           7           8           9          10
 IAtWgt=          12          12          12          12          12           1           1           1           1           1
 AtmWgt=  12.0000000  12.0000000  12.0000000  12.0000000  12.0000000   1.0078250   1.0078250   1.0078250   1.0078250   1.0078250
 NucSpn=           0           0           0           0           0           1           1           1           1           1
 AtZEff=   0.0000000   0.0000000   0.0000000   0.0000000   0.0000000   0.0000000   0.0000000   0.0000000   0.0000000   0.0000000
 NQMom=    0.0000000   0.0000000   0.0000000   0.0000000   0.0000000   0.0000000   0.0000000   0.0000000   0.0000000   0.0000000
 NMagM=    0.0000000   0.0000000   0.0000000   0.0000000   0.0000000   2.7928460   2.7928460   2.7928460   2.7928460   2.7928460
 AtZNuc=   6.0000000   6.0000000   6.0000000   6.0000000   6.0000000   1.0000000   1.0000000   1.0000000   1.0000000   1.0000000

  Atom        11          12          13          14          15          16          17          18          19          20
 IAtWgt=          16          16          16          16          16          12           1           1          16          12
 AtmWgt=  15.9949146  15.9949146  15.9949146  15.9949146  15.9949146  12.0000000   1.0078250   1.0078250  15.9949146  12.0000000
 NucSpn=           0           0           0           0           0           0           1           1           0           0
 AtZEff=   0.0000000   0.0000000   0.0000000   0.0000000   0.0000000   0.0000000   0.0000000   0.0000000   0.0000000   0.0000000
 NQMom=    0.0000000   0.0000000   0.0000000   0.0000000   0.0000000   0.0000000   0.0000000   0.0000000   0.0000000   0.0000000
 NMagM=    0.0000000   0.0000000   0.0000000   0.0000000   0.0000000   0.0000000   2.7928460   2.7928460   0.0000000   0.0000000
 AtZNuc=   8.0000000   8.0000000   8.0000000   8.0000000   8.0000000   6.0000000   1.0000000   1.0000000   8.0000000   6.0000000

  Atom        21          22          23          24          25          26          27          28          29          30
 IAtWgt=           1           1           1          12           1           1           1          12           1           1
 AtmWgt=   1.0078250   1.0078250   1.0078250  12.0000000   1.0078250   1.0078250   1.0078250  12.0000000   1.0078250   1.0078250
 NucSpn=           1           1           1           0           1           1           1           0           1           1
 AtZEff=   0.0000000   0.0000000   0.0000000   0.0000000   0.0000000   0.0000000   0.0000000   0.0000000   0.0000000   0.0000000
 NQMom=    0.0000000   0.0000000   0.0000000   0.0000000   0.0000000   0.0000000   0.0000000   0.0000000   0.0000000   0.0000000
 NMagM=    2.7928460   2.7928460   2.7928460   0.0000000   2.7928460   2.7928460   2.7928460   0.0000000   2.7928460   2.7928460
 AtZNuc=   1.0000000   1.0000000   1.0000000   6.0000000   1.0000000   1.0000000   1.0000000   6.0000000   1.0000000   1.0000000

  Atom        31          32          33          34          35          36          37          38          39          40
 IAtWgt=           1          12          12          12          12          12           1           1           1           1
 AtmWgt=   1.0078250  12.0000000  12.0000000  12.0000000  12.0000000  12.0000000   1.0078250   1.0078250   1.0078250   1.0078250
 NucSpn=           1           0           0           0           0           0           1           1           1           1
 AtZEff=   0.0000000   0.0000000   0.0000000   0.0000000   0.0000000   0.0000000   0.0000000   0.0000000   0.0000000   0.0000000
 NQMom=    0.0000000   0.0000000   0.0000000   0.0000000   0.0000000   0.0000000   0.0000000   0.0000000   0.0000000   0.0000000
 NMagM=    2.7928460   0.0000000   0.0000000   0.0000000   0.0000000   0.0000000   2.7928460   2.7928460   2.7928460   2.7928460
 AtZNuc=   1.0000000   6.0000000   6.0000000   6.0000000   6.0000000   6.0000000   1.0000000   1.0000000   1.0000000   1.0000000

  Atom        41          42          43          44          45          46          47          48          49          50
 IAtWgt=           1          16          16          16          16          16          12           1           1          16
 AtmWgt=   1.0078250  15.9949146  15.9949146  15.9949146  15.9949146  15.9949146  12.0000000   1.0078250   1.0078250  15.9949146
 NucSpn=           1           0           0           0           0           0           0           1           1           0
 AtZEff=   0.0000000   0.0000000   0.0000000   0.0000000   0.0000000   0.0000000   0.0000000   0.0000000   0.0000000   0.0000000
 NQMom=    0.0000000   0.0000000   0.0000000   0.0000000   0.0000000   0.0000000   0.0000000   0.0000000   0.0000000   0.0000000
 NMagM=    2.7928460   0.0000000   0.0000000   0.0000000   0.0000000   0.0000000   0.0000000   2.7928460   2.7928460   0.0000000
 AtZNuc=   1.0000000   8.0000000   8.0000000   8.0000000   8.0000000   8.0000000   6.0000000   1.0000000   1.0000000   8.0000000

  Atom        51          52          53          54          55          56          57          58          59          60
 IAtWgt=          32          16          16          12          12          12          12           1          12           1
 AtmWgt=  31.9720718  15.9949146  15.9949146  12.0000000  12.0000000  12.0000000  12.0000000   1.0078250  12.0000000   1.0078250
 NucSpn=           0           0           0           0           0           0           0           1           0           1
 AtZEff=   0.0000000   0.0000000   0.0000000   0.0000000   0.0000000   0.0000000   0.0000000   0.0000000   0.0000000   0.0000000
 NQMom=    0.0000000   0.0000000   0.0000000   0.0000000   0.0000000   0.0000000   0.0000000   0.0000000   0.0000000   0.0000000
 NMagM=    0.0000000   0.0000000   0.0000000   0.0000000   0.0000000   0.0000000   0.0000000   2.7928460   0.0000000   2.7928460
 AtZNuc=  16.0000000   8.0000000   8.0000000   6.0000000   6.0000000   6.0000000   6.0000000   1.0000000   6.0000000   1.0000000

  Atom        61          62          63          64          65          66          67          68          69          70
 IAtWgt=          12           1          12           1           1           1          12           1           1           1
 AtmWgt=  12.0000000   1.0078250  12.0000000   1.0078250   1.0078250   1.0078250  12.0000000   1.0078250   1.0078250   1.0078250
 NucSpn=           0           1           0           1           1           1           0           1           1           1
 AtZEff=   0.0000000   0.0000000   0.0000000   0.0000000   0.0000000   0.0000000   0.0000000   0.0000000   0.0000000   0.0000000
 NQMom=    0.0000000   0.0000000   0.0000000   0.0000000   0.0000000   0.0000000   0.0000000   0.0000000   0.0000000   0.0000000
 NMagM=    0.0000000   2.7928460   0.0000000   2.7928460   2.7928460   2.7928460   0.0000000   2.7928460   2.7928460   2.7928460
 AtZNuc=   6.0000000   1.0000000   6.0000000   1.0000000   1.0000000   1.0000000   6.0000000   1.0000000   1.0000000   1.0000000

  Atom        71          72          73          74          75          76          77          78          79          80
 IAtWgt=          12           1           1           1          12           1           1           1          12           1
 AtmWgt=  12.0000000   1.0078250   1.0078250   1.0078250  12.0000000   1.0078250   1.0078250   1.0078250  12.0000000   1.0078250
 NucSpn=           0           1           1           1           0           1           1           1           0           1
 AtZEff=   0.0000000   0.0000000   0.0000000   0.0000000   0.0000000   0.0000000   0.0000000   0.0000000   0.0000000   0.0000000
 NQMom=    0.0000000   0.0000000   0.0000000   0.0000000   0.0000000   0.0000000   0.0000000   0.0000000   0.0000000   0.0000000
 NMagM=    0.0000000   2.7928460   2.7928460   2.7928460   0.0000000   2.7928460   2.7928460   2.7928460   0.0000000   2.7928460
 AtZNuc=   6.0000000   1.0000000   1.0000000   1.0000000   6.0000000   1.0000000   1.0000000   1.0000000   6.0000000   1.0000000

  Atom        81          82          83          84          85          86          87          88          89          90
 IAtWgt=           1           1          23          16          12           1           1           1          12           1
 AtmWgt=   1.0078250   1.0078250  22.9897697  15.9949146  12.0000000   1.0078250   1.0078250   1.0078250  12.0000000   1.0078250
 NucSpn=           1           1           3           0           0           1           1           1           0           1
 AtZEff=   0.0000000   0.0000000   0.0000000   0.0000000   0.0000000   0.0000000   0.0000000   0.0000000   0.0000000   0.0000000
 NQMom=    0.0000000   0.0000000  10.4000000   0.0000000   0.0000000   0.0000000   0.0000000   0.0000000   0.0000000   0.0000000
 NMagM=    2.7928460   2.7928460   2.2175200   0.0000000   0.0000000   2.7928460   2.7928460   2.7928460   0.0000000   2.7928460
 AtZNuc=   1.0000000   1.0000000  11.0000000   8.0000000   6.0000000   1.0000000   1.0000000   1.0000000   6.0000000   1.0000000

  Atom        91          92          93          94          95          96          97          98          99         100
 IAtWgt=           1           1          12          19          19          19          12          19          19          19
 AtmWgt=   1.0078250   1.0078250  12.0000000  18.9984033  18.9984033  18.9984033  12.0000000  18.9984033  18.9984033  18.9984033
 NucSpn=           1           1           0           1           1           1           0           1           1           1
 AtZEff=   0.0000000   0.0000000   0.0000000   0.0000000   0.0000000   0.0000000   0.0000000   0.0000000   0.0000000   0.0000000
 NQMom=    0.0000000   0.0000000   0.0000000   0.0000000   0.0000000   0.0000000   0.0000000   0.0000000   0.0000000   0.0000000
 NMagM=    2.7928460   2.7928460   0.0000000   2.6288670   2.6288670   2.6288670   0.0000000   2.6288670   2.6288670   2.6288670
 AtZNuc=   1.0000000   1.0000000   6.0000000   9.0000000   9.0000000   9.0000000   6.0000000   9.0000000   9.0000000   9.0000000
 Leave Link  101 at Sun Jun 16 16:14:46 2019, MaxMem=  6442450944 cpu:              18.1 elap:               0.7
 (Enter /home/ekwan/sw/g16/l103.exe)

 GradGradGradGradGradGradGradGradGradGradGradGradGradGradGradGradGradGrad
 Berny optimization.
 Initialization pass.
                           ----------------------------
                           !    Initial Parameters    !
                           ! (Angstroms and Degrees)  !
 --------------------------                            --------------------------
 ! Name  Definition              Value          Derivative Info.                !
 --------------------------------------------------------------------------------
 ! R1    R(1,2)                  1.5185         calculate D2E/DX2 analytically  !
 ! R2    R(1,5)                  1.5193         calculate D2E/DX2 analytically  !
 ! R3    R(1,8)                  1.0974         calculate D2E/DX2 analytically  !
 ! R4    R(1,14)                 1.4127         calculate D2E/DX2 analytically  !
 ! R5    R(2,3)                  1.5213         calculate D2E/DX2 analytically  !
 ! R6    R(2,7)                  1.0971         calculate D2E/DX2 analytically  !
 ! R7    R(2,13)                 1.4067         calculate D2E/DX2 analytically  !
 ! R8    R(3,6)                  1.0982         calculate D2E/DX2 analytically  !
 ! R9    R(3,11)                 1.4088         calculate D2E/DX2 analytically  !
 ! R10   R(3,12)                 1.3892         calculate D2E/DX2 analytically  !
 ! R11   R(4,5)                  1.5236         calculate D2E/DX2 analytically  !
 ! R12   R(4,9)                  1.0978         calculate D2E/DX2 analytically  !
 ! R13   R(4,11)                 1.4327         calculate D2E/DX2 analytically  !
 ! R14   R(4,16)                 1.5257         calculate D2E/DX2 analytically  !
 ! R15   R(5,10)                 1.0957         calculate D2E/DX2 analytically  !
 ! R16   R(5,15)                 1.4127         calculate D2E/DX2 analytically  !
 ! R17   R(10,37)                2.0797         calculate D2E/DX2 analytically  !
 ! R18   R(11,83)                2.3526         calculate D2E/DX2 analytically  !
 ! R19   R(12,79)                1.4124         calculate D2E/DX2 analytically  !
 ! R20   R(13,20)                1.4099         calculate D2E/DX2 analytically  !
 ! R21   R(14,24)                1.41           calculate D2E/DX2 analytically  !
 ! R22   R(15,28)                1.4108         calculate D2E/DX2 analytically  !
 ! R23   R(16,17)                1.106          calculate D2E/DX2 analytically  !
 ! R24   R(16,18)                1.1101         calculate D2E/DX2 analytically  !
 ! R25   R(16,19)                1.3756         calculate D2E/DX2 analytically  !
 ! R26   R(18,91)                2.3093         calculate D2E/DX2 analytically  !
 ! R27   R(19,37)                2.1371         calculate D2E/DX2 analytically  !
 ! R28   R(19,38)                2.1909         calculate D2E/DX2 analytically  !
 ! R29   R(19,83)                2.3198         calculate D2E/DX2 analytically  !
 ! R30   R(20,21)                1.0977         calculate D2E/DX2 analytically  !
 ! R31   R(20,22)                1.0935         calculate D2E/DX2 analytically  !
 ! R32   R(20,23)                1.0916         calculate D2E/DX2 analytically  !
 ! R33   R(24,25)                1.0941         calculate D2E/DX2 analytically  !
 ! R34   R(24,26)                1.0978         calculate D2E/DX2 analytically  !
 ! R35   R(24,27)                1.0898         calculate D2E/DX2 analytically  !
 ! R36   R(28,29)                1.0961         calculate D2E/DX2 analytically  !
 ! R37   R(28,30)                1.0946         calculate D2E/DX2 analytically  !
 ! R38   R(28,31)                1.0921         calculate D2E/DX2 analytically  !
 ! R39   R(32,33)                1.5202         calculate D2E/DX2 analytically  !
 ! R40   R(32,36)                1.5227         calculate D2E/DX2 analytically  !
 ! R41   R(32,39)                1.0965         calculate D2E/DX2 analytically  !
 ! R42   R(32,45)                1.4058         calculate D2E/DX2 analytically  !
 ! R43   R(33,34)                1.4928         calculate D2E/DX2 analytically  !
 ! R44   R(33,38)                1.1022         calculate D2E/DX2 analytically  !
 ! R45   R(33,44)                1.4005         calculate D2E/DX2 analytically  !
 ! R46   R(34,37)                1.0752         calculate D2E/DX2 analytically  !
 ! R47   R(34,42)                1.2758         calculate D2E/DX2 analytically  !
 ! R48   R(34,53)                2.1797         calculate D2E/DX2 analytically  !
 ! R49   R(35,36)                1.5183         calculate D2E/DX2 analytically  !
 ! R50   R(35,40)                1.0937         calculate D2E/DX2 analytically  !
 ! R51   R(35,42)                1.4549         calculate D2E/DX2 analytically  !
 ! R52   R(35,47)                1.5047         calculate D2E/DX2 analytically  !
 ! R53   R(36,41)                1.0958         calculate D2E/DX2 analytically  !
 ! R54   R(36,46)                1.4045         calculate D2E/DX2 analytically  !
 ! R55   R(37,52)                2.194          calculate D2E/DX2 analytically  !
 ! R56   R(37,83)                2.3623         calculate D2E/DX2 analytically  !
 ! R57   R(43,51)                1.4636         calculate D2E/DX2 analytically  !
 ! R58   R(44,63)                1.421          calculate D2E/DX2 analytically  !
 ! R59   R(45,67)                1.4141         calculate D2E/DX2 analytically  !
 ! R60   R(46,71)                1.4155         calculate D2E/DX2 analytically  !
 ! R61   R(47,48)                1.0985         calculate D2E/DX2 analytically  !
 ! R62   R(47,49)                1.0992         calculate D2E/DX2 analytically  !
 ! R63   R(47,50)                1.4005         calculate D2E/DX2 analytically  !
 ! R64   R(50,75)                1.4087         calculate D2E/DX2 analytically  !
 ! R65   R(51,52)                1.4823         calculate D2E/DX2 analytically  !
 ! R66   R(51,53)                1.4933         calculate D2E/DX2 analytically  !
 ! R67   R(51,54)                1.7799         calculate D2E/DX2 analytically  !
 ! R68   R(52,83)                2.3757         calculate D2E/DX2 analytically  !
 ! R69   R(54,55)                1.384          calculate D2E/DX2 analytically  !
 ! R70   R(54,56)                1.3847         calculate D2E/DX2 analytically  !
 ! R71   R(55,57)                1.3868         calculate D2E/DX2 analytically  !
 ! R72   R(55,58)                1.0848         calculate D2E/DX2 analytically  !
 ! R73   R(56,59)                1.3838         calculate D2E/DX2 analytically  !
 ! R74   R(56,60)                1.0837         calculate D2E/DX2 analytically  !
 ! R75   R(57,61)                1.3863         calculate D2E/DX2 analytically  !
 ! R76   R(57,93)                1.5006         calculate D2E/DX2 analytically  !
 ! R77   R(59,61)                1.3856         calculate D2E/DX2 analytically  !
 ! R78   R(59,97)                1.5002         calculate D2E/DX2 analytically  !
 ! R79   R(61,62)                1.0843         calculate D2E/DX2 analytically  !
 ! R80   R(63,64)                1.0943         calculate D2E/DX2 analytically  !
 ! R81   R(63,65)                1.0913         calculate D2E/DX2 analytically  !
 ! R82   R(63,66)                1.0902         calculate D2E/DX2 analytically  !
 ! R83   R(67,68)                1.0936         calculate D2E/DX2 analytically  !
 ! R84   R(67,69)                1.0973         calculate D2E/DX2 analytically  !
 ! R85   R(67,70)                1.0909         calculate D2E/DX2 analytically  !
 ! R86   R(71,72)                1.0952         calculate D2E/DX2 analytically  !
 ! R87   R(71,73)                1.0961         calculate D2E/DX2 analytically  !
 ! R88   R(71,74)                1.0906         calculate D2E/DX2 analytically  !
 ! R89   R(75,76)                1.0904         calculate D2E/DX2 analytically  !
 ! R90   R(75,77)                1.0975         calculate D2E/DX2 analytically  !
 ! R91   R(75,78)                1.0977         calculate D2E/DX2 analytically  !
 ! R92   R(79,80)                1.0904         calculate D2E/DX2 analytically  !
 ! R93   R(79,81)                1.095          calculate D2E/DX2 analytically  !
 ! R94   R(79,82)                1.0976         calculate D2E/DX2 analytically  !
 ! R95   R(83,84)                2.3059         calculate D2E/DX2 analytically  !
 ! R96   R(84,85)                1.4089         calculate D2E/DX2 analytically  !
 ! R97   R(84,89)                1.4137         calculate D2E/DX2 analytically  !
 ! R98   R(85,86)                1.0973         calculate D2E/DX2 analytically  !
 ! R99   R(85,87)                1.0909         calculate D2E/DX2 analytically  !
 ! R100  R(85,88)                1.097          calculate D2E/DX2 analytically  !
 ! R101  R(89,90)                1.097          calculate D2E/DX2 analytically  !
 ! R102  R(89,91)                1.0923         calculate D2E/DX2 analytically  !
 ! R103  R(89,92)                1.0976         calculate D2E/DX2 analytically  !
 ! R104  R(93,94)                1.3467         calculate D2E/DX2 analytically  !
 ! R105  R(93,95)                1.3409         calculate D2E/DX2 analytically  !
 ! R106  R(93,96)                1.3401         calculate D2E/DX2 analytically  !
 ! R107  R(97,98)                1.3431         calculate D2E/DX2 analytically  !
 ! R108  R(97,99)                1.3441         calculate D2E/DX2 analytically  !
 ! R109  R(97,100)               1.3429         calculate D2E/DX2 analytically  !
 ! A1    A(2,1,5)              110.186          calculate D2E/DX2 analytically  !
 ! A2    A(2,1,8)              108.3319         calculate D2E/DX2 analytically  !
 ! A3    A(2,1,14)             108.4235         calculate D2E/DX2 analytically  !
 ! A4    A(5,1,8)              109.2188         calculate D2E/DX2 analytically  !
 ! A5    A(5,1,14)             110.5153         calculate D2E/DX2 analytically  !
 ! A6    A(8,1,14)             110.1324         calculate D2E/DX2 analytically  !
 ! A7    A(1,2,3)              110.1312         calculate D2E/DX2 analytically  !
 ! A8    A(1,2,7)              108.8902         calculate D2E/DX2 analytically  !
 ! A9    A(1,2,13)             111.4613         calculate D2E/DX2 analytically  !
 ! A10   A(3,2,7)              106.6574         calculate D2E/DX2 analytically  !
 ! A11   A(3,2,13)             108.7546         calculate D2E/DX2 analytically  !
 ! A12   A(7,2,13)             110.8334         calculate D2E/DX2 analytically  !
 ! A13   A(2,3,6)              110.3482         calculate D2E/DX2 analytically  !
 ! A14   A(2,3,11)             110.1523         calculate D2E/DX2 analytically  !
 ! A15   A(2,3,12)             108.6284         calculate D2E/DX2 analytically  !
 ! A16   A(6,3,11)             105.2536         calculate D2E/DX2 analytically  !
 ! A17   A(6,3,12)             110.5243         calculate D2E/DX2 analytically  !
 ! A18   A(11,3,12)            111.9163         calculate D2E/DX2 analytically  !
 ! A19   A(5,4,9)              108.0503         calculate D2E/DX2 analytically  !
 ! A20   A(5,4,11)             109.665          calculate D2E/DX2 analytically  !
 ! A21   A(5,4,16)             113.6718         calculate D2E/DX2 analytically  !
 ! A22   A(9,4,11)             109.0154         calculate D2E/DX2 analytically  !
 ! A23   A(9,4,16)             109.2876         calculate D2E/DX2 analytically  !
 ! A24   A(11,4,16)            107.0762         calculate D2E/DX2 analytically  !
 ! A25   A(1,5,4)              111.5788         calculate D2E/DX2 analytically  !
 ! A26   A(1,5,10)             107.6127         calculate D2E/DX2 analytically  !
 ! A27   A(1,5,15)             109.2106         calculate D2E/DX2 analytically  !
 ! A28   A(4,5,10)             109.3344         calculate D2E/DX2 analytically  !
 ! A29   A(4,5,15)             109.091          calculate D2E/DX2 analytically  !
 ! A30   A(10,5,15)            109.9968         calculate D2E/DX2 analytically  !
 ! A31   A(5,10,37)            140.788          calculate D2E/DX2 analytically  !
 ! A32   A(3,11,4)             114.0976         calculate D2E/DX2 analytically  !
 ! A33   A(3,11,83)            126.8553         calculate D2E/DX2 analytically  !
 ! A34   A(4,11,83)            113.2206         calculate D2E/DX2 analytically  !
 ! A35   A(3,12,79)            112.9538         calculate D2E/DX2 analytically  !
 ! A36   A(2,13,20)            113.4347         calculate D2E/DX2 analytically  !
 ! A37   A(1,14,24)            113.7755         calculate D2E/DX2 analytically  !
 ! A38   A(5,15,28)            113.4773         calculate D2E/DX2 analytically  !
 ! A39   A(4,16,17)            105.7974         calculate D2E/DX2 analytically  !
 ! A40   A(4,16,18)            105.5021         calculate D2E/DX2 analytically  !
 ! A41   A(4,16,19)            114.1686         calculate D2E/DX2 analytically  !
 ! A42   A(17,16,18)           105.54           calculate D2E/DX2 analytically  !
 ! A43   A(17,16,19)           113.4048         calculate D2E/DX2 analytically  !
 ! A44   A(18,16,19)           111.7042         calculate D2E/DX2 analytically  !
 ! A45   A(16,18,91)           105.413          calculate D2E/DX2 analytically  !
 ! A46   A(16,19,37)           122.8025         calculate D2E/DX2 analytically  !
 ! A47   A(16,19,38)           155.4052         calculate D2E/DX2 analytically  !
 ! A48   A(16,19,83)           106.9234         calculate D2E/DX2 analytically  !
 ! A49   A(37,19,38)            75.4631         calculate D2E/DX2 analytically  !
 ! A50   A(38,19,83)            95.8318         calculate D2E/DX2 analytically  !
 ! A51   A(13,20,21)           111.2818         calculate D2E/DX2 analytically  !
 ! A52   A(13,20,22)           111.2224         calculate D2E/DX2 analytically  !
 ! A53   A(13,20,23)           107.1665         calculate D2E/DX2 analytically  !
 ! A54   A(21,20,22)           109.0704         calculate D2E/DX2 analytically  !
 ! A55   A(21,20,23)           108.6323         calculate D2E/DX2 analytically  !
 ! A56   A(22,20,23)           109.4048         calculate D2E/DX2 analytically  !
 ! A57   A(14,24,25)           111.3899         calculate D2E/DX2 analytically  !
 ! A58   A(14,24,26)           110.9959         calculate D2E/DX2 analytically  !
 ! A59   A(14,24,27)           106.9203         calculate D2E/DX2 analytically  !
 ! A60   A(25,24,26)           109.0419         calculate D2E/DX2 analytically  !
 ! A61   A(25,24,27)           109.4688         calculate D2E/DX2 analytically  !
 ! A62   A(26,24,27)           108.9701         calculate D2E/DX2 analytically  !
 ! A63   A(15,28,29)           110.8677         calculate D2E/DX2 analytically  !
 ! A64   A(15,28,30)           111.8408         calculate D2E/DX2 analytically  !
 ! A65   A(15,28,31)           107.0364         calculate D2E/DX2 analytically  !
 ! A66   A(29,28,30)           108.7403         calculate D2E/DX2 analytically  !
 ! A67   A(29,28,31)           109.0924         calculate D2E/DX2 analytically  !
 ! A68   A(30,28,31)           109.21           calculate D2E/DX2 analytically  !
 ! A69   A(33,32,36)           107.5112         calculate D2E/DX2 analytically  !
 ! A70   A(33,32,39)           109.7974         calculate D2E/DX2 analytically  !
 ! A71   A(33,32,45)           108.726          calculate D2E/DX2 analytically  !
 ! A72   A(36,32,39)           110.4574         calculate D2E/DX2 analytically  !
 ! A73   A(36,32,45)           109.0788         calculate D2E/DX2 analytically  !
 ! A74   A(39,32,45)           111.1792         calculate D2E/DX2 analytically  !
 ! A75   A(32,33,34)           111.5976         calculate D2E/DX2 analytically  !
 ! A76   A(32,33,38)           108.8571         calculate D2E/DX2 analytically  !
 ! A77   A(32,33,44)           116.4986         calculate D2E/DX2 analytically  !
 ! A78   A(34,33,38)           102.1964         calculate D2E/DX2 analytically  !
 ! A79   A(34,33,44)           107.656          calculate D2E/DX2 analytically  !
 ! A80   A(38,33,44)           109.0612         calculate D2E/DX2 analytically  !
 ! A81   A(33,34,37)           120.8133         calculate D2E/DX2 analytically  !
 ! A82   A(33,34,42)           123.4664         calculate D2E/DX2 analytically  !
 ! A83   A(33,34,53)            95.1829         calculate D2E/DX2 analytically  !
 ! A84   A(37,34,42)           114.7733         calculate D2E/DX2 analytically  !
 ! A85   A(37,34,53)            86.4666         calculate D2E/DX2 analytically  !
 ! A86   A(42,34,53)            97.6772         calculate D2E/DX2 analytically  !
 ! A87   A(36,35,40)           109.5874         calculate D2E/DX2 analytically  !
 ! A88   A(36,35,42)           111.2803         calculate D2E/DX2 analytically  !
 ! A89   A(36,35,47)           114.1996         calculate D2E/DX2 analytically  !
 ! A90   A(40,35,42)           104.9334         calculate D2E/DX2 analytically  !
 ! A91   A(40,35,47)           109.7017         calculate D2E/DX2 analytically  !
 ! A92   A(42,35,47)           106.7032         calculate D2E/DX2 analytically  !
 ! A93   A(32,36,35)           111.2318         calculate D2E/DX2 analytically  !
 ! A94   A(32,36,41)           108.4003         calculate D2E/DX2 analytically  !
 ! A95   A(32,36,46)           110.5086         calculate D2E/DX2 analytically  !
 ! A96   A(35,36,41)           109.037          calculate D2E/DX2 analytically  !
 ! A97   A(35,36,46)           106.8736         calculate D2E/DX2 analytically  !
 ! A98   A(41,36,46)           110.7902         calculate D2E/DX2 analytically  !
 ! A99   A(10,37,19)            80.6652         calculate D2E/DX2 analytically  !
 ! A100  A(10,37,34)           117.3249         calculate D2E/DX2 analytically  !
 ! A101  A(10,37,52)           104.3978         calculate D2E/DX2 analytically  !
 ! A102  A(10,37,83)           106.5929         calculate D2E/DX2 analytically  !
 ! A103  A(19,37,34)            92.2012         calculate D2E/DX2 analytically  !
 ! A104  A(19,37,52)           123.2478         calculate D2E/DX2 analytically  !
 ! A105  A(34,37,52)           129.2709         calculate D2E/DX2 analytically  !
 ! A106  A(34,37,83)           124.1408         calculate D2E/DX2 analytically  !
 ! A107  A(19,38,33)           106.1828         calculate D2E/DX2 analytically  !
 ! A108  A(34,42,35)           121.1649         calculate D2E/DX2 analytically  !
 ! A109  A(33,44,63)           114.6416         calculate D2E/DX2 analytically  !
 ! A110  A(32,45,67)           113.8073         calculate D2E/DX2 analytically  !
 ! A111  A(36,46,71)           113.4666         calculate D2E/DX2 analytically  !
 ! A112  A(35,47,48)           108.0247         calculate D2E/DX2 analytically  !
 ! A113  A(35,47,49)           109.1689         calculate D2E/DX2 analytically  !
 ! A114  A(35,47,50)           108.6484         calculate D2E/DX2 analytically  !
 ! A115  A(48,47,49)           108.1476         calculate D2E/DX2 analytically  !
 ! A116  A(48,47,50)           111.5129         calculate D2E/DX2 analytically  !
 ! A117  A(49,47,50)           111.2623         calculate D2E/DX2 analytically  !
 ! A118  A(47,50,75)           112.0996         calculate D2E/DX2 analytically  !
 ! A119  A(43,51,52)           114.4206         calculate D2E/DX2 analytically  !
 ! A120  A(43,51,53)           113.8947         calculate D2E/DX2 analytically  !
 ! A121  A(43,51,54)           106.867          calculate D2E/DX2 analytically  !
 ! A122  A(52,51,53)           111.3694         calculate D2E/DX2 analytically  !
 ! A123  A(52,51,54)           105.2502         calculate D2E/DX2 analytically  !
 ! A124  A(53,51,54)           103.9698         calculate D2E/DX2 analytically  !
 ! A125  A(37,52,51)            93.2634         calculate D2E/DX2 analytically  !
 ! A126  A(51,52,83)           138.1796         calculate D2E/DX2 analytically  !
 ! A127  A(34,53,51)           113.0905         calculate D2E/DX2 analytically  !
 ! A128  A(51,54,55)           119.9883         calculate D2E/DX2 analytically  !
 ! A129  A(51,54,56)           118.9025         calculate D2E/DX2 analytically  !
 ! A130  A(55,54,56)           121.0971         calculate D2E/DX2 analytically  !
 ! A131  A(54,55,57)           118.8946         calculate D2E/DX2 analytically  !
 ! A132  A(54,55,58)           120.1377         calculate D2E/DX2 analytically  !
 ! A133  A(57,55,58)           120.9656         calculate D2E/DX2 analytically  !
 ! A134  A(54,56,59)           119.2238         calculate D2E/DX2 analytically  !
 ! A135  A(54,56,60)           120.4286         calculate D2E/DX2 analytically  !
 ! A136  A(59,56,60)           120.3443         calculate D2E/DX2 analytically  !
 ! A137  A(55,57,61)           120.8261         calculate D2E/DX2 analytically  !
 ! A138  A(55,57,93)           119.4834         calculate D2E/DX2 analytically  !
 ! A139  A(61,57,93)           119.6108         calculate D2E/DX2 analytically  !
 ! A140  A(56,59,61)           120.6376         calculate D2E/DX2 analytically  !
 ! A141  A(56,59,97)           119.4926         calculate D2E/DX2 analytically  !
 ! A142  A(61,59,97)           119.7618         calculate D2E/DX2 analytically  !
 ! A143  A(57,61,59)           119.3097         calculate D2E/DX2 analytically  !
 ! A144  A(57,61,62)           120.2794         calculate D2E/DX2 analytically  !
 ! A145  A(59,61,62)           120.4109         calculate D2E/DX2 analytically  !
 ! A146  A(44,63,64)           110.7643         calculate D2E/DX2 analytically  !
 ! A147  A(44,63,65)           111.2177         calculate D2E/DX2 analytically  !
 ! A148  A(44,63,66)           106.4825         calculate D2E/DX2 analytically  !
 ! A149  A(64,63,65)           109.2499         calculate D2E/DX2 analytically  !
 ! A150  A(64,63,66)           109.3491         calculate D2E/DX2 analytically  !
 ! A151  A(65,63,66)           109.7294         calculate D2E/DX2 analytically  !
 ! A152  A(45,67,68)           111.2798         calculate D2E/DX2 analytically  !
 ! A153  A(45,67,69)           111.0267         calculate D2E/DX2 analytically  !
 ! A154  A(45,67,70)           106.7734         calculate D2E/DX2 analytically  !
 ! A155  A(68,67,69)           109.2044         calculate D2E/DX2 analytically  !
 ! A156  A(68,67,70)           109.4864         calculate D2E/DX2 analytically  !
 ! A157  A(69,67,70)           109.0124         calculate D2E/DX2 analytically  !
 ! A158  A(46,71,72)           110.8961         calculate D2E/DX2 analytically  !
 ! A159  A(46,71,73)           110.9911         calculate D2E/DX2 analytically  !
 ! A160  A(46,71,74)           106.8593         calculate D2E/DX2 analytically  !
 ! A161  A(72,71,73)           109.2711         calculate D2E/DX2 analytically  !
 ! A162  A(72,71,74)           109.3972         calculate D2E/DX2 analytically  !
 ! A163  A(73,71,74)           109.3799         calculate D2E/DX2 analytically  !
 ! A164  A(50,75,76)           107.2372         calculate D2E/DX2 analytically  !
 ! A165  A(50,75,77)           111.1659         calculate D2E/DX2 analytically  !
 ! A166  A(50,75,78)           111.1717         calculate D2E/DX2 analytically  !
 ! A167  A(76,75,77)           109.181          calculate D2E/DX2 analytically  !
 ! A168  A(76,75,78)           109.2726         calculate D2E/DX2 analytically  !
 ! A169  A(77,75,78)           108.7713         calculate D2E/DX2 analytically  !
 ! A170  A(12,79,80)           107.0452         calculate D2E/DX2 analytically  !
 ! A171  A(12,79,81)           111.4655         calculate D2E/DX2 analytically  !
 ! A172  A(12,79,82)           110.7945         calculate D2E/DX2 analytically  !
 ! A173  A(80,79,81)           109.3753         calculate D2E/DX2 analytically  !
 ! A174  A(80,79,82)           109.2122         calculate D2E/DX2 analytically  !
 ! A175  A(81,79,82)           108.9049         calculate D2E/DX2 analytically  !
 ! A176  A(11,83,19)            73.5199         calculate D2E/DX2 analytically  !
 ! A177  A(11,83,37)            83.2641         calculate D2E/DX2 analytically  !
 ! A178  A(11,83,52)            88.4796         calculate D2E/DX2 analytically  !
 ! A179  A(11,83,84)           107.2544         calculate D2E/DX2 analytically  !
 ! A180  A(19,83,52)           108.4954         calculate D2E/DX2 analytically  !
 ! A181  A(19,83,84)            99.1654         calculate D2E/DX2 analytically  !
 ! A182  A(37,83,84)           148.3467         calculate D2E/DX2 analytically  !
 ! A183  A(52,83,84)           151.2239         calculate D2E/DX2 analytically  !
 ! A184  A(83,84,85)           133.9807         calculate D2E/DX2 analytically  !
 ! A185  A(83,84,89)           113.4278         calculate D2E/DX2 analytically  !
 ! A186  A(85,84,89)           112.5911         calculate D2E/DX2 analytically  !
 ! A187  A(84,85,86)           110.8567         calculate D2E/DX2 analytically  !
 ! A188  A(84,85,87)           107.621          calculate D2E/DX2 analytically  !
 ! A189  A(84,85,88)           110.9352         calculate D2E/DX2 analytically  !
 ! A190  A(86,85,87)           109.2558         calculate D2E/DX2 analytically  !
 ! A191  A(86,85,88)           108.8836         calculate D2E/DX2 analytically  !
 ! A192  A(87,85,88)           109.2554         calculate D2E/DX2 analytically  !
 ! A193  A(84,89,90)           110.6837         calculate D2E/DX2 analytically  !
 ! A194  A(84,89,91)           106.7112         calculate D2E/DX2 analytically  !
 ! A195  A(84,89,92)           110.6057         calculate D2E/DX2 analytically  !
 ! A196  A(90,89,91)           110.0208         calculate D2E/DX2 analytically  !
 ! A197  A(90,89,92)           108.8943         calculate D2E/DX2 analytically  !
 ! A198  A(91,89,92)           109.9104         calculate D2E/DX2 analytically  !
 ! A199  A(18,91,89)           119.8729         calculate D2E/DX2 analytically  !
 ! A200  A(57,93,94)           110.9486         calculate D2E/DX2 analytically  !
 ! A201  A(57,93,95)           111.8253         calculate D2E/DX2 analytically  !
 ! A202  A(57,93,96)           111.7767         calculate D2E/DX2 analytically  !
 ! A203  A(94,93,95)           107.0633         calculate D2E/DX2 analytically  !
 ! A204  A(94,93,96)           107.0916         calculate D2E/DX2 analytically  !
 ! A205  A(95,93,96)           107.8864         calculate D2E/DX2 analytically  !
 ! A206  A(59,97,98)           112.1296         calculate D2E/DX2 analytically  !
 ! A207  A(59,97,99)           111.0664         calculate D2E/DX2 analytically  !
 ! A208  A(59,97,100)          111.7951         calculate D2E/DX2 analytically  !
 ! A209  A(98,97,99)           106.8685         calculate D2E/DX2 analytically  !
 ! A210  A(98,97,100)          107.7577         calculate D2E/DX2 analytically  !
 ! A211  A(99,97,100)          106.9404         calculate D2E/DX2 analytically  !
 ! D1    D(5,1,2,3)            -52.7704         calculate D2E/DX2 analytically  !
 ! D2    D(5,1,2,7)             63.8522         calculate D2E/DX2 analytically  !
 ! D3    D(5,1,2,13)          -173.5713         calculate D2E/DX2 analytically  !
 ! D4    D(8,1,2,3)             66.6547         calculate D2E/DX2 analytically  !
 ! D5    D(8,1,2,7)           -176.7227         calculate D2E/DX2 analytically  !
 ! D6    D(8,1,2,13)           -54.1462         calculate D2E/DX2 analytically  !
 ! D7    D(14,1,2,3)          -173.8369         calculate D2E/DX2 analytically  !
 ! D8    D(14,1,2,7)           -57.2143         calculate D2E/DX2 analytically  !
 ! D9    D(14,1,2,13)           65.3622         calculate D2E/DX2 analytically  !
 ! D10   D(2,1,5,4)             51.7843         calculate D2E/DX2 analytically  !
 ! D11   D(2,1,5,10)           -68.1563         calculate D2E/DX2 analytically  !
 ! D12   D(2,1,5,15)           172.4662         calculate D2E/DX2 analytically  !
 ! D13   D(8,1,5,4)            -67.1003         calculate D2E/DX2 analytically  !
 ! D14   D(8,1,5,10)           172.9591         calculate D2E/DX2 analytically  !
 ! D15   D(8,1,5,15)            53.5816         calculate D2E/DX2 analytically  !
 ! D16   D(14,1,5,4)           171.5921         calculate D2E/DX2 analytically  !
 ! D17   D(14,1,5,10)           51.6516         calculate D2E/DX2 analytically  !
 ! D18   D(14,1,5,15)          -67.726          calculate D2E/DX2 analytically  !
 ! D19   D(2,1,14,24)         -138.8904         calculate D2E/DX2 analytically  !
 ! D20   D(5,1,14,24)          100.2466         calculate D2E/DX2 analytically  !
 ! D21   D(8,1,14,24)          -20.5181         calculate D2E/DX2 analytically  !
 ! D22   D(1,2,3,6)            172.7815         calculate D2E/DX2 analytically  !
 ! D23   D(1,2,3,11)            56.996          calculate D2E/DX2 analytically  !
 ! D24   D(1,2,3,12)           -65.9112         calculate D2E/DX2 analytically  !
 ! D25   D(7,2,3,6)             54.7729         calculate D2E/DX2 analytically  !
 ! D26   D(7,2,3,11)           -61.0126         calculate D2E/DX2 analytically  !
 ! D27   D(7,2,3,12)           176.0802         calculate D2E/DX2 analytically  !
 ! D28   D(13,2,3,6)           -64.8071         calculate D2E/DX2 analytically  !
 ! D29   D(13,2,3,11)          179.4073         calculate D2E/DX2 analytically  !
 ! D30   D(13,2,3,12)           56.5002         calculate D2E/DX2 analytically  !
 ! D31   D(1,2,13,20)         -100.6652         calculate D2E/DX2 analytically  !
 ! D32   D(3,2,13,20)          137.7317         calculate D2E/DX2 analytically  !
 ! D33   D(7,2,13,20)           20.7885         calculate D2E/DX2 analytically  !
 ! D34   D(2,3,11,4)           -61.7088         calculate D2E/DX2 analytically  !
 ! D35   D(2,3,11,83)           89.3437         calculate D2E/DX2 analytically  !
 ! D36   D(6,3,11,4)           179.3441         calculate D2E/DX2 analytically  !
 ! D37   D(6,3,11,83)          -29.6034         calculate D2E/DX2 analytically  !
 ! D38   D(12,3,11,4)           59.2494         calculate D2E/DX2 analytically  !
 ! D39   D(12,3,11,83)        -149.6981         calculate D2E/DX2 analytically  !
 ! D40   D(2,3,12,79)         -173.7254         calculate D2E/DX2 analytically  !
 ! D41   D(6,3,12,79)          -52.5262         calculate D2E/DX2 analytically  !
 ! D42   D(11,3,12,79)          64.4375         calculate D2E/DX2 analytically  !
 ! D43   D(9,4,5,1)             65.2158         calculate D2E/DX2 analytically  !
 ! D44   D(9,4,5,10)          -175.8632         calculate D2E/DX2 analytically  !
 ! D45   D(9,4,5,15)           -55.536          calculate D2E/DX2 analytically  !
 ! D46   D(11,4,5,1)           -53.4941         calculate D2E/DX2 analytically  !
 ! D47   D(11,4,5,10)           65.4269         calculate D2E/DX2 analytically  !
 ! D48   D(11,4,5,15)         -174.2459         calculate D2E/DX2 analytically  !
 ! D49   D(16,4,5,1)          -173.305          calculate D2E/DX2 analytically  !
 ! D50   D(16,4,5,10)          -54.384          calculate D2E/DX2 analytically  !
 ! D51   D(16,4,5,15)           65.9432         calculate D2E/DX2 analytically  !
 ! D52   D(5,4,11,3)            59.5426         calculate D2E/DX2 analytically  !
 ! D53   D(5,4,11,83)          -95.5332         calculate D2E/DX2 analytically  !
 ! D54   D(9,4,11,3)           -58.5691         calculate D2E/DX2 analytically  !
 ! D55   D(9,4,11,83)          146.355          calculate D2E/DX2 analytically  !
 ! D56   D(16,4,11,3)         -176.6913         calculate D2E/DX2 analytically  !
 ! D57   D(16,4,11,83)          28.2329         calculate D2E/DX2 analytically  !
 ! D58   D(5,4,16,17)          -60.0072         calculate D2E/DX2 analytically  !
 ! D59   D(5,4,16,18)         -171.5632         calculate D2E/DX2 analytically  !
 ! D60   D(5,4,16,19)           65.4041         calculate D2E/DX2 analytically  !
 ! D61   D(9,4,16,17)           60.7799         calculate D2E/DX2 analytically  !
 ! D62   D(9,4,16,18)          -50.7761         calculate D2E/DX2 analytically  !
 ! D63   D(9,4,16,19)         -173.8088         calculate D2E/DX2 analytically  !
 ! D64   D(11,4,16,17)         178.7245         calculate D2E/DX2 analytically  !
 ! D65   D(11,4,16,18)          67.1685         calculate D2E/DX2 analytically  !
 ! D66   D(11,4,16,19)         -55.8642         calculate D2E/DX2 analytically  !
 ! D67   D(1,5,10,37)          114.3542         calculate D2E/DX2 analytically  !
 ! D68   D(4,5,10,37)           -6.9995         calculate D2E/DX2 analytically  !
 ! D69   D(15,5,10,37)        -126.7709         calculate D2E/DX2 analytically  !
 ! D70   D(1,5,15,28)          125.9865         calculate D2E/DX2 analytically  !
 ! D71   D(4,5,15,28)         -111.8232         calculate D2E/DX2 analytically  !
 ! D72   D(10,5,15,28)           8.096          calculate D2E/DX2 analytically  !
 ! D73   D(5,10,37,19)          40.0612         calculate D2E/DX2 analytically  !
 ! D74   D(5,10,37,34)         127.7045         calculate D2E/DX2 analytically  !
 ! D75   D(5,10,37,52)         -82.0413         calculate D2E/DX2 analytically  !
 ! D76   D(5,10,37,83)         -16.6982         calculate D2E/DX2 analytically  !
 ! D77   D(3,11,83,19)        -154.5426         calculate D2E/DX2 analytically  !
 ! D78   D(3,11,83,37)         -99.8353         calculate D2E/DX2 analytically  !
 ! D79   D(3,11,83,52)         -44.7395         calculate D2E/DX2 analytically  !
 ! D80   D(3,11,83,84)         110.7509         calculate D2E/DX2 analytically  !
 ! D81   D(4,11,83,19)          -3.2784         calculate D2E/DX2 analytically  !
 ! D82   D(4,11,83,37)          51.4288         calculate D2E/DX2 analytically  !
 ! D83   D(4,11,83,52)         106.5246         calculate D2E/DX2 analytically  !
 ! D84   D(4,11,83,84)         -97.985          calculate D2E/DX2 analytically  !
 ! D85   D(3,12,79,80)         174.4381         calculate D2E/DX2 analytically  !
 ! D86   D(3,12,79,81)         -65.9965         calculate D2E/DX2 analytically  !
 ! D87   D(3,12,79,82)          55.4519         calculate D2E/DX2 analytically  !
 ! D88   D(2,13,20,21)         -64.1318         calculate D2E/DX2 analytically  !
 ! D89   D(2,13,20,22)          57.6987         calculate D2E/DX2 analytically  !
 ! D90   D(2,13,20,23)         177.2358         calculate D2E/DX2 analytically  !
 ! D91   D(1,14,24,25)         -59.7889         calculate D2E/DX2 analytically  !
 ! D92   D(1,14,24,26)          61.9222         calculate D2E/DX2 analytically  !
 ! D93   D(1,14,24,27)        -179.3468         calculate D2E/DX2 analytically  !
 ! D94   D(5,15,28,29)         -63.9076         calculate D2E/DX2 analytically  !
 ! D95   D(5,15,28,30)          57.6404         calculate D2E/DX2 analytically  !
 ! D96   D(5,15,28,31)         177.2152         calculate D2E/DX2 analytically  !
 ! D97   D(4,16,18,91)        -131.1544         calculate D2E/DX2 analytically  !
 ! D98   D(17,16,18,91)        117.1076         calculate D2E/DX2 analytically  !
 ! D99   D(19,16,18,91)         -6.5645         calculate D2E/DX2 analytically  !
 ! D100  D(4,16,19,37)         -17.0857         calculate D2E/DX2 analytically  !
 ! D101  D(4,16,19,38)        -150.7628         calculate D2E/DX2 analytically  !
 ! D102  D(4,16,19,83)          52.3221         calculate D2E/DX2 analytically  !
 ! D103  D(17,16,19,37)        104.2052         calculate D2E/DX2 analytically  !
 ! D104  D(17,16,19,38)        -29.4718         calculate D2E/DX2 analytically  !
 ! D105  D(17,16,19,83)        173.613          calculate D2E/DX2 analytically  !
 ! D106  D(18,16,19,37)       -136.6847         calculate D2E/DX2 analytically  !
 ! D107  D(18,16,19,38)         89.6382         calculate D2E/DX2 analytically  !
 ! D108  D(18,16,19,83)        -67.2769         calculate D2E/DX2 analytically  !
 ! D109  D(16,18,91,89)        143.8137         calculate D2E/DX2 analytically  !
 ! D110  D(16,19,37,10)        -20.6163         calculate D2E/DX2 analytically  !
 ! D111  D(16,19,37,34)       -137.9532         calculate D2E/DX2 analytically  !
 ! D112  D(16,19,37,52)         80.5437         calculate D2E/DX2 analytically  !
 ! D113  D(38,19,37,10)        141.2662         calculate D2E/DX2 analytically  !
 ! D114  D(38,19,37,34)         23.9293         calculate D2E/DX2 analytically  !
 ! D115  D(38,19,37,52)       -117.5739         calculate D2E/DX2 analytically  !
 ! D116  D(16,19,38,33)        156.6335         calculate D2E/DX2 analytically  !
 ! D117  D(37,19,38,33)         15.5379         calculate D2E/DX2 analytically  !
 ! D118  D(83,19,38,33)        -45.5186         calculate D2E/DX2 analytically  !
 ! D119  D(16,19,83,11)        -25.2306         calculate D2E/DX2 analytically  !
 ! D120  D(16,19,83,52)       -107.8688         calculate D2E/DX2 analytically  !
 ! D121  D(16,19,83,84)         80.1715         calculate D2E/DX2 analytically  !
 ! D122  D(38,19,83,11)        164.2108         calculate D2E/DX2 analytically  !
 ! D123  D(38,19,83,52)         81.5726         calculate D2E/DX2 analytically  !
 ! D124  D(38,19,83,84)        -90.3872         calculate D2E/DX2 analytically  !
 ! D125  D(36,32,33,34)        -47.8843         calculate D2E/DX2 analytically  !
 ! D126  D(36,32,33,38)         64.1593         calculate D2E/DX2 analytically  !
 ! D127  D(36,32,33,44)       -172.069          calculate D2E/DX2 analytically  !
 ! D128  D(39,32,33,34)         72.3205         calculate D2E/DX2 analytically  !
 ! D129  D(39,32,33,38)       -175.6359         calculate D2E/DX2 analytically  !
 ! D130  D(39,32,33,44)        -51.8642         calculate D2E/DX2 analytically  !
 ! D131  D(45,32,33,34)       -165.8449         calculate D2E/DX2 analytically  !
 ! D132  D(45,32,33,38)        -53.8013         calculate D2E/DX2 analytically  !
 ! D133  D(45,32,33,44)         69.9704         calculate D2E/DX2 analytically  !
 ! D134  D(33,32,36,35)         59.5614         calculate D2E/DX2 analytically  !
 ! D135  D(33,32,36,41)        -60.3082         calculate D2E/DX2 analytically  !
 ! D136  D(33,32,36,46)        178.103          calculate D2E/DX2 analytically  !
 ! D137  D(39,32,36,35)        -60.2243         calculate D2E/DX2 analytically  !
 ! D138  D(39,32,36,41)        179.906          calculate D2E/DX2 analytically  !
 ! D139  D(39,32,36,46)         58.3173         calculate D2E/DX2 analytically  !
 ! D140  D(45,32,36,35)        177.2933         calculate D2E/DX2 analytically  !
 ! D141  D(45,32,36,41)         57.4237         calculate D2E/DX2 analytically  !
 ! D142  D(45,32,36,46)        -64.1651         calculate D2E/DX2 analytically  !
 ! D143  D(33,32,45,67)       -140.5251         calculate D2E/DX2 analytically  !
 ! D144  D(36,32,45,67)        102.5115         calculate D2E/DX2 analytically  !
 ! D145  D(39,32,45,67)        -19.5361         calculate D2E/DX2 analytically  !
 ! D146  D(32,33,34,37)       -158.9666         calculate D2E/DX2 analytically  !
 ! D147  D(32,33,34,42)         32.7583         calculate D2E/DX2 analytically  !
 ! D148  D(32,33,34,53)        -69.9953         calculate D2E/DX2 analytically  !
 ! D149  D(38,33,34,37)         84.8525         calculate D2E/DX2 analytically  !
 ! D150  D(38,33,34,42)        -83.4226         calculate D2E/DX2 analytically  !
 ! D151  D(38,33,34,53)        173.8237         calculate D2E/DX2 analytically  !
 ! D152  D(44,33,34,37)        -29.9463         calculate D2E/DX2 analytically  !
 ! D153  D(44,33,34,42)        161.7786         calculate D2E/DX2 analytically  !
 ! D154  D(44,33,34,53)         59.0249         calculate D2E/DX2 analytically  !
 ! D155  D(32,33,38,19)       -157.1719         calculate D2E/DX2 analytically  !
 ! D156  D(34,33,38,19)        -39.0229         calculate D2E/DX2 analytically  !
 ! D157  D(44,33,38,19)         74.7422         calculate D2E/DX2 analytically  !
 ! D158  D(32,33,44,63)        -73.2788         calculate D2E/DX2 analytically  !
 ! D159  D(34,33,44,63)        160.542          calculate D2E/DX2 analytically  !
 ! D160  D(38,33,44,63)         50.3879         calculate D2E/DX2 analytically  !
 ! D161  D(33,34,37,10)       -143.0298         calculate D2E/DX2 analytically  !
 ! D162  D(33,34,37,19)        -62.4021         calculate D2E/DX2 analytically  !
 ! D163  D(33,34,37,52)         75.3421         calculate D2E/DX2 analytically  !
 ! D164  D(33,34,37,83)         -5.4065         calculate D2E/DX2 analytically  !
 ! D165  D(42,34,37,10)         26.2097         calculate D2E/DX2 analytically  !
 ! D166  D(42,34,37,19)        106.8373         calculate D2E/DX2 analytically  !
 ! D167  D(42,34,37,52)       -115.4184         calculate D2E/DX2 analytically  !
 ! D168  D(42,34,37,83)        163.833          calculate D2E/DX2 analytically  !
 ! D169  D(53,34,37,10)        123.0392         calculate D2E/DX2 analytically  !
 ! D170  D(53,34,37,19)       -156.3332         calculate D2E/DX2 analytically  !
 ! D171  D(53,34,37,52)        -18.5889         calculate D2E/DX2 analytically  !
 ! D172  D(53,34,37,83)        -99.3375         calculate D2E/DX2 analytically  !
 ! D173  D(33,34,42,35)        -25.1072         calculate D2E/DX2 analytically  !
 ! D174  D(37,34,42,35)        165.9751         calculate D2E/DX2 analytically  !
 ! D175  D(53,34,42,35)         76.3349         calculate D2E/DX2 analytically  !
 ! D176  D(33,34,53,51)       -116.9626         calculate D2E/DX2 analytically  !
 ! D177  D(37,34,53,51)          3.6828         calculate D2E/DX2 analytically  !
 ! D178  D(42,34,53,51)        118.221          calculate D2E/DX2 analytically  !
 ! D179  D(40,35,36,32)         64.2903         calculate D2E/DX2 analytically  !
 ! D180  D(40,35,36,41)       -176.2186         calculate D2E/DX2 analytically  !
 ! D181  D(40,35,36,46)        -56.4145         calculate D2E/DX2 analytically  !
 ! D182  D(42,35,36,32)        -51.3127         calculate D2E/DX2 analytically  !
 ! D183  D(42,35,36,41)         68.1784         calculate D2E/DX2 analytically  !
 ! D184  D(42,35,36,46)       -172.0175         calculate D2E/DX2 analytically  !
 ! D185  D(47,35,36,32)       -172.1901         calculate D2E/DX2 analytically  !
 ! D186  D(47,35,36,41)        -52.699          calculate D2E/DX2 analytically  !
 ! D187  D(47,35,36,46)         67.1051         calculate D2E/DX2 analytically  !
 ! D188  D(36,35,42,34)         33.3551         calculate D2E/DX2 analytically  !
 ! D189  D(40,35,42,34)        -85.0843         calculate D2E/DX2 analytically  !
 ! D190  D(47,35,42,34)        158.5366         calculate D2E/DX2 analytically  !
 ! D191  D(36,35,47,48)        -67.1988         calculate D2E/DX2 analytically  !
 ! D192  D(36,35,47,49)        175.4215         calculate D2E/DX2 analytically  !
 ! D193  D(36,35,47,50)         53.9204         calculate D2E/DX2 analytically  !
 ! D194  D(40,35,47,48)         56.2591         calculate D2E/DX2 analytically  !
 ! D195  D(40,35,47,49)        -61.1205         calculate D2E/DX2 analytically  !
 ! D196  D(40,35,47,50)        177.3783         calculate D2E/DX2 analytically  !
 ! D197  D(42,35,47,48)        169.4148         calculate D2E/DX2 analytically  !
 ! D198  D(42,35,47,49)         52.0351         calculate D2E/DX2 analytically  !
 ! D199  D(42,35,47,50)        -69.466          calculate D2E/DX2 analytically  !
 ! D200  D(32,36,46,71)        116.8762         calculate D2E/DX2 analytically  !
 ! D201  D(35,36,46,71)       -121.959          calculate D2E/DX2 analytically  !
 ! D202  D(41,36,46,71)         -3.2897         calculate D2E/DX2 analytically  !
 ! D203  D(10,37,52,51)       -113.9739         calculate D2E/DX2 analytically  !
 ! D204  D(19,37,52,51)        157.8567         calculate D2E/DX2 analytically  !
 ! D205  D(34,37,52,51)         31.3191         calculate D2E/DX2 analytically  !
 ! D206  D(10,37,83,11)         -5.1032         calculate D2E/DX2 analytically  !
 ! D207  D(10,37,83,84)        107.0798         calculate D2E/DX2 analytically  !
 ! D208  D(34,37,83,11)       -146.4347         calculate D2E/DX2 analytically  !
 ! D209  D(34,37,83,84)        -34.2517         calculate D2E/DX2 analytically  !
 ! D210  D(33,44,63,64)        -40.9274         calculate D2E/DX2 analytically  !
 ! D211  D(33,44,63,65)         80.7697         calculate D2E/DX2 analytically  !
 ! D212  D(33,44,63,66)       -159.7244         calculate D2E/DX2 analytically  !
 ! D213  D(32,45,67,68)        -58.0312         calculate D2E/DX2 analytically  !
 ! D214  D(32,45,67,69)         63.8327         calculate D2E/DX2 analytically  !
 ! D215  D(32,45,67,70)       -177.4568         calculate D2E/DX2 analytically  !
 ! D216  D(36,46,71,72)        -62.5546         calculate D2E/DX2 analytically  !
 ! D217  D(36,46,71,73)         59.1048         calculate D2E/DX2 analytically  !
 ! D218  D(36,46,71,74)        178.2913         calculate D2E/DX2 analytically  !
 ! D219  D(35,47,50,75)        178.769          calculate D2E/DX2 analytically  !
 ! D220  D(48,47,50,75)        -62.2807         calculate D2E/DX2 analytically  !
 ! D221  D(49,47,50,75)         58.5582         calculate D2E/DX2 analytically  !
 ! D222  D(47,50,75,76)       -179.345          calculate D2E/DX2 analytically  !
 ! D223  D(47,50,75,77)        -60.0687         calculate D2E/DX2 analytically  !
 ! D224  D(47,50,75,78)         61.2641         calculate D2E/DX2 analytically  !
 ! D225  D(43,51,52,37)       -150.466          calculate D2E/DX2 analytically  !
 ! D226  D(43,51,52,83)       -100.1845         calculate D2E/DX2 analytically  !
 ! D227  D(53,51,52,37)        -19.5192         calculate D2E/DX2 analytically  !
 ! D228  D(53,51,52,83)         30.7624         calculate D2E/DX2 analytically  !
 ! D229  D(54,51,52,37)         92.5281         calculate D2E/DX2 analytically  !
 ! D230  D(54,51,52,83)        142.8096         calculate D2E/DX2 analytically  !
 ! D231  D(43,51,53,34)        147.5731         calculate D2E/DX2 analytically  !
 ! D232  D(52,51,53,34)         16.3557         calculate D2E/DX2 analytically  !
 ! D233  D(54,51,53,34)        -96.4993         calculate D2E/DX2 analytically  !
 ! D234  D(43,51,54,55)        -29.0202         calculate D2E/DX2 analytically  !
 ! D235  D(43,51,54,56)        152.2308         calculate D2E/DX2 analytically  !
 ! D236  D(52,51,54,55)         93.0154         calculate D2E/DX2 analytically  !
 ! D237  D(52,51,54,56)        -85.7337         calculate D2E/DX2 analytically  !
 ! D238  D(53,51,54,55)       -149.7901         calculate D2E/DX2 analytically  !
 ! D239  D(53,51,54,56)         31.4609         calculate D2E/DX2 analytically  !
 ! D240  D(51,52,83,11)       -143.1799         calculate D2E/DX2 analytically  !
 ! D241  D(51,52,83,19)        -71.1257         calculate D2E/DX2 analytically  !
 ! D242  D(51,52,83,84)         92.2053         calculate D2E/DX2 analytically  !
 ! D243  D(51,54,55,57)       -178.5044         calculate D2E/DX2 analytically  !
 ! D244  D(51,54,55,58)          2.0117         calculate D2E/DX2 analytically  !
 ! D245  D(56,54,55,57)          0.2167         calculate D2E/DX2 analytically  !
 ! D246  D(56,54,55,58)       -179.2672         calculate D2E/DX2 analytically  !
 ! D247  D(51,54,56,59)        179.4556         calculate D2E/DX2 analytically  !
 ! D248  D(51,54,56,60)         -1.1991         calculate D2E/DX2 analytically  !
 ! D249  D(55,54,56,59)          0.721          calculate D2E/DX2 analytically  !
 ! D250  D(55,54,56,60)       -179.9337         calculate D2E/DX2 analytically  !
 ! D251  D(54,55,57,61)         -0.9321         calculate D2E/DX2 analytically  !
 ! D252  D(54,55,57,93)        175.8103         calculate D2E/DX2 analytically  !
 ! D253  D(58,55,57,61)        178.5474         calculate D2E/DX2 analytically  !
 ! D254  D(58,55,57,93)         -4.7103         calculate D2E/DX2 analytically  !
 ! D255  D(54,56,59,61)         -0.9625         calculate D2E/DX2 analytically  !
 ! D256  D(54,56,59,97)        175.2491         calculate D2E/DX2 analytically  !
 ! D257  D(60,56,59,61)        179.6916         calculate D2E/DX2 analytically  !
 ! D258  D(60,56,59,97)         -4.0968         calculate D2E/DX2 analytically  !
 ! D259  D(55,57,61,59)          0.6966         calculate D2E/DX2 analytically  !
 ! D260  D(55,57,61,62)       -179.3148         calculate D2E/DX2 analytically  !
 ! D261  D(93,57,61,59)       -176.0417         calculate D2E/DX2 analytically  !
 ! D262  D(93,57,61,62)          3.947          calculate D2E/DX2 analytically  !
 ! D263  D(55,57,93,94)        -87.3317         calculate D2E/DX2 analytically  !
 ! D264  D(55,57,93,95)        153.2111         calculate D2E/DX2 analytically  !
 ! D265  D(55,57,93,96)         32.1292         calculate D2E/DX2 analytically  !
 ! D266  D(61,57,93,94)         89.4507         calculate D2E/DX2 analytically  !
 ! D267  D(61,57,93,95)        -30.0065         calculate D2E/DX2 analytically  !
 ! D268  D(61,57,93,96)       -151.0884         calculate D2E/DX2 analytically  !
 ! D269  D(56,59,61,57)          0.264          calculate D2E/DX2 analytically  !
 ! D270  D(56,59,61,62)       -179.7246         calculate D2E/DX2 analytically  !
 ! D271  D(97,59,61,57)       -175.9374         calculate D2E/DX2 analytically  !
 ! D272  D(97,59,61,62)          4.0739         calculate D2E/DX2 analytically  !
 ! D273  D(56,59,97,98)         29.0195         calculate D2E/DX2 analytically  !
 ! D274  D(56,59,97,99)        -90.4744         calculate D2E/DX2 analytically  !
 ! D275  D(56,59,97,100)       150.1644         calculate D2E/DX2 analytically  !
 ! D276  D(61,59,97,98)       -154.7353         calculate D2E/DX2 analytically  !
 ! D277  D(61,59,97,99)         85.7708         calculate D2E/DX2 analytically  !
 ! D278  D(61,59,97,100)       -33.5904         calculate D2E/DX2 analytically  !
 ! D279  D(11,83,84,85)        -98.6433         calculate D2E/DX2 analytically  !
 ! D280  D(11,83,84,89)         81.5826         calculate D2E/DX2 analytically  !
 ! D281  D(19,83,84,85)       -174.1197         calculate D2E/DX2 analytically  !
 ! D282  D(19,83,84,89)          6.1063         calculate D2E/DX2 analytically  !
 ! D283  D(37,83,84,85)        155.7062         calculate D2E/DX2 analytically  !
 ! D284  D(37,83,84,89)        -24.0678         calculate D2E/DX2 analytically  !
 ! D285  D(52,83,84,85)         21.8748         calculate D2E/DX2 analytically  !
 ! D286  D(52,83,84,89)       -157.8992         calculate D2E/DX2 analytically  !
 ! D287  D(83,84,85,86)       -119.0482         calculate D2E/DX2 analytically  !
 ! D288  D(83,84,85,87)          0.3778         calculate D2E/DX2 analytically  !
 ! D289  D(83,84,85,88)        119.8488         calculate D2E/DX2 analytically  !
 ! D290  D(89,84,85,86)         60.7273         calculate D2E/DX2 analytically  !
 ! D291  D(89,84,85,87)       -179.8468         calculate D2E/DX2 analytically  !
 ! D292  D(89,84,85,88)        -60.3757         calculate D2E/DX2 analytically  !
 ! D293  D(83,84,89,90)       -118.4034         calculate D2E/DX2 analytically  !
 ! D294  D(83,84,89,91)          1.2951         calculate D2E/DX2 analytically  !
 ! D295  D(83,84,89,92)        120.8166         calculate D2E/DX2 analytically  !
 ! D296  D(85,84,89,90)         61.7727         calculate D2E/DX2 analytically  !
 ! D297  D(85,84,89,91)       -178.5288         calculate D2E/DX2 analytically  !
 ! D298  D(85,84,89,92)        -59.0073         calculate D2E/DX2 analytically  !
 ! D299  D(84,89,91,18)        -77.823          calculate D2E/DX2 analytically  !
 ! D300  D(90,89,91,18)         42.3029         calculate D2E/DX2 analytically  !
 ! D301  D(92,89,91,18)        162.2064         calculate D2E/DX2 analytically  !
 --------------------------------------------------------------------------------
 Trust Radius=5.00D-02 FncErr=1.00D-07 GrdErr=1.00D-06 EigMax=2.50D+02 EigMin=1.00D-04
 Number of steps in this run=    600 maximum allowed number of steps=    600.
 Search for a saddle point of order  1.
 GradGradGradGradGradGradGradGradGradGradGradGradGradGradGradGradGradGrad

 Leave Link  103 at Sun Jun 16 16:14:46 2019, MaxMem=  6442450944 cpu:               4.7 elap:               0.2
 (Enter /home/ekwan/sw/g16/l202.exe)
 Stoichiometry    C30H47F6NaO15S
 Framework group  C1[X(C30H47F6NaO15S)]
 Deg. of freedom   294
 Full point group                 C1      NOp   1
 Largest Abelian subgroup         C1      NOp   1
 Largest concise Abelian subgroup C1      NOp   1
                         Standard orientation:                         
 ---------------------------------------------------------------------
 Center     Atomic      Atomic             Coordinates (Angstroms)
 Number     Number       Type             X           Y           Z
 ---------------------------------------------------------------------
      1          6           0       -1.716608    1.542234    2.269349
      2          6           0       -2.020170    2.302986    0.990693
      3          6           0       -1.130388    3.532737    0.889318
      4          6           0        0.602201    2.514786    2.172757
      5          6           0       -0.228421    1.252256    2.366105
      6          1           0       -1.254341    4.014082   -0.089926
      7          1           0       -1.775262    1.665925    0.131689
      8          1           0       -2.019589    2.164191    3.121223
      9          1           0        0.391986    3.191934    3.010889
     10          1           0        0.020479    0.530374    1.580262
     11          8           0        0.225958    3.156628    0.948403
     12          8           0       -1.469781    4.411433    1.910420
     13          8           0       -3.365037    2.712596    0.942468
     14          8           0       -2.455928    0.338449    2.258887
     15          8           0        0.056313    0.701757    3.635573
     16          6           0        2.103783    2.254855    2.099292
     17          1           0        2.374884    1.781772    3.061507
     18          1           0        2.579659    3.257614    2.116400
     19          8           0        2.495867    1.524349    1.001607
     20          6           0       -4.174013    1.887054    0.135131
     21          1           0       -3.861204    1.928295   -0.916254
     22          1           0       -4.144461    0.848483    0.476220
     23          1           0       -5.195547    2.264496    0.210138
     24          6           0       -3.024035    0.009377    3.506766
     25          1           0       -2.255556   -0.107556    4.276658
     26          1           0       -3.739119    0.777726    3.828279
     27          1           0       -3.553132   -0.934215    3.375439
     28          6           0        0.742255   -0.529483    3.573247
     29          1           0        0.124471   -1.296717    3.092404
     30          1           0        1.685502   -0.442819    3.024743
     31          1           0        0.951089   -0.831826    4.601680
     32          6           0        3.716439   -1.608134   -1.371753
     33          6           0        3.139596   -0.274574   -0.924688
     34          6           0        1.820126   -0.445838   -0.247928
     35          6           0        2.167262   -2.749710    0.239092
     36          6           0        3.610625   -2.570237   -0.196316
     37          1           0        1.129371    0.374621   -0.172225
     38          1           0        3.766388    0.130776   -0.113690
     39          1           0        3.150443   -1.988451   -2.230453
     40          1           0        1.597347   -3.221658   -0.566227
     41          1           0        4.187775   -2.159616    0.639816
     42          8           0        1.517567   -1.466041    0.455766
     43          8           0       -0.550332    0.084594   -3.865807
     44          8           0        2.985067    0.703064   -1.915504
     45          8           0        5.072133   -1.427213   -1.696889
     46          8           0        4.088986   -3.840881   -0.555863
     47          6           0        1.999730   -3.539045    1.509119
     48          1           0        2.310056   -4.573728    1.309688
     49          1           0        0.937208   -3.548510    1.790708
     50          8           0        2.784823   -2.951010    2.508713
     51         16           0       -0.332795   -0.041336   -2.423926
     52          8           0       -0.162551    1.249198   -1.714816
     53          8           0        0.742795   -1.009913   -2.056819
     54          6           0       -1.810257   -0.760213   -1.739580
     55          6           0       -3.032791   -0.542076   -2.350615
     56          6           0       -1.713951   -1.511965   -0.580678
     57          6           0       -4.173515   -1.086991   -1.780605
     58          1           0       -3.088775    0.039384   -3.264663
     59          6           0       -2.860054   -2.064465   -0.036594
     60          1           0       -0.751224   -1.675042   -0.110682
     61          6           0       -4.094941   -1.854602   -0.628917
     62          1           0       -4.991218   -2.285603   -0.196957
     63          6           0        4.198397    1.297641   -2.355526
     64          1           0        4.867404    1.485300   -1.510107
     65          1           0        4.707578    0.663787   -3.083475
     66          1           0        3.927549    2.246359   -2.819334
     67          6           0        5.487206   -2.152287   -2.837846
[...]
 7052,0.00007001,-0.00008851,0.00015911,0.00001137,0.00014310,-0.000014
 46,-0.00007270,-0.00013371,0.00004733,0.00000057,0.00010602,-0.0002970
 7,0.00000432,-0.00002549,0.00018022,-0.00003260,0.00331331,0.00103301,
 -0.00144010,-0.00088335,-0.00092771,0.00001165,-0.00146979,0.00028066,
 0.00004089,-0.00031561,0.00104031,0.00205468,0.00029114,-0.00091138,0.
 00066632,0.00294598,-0.00032654,0.00097003,-0.00010584,0.00080803,0.00
 231741,0.00007748,-0.00017469,-0.00017567,0.00626480,-0.04545059,-0.00
 286188,0.00023135,-0.00083706,-0.00094122,-0.00318524,-0.00111104,0.00
 059002,0.00029260,-0.00088718,-0.00090012,0.00010295,0.00005604,-0.000
 05067,-0.00001707,-0.00000597,-0.00000213,-0.00002134,0.00000016,0.000
 01496,-0.00000389,-0.00000912,0.00000517,0.00002194,-0.00005368,-0.000
 06368,-0.00000335,0.00001381,0.00000280,0.00000069,-0.00000073,0.00000
 493,-0.00000679,0.00000430,0.00000872,0.00003728,-0.00002329,0.0000321
 6,0.00000054,0.00000565,-0.00000662,-0.00000096,-0.00001032,-0.0000082
 9,-0.00002011,0.00001197,0.00000363,0.00004227,-0.00007715,0.00007292,
 0.00000928,0.00000842,-0.00000382,0.00000537,-0.00003938,0.00000104,-0
 .00003909,0.00003152,0.00000055,0.00006615,0.00014071,-0.00001645,-0.0
 0000117,-0.00002480,-0.00001033,-0.00001827,-0.00000967,0.00000309,-0.
 00000826,-0.00001440,0.00001695,0.00018160,0.00015238,-0.00002021,-0.0
 0004469,-0.00003362,0.00000003,0.00001234,0.00002790,-0.00002240,-0.00
 000869,-0.00000166,0.00000548,0.00000123,0.00000441,-0.00000397,-0.000
 00056,-0.00000621,-0.00000140,0.00002647,0.00000056,0.00001423,-0.0000
 0105,-0.00000538,-0.00000199,0.00001926,0.00000798,-0.00000498,-0.0000
 0936,-0.00000346,0.00000800,-0.00252619,0.00019044,-0.00088841,0.00068
 817,-0.00043199,0.00005714,0.00081354,0.00027505,0.00020367,0.00065673
 ,-0.00017986,0.00084180,0.02379237,-0.28455322,-0.03329611,-0.02936384
 ,-0.03563654,-0.03642603,-0.03384008,0.38800517,0.00022691,0.00031769,
 -0.00007668,-0.00008182,-0.00000701,-0.00014808,-0.00000698,-0.0000008
 2,0.00000043,-0.00002827,0.00008682,-0.00007049,-0.00001425,0.00005966
 ,-0.00014472,-0.00000684,-0.00002636,0.00001068,-0.00000086,-0.0000238
 8,-0.00000488,-0.00002896,-0.00005165,0.00000242,-0.00000549,-0.000004
 35,0.00000913,0.00000059,0.00001553,-0.00003033,0.00002496,-0.00004086
 ,0.00008991,0.00000463,-0.00001057,0.00003178,0.00013083,0.00007880,0.
 00016971,-0.00004524,-0.00063385,0.00015766,-0.00000603,-0.00030294,0.
 00009720,0.00005118,-0.00003112,-0.00007512,0.00001444,0.00000465,0.00
 002561,-0.00001864,0.00000209,0.00001936,-0.00002981,0.00005480,0.0001
 4098,-0.00007164,-0.00009590,-0.00013661,-0.00001202,-0.00006052,0.000
 07037,0.00000557,-0.00000605,-0.00011338,-0.00000728,0.00002577,0.0000
 1540,0.00021706,0.00040544,-0.00002787,-0.00002637,-0.00002753,0.00003
 412,-0.00002759,-0.00015634,-0.00000930,-0.00024288,0.00011350,0.00036
 079,0.00009646,0.00044808,0.00016274,0.00011568,-0.00009137,0.00002715
 ,-0.00006884,-0.00007304,-0.00004459,-0.00003315,-0.00003835,-0.000037
 48,-0.00003922,0.00000559,-0.00002108,0.00000844,0.00000845,0.00000263
 ,-0.00021661,-0.00005375,-0.00036892,-0.00006646,0.00003604,-0.0001161
 8,0.00000701,-0.00000936,0.00001029,-0.00000829,-0.00000803,-0.0000152
 5,0.00001328,-0.00000532,-0.00001536,-0.00000390,0.00000519,0.00001333
 ,-0.00002085,0.00000580,0.00001284,0.00001517,0.00000311,-0.00000224,0
 .00009524,-0.00008389,0.00016989,0.00031638,0.00019543,-0.00031002,0.0
 0004278,0.00001375,0.00001875,0.00002096,-0.00000155,0.00002121,0.0000
 2276,-0.00001487,0.00002992,0.00021720,0.00003190,-0.00009221,-0.00005
 032,0.00001098,0.00001775,0.00006360,-0.00009268,0.00003415,-0.0000923
 2,0.00000839,0.00006294,-0.00118060,-0.00059644,0.00028088,0.00030417,
 0.00041515,0.00010715,0.00057225,0.00001270,0.00012066,-0.00021007,-0.
 00081477,-0.00075994,-0.00002170,0.00049100,-0.00050016,-0.00138798,-0
 .00004666,0.00018644,0.00052105,-0.00070665,-0.00064320,-0.00002246,0.
 00004485,0.00009811,-0.00243974,0.02357911,0.00847427,0.00008558,0.000
 45111,0.00005915,0.00121786,0.00030892,0.00029237,-0.00021770,0.000292
 44,0.00008227,-0.00002275,-0.00001894,0.00000809,0.00000760,0.00000220
 ,0.00000284,0.00000199,0.00000121,-0.00000169,-0.00000035,-0.00000016,
 -0.00000236,-0.00000512,-0.00000208,-0.00000816,-0.00000250,0.00000125
 ,-0.00000251,-0.00000009,-0.00000409,0.00000500,0.00000382,0.00000131,
 0.00000021,-0.00001590,0.00000690,-0.00002342,0.00000231,0.00000088,0.
 00000170,0.00000555,-0.00000263,0.00000716,-0.00000092,0.00000077,0.00
 000071,0.00007876,-0.00000731,-0.00003371,-0.00000773,-0.00000347,0.00
 000261,-0.00001215,-0.00000850,0.00002084,-0.00001284,0.00000908,0.000
 00537,0.00000251,0.00001606,-0.00000384,-0.00000057,0.00000144,-0.0000
 0004,0.00000031,0.00000022,-0.00000134,0.00000047,-0.00000454,0.000004
 79,-0.00004288,-0.00005294,-0.00006106,0.00001124,0.00000399,0.0000188
 1,-0.00000248,-0.00000108,-0.00000465,-0.00000075,-0.00000064,0.,0.000
 00175,-0.00000308,0.00000119,0.00000047,0.00000189,0.00000201,-0.00001
 016,0.00000136,-0.00001233,0.00000168,0.00000368,0.00000172,0.00000046
 ,-0.00000161,-0.00000223,0.00000073,-0.00000073,0.00000181,0.00090038,
 -0.00027670,0.00022146,-0.00025195,0.00020971,0.00001418,-0.00027976,-
 0.00003166,-0.00004885,-0.00023261,0.00009078,-0.00019804,0.00379520,-
 0.03516845,-0.08163152,-0.01850235,-0.04558321,-0.01386285,-0.01075932
 ,0.09857343,0.10193437,-0.00014012,-0.00009595,0.00001541,-0.00007229,
 0.00008100,0.00006443,-0.00010763,0.00010733,0.00001376,0.00005651,0.0
 0003804,-0.00004401,-0.00009238,0.00025281,-0.00000938,0.00001161,0.00
 000087,0.00000057,-0.00000203,0.00002466,-0.00001640,0.00000853,-0.000
 03243,-0.00001940,-0.00000732,-0.00003310,-0.00000758,0.00004923,0.000
 00254,-0.00005077,0.00006732,-0.00010858,0.00002206,0.00003288,-0.0000
 8305,-0.00004646,0.00014358,-0.00003554,-0.00006213,0.00069766,-0.0000
 2398,-0.00047274,0.00019796,-0.00050294,-0.00004174,-0.00004342,0.0000
 7578,0.00010816,0.00001857,0.00000757,-0.00001546,-0.00000512,-0.00005
 718,-0.00001956,-0.00004467,-0.00022260,-0.00015123,-0.00003333,-0.000
 07284,0.00006296,0.00002410,0.00008129,-0.00006801,-0.00002840,0.00000
 262,0.00013203,0.00002703,-0.00004158,0.00000245,-0.00061615,-0.000885
 98,0.00066912,0.00012358,0.00025455,0.00007900,0.00006450,0.00008535,-
 0.00003359,-0.00020087,-0.00076957,-0.00118890,0.00010905,0.00078064,0
 .00026219,0.00007792,-0.00006860,0.00013999,-0.00004986,-0.00007892,-0
 .00005894,-0.00007600,-0.00008396,-0.00008947,0.00007546,0.00001255,-0
 .00005982,-0.00002046,0.00005561,-0.00004948,0.00032897,0.00056587,-0.
 00008135,0.00006587,-0.00000799,-0.00011652,0.00013292,-0.00009064,-0.
 00000853,0.00000217,0.00003719,-0.00001060,-0.00000074,0.00000905,0.00
 004014,-0.00000466,-0.00000090,-0.00000904,0.00005235,-0.00001500,-0.0
 0005204,-0.00001447,0.00000261,-0.00000004,-0.00024615,-0.00031036,0.0
 0020342,-0.00024584,-0.00021298,0.00060157,-0.00011456,-0.00011135,0.0
 0007992,-0.00014894,-0.00000096,0.00009680,-0.00016170,0.00007596,0.00
 000658,0.00069893,0.00017601,0.00002236,-0.00012736,0.00001299,0.00003
 001,0.00012619,-0.00032632,0.00025065,-0.00036749,-0.00001402,-0.00031
 471,0.00104395,0.00075554,-0.00059299,-0.00027598,-0.00054094,-0.00006
 785,-0.00040613,-0.00013984,0.00016359,-0.00052815,-0.00044244,-0.0003
 5019,0.00049073,0.00001834,0.00019848,0.00133924,-0.00138698,0.0025644
 2,0.00091185,-0.00093674,0.00061790,0.00014427,0.00010113,0.00000516,-
 0.01029319,0.00097857,0.01454875,0.00057884,0.00066500,-0.00044608,-0.
 00300309,-0.00021571,-0.00296772,0.00195592,0.00077748,0.00054953,0.00
 009102,0.00005691,-0.00002916,-0.00001254,-0.00000071,-0.00000347,-0.0
 0001530,0.00000153,0.00000626,-0.00000532,-0.00001187,0.00000802,0.000
 02692,-0.00003559,-0.00006488,0.00000684,0.00000427,0.00000131,0.00000
 400,0.00000460,0.00000753,-0.00001398,0.00000090,0.00000793,0.00010630
 ,-0.00003538,0.00005110,-0.00001803,-0.00000691,-0.00000362,0.00000994
 ,-0.00000469,-0.00000429,-0.00000741,0.00001247,-0.00000082,0.00007286
 ,-0.00013223,0.00018046,-0.00002600,-0.00000450,-0.00002792,0.00001147
 ,0.00000754,0.00002330,-0.00000718,0.00003828,-0.00000747,0.00000256,0
 .00002806,-0.00000338,0.00000028,-0.00000820,-0.00000439,0.00000172,0.
 00000029,0.00000257,-0.00000244,-0.00000159,0.00000349,0.00004865,0.00
 013386,-0.00000182,-0.00000963,-0.00003411,0.00000135,0.00000154,0.000
 02415,-0.00001435,-0.00000207,-0.00000181,0.00000278,0.00000050,0.0000
 0279,0.00000136,-0.00000177,-0.00000664,-0.00000200,0.00000581,0.00000
 705,0.00000502,-0.00000038,-0.00000709,-0.00000100,0.00001075,0.000009
 25,-0.00000098,-0.00000151,-0.00000099,0.00000264,-0.00103850,-0.00004
 370,0.00015671,0.00030799,-0.00018741,-0.00006833,0.00035521,0.0001551
 1,-0.00005357,0.00023674,-0.00004340,0.00010089,-0.20098205,-0.0060509
 2,0.11139184,-0.08240416,-0.00927552,0.00749960,-0.01762337,0.03244243
 ,0.02767707,0.30869138,0.00024677,0.00036018,-0.00000170,-0.00007533,0
 .00002689,0.00001554,0.00008508,0.00012906,0.00004834,-0.00001387,0.00
 007185,0.00000233,0.00005238,-0.00003672,0.00007612,-0.00001213,-0.000
 02816,0.00000412,0.00001713,0.00002640,-0.00000485,-0.00002740,-0.0000
 3259,-0.00000818,0.00000014,-0.00001320,-0.00000588,0.00002269,-0.0000
 0193,0.00000015,-0.00005661,-0.00005848,-0.00002143,-0.00003696,-0.000
 13851,-0.00003241,-0.00002647,-0.00014035,-0.00004144,-0.00005460,-0.0
 0020010,-0.00005732,-0.00016040,0.00004752,-0.00006243,0.00002858,-0.0
 0001744,0.00003000,0.00000135,0.00000624,-0.00001241,-0.00002297,-0.00
 002272,-0.00000254,-0.00007630,-0.00003961,-0.00003929,0.00001859,0.00
 015307,0.00001419,0.00000101,0.00003321,-0.00001280,-0.00005315,-0.000
 00432,0.00001073,0.00002415,-0.00003548,-0.00000705,0.00074441,0.00054
 130,-0.00065043,-0.00014760,-0.00031150,-0.00008680,-0.00017849,-0.000
 40917,-0.00008633,-0.00116085,-0.00220059,-0.00070040,0.00008729,-0.00
 007726,0.00002707,0.00000874,0.00000190,0.00001681,-0.00001041,0.00000
 516,0.00000431,-0.00001293,0.00000193,-0.00002494,0.00004020,-0.000025
 51,-0.00000870,-0.00000034,-0.00000021,-0.00002006,0.00020791,0.000067
 07,0.00020904,0.00008370,-0.00018399,0.00000322,0.00002543,-0.00001566
 ,0.00000338,0.00002828,0.00000875,-0.00000777,-0.00000584,-0.00000076,
 0.00001572,0.00000300,-0.00000669,-0.00000604,-0.00000457,-0.00001200,
 0.00001048,0.00000054,0.00000088,0.00000085,-0.00014169,0.00012628,-0.
 00007382,-0.00032144,-0.00012223,0.00052817,-0.00007101,-0.00001550,0.
 00001911,-0.00004655,0.00002504,0.00002153,-0.00003711,0.00005798,-0.0
 0000273,0.00001768,-0.00000515,-0.00000899,-0.00003140,0.00001326,-0.0
 0000407,0.00002887,-0.00008661,0.00001487,0.00000539,0.00005782,-0.000
 03280,0.00155234,0.00029888,-0.00058179,-0.00045254,-0.00042275,-0.000
 03294,-0.00061797,0.00011214,-0.00002281,-0.00014666,-0.00153433,0.000
 42410,-0.00063281,-0.00033771,0.00041913,0.00168887,-0.00000691,0.0020
 7311,-0.00010514,0.00001545,-0.00035835,-0.00000152,0.00003724,0.00000
 744,-0.01740111,0.00720041,0.01693148,0.00004201,0.00047291,0.00000093
 ,-0.00004790,-0.00066855,0.00080830,-0.00010504,-0.00038225,0.00071663
 ,0.00004230,0.00002452,-0.00002035,-0.00000750,-0.00000266,-0.00000124
 ,-0.00000823,0.00000002,0.00000585,-0.00000124,-0.00000354,0.00000210,
 0.00000919,-0.00001859,-0.00002177,-0.00000047,0.00000458,0.00000154,0
 .00000037,0.00000061,0.00000085,-0.00000341,0.00000116,0.00000309,0.00
 001794,-0.00000994,0.00001670,-0.00000060,0.00000146,-0.00000271,-0.00
 000143,-0.00000289,-0.00000433,-0.00000648,0.00000412,0.00000099,-0.00
 000643,-0.00002697,0.00003799,0.00000526,0.00000304,-0.00000234,0.0000
 0501,-0.00001026,-0.00000422,-0.00000882,0.00000900,-0.00000119,0.0000
 3205,0.00006589,-0.00000627,-0.00000066,-0.00001147,-0.00000486,-0.000
 00908,-0.00000492,0.00000152,-0.00000434,-0.00000723,0.00000776,0.0000
 8340,0.00006566,-0.00000756,-0.00001984,-0.00001408,-0.00000193,0.0000
 0516,0.00001160,-0.00000878,-0.00000344,-0.00000054,0.00000236,0.00000
 028,0.00000208,-0.00000171,-0.00000017,-0.00000271,-0.00000080,0.00001
 216,0.00000011,0.00000751,-0.00000054,-0.00000250,-0.00000106,0.000007
 83,0.00000308,-0.00000183,-0.00000396,-0.00000130,0.00000312,-0.000931
 10,0.00013043,-0.00043742,0.00025771,-0.00014580,0.00003787,0.00031947
 ,0.00009173,0.00008357,0.00020467,-0.00005406,0.00027119,-0.00242611,-
 0.07533430,0.00671183,-0.01090932,0.01071974,0.00199996,0.04571017,-0.
 01942138,-0.04117059,-0.01512519,0.08163245,0.00033303,0.00048007,-0.0
 0000833,-0.00010209,-0.00006755,-0.00023297,0.00006698,-0.00008364,-0.
 00000296,-0.00008300,0.00008603,-0.00006174,0.00005546,-0.00012114,-0.
 00016540,-0.00001793,-0.00003647,0.00001312,0.00000583,-0.00004815,0.0
 0000695,-0.00002673,0.00000102,0.00002473,-0.00000067,0.00001795,0.000
 01755,-0.00003579,0.00001914,0.00000422,-0.00000633,0.00002972,0.00010
 136,-0.00001231,0.00004848,0.00007253,0.00010302,0.00014333,0.00025726
 ,-0.00060404,-0.00057455,0.00068217,-0.00018039,0.00001148,0.00015499,
 0.00008908,-0.00009109,-0.00016058,0.00000396,-0.00000038,0.00004159,-
 0.00001924,0.00004206,0.00003585,0.00000682,0.00021248,0.00027603,-0.0
 0008414,-0.00011520,-0.00019025,-0.00002333,-0.00012170,0.00011308,0.0
 0001689,-0.00001593,-0.00020276,-0.00002202,0.00005497,0.00001641,0.00
 159033,0.00121535,-0.00106892,-0.00019214,-0.00033117,-0.00002118,-0.0
 0026085,-0.00055167,-0.00002590,-0.00117882,-0.00100839,0.00041921,0.0
 0005373,-0.00011389,-0.00003256,0.00000969,-0.00000674,-0.00004138,-0.
 00003393,-0.00001123,0.00000169,0.00002461,0.00002260,0.00002643,-0.00
 009812,0.00001425,0.00001563,0.00002180,-0.00001342,0.00003888,-0.0005
 2260,-0.00039880,-0.00050185,-0.00014281,0.00015306,-0.00005762,-0.000
 07185,0.00004118,0.00000868,-0.00002090,-0.00003408,-0.00001808,0.0000
 2021,-0.00001172,-0.00004722,-0.00000278,0.00001065,0.00002258,-0.0000
 3788,0.00001966,0.00003175,0.00002110,0.00000092,-0.00000238,0.0003109
 5,-0.00000267,0.00012878,0.00070230,0.00040671,-0.00115865,0.00014481,
 0.00007971,-0.00002785,0.00011998,-0.00001461,-0.00003851,0.00012050,-
 0.00008048,0.00002673,-0.00009459,-0.00002892,-0.00012128,0.00001491,-
 0.00000074,0.00001070,0.00001901,0.00002638,-0.00004023,0.00007575,-0.
 00000417,0.00021908,-0.00307542,-0.00121257,0.00094188,0.00083581,0.00
 112701,0.00024405,0.00128081,-0.00002253,0.00007119,0.00189127,0.00171
 669,-0.00049507,0.00009499,0.00038839,-0.00064662,-0.00385842,0.002694
 11,-0.00601211,0.00028285,0.00055431,-0.00013345,-0.00004356,-0.000047
 46,-0.00000901,0.03873452,0.00378219,-0.02278153,-0.00018059,-0.000476
 88,0.00004133,0.00163822,0.00005503,-0.00001606,-0.00004453,0.00020411
 ,-0.00183554,-0.00009210,-0.00006263,0.00003580,0.00001926,0.00000425,
 0.00000508,0.00001477,0.00000082,-0.00000801,0.00000282,0.00000767,-0.
 00000797,-0.00002315,0.00002547,0.00003635,-0.00000517,-0.00000342,-0.
 00000379,-0.00000226,-0.00000625,0.00000049,0.00001240,-0.00000006,-0.
 00000550,-0.00007538,0.00002750,-0.00005551,0.00001143,0.00000397,0.00
 000420,0.00000143,0.00000035,0.00001072,0.00000561,-0.00000729,0.00000
 139,0.00004121,0.00006231,-0.00012648,0.00000619,-0.00000110,0.0000160
 2,-0.00001914,-0.00001151,0.00000797,-0.00000878,-0.00001154,0.0000096
 3,-0.00000123,-0.00000280,-0.00000167,-0.00000119,0.00000754,0.0000027
 1,0.00000023,0.00000014,-0.00000338,0.00000211,-0.00000436,0.00000327,
 -0.00010953,-0.00016455,-0.00008188,0.00002416,0.00002833,0.00002193,-
 0.00000511,-0.00001812,0.00000538,0.00000129,0.00000054,-0.00000210,0.
 00000166,-0.00000581,0.00000111,0.00000184,0.00000674,0.00000354,-0.00
 001887,-0.00000205,-0.00001936,0.00000257,0.00000904,0.00000282,-0.000
 00736,-0.00000809,-0.00000181,0.00000281,0.00000005,-0.00000006,0.0020
 0571,-0.00049573,0.00058528,-0.00062286,0.00047539,0.00003251,-0.00066
 295,-0.00012102,-0.00010803,-0.00043909,0.00015662,-0.00048124,0.10083
 116,0.00979918,-0.17031310,-0.00707054,0.00023790,0.02289161,0.0294331
 5,-0.03100601,-0.01411260,-0.16086848,0.01306744,0.19374624\\-0.000001
 08,0.00000017,-0.00000106,-0.00000051,-0.00000050,-0.00000102,-0.00000
 084,0.00000040,-0.00000082,-0.00000182,0.00000036,-0.00000102,-0.00000
 072,-0.00000038,-0.00000010,-0.00000065,-0.00000054,-0.00000131,-0.000
 00036,-0.00000065,-0.00000124,-0.00000162,-0.00000015,-0.00000143,-0.0
 0000179,0.00000053,-0.00000039,-0.00000048,0.00000015,-0.00000042,-0.0
 0000096,-0.00000021,-0.00000015,-0.00000161,-0.00000075,-0.00000140,-0
 .00000068,-0.00000057,-0.00000191,-0.00000076,-0.00000036,-0.00000176,
 -0.00000211,0.00000089,-0.00000083,-0.00000075,0.00000103,0.00000078,-
 0.00000153,0.00000086,0.00000039,-0.00000142,0.00000044,0.00000040,0.0
 0000038,0.00000007,0.00000110,-0.00000023,-0.00000129,-0.00000265,0.00
 000012,-0.00000109,-0.00000182,-0.00000022,-0.00000095,-0.00000215,-0.
 00000059,-0.00000107,-0.00000258,-0.00000080,-0.00000072,-0.00000106,-
 0.00000177,-0.00000005,-0.00000117,-0.00000186,-0.00000016,-0.00000177
 ,-0.00000120,-0.00000064,-0.00000168,-0.00000151,-0.00000037,0.0000004
 5,-0.00000059,0.00000027,0.00000022,-0.00000057,0.00000075,-0.00000007
 ,-0.00000155,0.00000052,0.00000026,0.00000079,0.00000081,0.00000113,0.
 00000127,-0.00000045,0.00000029,-0.00000052,-0.00000031,0.00000151,0.0
 0000048,0.00000028,0.00000084,0.00000056,0.00000076,0.00000203,0.00000
 021,0.00000001,0.00000072,0.00000057,0.00000037,0.00000179,0.00000153,
 0.00000020,0.00000157,0.00000112,0.00000022,0.00000093,0.00000031,0.00
 000061,0.00000157,0.00000037,0.00000074,-0.00000014,0.00000171,-0.0000
 0064,-0.00000058,0.00000092,0.00000074,-0.00000010,0.00000126,0.000000
 38,0.00000165,0.00000141,0.00000049,0.00000203,0.00000102,0.00000005,0
 .00000072,0.00000038,0.00000074,0.00000136,-0.00000044,0.00000028,0.00
 000078,-0.00000015,0.00000102,0.00000109,0.00000097,-0.00000053,-0.000
 00008,0.00000053,-0.00000004,-0.00000056,0.00000121,-0.00000066,0.0000
 0003,0.00000084,-0.00000029,-0.00000150,0.00000036,-0.00000143,-0.0000
 0122,0.00000133,-0.00000098,-0.00000023,0.00000186,-0.00000044,-0.0000
 0243,0.00000161,-0.00000102,-0.00000170,0.00000046,-0.00000097,-0.0000
 0079,0.00000032,-0.00000040,-0.00000033,0.00000044,-0.00000161,-0.0000
 0109,0.00000086,-0.00000110,-0.00000213,0.00000038,0.00000028,0.000001
 31,0.00000084,0.00000061,0.00000171,0.00000144,0.00000038,0.00000143,0
 .00000076,0.00000025,0.00000115,0.00000233,0.00000116,0.00000259,0.000
 00185,0.00000058,0.00000232,0.00000207,0.00000039,0.00000215,0.0000013
 2,0.00000068,0.00000271,0.00000081,0.00000027,0.00000281,0.00000093,0.
 00000122,0.00000266,0.00000059,0.00000102,0.00000181,0.00000116,0.0000
 0130,0.00000280,-0.00000100,0.00000052,0.00000121,-0.00000103,0.000001
 15,0.00000158,-0.00000060,0.00000065,0.00000087,-0.00000045,0.00000086
 ,0.00000163,-0.00000148,-0.00000005,-0.00000143,-0.00000233,0.00000004
 ,-0.00000126,-0.00000183,0.00000009,-0.00000079,-0.00000138,-0.0000001
 5,-0.00000148,-0.00000005,0.00000006,0.00000029,0.00000009,0.00000013,
 0.00000007,-0.00000015,-0.00000002,0.00000112,0.00000016,0.00000051,0.
 00000098,0.00000010,0.00000006,-0.00000006,-0.00000071,0.00000051,0.00
 000031,-0.00000055,0.,0.00000017,-0.00000096,0.00000089,0.00000118,-0.
 00000163,0.00000166,0.00000213,-0.00000028,0.00000058,0.00000145,0.000
 00193,-0.00000194,-0.00000280,0.00000064,-0.00000110,-0.00000259,0.000
 00104,-0.00000192,-0.00000264,0.00000175,-0.00000164,-0.00000227,0.000
 00035,-0.00000009,-0.00000080,-0.00000038,-0.00000021,-0.00000078,0.00
 000069,-0.00000089,-0.00000093,0.00000009,-0.00000065,-0.00000160\\\@


 "PERFECTION IS NOT AN ACCIDENT"
         --  EAGLE ELECTRIC MANUFACTURING CO.,INC. NY
 Job cpu time:       6 days  0 hours 10 minutes 10.3 seconds.
 Elapsed time:       0 days  4 hours 45 minutes 30.4 seconds.
 File lengths (MBytes):  RWF=   9954 Int=      0 D2E=      0 Chk=     88 Scr=      1
 Normal termination of Gaussian 16 at Mon Jun 17 01:25:20 2019.
