 Entering Gaussian System, Link 0=g16
 Input=clay_new-glu_gluC6-bisCF3-sm-pbe0-custom-pcm_thf.gjf
 Output=clay_new-glu_gluC6-bisCF3-sm-pbe0-custom-pcm_thf.out
 Initial command:
 /home/ekwan/sw/g16/l1.exe "/scratch/users/ekwan/clay_new-glu_gluC6-bisCF3-sm-pbe0-custom-pcm_thf/Gau-19812.inp" -scrdir="/scratch/users/ekwan/clay_new-glu_gluC6-bisCF3-sm-pbe0-custom-pcm_thf/"
 Entering Link 1 = /home/ekwan/sw/g16/l1.exe PID=     19813.
  
 Copyright (c) 1988,1990,1992,1993,1995,1998,2003,2009,2016,
            Gaussian, Inc.  All Rights Reserved.
  
 This is part of the Gaussian(R) 16 program.  It is based on
 the Gaussian(R) 09 system (copyright 2009, Gaussian, Inc.),
 the Gaussian(R) 03 system (copyright 2003, Gaussian, Inc.),
 the Gaussian(R) 98 system (copyright 1998, Gaussian, Inc.),
 the Gaussian(R) 94 system (copyright 1995, Gaussian, Inc.),
 the Gaussian 92(TM) system (copyright 1992, Gaussian, Inc.),
 the Gaussian 90(TM) system (copyright 1990, Gaussian, Inc.),
 the Gaussian 88(TM) system (copyright 1988, Gaussian, Inc.),
 the Gaussian 86(TM) system (copyright 1986, Carnegie Mellon
 University), and the Gaussian 82(TM) system (copyright 1983,
 Carnegie Mellon University). Gaussian is a federally registered
 trademark of Gaussian, Inc.
  
 This software contains proprietary and confidential information,
 including trade secrets, belonging to Gaussian, Inc.
  
 This software is provided under written license and may be
 used, copied, transmitted, or stored only in accord with that
 written license.
  
 The following legend is applicable only to US Government
 contracts under FAR:
  
                    RESTRICTED RIGHTS LEGEND
  
 Use, reproduction and disclosure by the US Government is
 subject to restrictions as set forth in subparagraphs (a)
 and (c) of the Commercial Computer Software - Restricted
 Rights clause in FAR 52.227-19.
  
 Gaussian, Inc.
 340 Quinnipiac St., Bldg. 40, Wallingford CT 06492
  
  
 ---------------------------------------------------------------
 Warning -- This program may not be used in any manner that
 competes with the business of Gaussian, Inc. or will provide
 assistance to any competitor of Gaussian, Inc.  The licensee
 of this program is prohibited from giving any competitor of
 Gaussian, Inc. access to this program.  By using this program,
 the user acknowledges that Gaussian, Inc. is engaged in the
 business of creating and licensing software in the field of
 computational chemistry and represents and warrants to the
 licensee that it is not a competitor of Gaussian, Inc. and that
 it will not use this program in any manner prohibited above.
 ---------------------------------------------------------------
  

 Cite this work as:
 Gaussian 16, Revision A.03,
 M. J. Frisch, G. W. Trucks, H. B. Schlegel, G. E. Scuseria, 
 M. A. Robb, J. R. Cheeseman, G. Scalmani, V. Barone, 
 G. A. Petersson, H. Nakatsuji, X. Li, M. Caricato, A. V. Marenich, 
 J. Bloino, B. G. Janesko, R. Gomperts, B. Mennucci, H. P. Hratchian, 
 J. V. Ortiz, A. F. Izmaylov, J. L. Sonnenberg, D. Williams-Young, 
 F. Ding, F. Lipparini, F. Egidi, J. Goings, B. Peng, A. Petrone, 
 T. Henderson, D. Ranasinghe, V. G. Zakrzewski, J. Gao, N. Rega, 
 G. Zheng, W. Liang, M. Hada, M. Ehara, K. Toyota, R. Fukuda, 
 J. Hasegawa, M. Ishida, T. Nakajima, Y. Honda, O. Kitao, H. Nakai, 
 T. Vreven, K. Throssell, J. A. Montgomery, Jr., J. E. Peralta, 
 F. Ogliaro, M. J. Bearpark, J. J. Heyd, E. N. Brothers, K. N. Kudin, 
 V. N. Staroverov, T. A. Keith, R. Kobayashi, J. Normand, 
 K. Raghavachari, A. P. Rendell, J. C. Burant, S. S. Iyengar, 
 J. Tomasi, M. Cossi, J. M. Millam, M. Klene, C. Adamo, R. Cammi, 
 J. W. Ochterski, R. L. Martin, K. Morokuma, O. Farkas, 
 J. B. Foresman, and D. J. Fox, Gaussian, Inc., Wallingford CT, 2016.
 
 ******************************************
 Gaussian 16:  AS64L-G16RevA.03 25-Dec-2016
                15-Jun-2019 
 ******************************************
 %nprocshared=32
 Will use up to   32 processors via shared memory.
 %mem=48GB
 ----------------------------------------------------------------------
 #p opt freq=noraman pop=none 6-31g* scrf=(pcm,solvent=tetrahydrofuran)
  pbe1pbe extrabasis
 ----------------------------------------------------------------------
 1/18=20,19=15,26=3,38=1/1,3;
 2/9=110,12=2,17=6,18=5,40=1/2;
 3/5=1,6=6,7=1,10=1,11=2,25=1,30=1,70=2201,71=1,72=20,74=-13/1,2,3;
 4//1;
 5/5=2,38=5,53=20/2;
 7//1,2,3,16;
 1/18=20,19=15,26=3/3(2);
 2/9=110/2;
 99//99;
 2/9=110/2;
 3/5=7,6=1,7=1,11=2,25=1,30=1,70=2205,71=1,72=20,74=-13,82=7/1,2,3;
 4/5=5,16=3,69=1/1;
 5/5=2,38=5,53=20/2;
 7//1,2,3,16;
 1/18=20,19=15,26=3/3(-5);
 2/9=110/2;
 99/9=1/99;
 Leave Link    1 at Sat Jun 15 09:04:30 2019, MaxMem=  6442450944 cpu:               4.7 elap:               0.2
 (Enter /home/ekwan/sw/g16/l101.exe)
 -----
 title
 -----
 Symbolic Z-matrix:
 Charge =  0 Multiplicity = 1
 6                     3.48717  -0.18953   0.74068 
 6                     3.35151  -0.46228  -0.75477 
 6                     1.88553  -0.3825   -1.20095 
 6                     1.30732   1.07118   0.59207 
 6                     2.74574   1.09197   1.10606 
 1                     1.78723  -0.44448  -2.28613 
 1                     3.87235   0.34848  -1.29095 
 1                     3.04482  -1.0221    1.30756 
 1                     0.75247   0.28652   1.12693 
 1                     3.26475   1.94414   0.64659 
 8                     1.27083   0.79193  -0.8159 
 8                     1.22244  -1.53802  -0.62345 
 8                     3.93835  -1.69833  -1.05222 
 8                     4.84102  -0.02007   1.09409 
 8                     2.69142   1.23758   2.50756 
 6                     0.58719   2.38808   0.83763 
 1                     0.46011   2.48457   1.92002 
 1                    -0.40915   2.34728   0.37452 
 8                     1.28757   3.53252   0.41543 
 16                   -0.07356  -2.16081  -1.36366 
 8                    -0.16503  -3.51717  -0.8563 
 8                     0.02991  -1.89391  -2.79152 
 6                    -1.43598  -1.22423  -0.71193 
 6                    -2.08053  -1.68397   0.43056 
 6                    -1.82394  -0.05633  -1.35876 
 6                    -3.14622  -0.94456   0.93442 
 1                    -1.76045  -2.60308   0.90975 
 6                    -2.88477   0.67171  -0.83136 
 1                    -1.31416   0.27412  -2.25683 
 6                    -3.54809   0.23285   0.31127 
 1                    -4.37791   0.80491   0.71238 
 6                     4.31166  -1.85785  -2.40684 
 1                     3.44175  -1.91619  -3.07429 
 1                     4.96187  -1.03609  -2.73748 
 1                     4.862    -2.79854  -2.47099 
 6                     5.45554  -1.17277   1.63389 
 1                     6.48237  -0.89214   1.8821 
 1                     4.94638  -1.50113   2.55122 
 1                     5.46821  -1.99925   0.91532 
 6                     3.54317   2.24551   3.01511 
 1                     3.40341   2.25863   4.09912 
 1                     4.59373   2.03075   2.78786 
 1                     3.27762   3.23081   2.60798 
 6                     1.12514   3.8516   -0.95167 
 1                     1.54086   4.85262  -1.09351 
 1                     0.06135   3.86439  -1.22966 
 1                     1.649     3.1471   -1.60778 
 6                    -3.90629  -1.45528   2.12885 
 9                    -3.11868  -2.17176   2.94184 
 9                    -4.92132  -2.24947   1.7544 
 9                    -4.4305   -0.44979   2.84305 
 6                    -3.27673   1.97591  -1.4699 
 9                    -2.58807   3.00271  -0.93347 
 9                    -4.5767    2.24183  -1.29492 
 9                    -3.02564   1.97739  -2.78456 
 
 ITRead=  0  0  0  0  0  0  0  0  0  0  0  0  0  0  0  0  0  0  0  0
 ITRead=  0  0  0  0  0  0  0  0  0  0  0  0  0  0  0  0  0  0  0  0
 ITRead=  0  0  0  0  0  0  0  0  0  0  0  0  0  0  0
 MicOpt= -1 -1 -1 -1 -1 -1 -1 -1 -1 -1 -1 -1 -1 -1 -1 -1 -1 -1 -1 -1
 MicOpt= -1 -1 -1 -1 -1 -1 -1 -1 -1 -1 -1 -1 -1 -1 -1 -1 -1 -1 -1 -1
 MicOpt= -1 -1 -1 -1 -1 -1 -1 -1 -1 -1 -1 -1 -1 -1 -1
 NAtoms=     55 NQM=       55 NQMF=       0 NMMI=      0 NMMIF=      0
                NMic=       0 NMicF=      0.
                    Isotopes and Nuclear Properties:
 (Nuclear quadrupole moments (NQMom) in fm**2, nuclear magnetic moments (NMagM)
  in nuclear magnetons)

  Atom         1           2           3           4           5           6           7           8           9          10
 IAtWgt=          12          12          12          12          12           1           1           1           1           1
 AtmWgt=  12.0000000  12.0000000  12.0000000  12.0000000  12.0000000   1.0078250   1.0078250   1.0078250   1.0078250   1.0078250
 NucSpn=           0           0           0           0           0           1           1           1           1           1
 AtZEff=   0.0000000   0.0000000   0.0000000   0.0000000   0.0000000   0.0000000   0.0000000   0.0000000   0.0000000   0.0000000
 NQMom=    0.0000000   0.0000000   0.0000000   0.0000000   0.0000000   0.0000000   0.0000000   0.0000000   0.0000000   0.0000000
 NMagM=    0.0000000   0.0000000   0.0000000   0.0000000   0.0000000   2.7928460   2.7928460   2.7928460   2.7928460   2.7928460
 AtZNuc=   6.0000000   6.0000000   6.0000000   6.0000000   6.0000000   1.0000000   1.0000000   1.0000000   1.0000000   1.0000000

  Atom        11          12          13          14          15          16          17          18          19          20
 IAtWgt=          16          16          16          16          16          12           1           1          16          32
 AtmWgt=  15.9949146  15.9949146  15.9949146  15.9949146  15.9949146  12.0000000   1.0078250   1.0078250  15.9949146  31.9720718
 NucSpn=           0           0           0           0           0           0           1           1           0           0
 AtZEff=   0.0000000   0.0000000   0.0000000   0.0000000   0.0000000   0.0000000   0.0000000   0.0000000   0.0000000   0.0000000
 NQMom=    0.0000000   0.0000000   0.0000000   0.0000000   0.0000000   0.0000000   0.0000000   0.0000000   0.0000000   0.0000000
 NMagM=    0.0000000   0.0000000   0.0000000   0.0000000   0.0000000   0.0000000   2.7928460   2.7928460   0.0000000   0.0000000
 AtZNuc=   8.0000000   8.0000000   8.0000000   8.0000000   8.0000000   6.0000000   1.0000000   1.0000000   8.0000000  16.0000000

  Atom        21          22          23          24          25          26          27          28          29          30
 IAtWgt=          16          16          12          12          12          12           1          12           1          12
 AtmWgt=  15.9949146  15.9949146  12.0000000  12.0000000  12.0000000  12.0000000   1.0078250  12.0000000   1.0078250  12.0000000
 NucSpn=           0           0           0           0           0           0           1           0           1           0
 AtZEff=   0.0000000   0.0000000   0.0000000   0.0000000   0.0000000   0.0000000   0.0000000   0.0000000   0.0000000   0.0000000
 NQMom=    0.0000000   0.0000000   0.0000000   0.0000000   0.0000000   0.0000000   0.0000000   0.0000000   0.0000000   0.0000000
 NMagM=    0.0000000   0.0000000   0.0000000   0.0000000   0.0000000   0.0000000   2.7928460   0.0000000   2.7928460   0.0000000
 AtZNuc=   8.0000000   8.0000000   6.0000000   6.0000000   6.0000000   6.0000000   1.0000000   6.0000000   1.0000000   6.0000000

  Atom        31          32          33          34          35          36          37          38          39          40
 IAtWgt=           1          12           1           1           1          12           1           1           1          12
 AtmWgt=   1.0078250  12.0000000   1.0078250   1.0078250   1.0078250  12.0000000   1.0078250   1.0078250   1.0078250  12.0000000
 NucSpn=           1           0           1           1           1           0           1           1           1           0
 AtZEff=   0.0000000   0.0000000   0.0000000   0.0000000   0.0000000   0.0000000   0.0000000   0.0000000   0.0000000   0.0000000
 NQMom=    0.0000000   0.0000000   0.0000000   0.0000000   0.0000000   0.0000000   0.0000000   0.0000000   0.0000000   0.0000000
 NMagM=    2.7928460   0.0000000   2.7928460   2.7928460   2.7928460   0.0000000   2.7928460   2.7928460   2.7928460   0.0000000
 AtZNuc=   1.0000000   6.0000000   1.0000000   1.0000000   1.0000000   6.0000000   1.0000000   1.0000000   1.0000000   6.0000000

  Atom        41          42          43          44          45          46          47          48          49          50
 IAtWgt=           1           1           1          12           1           1           1          12          19          19
 AtmWgt=   1.0078250   1.0078250   1.0078250  12.0000000   1.0078250   1.0078250   1.0078250  12.0000000  18.9984033  18.9984033
 NucSpn=           1           1           1           0           1           1           1           0           1           1
 AtZEff=   0.0000000   0.0000000   0.0000000   0.0000000   0.0000000   0.0000000   0.0000000   0.0000000   0.0000000   0.0000000
 NQMom=    0.0000000   0.0000000   0.0000000   0.0000000   0.0000000   0.0000000   0.0000000   0.0000000   0.0000000   0.0000000
 NMagM=    2.7928460   2.7928460   2.7928460   0.0000000   2.7928460   2.7928460   2.7928460   0.0000000   2.6288670   2.6288670
 AtZNuc=   1.0000000   1.0000000   1.0000000   6.0000000   1.0000000   1.0000000   1.0000000   6.0000000   9.0000000   9.0000000

  Atom        51          52          53          54          55
 IAtWgt=          19          12          19          19          19
 AtmWgt=  18.9984033  12.0000000  18.9984033  18.9984033  18.9984033
 NucSpn=           1           0           1           1           1
 AtZEff=   0.0000000   0.0000000   0.0000000   0.0000000   0.0000000
 NQMom=    0.0000000   0.0000000   0.0000000   0.0000000   0.0000000
 NMagM=    2.6288670   0.0000000   2.6288670   2.6288670   2.6288670
 AtZNuc=   9.0000000   6.0000000   9.0000000   9.0000000   9.0000000
 Leave Link  101 at Sat Jun 15 09:04:31 2019, MaxMem=  6442450944 cpu:              17.5 elap:               0.7
 (Enter /home/ekwan/sw/g16/l103.exe)

 GradGradGradGradGradGradGradGradGradGradGradGradGradGradGradGradGradGrad
 Berny optimization.
 Initialization pass.
                           ----------------------------
                           !    Initial Parameters    !
                           ! (Angstroms and Degrees)  !
 --------------------------                            --------------------------
 ! Name  Definition              Value          Derivative Info.                !
 --------------------------------------------------------------------------------
 ! R1    R(1,2)                  1.5262         estimate D2E/DX2                !
 ! R2    R(1,5)                  1.5249         estimate D2E/DX2                !
 ! R3    R(1,8)                  1.1001         estimate D2E/DX2                !
 ! R4    R(1,14)                 1.4094         estimate D2E/DX2                !
 ! R5    R(2,3)                  1.5344         estimate D2E/DX2                !
 ! R6    R(2,7)                  1.1028         estimate D2E/DX2                !
 ! R7    R(2,13)                 1.4002         estimate D2E/DX2                !
 ! R8    R(3,6)                  1.0914         estimate D2E/DX2                !
 ! R9    R(3,11)                 1.3804         estimate D2E/DX2                !
 ! R10   R(3,12)                 1.452          estimate D2E/DX2                !
 ! R11   R(4,5)                  1.5276         estimate D2E/DX2                !
 ! R12   R(4,9)                  1.0998         estimate D2E/DX2                !
 ! R13   R(4,11)                 1.4359         estimate D2E/DX2                !
 ! R14   R(4,16)                 1.5209         estimate D2E/DX2                !
 ! R15   R(5,10)                 1.0985         estimate D2E/DX2                !
 ! R16   R(5,15)                 1.4101         estimate D2E/DX2                !
 ! R17   R(12,20)                1.6172         estimate D2E/DX2                !
 ! R18   R(13,32)                1.4141         estimate D2E/DX2                !
 ! R19   R(14,36)                1.4134         estimate D2E/DX2                !
 ! R20   R(15,40)                1.4139         estimate D2E/DX2                !
 ! R21   R(16,17)                1.0941         estimate D2E/DX2                !
 ! R22   R(16,18)                1.0995         estimate D2E/DX2                !
 ! R23   R(16,19)                1.4066         estimate D2E/DX2                !
 ! R24   R(19,44)                1.4132         estimate D2E/DX2                !
 ! R25   R(20,21)                1.451          estimate D2E/DX2                !
 ! R26   R(20,22)                1.4563         estimate D2E/DX2                !
 ! R27   R(20,23)                1.7771         estimate D2E/DX2                !
 ! R28   R(23,24)                1.39           estimate D2E/DX2                !
 ! R29   R(23,25)                1.3903         estimate D2E/DX2                !
 ! R30   R(24,26)                1.3915         estimate D2E/DX2                !
 ! R31   R(24,27)                1.0848         estimate D2E/DX2                !
 ! R32   R(25,28)                1.3905         estimate D2E/DX2                !
 ! R33   R(25,29)                1.0843         estimate D2E/DX2                !
 ! R34   R(26,30)                1.3914         estimate D2E/DX2                !
 ! R35   R(26,48)                1.5051         estimate D2E/DX2                !
 ! R36   R(28,30)                1.3922         estimate D2E/DX2                !
 ! R37   R(28,52)                1.5041         estimate D2E/DX2                !
 ! R38   R(30,31)                1.0848         estimate D2E/DX2                !
 ! R39   R(32,33)                1.098          estimate D2E/DX2                !
 ! R40   R(32,34)                1.0988         estimate D2E/DX2                !
 ! R41   R(32,35)                1.0917         estimate D2E/DX2                !
 ! R42   R(36,37)                1.093          estimate D2E/DX2                !
 ! R43   R(36,38)                1.0993         estimate D2E/DX2                !
 ! R44   R(36,39)                1.0953         estimate D2E/DX2                !
 ! R45   R(40,41)                1.0931         estimate D2E/DX2                !
 ! R46   R(40,42)                1.0961         estimate D2E/DX2                !
 ! R47   R(40,43)                1.0987         estimate D2E/DX2                !
 ! R48   R(44,45)                1.0932         estimate D2E/DX2                !
 ! R49   R(44,46)                1.0996         estimate D2E/DX2                !
 ! R50   R(44,47)                1.096          estimate D2E/DX2                !
 ! R51   R(48,49)                1.3396         estimate D2E/DX2                !
 ! R52   R(48,50)                1.3421         estimate D2E/DX2                !
 ! R53   R(48,51)                1.3401         estimate D2E/DX2                !
 ! R54   R(52,53)                1.3477         estimate D2E/DX2                !
 ! R55   R(52,54)                1.3384         estimate D2E/DX2                !
 ! R56   R(52,55)                1.3384         estimate D2E/DX2                !
 ! A1    A(2,1,5)              109.9832         estimate D2E/DX2                !
 ! A2    A(2,1,8)              109.5082         estimate D2E/DX2                !
 ! A3    A(2,1,14)             110.6447         estimate D2E/DX2                !
 ! A4    A(5,1,8)              108.4832         estimate D2E/DX2                !
 ! A5    A(5,1,14)             107.8126         estimate D2E/DX2                !
 ! A6    A(8,1,14)             110.3667         estimate D2E/DX2                !
 ! A7    A(1,2,3)              111.1343         estimate D2E/DX2                !
 ! A8    A(1,2,7)              107.6412         estimate D2E/DX2                !
 ! A9    A(1,2,13)             109.187          estimate D2E/DX2                !
 ! A10   A(3,2,7)              105.7612         estimate D2E/DX2                !
 ! A11   A(3,2,13)             112.6141         estimate D2E/DX2                !
 ! A12   A(7,2,13)             110.3509         estimate D2E/DX2                !
 ! A13   A(2,3,6)              111.8527         estimate D2E/DX2                !
 ! A14   A(2,3,11)             112.8658         estimate D2E/DX2                !
 ! A15   A(2,3,12)             106.2166         estimate D2E/DX2                !
 ! A16   A(6,3,11)             106.5928         estimate D2E/DX2                !
 ! A17   A(6,3,12)             108.0067         estimate D2E/DX2                !
 ! A18   A(11,3,12)            111.2698         estimate D2E/DX2                !
 ! A19   A(5,4,9)              108.7301         estimate D2E/DX2                !
 ! A20   A(5,4,11)             110.8857         estimate D2E/DX2                !
 ! A21   A(5,4,16)             112.3173         estimate D2E/DX2                !
 ! A22   A(9,4,11)             108.9831         estimate D2E/DX2                !
 ! A23   A(9,4,16)             107.479          estimate D2E/DX2                !
 ! A24   A(11,4,16)            108.3417         estimate D2E/DX2                !
 ! A25   A(1,5,4)              111.454          estimate D2E/DX2                !
 ! A26   A(1,5,10)             108.7829         estimate D2E/DX2                !
 ! A27   A(1,5,15)             110.0996         estimate D2E/DX2                !
 ! A28   A(4,5,10)             108.343          estimate D2E/DX2                !
 ! A29   A(4,5,15)             107.4301         estimate D2E/DX2                !
 ! A30   A(10,5,15)            110.7209         estimate D2E/DX2                !
 ! A31   A(3,11,4)             115.3204         estimate D2E/DX2                !
 ! A32   A(3,12,20)            119.3656         estimate D2E/DX2                !
 ! A33   A(2,13,32)            114.4369         estimate D2E/DX2                !
 ! A34   A(1,14,36)            114.5404         estimate D2E/DX2                !
 ! A35   A(5,15,40)            114.0295         estimate D2E/DX2                !
 ! A36   A(4,16,17)            106.923          estimate D2E/DX2                !
 ! A37   A(4,16,18)            109.2045         estimate D2E/DX2                !
 ! A38   A(4,16,19)            114.851          estimate D2E/DX2                !
 ! A39   A(17,16,18)           108.3448         estimate D2E/DX2                !
 ! A40   A(17,16,19)           106.4413         estimate D2E/DX2                !
 ! A41   A(18,16,19)           110.7923         estimate D2E/DX2                !
 ! A42   A(16,19,44)           114.6348         estimate D2E/DX2                !
 ! A43   A(12,20,21)           104.5042         estimate D2E/DX2                !
 ! A44   A(12,20,22)           108.7392         estimate D2E/DX2                !
 ! A45   A(12,20,23)           104.0964         estimate D2E/DX2                !
 ! A46   A(21,20,22)           121.2406         estimate D2E/DX2                !
 ! A47   A(21,20,23)           108.4258         estimate D2E/DX2                !
 ! A48   A(22,20,23)           108.5095         estimate D2E/DX2                !
 ! A49   A(20,23,24)           118.8567         estimate D2E/DX2                !
 ! A50   A(20,23,25)           119.0798         estimate D2E/DX2                !
 ! A51   A(24,23,25)           122.0635         estimate D2E/DX2                !
 ! A52   A(23,24,26)           118.4893         estimate D2E/DX2                !
 ! A53   A(23,24,27)           120.4293         estimate D2E/DX2                !
 ! A54   A(26,24,27)           121.0797         estimate D2E/DX2                !
 ! A55   A(23,25,28)           118.4405         estimate D2E/DX2                !
 ! A56   A(23,25,29)           120.6762         estimate D2E/DX2                !
 ! A57   A(28,25,29)           120.8822         estimate D2E/DX2                !
 ! A58   A(24,26,30)           120.5753         estimate D2E/DX2                !
 ! A59   A(24,26,48)           119.5914         estimate D2E/DX2                !
 ! A60   A(30,26,48)           119.7814         estimate D2E/DX2                !
 ! A61   A(25,28,30)           120.6465         estimate D2E/DX2                !
 ! A62   A(25,28,52)           119.4578         estimate D2E/DX2                !
 ! A63   A(30,28,52)           119.8413         estimate D2E/DX2                !
 ! A64   A(26,30,28)           119.7813         estimate D2E/DX2                !
 ! A65   A(26,30,31)           120.1043         estimate D2E/DX2                !
 ! A66   A(28,30,31)           120.114          estimate D2E/DX2                !
 ! A67   A(13,32,33)           112.2803         estimate D2E/DX2                !
 ! A68   A(13,32,34)           111.1059         estimate D2E/DX2                !
 ! A69   A(13,32,35)           106.6517         estimate D2E/DX2                !
 ! A70   A(33,32,34)           109.0042         estimate D2E/DX2                !
 ! A71   A(33,32,35)           108.5344         estimate D2E/DX2                !
 ! A72   A(34,32,35)           109.1723         estimate D2E/DX2                !
 ! A73   A(14,36,37)           106.6055         estimate D2E/DX2                !
 ! A74   A(14,36,38)           111.1558         estimate D2E/DX2                !
 ! A75   A(14,36,39)           111.7079         estimate D2E/DX2                !
 ! A76   A(37,36,38)           108.8019         estimate D2E/DX2                !
 ! A77   A(37,36,39)           109.3814         estimate D2E/DX2                !
 ! A78   A(38,36,39)           109.1124         estimate D2E/DX2                !
 ! A79   A(15,40,41)           106.7105         estimate D2E/DX2                !
 ! A80   A(15,40,42)           111.3025         estimate D2E/DX2                !
 ! A81   A(15,40,43)           111.1426         estimate D2E/DX2                !
 ! A82   A(41,40,42)           109.2997         estimate D2E/DX2                !
 ! A83   A(41,40,43)           109.0163         estimate D2E/DX2                !
 ! A84   A(42,40,43)           109.3016         estimate D2E/DX2                !
 ! A85   A(19,44,45)           106.7719         estimate D2E/DX2                !
 ! A86   A(19,44,46)           111.0019         estimate D2E/DX2                !
 ! A87   A(19,44,47)           112.2743         estimate D2E/DX2                !
 ! A88   A(45,44,46)           108.9327         estimate D2E/DX2                !
 ! A89   A(45,44,47)           109.2176         estimate D2E/DX2                !
 ! A90   A(46,44,47)           108.5748         estimate D2E/DX2                !
 ! A91   A(26,48,49)           111.481          estimate D2E/DX2                !
 ! A92   A(26,48,50)           111.1813         estimate D2E/DX2                !
 ! A93   A(26,48,51)           111.4623         estimate D2E/DX2                !
 ! A94   A(49,48,50)           107.3065         estimate D2E/DX2                !
 ! A95   A(49,48,51)           107.929          estimate D2E/DX2                !
 ! A96   A(50,48,51)           107.2684         estimate D2E/DX2                !
 ! A97   A(28,52,53)           111.0074         estimate D2E/DX2                !
 ! A98   A(28,52,54)           111.7096         estimate D2E/DX2                !
 ! A99   A(28,52,55)           111.658          estimate D2E/DX2                !
 ! A100  A(53,52,54)           107.032          estimate D2E/DX2                !
 ! A101  A(53,52,55)           107.1126         estimate D2E/DX2                !
 ! A102  A(54,52,55)           108.0846         estimate D2E/DX2                !
 ! D1    D(5,1,2,3)            -50.1459         estimate D2E/DX2                !
 ! D2    D(5,1,2,7)             65.2276         estimate D2E/DX2                !
 ! D3    D(5,1,2,13)          -174.9668         estimate D2E/DX2                !
 ! D4    D(8,1,2,3)             68.9787         estimate D2E/DX2                !
 ! D5    D(8,1,2,7)           -175.6478         estimate D2E/DX2                !
 ! D6    D(8,1,2,13)           -55.8422         estimate D2E/DX2                !
 ! D7    D(14,1,2,3)          -169.1481         estimate D2E/DX2                !
 ! D8    D(14,1,2,7)           -53.7746         estimate D2E/DX2                !
 ! D9    D(14,1,2,13)           66.0309         estimate D2E/DX2                !
 ! D10   D(2,1,5,4)             51.8076         estimate D2E/DX2                !
 ! D11   D(2,1,5,10)           -67.5859         estimate D2E/DX2                !
 ! D12   D(2,1,5,15)           170.92           estimate D2E/DX2                !
 ! D13   D(8,1,5,4)            -67.9423         estimate D2E/DX2                !
 ! D14   D(8,1,5,10)           172.6642         estimate D2E/DX2                !
 ! D15   D(8,1,5,15)            51.1701         estimate D2E/DX2                !
 ! D16   D(14,1,5,4)           172.5306         estimate D2E/DX2                !
 ! D17   D(14,1,5,10)           53.1371         estimate D2E/DX2                !
 ! D18   D(14,1,5,15)          -68.357          estimate D2E/DX2                !
 ! D19   D(2,1,14,36)          -98.1511         estimate D2E/DX2                !
 ! D20   D(5,1,14,36)          141.5414         estimate D2E/DX2                !
 ! D21   D(8,1,14,36)           23.2162         estimate D2E/DX2                !
 ! D22   D(1,2,3,6)            172.4735         estimate D2E/DX2                !
 ! D23   D(1,2,3,11)            52.2721         estimate D2E/DX2                !
 ! D24   D(1,2,3,12)           -69.9134         estimate D2E/DX2                !
 ! D25   D(7,2,3,6)             55.941          estimate D2E/DX2                !
 ! D26   D(7,2,3,11)           -64.2604         estimate D2E/DX2                !
 ! D27   D(7,2,3,12)           173.5541         estimate D2E/DX2                !
 ! D28   D(13,2,3,6)           -64.6576         estimate D2E/DX2                !
 ! D29   D(13,2,3,11)          175.141          estimate D2E/DX2                !
 ! D30   D(13,2,3,12)           52.9556         estimate D2E/DX2                !
 ! D31   D(1,2,13,32)         -158.3824         estimate D2E/DX2                !
 ! D32   D(3,2,13,32)           77.6648         estimate D2E/DX2                !
 ! D33   D(7,2,13,32)          -40.2625         estimate D2E/DX2                !
 ! D34   D(2,3,11,4)           -56.0221         estimate D2E/DX2                !
 ! D35   D(6,3,11,4)          -179.196          estimate D2E/DX2                !
 ! D36   D(12,3,11,4)           63.2792         estimate D2E/DX2                !
 ! D37   D(2,3,12,20)         -152.4192         estimate D2E/DX2                !
 ! D38   D(6,3,12,20)          -32.2771         estimate D2E/DX2                !
 ! D39   D(11,3,12,20)          84.387          estimate D2E/DX2                !
 ! D40   D(9,4,5,1)             66.236          estimate D2E/DX2                !
 ! D41   D(9,4,5,10)          -174.1096         estimate D2E/DX2                !
 ! D42   D(9,4,5,15)           -54.4537         estimate D2E/DX2                !
 ! D43   D(11,4,5,1)           -53.5667         estimate D2E/DX2                !
 ! D44   D(11,4,5,10)           66.0877         estimate D2E/DX2                !
 ! D45   D(11,4,5,15)         -174.2564         estimate D2E/DX2                !
 ! D46   D(16,4,5,1)          -174.947          estimate D2E/DX2                !
 ! D47   D(16,4,5,10)          -55.2927         estimate D2E/DX2                !
 ! D48   D(16,4,5,15)           64.3632         estimate D2E/DX2                !
 ! D49   D(5,4,11,3)            56.482          estimate D2E/DX2                !
 ! D50   D(9,4,11,3)           -63.1694         estimate D2E/DX2                !
 ! D51   D(16,4,11,3)         -179.8281         estimate D2E/DX2                !
 ! D52   D(5,4,16,17)          -67.7418         estimate D2E/DX2                !
 ! D53   D(5,4,16,18)          175.2352         estimate D2E/DX2                !
 ! D54   D(5,4,16,19)           50.0947         estimate D2E/DX2                !
 ! D55   D(9,4,16,17)           51.8075         estimate D2E/DX2                !
 ! D56   D(9,4,16,18)          -65.2155         estimate D2E/DX2                !
 ! D57   D(9,4,16,19)          169.644          estimate D2E/DX2                !
 ! D58   D(11,4,16,17)         169.4326         estimate D2E/DX2                !
 ! D59   D(11,4,16,18)          52.4096         estimate D2E/DX2                !
 ! D60   D(11,4,16,19)         -72.7309         estimate D2E/DX2                !
 ! D61   D(1,5,15,40)          107.1039         estimate D2E/DX2                !
 ! D62   D(4,5,15,40)         -131.355          estimate D2E/DX2                !
 ! D63   D(10,5,15,40)         -13.2279         estimate D2E/DX2                !
 ! D64   D(3,12,20,21)         159.2305         estimate D2E/DX2                !
 ! D65   D(3,12,20,22)          28.4279         estimate D2E/DX2                !
 ! D66   D(3,12,20,23)         -87.0924         estimate D2E/DX2                !
 ! D67   D(2,13,32,33)         -68.2007         estimate D2E/DX2                !
 ! D68   D(2,13,32,34)          54.168          estimate D2E/DX2                !
 ! D69   D(2,13,32,35)         173.0417         estimate D2E/DX2                !
 ! D70   D(1,14,36,37)        -178.6384         estimate D2E/DX2                !
 ! D71   D(1,14,36,38)         -60.2116         estimate D2E/DX2                !
 ! D72   D(1,14,36,39)          61.9255         estimate D2E/DX2                !
 ! D73   D(5,15,40,41)         179.72           estimate D2E/DX2                !
 ! D74   D(5,15,40,42)         -61.1067         estimate D2E/DX2                !
 ! D75   D(5,15,40,43)          60.9787         estimate D2E/DX2                !
 ! D76   D(4,16,19,44)          84.3333         estimate D2E/DX2                !
 ! D77   D(17,16,19,44)       -157.5584         estimate D2E/DX2                !
 ! D78   D(18,16,19,44)        -39.9734         estimate D2E/DX2                !
 ! D79   D(16,19,44,45)        168.5743         estimate D2E/DX2                !
 ! D80   D(16,19,44,46)         49.9745         estimate D2E/DX2                !
 ! D81   D(16,19,44,47)        -71.7592         estimate D2E/DX2                !
 ! D82   D(12,20,23,24)        -90.3525         estimate D2E/DX2                !
 ! D83   D(12,20,23,25)         89.6414         estimate D2E/DX2                !
 ! D84   D(21,20,23,24)         20.4926         estimate D2E/DX2                !
 ! D85   D(21,20,23,25)       -159.5136         estimate D2E/DX2                !
 ! D86   D(22,20,23,24)        153.9657         estimate D2E/DX2                !
 ! D87   D(22,20,23,25)        -26.0405         estimate D2E/DX2                !
 ! D88   D(20,23,24,26)        179.9901         estimate D2E/DX2                !
 ! D89   D(20,23,24,27)         -0.4728         estimate D2E/DX2                !
 ! D90   D(25,23,24,26)         -0.0035         estimate D2E/DX2                !
 ! D91   D(25,23,24,27)        179.5336         estimate D2E/DX2                !
 ! D92   D(20,23,25,28)       -179.4991         estimate D2E/DX2                !
 ! D93   D(20,23,25,29)          0.8838         estimate D2E/DX2                !
 ! D94   D(24,23,25,28)          0.4945         estimate D2E/DX2                !
 ! D95   D(24,23,25,29)       -179.1226         estimate D2E/DX2                !
 ! D96   D(23,24,26,30)         -0.4577         estimate D2E/DX2                !
 ! D97   D(23,24,26,48)        176.9172         estimate D2E/DX2                !
 ! D98   D(27,24,26,30)       -179.9916         estimate D2E/DX2                !
 ! D99   D(27,24,26,48)         -2.6168         estimate D2E/DX2                !
 ! D100  D(23,25,28,30)         -0.533          estimate D2E/DX2                !
 ! D101  D(23,25,28,52)        176.7815         estimate D2E/DX2                !
 ! D102  D(29,25,28,30)        179.0833         estimate D2E/DX2                !
 ! D103  D(29,25,28,52)         -3.6023         estimate D2E/DX2                !
 ! D104  D(24,26,30,28)          0.4187         estimate D2E/DX2                !
 ! D105  D(24,26,30,31)       -179.8098         estimate D2E/DX2                !
 ! D106  D(48,26,30,28)       -176.9512         estimate D2E/DX2                !
 ! D107  D(48,26,30,31)          2.8203         estimate D2E/DX2                !
 ! D108  D(24,26,48,49)         30.7301         estimate D2E/DX2                !
 ! D109  D(24,26,48,50)        -88.9623         estimate D2E/DX2                !
 ! D110  D(24,26,48,51)        151.406          estimate D2E/DX2                !
 ! D111  D(30,26,48,49)       -151.874          estimate D2E/DX2                !
 ! D112  D(30,26,48,50)         88.4336         estimate D2E/DX2                !
 ! D113  D(30,26,48,51)        -31.198          estimate D2E/DX2                !
 ! D114  D(25,28,30,26)          0.0879         estimate D2E/DX2                !
 ! D115  D(25,28,30,31)       -179.6836         estimate D2E/DX2                !
 ! D116  D(52,28,30,26)       -177.2163         estimate D2E/DX2                !
 ! D117  D(52,28,30,31)          3.0122         estimate D2E/DX2                !
 ! D118  D(25,28,52,53)        -88.8529         estimate D2E/DX2                !
 ! D119  D(25,28,52,54)        151.7667         estimate D2E/DX2                !
 ! D120  D(25,28,52,55)         30.5952         estimate D2E/DX2                !
 ! D121  D(30,28,52,53)         88.4835         estimate D2E/DX2                !
 ! D122  D(30,28,52,54)        -30.8969         estimate D2E/DX2                !
 ! D123  D(30,28,52,55)       -152.0684         estimate D2E/DX2                !
 --------------------------------------------------------------------------------
 Trust Radius=3.00D-01 FncErr=1.00D-07 GrdErr=1.00D-06 EigMax=2.50D+02 EigMin=1.00D-04
 Number of steps in this run=    291 maximum allowed number of steps=    330.
 GradGradGradGradGradGradGradGradGradGradGradGradGradGradGradGradGradGrad

 Leave Link  103 at Sat Jun 15 09:04:31 2019, MaxMem=  6442450944 cpu:               2.4 elap:               0.1
 (Enter /home/ekwan/sw/g16/l202.exe)
 Stoichiometry    C18H22F6O8S
 Framework group  C1[X(C18H22F6O8S)]
 Deg. of freedom   159
 Full point group                 C1      NOp   1
 Largest Abelian subgroup         C1      NOp   1
 Largest concise Abelian subgroup C1      NOp   1
                         Standard orientation:                         
 ---------------------------------------------------------------------
 Center     Atomic      Atomic             Coordinates (Angstroms)
 Number     Number       Type             X           Y           Z
 ---------------------------------------------------------------------
      1          6           0        3.487171   -0.189533    0.740681
      2          6           0        3.351509   -0.462276   -0.754773
      3          6           0        1.885532   -0.382499   -1.200949
      4          6           0        1.307322    1.071179    0.592074
      5          6           0        2.745741    1.091966    1.106062
      6          1           0        1.787227   -0.444479   -2.286127
      7          1           0        3.872348    0.348476   -1.290948
      8          1           0        3.044824   -1.022099    1.307563
      9          1           0        0.752473    0.286522    1.126929
     10          1           0        3.264751    1.944138    0.646590
     11          8           0        1.270825    0.791928   -0.815898
     12          8           0        1.222436   -1.538018   -0.623449
     13          8           0        3.938347   -1.698330   -1.052220
     14          8           0        4.841022   -0.020069    1.094092
     15          8           0        2.691421    1.237582    2.507560
     16          6           0        0.587186    2.388083    0.837634
     17          1           0        0.460111    2.484568    1.920017
     18          1           0       -0.409146    2.347284    0.374521
     19          8           0        1.287574    3.532520    0.415427
     20         16           0       -0.073560   -2.160810   -1.363663
     21          8           0       -0.165031   -3.517166   -0.856300
     22          8           0        0.029907   -1.893910   -2.791519
     23          6           0       -1.435984   -1.224226   -0.711925
     24          6           0       -2.080533   -1.683970    0.430557
     25          6           0       -1.823936   -0.056329   -1.358757
     26          6           0       -3.146216   -0.944557    0.934415
     27          1           0       -1.760446   -2.603077    0.909748
     28          6           0       -2.884770    0.671706   -0.831362
     29          1           0       -1.314157    0.274119   -2.256832
     30          6           0       -3.548094    0.232849    0.311267
     31          1           0       -4.377910    0.804907    0.712378
     32          6           0        4.311658   -1.857845   -2.406842
     33          1           0        3.441754   -1.916185   -3.074292
     34          1           0        4.961871   -1.036095   -2.737477
     35          1           0        4.862003   -2.798541   -2.470993
     36          6           0        5.455541   -1.172768    1.633894
     37          1           0        6.482369   -0.892138    1.882104
     38          1           0        4.946380   -1.501127    2.551217
     39          1           0        5.468212   -1.999250    0.915318
     40          6           0        3.543169    2.245511    3.015111
     41          1           0        3.403409    2.258625    4.099123
     42          1           0        4.593730    2.030750    2.787858
     43          1           0        3.277618    3.230812    2.607975
     44          6           0        1.125136    3.851595   -0.951665
     45          1           0        1.540863    4.852622   -1.093510
     46          1           0        0.061347    3.864388   -1.229662
     47          1           0        1.648995    3.147104   -1.607777
     48          6           0       -3.906294   -1.455278    2.128852
     49          9           0       -3.118677   -2.171758    2.941842
     50          9           0       -4.921321   -2.249469    1.754401
     51          9           0       -4.430498   -0.449794    2.843047
     52          6           0       -3.276735    1.975909   -1.469898
     53          9           0       -2.588065    3.002709   -0.933468
     54          9           0       -4.576699    2.241834   -1.294917
     55          9           0       -3.025638    1.977394   -2.784562
 ---------------------------------------------------------------------
 Rotational constants (GHZ):           0.1516932           0.0815298           0.0756046
 Leave Link  202 at Sat Jun 15 09:04:31 2019, MaxMem=  6442450944 cpu:               5.6 elap:               0.2
 (Enter /home/ekwan/sw/g16/l301.exe)
 Standard basis: 6-31G(d) (6D, 7F)
 Centers:      12     22     21
 SP 1 1.00
     Exponent=  8.4500000000D-02 Coefficients=  1.0000000000D+00  1.0000000000D+00
 ****
 Ernie: Thresh=  0.10000D-02 Tol=  0.10000D-05 Strict=F.
 There are   555 symmetry adapted cartesian basis functions of A   symmetry.
 There are   555 symmetry adapted basis functions of A   symmetry.
   555 basis functions,  1048 primitive gaussians,   555 cartesian basis functions
   132 alpha electrons      132 beta electrons
       nuclear repulsion energy      4296.5080356350 Hartrees.
 IExCor= 1009 DFT=T Ex+Corr=PBE1PBE ExCW=0 ScaHFX=  0.250000
 ScaDFX=  0.750000  0.750000  1.000000  1.000000 ScalE2=  1.000000  1.000000
 IRadAn=      5 IRanWt=     -1 IRanGd=            0 ICorTp=0 IEmpDi=  4
 NAtoms=   55 NActive=   55 NUniq=   55 SFac= 1.00D+00 NAtFMM=   60 NAOKFM=F Big=F
 Integral buffers will be    131072 words long.
 Raffenetti 2 integral format.
 Two-electron integral symmetry is turned on.
 ------------------------------------------------------------------------------
 Polarizable Continuum Model (PCM)
 =================================
 Model                : PCM.
 Atomic radii         : UFF (Universal Force Field).
 Polarization charges : Total charges.
 Charge compensation  : None.
 Solution method      : On-the-fly selection.
 Cavity type          : Scaled VdW (van der Waals Surface) (Alpha=1.100).
 Cavity algorithm     : GePol (No added spheres)
                        Default sphere list used, NSphG=   55.
                        Lebedev-Laikov grids with approx.  5.0 points / Ang**2.
                        Smoothing algorithm: York/Karplus (Gamma=1.0000).
                        Polarization charges: spherical gaussians, with
                                              point-specific exponents (IZeta= 3).
                        Self-potential: point-specific (ISelfS= 7).
                        Self-field    : sphere-specific E.n sum rule (ISelfD= 2).
 1st derivatives      : Analytical E(r).r(x)/FMM algorithm (CHGder, D1EAlg=3).
                        Cavity 1st derivative terms included.
 Solvent              : TetraHydroFuran, Eps=   7.425700 Eps(inf)=   1.974025
 ------------------------------------------------------------------------------
 GePol: Number of generator spheres                  =      55
 GePol: Total number of spheres                      =      55
 GePol: Number of exposed spheres                    =      55 (100.00%)
 GePol: Number of points                             =    3964
 GePol: Average weight of points                     =       0.13
 GePol: Minimum weight of points                     =   0.17D-11
 GePol: Maximum weight of points                     =    0.20577
 GePol: Number of points with low weight             =     256
 GePol: Fraction of low-weight points (<1% of avg)   =       6.46%
 GePol: Cavity surface area                          =    502.585 Ang**2
 GePol: Cavity volume                                =    577.577 Ang**3
 Leave Link  301 at Sat Jun 15 09:04:31 2019, MaxMem=  6442450944 cpu:               7.8 elap:               0.3
 (Enter /home/ekwan/sw/g16/l302.exe)
 NPDir=0 NMtPBC=     1 NCelOv=     1 NCel=       1 NClECP=     1 NCelD=      1
         NCelK=      1 NCelE2=     1 NClLst=     1 CellRange=     0.0.
 One-electron integrals computed using PRISM.
 One-electron integral symmetry used in STVInt
 NBasis=   555 RedAO= T EigKep=  3.98D-04  NBF=   555
 NBsUse=   555 1.00D-06 EigRej= -1.00D+00 NBFU=   555
 Precomputing XC quadrature grid using
 IXCGrd= 4 IRadAn=           5 IRanWt=          -1 IRanGd=           0 AccXCQ= 0.00D+00.
 Generated NRdTot=       0 NPtTot=           0 NUsed=           0 NTot=          32
 NSgBfM=   543   542   542   542   543 MxSgAt=    55 MxSgA2=    55.
 Leave Link  302 at Sat Jun 15 09:04:41 2019, MaxMem=  6442450944 cpu:             259.0 elap:               9.0
 (Enter /home/ekwan/sw/g16/l303.exe)
 DipDrv:  MaxL=1.
 Leave Link  303 at Sat Jun 15 09:04:41 2019, MaxMem=  6442450944 cpu:              10.8 elap:               0.4
 (Enter /home/ekwan/sw/g16/l401.exe)
 ExpMin= 8.45D-02 ExpMax= 2.19D+04 ExpMxC= 3.30D+03 IAcc=3 IRadAn=         5 AccDes= 0.00D+00
 Harris functional with IExCor= 1009 and IRadAn=       5 diagonalized for initial guess.
 HarFok:  IExCor= 1009 AccDes= 0.00D+00 IRadAn=         5 IDoV= 1 UseB2=F ITyADJ=14
 ICtDFT=  3500011 ScaDFX=  1.000000  1.000000  1.000000  1.000000
 FoFCou: FMM=F IPFlag=           0 FMFlag=      100000 FMFlg1=           0
         NFxFlg=           0 DoJE=T BraDBF=F KetDBF=T FulRan=T
         wScrn=  0.000000 ICntrl=       500 IOpCl=  0 I1Cent=   200000004 NGrid=           0
         NMat0=    1 NMatS0=      1 NMatT0=    0 NMatD0=    1 NMtDS0=    0 NMtDT0=    0
 Petite list used in FoFCou.
 Harris En= -2296.15765052801    
 JPrj=0 DoOrth=F DoCkMO=F.
 Leave Link  401 at Sat Jun 15 09:04:47 2019, MaxMem=  6442450944 cpu:             193.8 elap:               6.2
 (Enter /home/ekwan/sw/g16/l502.exe)
 Integral symmetry usage will be decided dynamically.
 Closed shell SCF:
 Using DIIS extrapolation, IDIIS=  1040.
 NGot=  6442450944 LenX=  6441811192 LenY=  6441502612
 Requested convergence on RMS density matrix=1.00D-08 within 128 cycles.
 Requested convergence on MAX density matrix=1.00D-06.
 Requested convergence on             energy=1.00D-06.
 No special actions if energy rises.
 Fock matrices will be formed incrementally for  20 cycles.

 Cycle   1  Pass 1  IDiag  1:
 FoFJK:  IHMeth= 1 ICntrl=       0 DoSepK=F KAlg= 0 I1Cent=           0 FoldK=F
 IRaf= 700000000 NMat=       1 IRICut=       1 DoRegI=T DoRafI=F ISym2E= 0 IDoP0=0 IntGTp=1.
 FoFCou: FMM=F IPFlag=           0 FMFlag=      100000 FMFlg1=           0
         NFxFlg=           0 DoJE=F BraDBF=F KetDBF=F FulRan=T
         wScrn=  0.000000 ICntrl=         0 IOpCl=  0 I1Cent=           0 NGrid=           0
         NMat0=    1 NMatS0=      1 NMatT0=    0 NMatD0=    1 NMtDS0=    0 NMtDT0=    0
 Symmetry not used in FoFCou.
 Inv3:  Mode=1 IEnd=    47139888.
 Iteration    1 A*A^-1 deviation from unit magnitude is 6.66D-15 for   3963.
 Iteration    1 A*A^-1 deviation from orthogonality  is 3.44D-15 for   3963   3366.
 Iteration    1 A^-1*A deviation from unit magnitude is 6.66D-15 for   3963.
 Iteration    1 A^-1*A deviation from orthogonality  is 1.82D-15 for   3954   2862.
 E= -2295.34107098967    
 DIIS: error= 2.12D-02 at cycle   1 NSaved=   1.
 NSaved= 1 IEnMin= 1 EnMin= -2295.34107098967     IErMin= 1 ErrMin= 2.12D-02
 ErrMax= 2.12D-02  0.00D+00 EMaxC= 1.00D-01 BMatC= 7.90D-01 BMatP= 7.90D-01
 IDIUse=3 WtCom= 7.88D-01 WtEn= 2.12D-01
 Coeff-Com:  0.100D+01
 Coeff-En:   0.100D+01
 Coeff:      0.100D+01
 Gap=     0.173 Goal=   None    Shift=    0.000
 GapD=    0.173 DampG=1.000 DampE=0.500 DampFc=0.5000 IDamp=-1.
 Damping current iteration by 5.00D-01
 RMSDP=3.69D-03 MaxDP=4.90D-01              OVMax= 1.66D-01

 Cycle   2  Pass 1  IDiag  1:
 RMSU=  1.84D-03    CP:  9.98D-01
 E= -2295.55322864644     Delta-E=       -0.212157656768 Rises=F Damp=T
 DIIS: error= 7.53D-03 at cycle   2 NSaved=   2.
 NSaved= 2 IEnMin= 2 EnMin= -2295.55322864644     IErMin= 2 ErrMin= 7.53D-03
 ErrMax= 7.53D-03  0.00D+00 EMaxC= 1.00D-01 BMatC= 8.77D-02 BMatP= 7.90D-01
 IDIUse=3 WtCom= 9.25D-01 WtEn= 7.53D-02
 Coeff-Com:  0.150D+00 0.850D+00
 Coeff-En:   0.271D+00 0.729D+00
 Coeff:      0.159D+00 0.841D+00
 Gap=     0.219 Goal=   None    Shift=    0.000
 RMSDP=1.14D-03 MaxDP=1.15D-01 DE=-2.12D-01 OVMax= 1.39D-01

 Cycle   3  Pass 1  IDiag  1:
 RMSU=  9.51D-04    CP:  9.90D-01  6.64D-01
 E= -2295.91419758355     Delta-E=       -0.360968937115 Rises=F Damp=F
 DIIS: error= 7.05D-03 at cycle   3 NSaved=   3.
 NSaved= 3 IEnMin= 3 EnMin= -2295.91419758355     IErMin= 3 ErrMin= 7.05D-03
 ErrMax= 7.05D-03  0.00D+00 EMaxC= 1.00D-01 BMatC= 5.75D-02 BMatP= 8.77D-02
 IDIUse=3 WtCom= 9.29D-01 WtEn= 7.05D-02
 Coeff-Com:  0.771D-02 0.438D+00 0.554D+00
 Coeff-En:   0.000D+00 0.000D+00 0.100D+01
 Coeff:      0.716D-02 0.407D+00 0.586D+00
 Gap=     0.187 Goal=   None    Shift=    0.000
 RMSDP=6.68D-04 MaxDP=3.96D-02 DE=-3.61D-01 OVMax= 5.43D-02

 Cycle   4  Pass 1  IDiag  1:
 RMSU=  4.12D-04    CP:  9.94D-01  8.12D-01  5.31D-01
 E= -2295.95054427121     Delta-E=       -0.036346687655 Rises=F Damp=F
 DIIS: error= 3.15D-03 at cycle   4 NSaved=   4.
 NSaved= 4 IEnMin= 4 EnMin= -2295.95054427121     IErMin= 4 ErrMin= 3.15D-03
 ErrMax= 3.15D-03  0.00D+00 EMaxC= 1.00D-01 BMatC= 1.36D-02 BMatP= 5.75D-02
 IDIUse=3 WtCom= 9.68D-01 WtEn= 3.15D-02
 Coeff-Com: -0.191D-01 0.103D+00 0.351D+00 0.566D+00
 Coeff-En:   0.000D+00 0.000D+00 0.207D+00 0.793D+00
 Coeff:     -0.185D-01 0.997D-01 0.346D+00 0.573D+00
 Gap=     0.188 Goal=   None    Shift=    0.000
 RMSDP=2.44D-04 MaxDP=1.59D-02 DE=-3.63D-02 OVMax= 2.16D-02

 Cycle   5  Pass 1  IDiag  1:
 RMSU=  9.52D-05    CP:  9.93D-01  7.81D-01  6.70D-01  5.83D-01
 E= -2295.96107551494     Delta-E=       -0.010531243737 Rises=F Damp=F
 DIIS: error= 9.16D-04 at cycle   5 NSaved=   5.
 NSaved= 5 IEnMin= 5 EnMin= -2295.96107551494     IErMin= 5 ErrMin= 9.16D-04
 ErrMax= 9.16D-04  0.00D+00 EMaxC= 1.00D-01 BMatC= 7.76D-04 BMatP= 1.36D-02
 IDIUse=3 WtCom= 9.91D-01 WtEn= 9.16D-03
 Coeff-Com: -0.947D-02 0.276D-01 0.140D+00 0.299D+00 0.542D+00
 Coeff-En:   0.000D+00 0.000D+00 0.000D+00 0.000D+00 0.100D+01
 Coeff:     -0.938D-02 0.273D-01 0.139D+00 0.296D+00 0.547D+00
 Gap=     0.188 Goal=   None    Shift=    0.000
 RMSDP=5.38D-05 MaxDP=4.14D-03 DE=-1.05D-02 OVMax= 5.67D-03

 Cycle   6  Pass 1  IDiag  1:
 RMSU=  3.07D-05    CP:  9.93D-01  7.86D-01  6.73D-01  6.30D-01  5.98D-01
 E= -2295.96169520358     Delta-E=       -0.000619688636 Rises=F Damp=F
 DIIS: error= 1.67D-04 at cycle   6 NSaved=   6.
 NSaved= 6 IEnMin= 6 EnMin= -2295.96169520358     IErMin= 6 ErrMin= 1.67D-04
 ErrMax= 1.67D-04  0.00D+00 EMaxC= 1.00D-01 BMatC= 4.66D-05 BMatP= 7.76D-04
 IDIUse=3 WtCom= 9.98D-01 WtEn= 1.67D-03
 Coeff-Com: -0.317D-02 0.537D-02 0.379D-01 0.944D-01 0.264D+00 0.601D+00
 Coeff-En:   0.000D+00 0.000D+00 0.000D+00 0.000D+00 0.000D+00 0.100D+01
 Coeff:     -0.316D-02 0.536D-02 0.378D-01 0.943D-01 0.264D+00 0.602D+00
 Gap=     0.188 Goal=   None    Shift=    0.000
 RMSDP=1.43D-05 MaxDP=8.95D-04 DE=-6.20D-04 OVMax= 1.36D-03

 Cycle   7  Pass 1  IDiag  1:
 RMSU=  7.48D-06    CP:  9.93D-01  7.85D-01  6.73D-01  6.34D-01  6.43D-01
                    CP:  6.45D-01
 E= -2295.96173273166     Delta-E=       -0.000037528078 Rises=F Damp=F
 DIIS: error= 3.11D-05 at cycle   7 NSaved=   7.
 NSaved= 7 IEnMin= 7 EnMin= -2295.96173273166     IErMin= 7 ErrMin= 3.11D-05
 ErrMax= 3.11D-05  0.00D+00 EMaxC= 1.00D-01 BMatC= 2.47D-06 BMatP= 4.66D-05
 IDIUse=1 WtCom= 1.00D+00 WtEn= 0.00D+00
 Coeff-Com: -0.999D-03 0.859D-03 0.914D-02 0.265D-01 0.924D-01 0.278D+00
 Coeff-Com:  0.594D+00
 Coeff:     -0.999D-03 0.859D-03 0.914D-02 0.265D-01 0.924D-01 0.278D+00
 Coeff:      0.594D+00
 Gap=     0.188 Goal=   None    Shift=    0.000
 RMSDP=3.63D-06 MaxDP=2.38D-04 DE=-3.75D-05 OVMax= 3.91D-04

 Cycle   8  Pass 1  IDiag  1:
 RMSU=  2.42D-06    CP:  9.93D-01  7.85D-01  6.73D-01  6.35D-01  6.47D-01
                    CP:  6.94D-01  7.05D-01
 E= -2295.96173464323     Delta-E=       -0.000001911568 Rises=F Damp=F
 DIIS: error= 1.04D-05 at cycle   8 NSaved=   8.
 NSaved= 8 IEnMin= 8 EnMin= -2295.96173464323     IErMin= 8 ErrMin= 1.04D-05
 ErrMax= 1.04D-05  0.00D+00 EMaxC= 1.00D-01 BMatC= 2.97D-07 BMatP= 2.47D-06
 IDIUse=1 WtCom= 1.00D+00 WtEn= 0.00D+00
 Coeff-Com: -0.121D-03-0.147D-03-0.216D-03 0.126D-02 0.137D-01 0.639D-01
 Coeff-Com:  0.291D+00 0.631D+00
 Coeff:     -0.121D-03-0.147D-03-0.216D-03 0.126D-02 0.137D-01 0.639D-01
 Coeff:      0.291D+00 0.631D+00
 Gap=     0.188 Goal=   None    Shift=    0.000
 RMSDP=1.23D-06 MaxDP=7.37D-05 DE=-1.91D-06 OVMax= 9.82D-05

 Cycle   9  Pass 1  IDiag  1:
 RMSU=  8.76D-07    CP:  9.93D-01  7.85D-01  6.73D-01  6.35D-01  6.49D-01
                    CP:  6.97D-01  7.58D-01  7.16D-01
 E= -2295.96173483313     Delta-E=       -0.000000189902 Rises=F Damp=F
 DIIS: error= 6.62D-06 at cycle   9 NSaved=   9.
 NSaved= 9 IEnMin= 9 EnMin= -2295.96173483313     IErMin= 9 ErrMin= 6.62D-06
 ErrMax= 6.62D-06  0.00D+00 EMaxC= 1.00D-01 BMatC= 5.48D-08 BMatP= 2.97D-07
 IDIUse=1 WtCom= 1.00D+00 WtEn= 0.00D+00
 Coeff-Com:  0.223D-04-0.127D-03-0.973D-03-0.188D-02-0.138D-02 0.856D-02
 Coeff-Com:  0.105D+00 0.365D+00 0.526D+00
 Coeff:      0.223D-04-0.127D-03-0.973D-03-0.188D-02-0.138D-02 0.856D-02
 Coeff:      0.105D+00 0.365D+00 0.526D+00
 Gap=     0.188 Goal=   None    Shift=    0.000
 RMSDP=5.22D-07 MaxDP=4.12D-05 DE=-1.90D-07 OVMax= 5.12D-05

 Cycle  10  Pass 1  IDiag  1:
 RMSU=  2.80D-07    CP:  9.93D-01  7.85D-01  6.73D-01  6.35D-01  6.49D-01
                    CP:  6.97D-01  7.72D-01  7.87D-01  5.69D-01
 E= -2295.96173487489     Delta-E=       -0.000000041760 Rises=F Damp=F
 DIIS: error= 1.94D-06 at cycle  10 NSaved=  10.
 NSaved=10 IEnMin=10 EnMin= -2295.96173487489     IErMin=10 ErrMin= 1.94D-06
 ErrMax= 1.94D-06  0.00D+00 EMaxC= 1.00D-01 BMatC= 4.45D-09 BMatP= 5.48D-08
 IDIUse=1 WtCom= 1.00D+00 WtEn= 0.00D+00
 Coeff-Com:  0.201D-04-0.499D-04-0.494D-03-0.110D-02-0.200D-02-0.107D-02
 Coeff-Com:  0.292D-01 0.136D+00 0.286D+00 0.554D+00
 Coeff:      0.201D-04-0.499D-04-0.494D-03-0.110D-02-0.200D-02-0.107D-02
 Coeff:      0.292D-01 0.136D+00 0.286D+00 0.554D+00
 Gap=     0.188 Goal=   None    Shift=    0.000
 RMSDP=1.48D-07 MaxDP=1.11D-05 DE=-4.18D-08 OVMax= 2.02D-05

 Cycle  11  Pass 1  IDiag  1:
 RMSU=  9.91D-08    CP:  9.93D-01  7.85D-01  6.73D-01  6.35D-01  6.49D-01
                    CP:  6.98D-01  7.75D-01  7.90D-01  6.44D-01  7.19D-01
 E= -2295.96173487838     Delta-E=       -0.000000003492 Rises=F Damp=F
 DIIS: error= 4.33D-07 at cycle  11 NSaved=  11.
 NSaved=11 IEnMin=11 EnMin= -2295.96173487838     IErMin=11 ErrMin= 4.33D-07
 ErrMax= 4.33D-07  0.00D+00 EMaxC= 1.00D-01 BMatC= 4.94D-10 BMatP= 4.45D-09
 IDIUse=1 WtCom= 1.00D+00 WtEn= 0.00D+00
 Coeff-Com:  0.885D-05-0.128D-04-0.154D-03-0.374D-03-0.101D-02-0.192D-02
 Coeff-Com:  0.908D-03 0.223D-01 0.856D-01 0.300D+00 0.594D+00
 Coeff:      0.885D-05-0.128D-04-0.154D-03-0.374D-03-0.101D-02-0.192D-02
 Coeff:      0.908D-03 0.223D-01 0.856D-01 0.300D+00 0.594D+00
 Gap=     0.188 Goal=   None    Shift=    0.000
 RMSDP=4.89D-08 MaxDP=4.36D-06 DE=-3.49D-09 OVMax= 4.03D-06

 Cycle  12  Pass 1  IDiag  1:
 RMSU=  2.85D-08    CP:  9.93D-01  7.85D-01  6.73D-01  6.35D-01  6.49D-01
                    CP:  6.98D-01  7.75D-01  7.95D-01  6.54D-01  7.79D-01
                    CP:  6.99D-01
 E= -2295.96173487875     Delta-E=       -0.000000000367 Rises=F Damp=F
 DIIS: error= 1.30D-07 at cycle  12 NSaved=  12.
 NSaved=12 IEnMin=12 EnMin= -2295.96173487875     IErMin=12 ErrMin= 1.30D-07
 ErrMax= 1.30D-07  0.00D+00 EMaxC= 1.00D-01 BMatC= 2.85D-11 BMatP= 4.94D-10
 IDIUse=1 WtCom= 1.00D+00 WtEn= 0.00D+00
 Coeff-Com:  0.183D-05-0.673D-06-0.155D-04-0.453D-04-0.241D-03-0.707D-03
 Coeff-Com: -0.253D-02-0.495D-02 0.652D-02 0.694D-01 0.244D+00 0.689D+00
 Coeff:      0.183D-05-0.673D-06-0.155D-04-0.453D-04-0.241D-03-0.707D-03
 Coeff:     -0.253D-02-0.495D-02 0.652D-02 0.694D-01 0.244D+00 0.689D+00
 Gap=     0.188 Goal=   None    Shift=    0.000
 RMSDP=1.45D-08 MaxDP=6.66D-07 DE=-3.67D-10 OVMax= 2.08D-06

 Cycle  13  Pass 1  IDiag  1:
 RMSU=  1.10D-08    CP:  9.93D-01  7.85D-01  6.73D-01  6.35D-01  6.49D-01
                    CP:  6.98D-01  7.75D-01  7.96D-01  6.57D-01  7.89D-01
                    CP:  7.48D-01  7.78D-01
 E= -2295.96173487882     Delta-E=       -0.000000000070 Rises=F Damp=F
 DIIS: error= 7.07D-08 at cycle  13 NSaved=  13.
 NSaved=13 IEnMin=13 EnMin= -2295.96173487882     IErMin=13 ErrMin= 7.07D-08
 ErrMax= 7.07D-08  0.00D+00 EMaxC= 1.00D-01 BMatC= 6.68D-12 BMatP= 2.85D-11
 IDIUse=1 WtCom= 1.00D+00 WtEn= 0.00D+00
 Coeff-Com:  0.174D-06 0.790D-06 0.734D-05 0.139D-04-0.274D-04-0.162D-03
 Coeff-Com: -0.127D-02-0.475D-02-0.502D-02 0.551D-02 0.618D-01 0.374D+00
 Coeff-Com:  0.570D+00
 Coeff:      0.174D-06 0.790D-06 0.734D-05 0.139D-04-0.274D-04-0.162D-03
 Coeff:     -0.127D-02-0.475D-02-0.502D-02 0.551D-02 0.618D-01 0.374D+00
 Coeff:      0.570D+00
 Gap=     0.188 Goal=   None    Shift=    0.000
 RMSDP=6.12D-09 MaxDP=3.75D-07 DE=-7.00D-11 OVMax= 1.33D-06

 Error on total polarization charges =  0.00987
 SCF Done:  E(RPBE1PBE) =  -2295.96173488     A.U. after   13 cycles
            NFock= 13  Conv=0.61D-08     -V/T= 2.0069
 KE= 2.280303241111D+03 PE=-1.399805857361D+04 EE= 5.125285561982D+03
 Leave Link  502 at Sat Jun 15 09:08:42 2019, MaxMem=  6442450944 cpu:            7246.3 elap:             234.6
 (Enter /home/ekwan/sw/g16/l701.exe)
 ... and contract with generalized density number  0.
 Compute integral first derivatives.
 D1PCM: PCM CHGder 1st derivatives, ID1Alg=3 FixD1E=F DoIter=F DoCFld=F I1PDM=0.
 GePol: Maximum number of non-zero 1st derivatives   =     224
 Leave Link  701 at Sat Jun 15 09:08:54 2019, MaxMem=  6442450944 cpu:             369.2 elap:              12.5
 (Enter /home/ekwan/sw/g16/l702.exe)
 L702 exits ... SP integral derivatives will be done elsewhere.
 Leave Link  702 at Sat Jun 15 09:08:55 2019, MaxMem=  6442450944 cpu:               2.5 elap:               0.1
 (Enter /home/ekwan/sw/g16/l703.exe)
 Integral derivatives from FoFJK, PRISM(SPDF).
 Compute integral first derivatives, UseDBF=F ICtDFT=           0.
 Calling FoFJK, ICntrl=      2127 FMM=F ISym2X=0 I1Cent= 0 IOpClX= 0 NMat=1 NMatS=1 NMatT=0.
 FoFJK:  IHMeth= 1 ICntrl=    2127 DoSepK=F KAlg= 0 I1Cent=           0 FoldK=F
 IRaf=         0 NMat=       1 IRICut=       1 DoRegI=T DoRafI=F ISym2E= 0 IDoP0=0 IntGTp=1.
 FoFCou: FMM=F IPFlag=           0 FMFlag=      100000 FMFlg1=         800
         NFxFlg=           0 DoJE=F BraDBF=F KetDBF=F FulRan=T
         wScrn=  0.000000 ICntrl=      2127 IOpCl=  0 I1Cent=           0 NGrid=           0
         NMat0=    1 NMatS0=      1 NMatT0=    0 NMatD0=    1 NMtDS0=    0 NMtDT0=    0
 Symmetry not used in FoFCou.
 Leave Link  703 at Sat Jun 15 09:09:39 2019, MaxMem=  6442450944 cpu:            1315.6 elap:              44.5
 (Enter /home/ekwan/sw/g16/l716.exe)
 Dipole        = 3.97352796D-01 1.40850447D+00-2.69895208D-02
 ***** Axes restored to original set *****
 -------------------------------------------------------------------
 Center     Atomic                   Forces (Hartrees/Bohr)
 Number     Number              X              Y              Z
 -------------------------------------------------------------------
      1        6          -0.000001355    0.000000441    0.000003796
      2        6           0.000009779   -0.000009685   -0.000003187
      3        6          -0.000005724   -0.000021505    0.000006692
      4        6          -0.000002738   -0.000001495   -0.000004793
      5        6          -0.000002792    0.000002689    0.000003480
      6        1          -0.000000321   -0.000000511   -0.000001000
      7        1          -0.000000702    0.000000986    0.000000889
      8        1          -0.000000909    0.000000560   -0.000000831
      9        1          -0.000000007    0.000001607    0.000001157
     10        1           0.000000171    0.000000004   -0.000000551
     11        8          -0.000002132    0.000016157   -0.000000419
     12        8          -0.000000890   -0.000005401   -0.000012587
     13        8          -0.000010705    0.000006146    0.000008714
     14        8           0.000001514   -0.000000501   -0.000002885
     15        8           0.000001904    0.000000125   -0.000000779
     16        6           0.000003598    0.000002853   -0.000000344
     17        1           0.000000189    0.000000280    0.000000241
     18        1           0.000000456    0.000001847   -0.000001782
     19        8          -0.000003414   -0.000001821   -0.000000873
     20       16           0.000004169    0.000014335    0.000006935
     21        8           0.000002348   -0.000010462    0.000006729
     22        8           0.000005825    0.000002669   -0.000004668
     23        6           0.000000382    0.000003526   -0.000001370
     24        6           0.000001600    0.000002855    0.000004342
     25        6           0.000001462   -0.000000853   -0.000000936
     26        6           0.000001806   -0.000001204    0.000000126
     27        1          -0.000001217    0.000001028   -0.000000955
     28        6          -0.000004625   -0.000000274    0.000003593
     29        1           0.000002027   -0.000002355    0.000000143
     30        6          -0.000001793   -0.000000969   -0.000003609
     31        1           0.000000346    0.000001020   -0.000000485
     32        6           0.000004903   -0.000002036   -0.000006840
     33        1          -0.000000765   -0.000002515    0.000002739
     34        1          -0.000001478   -0.000002135    0.000001922
     35        1           0.000000692   -0.000000541    0.000003056
     36        6          -0.000001769    0.000000944    0.000003389
     37        1           0.000000183   -0.000000357    0.000001052
     38        1          -0.000000333    0.000000822    0.000001790
     39        1          -0.000000439   -0.000000482    0.000001180
     40        6          -0.000000416    0.000001750   -0.000000112
     41        1          -0.000000550    0.000001416   -0.000000289
     42        1           0.000000266    0.000000620   -0.000000074
     43        1          -0.000000266    0.000000227   -0.000001059
     44        6          -0.000000154   -0.000003132    0.000000369
     45        1           0.000000499   -0.000000779   -0.000001663
     46        1           0.000000693   -0.000001243   -0.000001767
     47        1           0.000001652   -0.000002301   -0.000001317
     48        6          -0.000002426    0.000000711   -0.000001367
     49        9          -0.000000964    0.000001303    0.000000382
     50        9          -0.000001594    0.000002524    0.000000405
     51        9           0.000000368    0.000002273   -0.000000409
     52        6           0.000001266    0.000001365    0.000004207
     53        9          -0.000000205   -0.000001930   -0.000004101
     54        9           0.000002188    0.000001773   -0.000001175
     55        9           0.000000398   -0.000000367   -0.000005103
 -------------------------------------------------------------------
 Cartesian Forces:  Max     0.000021505 RMS     0.000003854
 Leave Link  716 at Sat Jun 15 09:09:39 2019, MaxMem=  6442450944 cpu:               2.6 elap:               0.1
 (Enter /home/ekwan/sw/g16/l103.exe)

 GradGradGradGradGradGradGradGradGradGradGradGradGradGradGradGradGradGrad
 Berny optimization.
 FormGI is forming the generalized inverse of G from B-inverse, IUseBI=4.
 Internal  Forces:  Max     0.000021406 RMS     0.000002839
 Search for a local minimum.
 Step number   1 out of a maximum of  291
 All quantities printed in internal units (Hartrees-Bohrs-Radians)
 RMS Force = .28388D-05 SwitMx=.10000D-02 MixMth= 2
 Mixed Optimization -- En-DIIS/RFO-DIIS
 Second derivative matrix not updated -- first step.
 ITU=  0
     Eigenvalues ---    0.00490   0.00616   0.00673   0.00682   0.00699
     Eigenvalues ---    0.00712   0.01003   0.01425   0.01505   0.01508
     Eigenvalues ---    0.01514   0.01517   0.01558   0.01567   0.01575
     Eigenvalues ---    0.01604   0.01636   0.01642   0.01689   0.02197
     Eigenvalues ---    0.02200   0.02207   0.02211   0.02216   0.02218
     Eigenvalues ---    0.02391   0.02930   0.03356   0.04432   0.04608
     Eigenvalues ---    0.04698   0.04868   0.04943   0.05265   0.05299
     Eigenvalues ---    0.05813   0.06089   0.06575   0.07005   0.07061
     Eigenvalues ---    0.07188   0.07804   0.09318   0.10020   0.10049
     Eigenvalues ---    0.10079   0.10115   0.10579   0.10594   0.10615
     Eigenvalues ---    0.10616   0.10732   0.10769   0.10845   0.10940
     Eigenvalues ---    0.10960   0.10996   0.11484   0.11832   0.11856
     Eigenvalues ---    0.14146   0.14960   0.15999   0.16000   0.16000
     Eigenvalues ---    0.16000   0.16000   0.16000   0.16000   0.16000
     Eigenvalues ---    0.16000   0.16000   0.16000   0.16000   0.16000
     Eigenvalues ---    0.16000   0.16000   0.16437   0.16938   0.17513
     Eigenvalues ---    0.18705   0.19695   0.19804   0.20870   0.22140
     Eigenvalues ---    0.23482   0.23484   0.23503   0.24970   0.24975
     Eigenvalues ---    0.25000   0.25000   0.25000   0.25000   0.25000
     Eigenvalues ---    0.25000   0.25000   0.25000   0.25000   0.25000
     Eigenvalues ---    0.25000   0.25000   0.25000   0.27365   0.28005
     Eigenvalues ---    0.28930   0.29123   0.29381   0.30280   0.31851
     Eigenvalues ---    0.31951   0.33379   0.33672   0.33702   0.33728
     Eigenvalues ---    0.33742   0.33755   0.33815   0.33829   0.33850
     Eigenvalues ---    0.33903   0.34117   0.34128   0.34212   0.34345
     Eigenvalues ---    0.34450   0.34461   0.34464   0.34612   0.34653
     Eigenvalues ---    0.35418   0.35424   0.35485   0.37979   0.38747
     Eigenvalues ---    0.42878   0.43001   0.43354   0.43398   0.43468
     Eigenvalues ---    0.43501   0.43989   0.44091   0.44543   0.45580
     Eigenvalues ---    0.47010   0.47041   0.47142   0.47164   0.47279
     Eigenvalues ---    0.48027   0.55510   0.56737   0.57183   0.57286
     Eigenvalues ---    0.57558   0.57571   0.93195   0.95481
 RFO step:  Lambda=-2.40349315D-08 EMin= 4.89502741D-03
 Linear search not attempted -- first point.
 Iteration  1 RMS(Cart)=  0.00075778 RMS(Int)=  0.00000008
 Iteration  2 RMS(Cart)=  0.00000018 RMS(Int)=  0.00000000
 ITry= 1 IFail=0 DXMaxC= 3.20D-03 DCOld= 1.00D+10 DXMaxT= 3.00D-01 DXLimC= 3.00D+00 Rises=F
 Variable       Old X    -DE/DX   Delta X   Delta X   Delta X     New X
                                 (Linear)    (Quad)   (Total)
    R1        2.88403   0.00000   0.00000   0.00001   0.00001   2.88404
    R2        2.88173   0.00000   0.00000   0.00001   0.00001   2.88174
    R3        2.07886   0.00000   0.00000   0.00000   0.00000   2.07886
    R4        2.66346   0.00000   0.00000   0.00000   0.00000   2.66346
    R5        2.89968   0.00000   0.00000   0.00000   0.00000   2.89969
    R6        2.08391   0.00000   0.00000   0.00000   0.00000   2.08391
    R7        2.64608  -0.00001   0.00000  -0.00002  -0.00002   2.64606
    R8        2.06241   0.00000   0.00000   0.00000   0.00000   2.06242
    R9        2.60851   0.00001   0.00000   0.00003   0.00003   2.60854
   R10        2.74396  -0.00001   0.00000  -0.00003  -0.00003   2.74393
   R11        2.88681   0.00000   0.00000   0.00000   0.00000   2.88681
   R12        2.07837   0.00000   0.00000   0.00000   0.00000   2.07837
   R13        2.71339   0.00000   0.00000   0.00000   0.00000   2.71338
   R14        2.87408   0.00000   0.00000  -0.00001  -0.00001   2.87407
   R15        2.07585   0.00000   0.00000   0.00000   0.00000   2.07585
   R16        2.66468   0.00000   0.00000   0.00000   0.00000   2.66468
   R17        3.05610  -0.00002   0.00000  -0.00004  -0.00004   3.05606
   R18        2.67235   0.00001   0.00000   0.00001   0.00001   2.67236
   R19        2.67096   0.00000   0.00000   0.00000   0.00000   2.67096
   R20        2.67181   0.00000   0.00000   0.00000   0.00000   2.67181
   R21        2.06751   0.00000   0.00000   0.00000   0.00000   2.06751
   R22        2.07768   0.00000   0.00000   0.00000   0.00000   2.07768
   R23        2.65810  -0.00001   0.00000  -0.00002  -0.00002   2.65808
   R24        2.67056   0.00000   0.00000  -0.00001  -0.00001   2.67056
   R25        2.74205   0.00001   0.00000   0.00001   0.00001   2.74206
   R26        2.75195   0.00001   0.00000   0.00001   0.00001   2.75195
   R27        3.35827   0.00000   0.00000   0.00001   0.00001   3.35828
   R28        2.62670   0.00000   0.00000   0.00000   0.00000   2.62670
   R29        2.62725   0.00000   0.00000  -0.00001  -0.00001   2.62725
   R30        2.62956   0.00000   0.00000   0.00000   0.00000   2.62956
   R31        2.05002   0.00000   0.00000   0.00000   0.00000   2.05001
   R32        2.62770   0.00000   0.00000   0.00001   0.00001   2.62771
   R33        2.04895   0.00000   0.00000   0.00000   0.00000   2.04894
   R34        2.62944   0.00000   0.00000   0.00000   0.00000   2.62944
   R35        2.84417   0.00000   0.00000   0.00000   0.00000   2.84417
   R36        2.63086   0.00000   0.00000   0.00000   0.00000   2.63086
   R37        2.84233   0.00000   0.00000   0.00000   0.00000   2.84234
   R38        2.04993   0.00000   0.00000   0.00000   0.00000   2.04993
   R39        2.07494   0.00000   0.00000   0.00000   0.00000   2.07494
   R40        2.07644   0.00000   0.00000   0.00000   0.00000   2.07643
   R41        2.06310   0.00000   0.00000   0.00000   0.00000   2.06309
   R42        2.06555   0.00000   0.00000   0.00000   0.00000   2.06555
   R43        2.07745   0.00000   0.00000   0.00000   0.00000   2.07745
   R44        2.06973   0.00000   0.00000   0.00000   0.00000   2.06973
   R45        2.06559   0.00000   0.00000   0.00000   0.00000   2.06559
   R46        2.07134   0.00000   0.00000   0.00000   0.00000   2.07134
   R47        2.07620   0.00000   0.00000   0.00000   0.00000   2.07620
   R48        2.06578   0.00000   0.00000   0.00000   0.00000   2.06578
   R49        2.07792   0.00000   0.00000   0.00000   0.00000   2.07792
   R50        2.07114   0.00000   0.00000   0.00000   0.00000   2.07115
   R51        2.53155   0.00000   0.00000   0.00000   0.00000   2.53155
   R52        2.53620   0.00000   0.00000   0.00000   0.00000   2.53620
   R53        2.53242   0.00000   0.00000   0.00000   0.00000   2.53242
   R54        2.54682   0.00000   0.00000  -0.00001  -0.00001   2.54681
   R55        2.52916   0.00000   0.00000   0.00000   0.00000   2.52916
   R56        2.52927   0.00000   0.00000   0.00001   0.00001   2.52927
    A1        1.91957   0.00000   0.00000   0.00002   0.00002   1.91959
    A2        1.91128   0.00000   0.00000  -0.00001  -0.00001   1.91127
    A3        1.93111   0.00000   0.00000  -0.00002  -0.00002   1.93110
    A4        1.89339   0.00000   0.00000  -0.00001  -0.00001   1.89338
    A5        1.88168   0.00000   0.00000   0.00001   0.00001   1.88169
    A6        1.92626   0.00000   0.00000   0.00001   0.00001   1.92627
    A7        1.93966   0.00000   0.00000   0.00002   0.00002   1.93968
    A8        1.87869   0.00000   0.00000  -0.00001  -0.00001   1.87868
    A9        1.90567   0.00000   0.00000  -0.00001  -0.00001   1.90567
   A10        1.84588   0.00000   0.00000  -0.00001  -0.00001   1.84587
   A11        1.96549   0.00000   0.00000  -0.00001  -0.00001   1.96548
   A12        1.92599   0.00000   0.00000   0.00003   0.00003   1.92601
   A13        1.95220   0.00000   0.00000  -0.00001  -0.00001   1.95219
   A14        1.96988   0.00000   0.00000   0.00001   0.00001   1.96989
   A15        1.85383   0.00000   0.00000   0.00002   0.00002   1.85385
   A16        1.86040   0.00000   0.00000  -0.00004  -0.00004   1.86036
   A17        1.88507   0.00000   0.00000  -0.00003  -0.00003   1.88504
   A18        1.94202   0.00000   0.00000   0.00004   0.00004   1.94207
   A19        1.89770   0.00000   0.00000   0.00001   0.00001   1.89770
   A20        1.93532   0.00000   0.00000  -0.00003  -0.00003   1.93529
   A21        1.96031   0.00000   0.00000   0.00001   0.00001   1.96031
   A22        1.90211   0.00000   0.00000   0.00004   0.00004   1.90215
   A23        1.87586   0.00000   0.00000   0.00000   0.00000   1.87586
   A24        1.89092   0.00000   0.00000  -0.00001  -0.00001   1.89091
   A25        1.94524   0.00000   0.00000  -0.00002  -0.00002   1.94522
   A26        1.89862   0.00000   0.00000   0.00001   0.00001   1.89863
   A27        1.92160   0.00000   0.00000   0.00000   0.00000   1.92160
   A28        1.89094   0.00000   0.00000   0.00000   0.00000   1.89094
   A29        1.87501   0.00000   0.00000   0.00002   0.00002   1.87503
   A30        1.93245   0.00000   0.00000   0.00000   0.00000   1.93244
   A31        2.01272   0.00000   0.00000   0.00001   0.00001   2.01273
   A32        2.08332  -0.00002   0.00000  -0.00009  -0.00009   2.08324
   A33        1.99730   0.00000   0.00000   0.00001   0.00001   1.99731
   A34        1.99911   0.00000   0.00000   0.00000   0.00000   1.99911
   A35        1.99019   0.00000   0.00000   0.00000   0.00000   1.99019
   A36        1.86616   0.00000   0.00000   0.00003   0.00003   1.86619
   A37        1.90598   0.00000   0.00000  -0.00001  -0.00001   1.90596
   A38        2.00453   0.00000   0.00000  -0.00002  -0.00002   2.00450
   A39        1.89097   0.00000   0.00000   0.00001   0.00001   1.89098
   A40        1.85775   0.00000   0.00000   0.00003   0.00003   1.85779
   A41        1.93369   0.00000   0.00000  -0.00003  -0.00003   1.93366
   A42        2.00076  -0.00001   0.00000  -0.00005  -0.00005   2.00071
   A43        1.82394   0.00000   0.00000   0.00000   0.00000   1.82394
   A44        1.89786  -0.00001   0.00000  -0.00005  -0.00005   1.89781
   A45        1.81683   0.00000   0.00000  -0.00003  -0.00003   1.81679
   A46        2.11605   0.00000   0.00000   0.00002   0.00002   2.11607
   A47        1.89239   0.00000   0.00000   0.00003   0.00003   1.89242
   A48        1.89385   0.00000   0.00000   0.00002   0.00002   1.89387
   A49        2.07444   0.00000   0.00000   0.00001   0.00001   2.07445
   A50        2.07833   0.00000   0.00000   0.00000   0.00000   2.07833
   A51        2.13041   0.00000   0.00000   0.00000   0.00000   2.13041
   A52        2.06803   0.00000   0.00000   0.00000   0.00000   2.06803
   A53        2.10189   0.00000   0.00000   0.00000   0.00000   2.10188
   A54        2.11324   0.00000   0.00000   0.00000   0.00000   2.11324
   A55        2.06718   0.00000   0.00000   0.00000   0.00000   2.06718
   A56        2.10620   0.00000   0.00000  -0.00002  -0.00002   2.10618
   A57        2.10979   0.00000   0.00000   0.00001   0.00001   2.10981
   A58        2.10444   0.00000   0.00000   0.00000   0.00000   2.10444
   A59        2.08726   0.00000   0.00000   0.00002   0.00002   2.08728
   A60        2.09058   0.00000   0.00000  -0.00002  -0.00002   2.09056
   A61        2.10568   0.00000   0.00000   0.00000   0.00000   2.10568
   A62        2.08493   0.00000   0.00000  -0.00001  -0.00001   2.08492
   A63        2.09163   0.00000   0.00000   0.00001   0.00001   2.09163
   A64        2.09058   0.00000   0.00000   0.00000   0.00000   2.09058
   A65        2.09622   0.00000   0.00000   0.00000   0.00000   2.09621
   A66        2.09638   0.00000   0.00000   0.00000   0.00000   2.09639
   A67        1.95966   0.00000   0.00000  -0.00001  -0.00001   1.95965
   A68        1.93916   0.00000   0.00000   0.00000   0.00000   1.93916
   A69        1.86142   0.00000   0.00000  -0.00001  -0.00001   1.86142
   A70        1.90248   0.00000   0.00000   0.00001   0.00001   1.90249
   A71        1.89428   0.00000   0.00000   0.00001   0.00001   1.89429
   A72        1.90542   0.00000   0.00000   0.00000   0.00000   1.90542
   A73        1.86062   0.00000   0.00000   0.00000   0.00000   1.86062
   A74        1.94004   0.00000   0.00000   0.00000   0.00000   1.94004
   A75        1.94967   0.00000   0.00000   0.00000   0.00000   1.94967
   A76        1.89895   0.00000   0.00000   0.00000   0.00000   1.89895
   A77        1.90907   0.00000   0.00000   0.00000   0.00000   1.90906
   A78        1.90437   0.00000   0.00000   0.00000   0.00000   1.90437
   A79        1.86245   0.00000   0.00000   0.00000   0.00000   1.86245
   A80        1.94259   0.00000   0.00000   0.00000   0.00000   1.94260
   A81        1.93980   0.00000   0.00000  -0.00001  -0.00001   1.93980
   A82        1.90764   0.00000   0.00000   0.00000   0.00000   1.90764
   A83        1.90269   0.00000   0.00000   0.00000   0.00000   1.90269
   A84        1.90767   0.00000   0.00000   0.00000   0.00000   1.90767
   A85        1.86352   0.00000   0.00000   0.00000   0.00000   1.86353
   A86        1.93735   0.00000   0.00000   0.00000   0.00000   1.93735
   A87        1.95956   0.00000   0.00000  -0.00001  -0.00001   1.95955
   A88        1.90123   0.00000   0.00000   0.00001   0.00001   1.90124
   A89        1.90621   0.00000   0.00000   0.00000   0.00000   1.90621
   A90        1.89499   0.00000   0.00000   0.00000   0.00000   1.89499
   A91        1.94571   0.00000   0.00000   0.00000   0.00000   1.94571
   A92        1.94048   0.00000   0.00000   0.00001   0.00001   1.94049
   A93        1.94538   0.00000   0.00000  -0.00001  -0.00001   1.94538
   A94        1.87285   0.00000   0.00000   0.00000   0.00000   1.87286
   A95        1.88372   0.00000   0.00000   0.00000   0.00000   1.88372
   A96        1.87219   0.00000   0.00000   0.00000   0.00000   1.87218
   A97        1.93744   0.00000   0.00000   0.00000   0.00000   1.93744
   A98        1.94970   0.00000   0.00000   0.00001   0.00001   1.94971
[...]
 0005960,0.00011193,-0.00004462,0.00002963,-0.00000987,0.00001631,0.000
 00075,-0.00001462,0.00000046,-0.00000026,-0.00002613,0.00000158,-0.000
 15454,-0.00014339,-0.00009206,0.00000013,0.00001391,0.00001754,0.00004
 919,0.00000678,0.00000227,-0.00001569,0.00000720,0.00000022,-0.0008033
 8,0.00007831,0.00014671,0.00016252,0.00007602,-0.00002968,-0.00041272,
 -0.00030131,0.00039173,0.00027752,-0.00006042,-0.00005089,0.00101568,0
 .00221839,-0.00168433,-0.00010192,-0.00048977,0.00053057,-0.00068833,-
 0.00068998,0.00026336,-0.00036354,-0.00028683,0.00062247,-0.01229197,-
 0.03637424,0.56375336,0.00002905,-0.00014925,-0.00006157,0.00005083,-0
 .00000216,-0.00006549,0.00000080,-0.00066137,-0.00001013,-0.00027704,-
 0.00050267,-0.00046271,0.00008679,0.00020773,0.00021021,-0.00001613,0.
 00003676,0.00000759,0.00002149,0.00000586,0.00000333,-0.00000675,0.000
 01387,-0.00000712,-0.00000132,0.00003538,-0.00001257,0.00004074,-0.000
 01749,-0.00000090,-0.00015960,0.00045762,0.00023968,0.00049393,0.00040
 372,0.00002160,-0.00006898,0.00009720,0.00006206,-0.00015611,0.0001215
 1,-0.00003866,-0.00013643,0.00001523,-0.00008477,0.00186551,0.00064942
 ,0.00051256,-0.00023059,0.00004603,-0.00015375,-0.00136950,0.00008870,
 -0.00053282,-0.00111051,-0.00034103,-0.00041917,-0.00084073,-0.0000041
 1,0.00021539,0.00019692,-0.00016721,-0.00002847,0.00018964,0.00000356,
 -0.00009769,0.00079205,-0.00094661,0.00047003,0.00044206,-0.00009129,-
 0.00052723,-0.00094354,-0.00094914,0.00083624,-0.00029938,0.00034434,-
 0.00011464,-0.00000831,-0.00002992,-0.00002442,0.00806016,-0.00536944,
 -0.00364754,-0.00018365,-0.00017628,-0.00022587,0.00023875,0.00045874,
 0.00072630,-0.00005202,0.00018924,-0.00041355,0.00000935,-0.00000315,-
 0.00004923,0.00000213,-0.00000630,0.00000889,0.00000316,-0.00000193,0.
 00000637,-0.00000718,0.00000700,0.00000631,0.00002163,-0.00007640,0.00
 004766,-0.00001323,0.00000924,-0.00000762,0.00000335,0.00000872,-0.000
 00927,-0.00000402,0.00001658,-0.00000011,0.00009075,0.00005649,0.00007
 132,-0.00000504,-0.00000501,-0.00002275,-0.00002651,-0.00000543,-0.000
 00359,0.00001521,0.00001318,0.00000932,0.00129929,-0.00036223,0.000587
 23,-0.00027777,-0.00005592,-0.00003025,-0.00097665,0.00027441,-0.00011
 652,-0.00021793,0.00001576,0.00002759,-0.00002793,0.00005007,-0.000348
 60,0.00005777,-0.00005425,0.00012495,-0.00003847,-0.00004204,0.0000670
 5,-0.00001393,0.00000724,0.00010314,-0.11098545,-0.07071234,-0.0286583
 1,0.16311994,-0.00006224,-0.00012811,-0.00012475,-0.00012434,0.0001175
 0,-0.00006903,-0.00041087,-0.00107446,0.00029015,-0.00028447,-0.000522
 73,-0.00052140,0.00001555,0.00009833,0.00005685,-0.00002832,0.00005102
 ,-0.00000487,0.00008627,0.00000688,0.00001408,-0.00000747,0.00002518,-
 0.00001554,-0.00004021,0.00005048,-0.00005810,0.00006411,-0.00000637,0
 .00000773,0.00023837,0.00068747,0.00035063,0.00167280,0.00064078,-0.00
 006668,0.00009145,0.00001989,-0.00001790,0.00002936,0.00008328,0.00004
 476,-0.00001790,0.00011536,0.00007643,0.00096737,0.00013997,0.00053495
 ,-0.00006374,0.00005555,-0.00006601,0.00072121,-0.00097667,0.00031646,
 -0.00054677,0.00030474,-0.00051756,-0.00361703,0.00164307,0.00149331,0
 .00084292,-0.00115218,-0.00018777,0.00088948,-0.00034702,-0.00087774,0
 .00164461,-0.00021165,0.00164279,0.00017087,-0.00116803,0.00032474,-0.
 00258460,-0.00044284,0.00231410,0.00167894,-0.00000114,0.00198166,-0.0
 0020474,-0.00004439,-0.00016711,-0.02180743,-0.04435141,-0.01290190,-0
 .00080749,-0.00052067,-0.00081049,0.00264695,-0.00172367,-0.00256649,-
 0.00095637,-0.00050330,-0.00065667,-0.00005965,-0.00000048,0.00005135,
 -0.00000198,0.00000023,0.00001390,0.00001590,0.00001589,-0.00000707,0.
 00000282,-0.00000389,-0.00000115,-0.00001518,-0.00001048,0.00001082,0.
 00000602,0.00000381,0.00000085,0.00000115,-0.00000417,-0.00000478,-0.0
 0000846,0.00000727,0.00000210,0.00000430,-0.00006645,0.00001709,0.0000
 0410,0.00000247,-0.00000191,-0.00000783,0.00000663,-0.00000240,0.00001
 705,0.00003143,-0.00000222,0.00134633,-0.00028811,0.00085062,-0.000236
 00,-0.00002514,-0.00004214,0.00003456,0.00029752,-0.00050630,-0.000316
 35,0.00000713,0.00000857,0.00181449,0.00070568,-0.00235865,-0.00010952
 ,-0.00058489,0.00102055,-0.00074970,-0.00050227,0.00037965,-0.00048552
 ,0.00018905,0.00079049,-0.07368111,-0.21021639,-0.05189567,0.12600963,
 0.25606443,0.00002042,-0.00009335,-0.00004666,0.00004279,-0.00002017,-
 0.00003930,0.00005053,-0.00023071,-0.00007889,-0.00016901,-0.00033289,
 -0.00036196,0.00006102,0.00014475,0.00013219,-0.00001876,0.00003008,0.
 00001107,-0.00000379,0.00000122,0.00000094,-0.00000241,0.00000357,-0.0
 0000005,0.00001012,0.00000246,0.00001226,0.00001270,-0.00001421,-0.000
 00192,-0.00012107,0.00021081,0.00021566,0.00001676,0.00012958,0.000099
 64,-0.00005349,0.00005798,0.00006595,-0.00010725,0.00007462,-0.0000169
 4,-0.00009379,0.00000475,-0.00003270,0.00112485,0.00058525,0.00039295,
 -0.00011114,0.00001329,-0.00006597,-0.00067494,-0.00008895,-0.00044477
 ,-0.00061815,-0.00031976,0.00010617,-0.00000233,-0.00019024,-0.0004794
 6,-0.00000175,0.00007922,0.00007781,0.00001424,-0.00000356,0.00018739,
 -0.00034425,0.00033968,-0.00058946,-0.00055378,0.00028949,0.00036553,0
 .00122282,0.00046826,-0.00024976,-0.00005406,-0.00084710,0.00057800,-0
 .00000057,-0.00001969,0.00002547,-0.00066937,0.00428293,0.01093513,-0.
 00022987,0.00029951,-0.00002688,0.00021883,-0.00100738,-0.00038103,-0.
 00004848,-0.00004429,-0.00005227,0.00001170,-0.00000178,-0.00005751,0.
 00000589,-0.00000162,0.00000794,-0.00000333,-0.00000395,0.00000498,-0.
 00000400,0.00000359,0.00000624,0.00001519,-0.00004610,0.00002453,-0.00
 000942,0.00000561,-0.00000565,0.00000093,0.00000472,-0.00000309,-0.000
 00257,0.00001152,-0.00000031,0.00006139,0.00004158,0.00004338,-0.00000
 068,-0.00000461,-0.00000994,-0.00001977,-0.00000209,-0.00000179,0.0000
 0987,0.00000524,0.00000137,0.00046819,-0.00000958,0.00005213,-0.000085
 19,-0.00003806,0.00001957,0.00024633,0.00004954,-0.00035973,-0.0001209
 3,0.00001665,0.00003179,0.00004413,-0.00019129,-0.00005216,0.00002015,
 -0.00002572,0.00008386,0.00003064,0.00005244,0.00001465,0.00000143,0.0
 0006760,0.00002884,-0.02904133,-0.04998813,-0.09210826,0.06597334,0.10
 072635,0.12785069,0.00009766,-0.00005955,0.00005358,0.00016903,-0.0001
 2578,-0.00001190,0.00031989,0.00008204,-0.00023616,0.00000570,-0.00006
 487,0.00007099,0.00009721,0.00009893,0.00018131,0.00001192,-0.00001004
 ,0.00000927,-0.00004407,0.00000389,-0.00001161,-0.00000328,-0.00000154
 ,0.00000080,0.00002984,0.00000369,0.00002498,0.00000504,-0.00001082,-0
 .00000888,-0.00037439,-0.00000313,-0.00008085,-0.00080594,-0.00006525,
 0.00004710,-0.00016188,0.00011580,0.00008009,-0.00020797,0.00007800,-0
 .00009461,-0.00013868,-0.00006383,-0.00017516,0.00077646,0.00027862,0.
 00026454,-0.00009704,0.00000361,-0.00008383,0.00001148,-0.00012849,0.0
 0009931,-0.00047336,-0.00017436,-0.00019081,0.00200639,-0.00115680,-0.
 00101212,-0.00057972,0.00114116,0.00005676,-0.00048484,0.00031278,0.00
 060548,-0.00085756,0.00076509,0.00134203,0.00001080,0.00020325,-0.0004
 7198,0.00013669,0.00418662,-0.00480095,0.00045390,0.00103602,-0.000519
 56,0.00007769,-0.00009464,-0.00011469,-0.03088834,0.01272695,0.0043019
 3,0.00039571,-0.00069983,-0.00019012,-0.00139669,-0.00095641,0.0038758
 5,0.00042760,0.00009703,-0.00218354,0.00006100,-0.00000763,-0.00009404
 ,0.00000241,-0.00001113,-0.00000249,-0.00000506,-0.00001387,0.00001444
 ,-0.00001362,0.00001412,0.00000712,0.00004403,-0.00009234,0.00005298,-
 0.00002025,0.00000743,-0.00000959,0.00000375,0.00001489,-0.00001013,0.
 00000249,0.00001394,-0.00000035,0.00009641,0.00009983,0.00006771,-0.00
 000718,-0.00000833,-0.00002515,-0.00002450,-0.00000988,-0.00000081,0.0
 0000314,-0.00000436,0.00000897,0.00060960,-0.00008913,0.00028394,-0.00
 014008,-0.00005765,-0.00002068,0.00001351,0.00022788,-0.00015384,-0.00
 006486,0.00001106,-0.00000138,-0.00132215,-0.00028930,0.00117220,0.000
 14725,0.00024093,-0.00043475,0.00057983,0.00033155,-0.00018577,0.00037
 913,-0.00015660,-0.00042773,-0.27030848,0.06514547,0.01179787,-0.06922
 523,-0.02677246,-0.01321929,0.40266749,-0.00006343,-0.00002879,-0.0000
 6855,-0.00011769,0.00009718,-0.00002590,-0.00029607,-0.00050721,0.0002
 2813,-0.00012822,-0.00018833,-0.00022659,-0.00003259,0.00000521,-0.000
 04572,-0.00001426,0.00002143,-0.00000831,0.00005438,0.00000283,0.00001
 070,-0.00000182,0.00001119,-0.00000799,-0.00002898,0.00002170,-0.00003
 839,0.00002349,0.00000262,0.00000684,0.00022429,0.00028601,0.00015890,
 0.00101191,0.00029566,-0.00005358,0.00010081,-0.00003526,-0.00004406,0
 .00009108,0.00000438,0.00005172,0.00004562,0.00006976,0.00009354,0.000
 14928,-0.00005677,0.00008333,-0.00000633,0.00002082,-0.00000139,0.0000
 3052,-0.00018352,0.00005129,-0.00006851,0.00014147,-0.00010996,-0.0025
 7813,0.00090044,0.00104669,0.00074694,-0.00104141,-0.00007186,0.000588
 56,-0.00020635,-0.00068133,0.00051172,-0.00203626,-0.00107789,0.000700
 76,-0.00059909,-0.00000750,-0.00004003,-0.00272626,0.00507980,0.000025
 93,-0.00009960,-0.00038433,0.00000646,0.00004847,0.00001683,0.03964570
 ,-0.00644456,-0.00217563,0.00010823,0.00055835,0.00018462,0.00094594,-
 0.00076187,-0.00014850,0.00078142,-0.00091322,0.00081014,-0.00004797,0
 .00000282,0.00006303,-0.00000276,0.00000362,0.00000578,0.00000964,0.00
 001238,-0.00000842,0.00000595,-0.00000668,-0.00000375,-0.00002304,0.00
 003018,-0.00001456,0.00001021,-0.00000118,0.00000416,-0.00000067,-0.00
 000717,0.00000136,-0.00000436,-0.00000260,0.00000106,-0.00003509,-0.00
 006307,-0.00001856,0.00000390,0.00000414,0.00000806,0.00000669,0.00000
 581,-0.00000066,0.00000503,0.00001385,-0.00000372,0.00022292,-0.000066
 96,0.00014908,-0.00002281,0.00001246,-0.00000694,0.00001990,0.00005965
 ,-0.00006847,-0.00006454,-0.00000440,0.00000561,0.00104091,0.00056966,
 -0.00143988,-0.00005610,-0.00029360,0.00050963,-0.00048264,-0.00032119
 ,0.00023948,-0.00032168,0.00009144,0.00049027,0.05929750,-0.09625864,0
 .00113364,-0.04299571,0.00764858,-0.00391220,-0.06369850,0.09030669,0.
 00001805,-0.00000530,0.00000239,0.00002999,-0.00003213,0.00000171,0.00
 007933,0.00013959,-0.00009966,0.00002192,-0.00000602,-0.00003005,0.000
 01523,0.00001320,0.00001891,-0.00000488,0.00000470,0.00000594,-0.00001
 863,-0.00000155,-0.00000274,0.00000055,-0.00000339,0.00000359,0.000009
 32,-0.00001005,0.00001732,-0.00000523,-0.00000405,-0.00000185,-0.00005
 632,-0.00004513,0.00003276,-0.00033155,-0.00007923,0.00006930,-0.00003
 133,0.00001533,0.00003367,-0.00003334,0.00000840,-0.00000649,-0.000024
 27,-0.00001074,-0.00000914,0.00011289,0.00007992,0.00000917,0.00000173
 ,-0.00000287,0.00000473,0.00002170,-0.00002734,0.00002862,-0.00006898,
 -0.00006121,0.00006767,0.00072082,-0.00028692,-0.00058239,-0.00019722,
 0.00032003,0.00007590,-0.00015637,0.00002961,0.00030956,-0.00086421,0.
 00054732,0.00050597,-0.00016833,0.00027400,-0.00003107,0.00017539,0.00
 174452,-0.00177260,-0.00060512,-0.00026255,0.00061933,-0.00005172,0.00
 003336,0.00005883,-0.01037598,0.00529275,0.01053028,-0.00031468,0.0003
 0665,0.00004169,-0.00032256,0.00053973,-0.00190613,-0.00137474,0.00087
 692,0.00042997,0.00001191,-0.00000151,-0.00003580,0.00000438,0.0000002
 0,0.00000206,-0.00000470,-0.00000393,0.00000283,-0.00000148,0.00000137
 ,0.00000281,0.00000729,-0.00001076,0.00000251,-0.00000341,0.00000076,-
 0.00000192,-0.00000050,0.00000139,0.00000081,0.00000029,0.00000275,-0.
 00000017,0.00001591,0.00001594,0.00000774,0.00000069,-0.00000164,-0.00
 000039,-0.00000551,-0.00000028,-0.00000001,0.00000162,-0.00000176,-0.0
 0000094,0.00005911,-0.00000710,-0.00003309,-0.00001219,-0.00000639,0.0
 0000423,0.00004255,0.00003750,-0.00004414,-0.00003042,0.00000776,0.000
 00530,-0.00022316,-0.00044984,0.00041557,-0.00001719,0.00013233,-0.000
 15938,0.00016371,0.00015095,-0.00005641,0.00006252,0.00006976,-0.00012
 578,0.01685469,-0.00085954,-0.07714692,-0.01906229,-0.00325993,0.01071
 677,-0.04317233,0.00782603,0.08509813,0.00002226,-0.00001259,0.0000204
 8,0.00003807,-0.00002459,-0.00000712,0.00006713,-0.00007093,-0.0000122
 3,-0.00000187,0.00000035,0.00007683,0.00002346,0.00001622,0.00003864,0
 .00001106,-0.00000622,-0.00000251,-0.00000216,0.00000290,-0.00000224,-
 0.00000141,0.00000158,-0.00000254,0.00000243,0.00000768,-0.00000614,0.
 00000510,-0.00000039,-0.00000155,-0.00008579,0.00002864,-0.00006129,-0
 .00007298,0.00005014,-0.00002717,-0.00003642,0.00003154,0.00000705,-0.
 00004708,0.00001965,-0.00002785,-0.00003058,-0.00001374,-0.00005069,0.
 00011408,0.00000735,0.00005720,-0.00002140,0.00000101,-0.00002430,0.00
 000651,-0.00001912,0.00003378,-0.00007924,0.00000294,-0.00011143,0.000
 20023,-0.00040973,0.00010360,-0.00001078,0.00014499,-0.00004624,-0.000
 07192,0.00011823,-0.00000625,0.00049635,-0.00049768,-0.00045797,0.0000
 5469,0.00014308,-0.00011634,-0.00189346,0.00077073,-0.00038260,0.00028
 312,-0.00001856,-0.00071927,0.00007654,0.00002678,-0.00005417,0.010442
 16,0.00162605,-0.00271270,0.00067263,0.00043847,-0.00115425,-0.0005767
 8,0.00128655,-0.00000632,0.00020313,0.00031444,-0.00037314,0.00001283,
 -0.00000228,-0.00001033,-0.00000149,-0.00000456,-0.00000191,0.00000175
 ,-0.00000202,0.00000334,-0.00000415,0.00000423,0.00000041,0.00001082,-
 0.00002434,0.00001536,-0.00000444,0.00000186,-0.00000199,0.00000140,0.
 00000394,-0.00000386,0.00000069,0.00000294,0.00000032,0.00002055,0.000
 02109,0.00001554,-0.00000217,-0.00000191,-0.00000719,-0.00000474,-0.00
 000272,0.00000004,0.00000003,-0.00000013,0.00000281,0.00014469,-0.0000
 2533,0.00010647,-0.00003474,-0.00001763,-0.00001451,-0.00002739,0.0000
 7321,0.00003975,0.00002170,-0.00000020,-0.00000430,-0.00030917,-0.0000
 0564,0.00015485,0.00003610,0.00006266,-0.00011638,0.00011150,0.0000617
 1,-0.00002641,0.00007535,-0.00004377,-0.00006103,-0.07933243,-0.000230
 73,0.03208207,0.01054861,-0.00700889,-0.02329951,-0.03199790,0.0047162
 6,0.05910704,0.09094552,-0.00004309,-0.00003314,-0.00004986,-0.0000816
 0,0.00006490,-0.00001814,-0.00023755,-0.00043582,0.00016522,-0.0001084
 6,-0.00017105,-0.00017130,-0.00001799,0.00001563,-0.00001406,-0.000011
 14,0.00001366,-0.00000497,0.00004213,0.00000333,0.00000683,-0.00000223
 ,0.00001039,-0.00000761,-0.00002383,0.00002233,-0.00003186,0.00002264,
 0.00000178,0.00000472,0.00016055,0.00026106,0.00011609,0.00079114,0.00
 021353,-0.00003501,0.00006703,-0.00001389,-0.00003146,0.00005357,0.000
 01508,0.00003035,0.00002454,0.00005456,0.00005506,0.00020071,-0.000036
 34,0.00012037,-0.00001919,0.00001747,-0.00001465,0.00006785,-0.0001812
 7,0.00001827,-0.00010815,0.00012067,-0.00013924,-0.00180253,0.00105836
 ,0.00057882,0.00040464,-0.00055854,-0.00004989,0.00046840,-0.00021773,
 -0.00045579,-0.00061876,0.00019013,-0.00001850,-0.00025850,-0.00039863
 ,0.00088569,0.00078912,-0.00109293,0.00087887,-0.00115256,-0.00167396,
 0.00090325,-0.00002678,0.00003700,0.00004587,-0.00485186,0.00184381,0.
 03511132,0.00022402,-0.00109259,0.00121270,0.00414451,-0.00288482,0.00
 030830,0.00013681,0.00036729,0.00016955,-0.00003521,0.00000082,0.00004
 520,-0.00000301,0.00000111,0.00000458,0.00000874,0.00000943,-0.0000055
 2,0.00000327,-0.00000371,-0.00000262,-0.00001456,0.00001310,-0.0000042
 4,0.00000651,0.00000001,0.00000250,0.00000016,-0.00000406,-0.00000091,
 -0.00000346,-0.00000059,0.00000097,-0.00001964,-0.00004450,-0.00000753
 ,0.00000213,0.00000256,0.00000302,0.00000337,0.00000369,-0.00000063,0.
 00000441,0.00001224,-0.00000185,0.00024731,-0.00005927,0.00015271,-0.0
 0003125,0.00000381,-0.00000935,0.00000013,0.00005845,-0.00002712,-0.00
 005139,-0.00000387,0.00000355,0.00119590,0.00011489,-0.00156124,-0.000
 01775,-0.00032842,0.00063642,-0.00060939,-0.00033166,0.00026433,-0.000
 29875,0.00011170,0.00044247,0.00125121,-0.08093977,0.02198777,-0.00591
 457,-0.00414272,-0.05056489,0.00758592,0.01160521,-0.01303162,-0.00154
 354,0.07840126,0.00006229,-0.00004083,-0.00000735,0.00010482,-0.000081
 23,-0.00001174,0.00027179,0.00025540,-0.00031223,0.00004227,-0.0000810
 1,-0.00016395,0.00006686,0.00006905,0.00009670,-0.00001920,0.00002167,
 0.00002031,-0.00005159,-0.00000452,-0.00000584,0.00000096,-0.00000936,
 0.00001102,0.00003837,-0.00003330,0.00005903,-0.00001496,-0.00001543,-
 0.00000679,-0.00027846,-0.00006100,0.00015403,-0.00085319,-0.00010308,
 0.00021894,-0.00011209,0.00006421,0.00011826,-0.00012915,0.00004355,-0
 .00002330,-0.00010129,-0.00003577,-0.00004583,0.00064478,0.00036025,0.
 00014217,-0.00003360,-0.00000717,-0.00000769,0.00009662,-0.00013713,-0
 .00001401,-0.00036440,-0.00026603,0.00023176,0.00200750,-0.00108132,-0
 .00158367,-0.00051114,0.00069402,0.00022126,-0.00045226,0.00013205,0.0
 0093209,-0.00010223,0.00127645,0.00051087,-0.00033345,0.00032235,-0.00
 020882,0.00337301,-0.00166876,-0.00105638,0.00183756,0.00067339,-0.001
 31801,-0.00012284,-0.00007732,0.00004753,0.00849731,0.00596041,-0.0395
 1657,-0.00201961,0.00069305,-0.00006444,-0.00508292,0.00563903,-0.0005
 5594,-0.00033040,-0.00063855,0.00048673,0.00003781,-0.00000446,-0.0001
 2362,0.00001447,0.00000018,0.00000882,-0.00001505,-0.00001288,0.000009
 79,-0.00000522,0.00000480,0.00001038,0.00002580,-0.00004368,0.00001407
 ,-0.00001293,0.00000372,-0.00000710,-0.00000108,0.00000562,0.00000195,
 0.00000020,0.00001129,-0.00000100,0.00006606,0.00006412,0.00003718,0.0
 0000065,-0.00000599,-0.00000541,-0.00002170,-0.00000249,-0.00000103,0.
 00000671,-0.00000500,-0.00000117,0.00025718,-0.00000584,-0.00014175,-0
 .00005624,-0.00003008,0.00001634,0.00011517,0.00007951,-0.00013805,-0.
 00011954,0.00002927,0.00002134,-0.00155258,-0.00046926,0.00167342,-0.0
 0000175,0.00053075,-0.00089484,0.00076018,0.00048546,-0.00022529,0.000
 30539,0.00001429,-0.00047836,0.02759170,0.02859646,-0.28380611,-0.0151
 0055,-0.03560874,-0.05662643,0.04352580,-0.00760513,-0.02707901,-0.061
 95185,0.00210503,0.40938776\\0.00000261,-0.00000267,-0.00000048,0.0000
 0188,-0.00000352,-0.00000522,-0.00000492,0.00000072,0.00000840,-0.0000
 0198,0.00000155,-0.00000205,-0.00000086,0.00000069,0.00000059,-0.00000
 344,-0.00000245,-0.00000259,-0.00000231,0.00000219,-0.00000100,-0.0000
 0018,0.00000140,-0.00000105,0.00000078,0.00000296,0.00000257,0.0000001
 0,0.00000027,0.00000047,0.00000255,0.00001789,-0.00000638,-0.00000038,
 -0.00001837,-0.00001200,-0.00000592,-0.00000026,0.00000062,-0.00000173
 ,0.00000215,-0.00000004,-0.00000193,0.00000198,0.00000032,0.00000100,0
 .00000209,0.00000486,-0.00000281,-0.00000115,0.00000336,0.00000659,0.0
 0000051,0.00000045,0.00000171,-0.00000505,-0.00000312,-0.00000707,0.00
 000956,-0.00000159,0.00000847,-0.00000440,0.00000198,0.00001153,0.0000
 0425,-0.00000071,0.00000105,0.00000078,0.00000262,0.00000436,0.0000005
 2,0.00000006,-0.00000211,-0.00000070,-0.00000083,-0.00000465,0.0000053
 6,0.00000023,-0.00000008,-0.00000040,-0.00000299,0.00000103,-0.0000022
 3,0.00000029,0.00000031,-0.00000065,0.00000152,0.00000208,-0.00000116,
 0.00000507,0.00000008,-0.00000103,0.00000172,0.00000247,0.00000227,-0.
 00000282,-0.00000054,0.00000171,-0.00000107,-0.00000062,0.00000084,-0.
 00000101,-0.00000084,0.00000145,-0.00000146,0.00000201,-0.00000118,-0.
 00000235,0.00000061,0.00000023,-0.00000079,0.00000026,-0.00000065,-0.0
 0000116,0.00000048,0.00000067,-0.00000124,0.00000185,-0.00000170,0.000
 00088,0.00000024,-0.00000122,0.00000063,0.00000056,-0.00000005,0.00000
 019,-0.00000066,-0.00000109,0.00000061,-0.00000775,-0.00000351,0.00000
 809,-0.00000010,-0.00000080,0.00000154,0.00000036,0.00000049,0.0000017
 9,0.00000191,-0.00000418,-0.00000024,-0.00000207,-0.00000058,-0.000001
 27,0.00000169,-0.00000090,0.00000095,-0.00000040,-0.00000308,0.0000000
 6,0.00000119,-0.00000307,-0.00000058,-0.00000076,-0.00000542,0.0000002
 4,-0.00000591,0.00000202,0.00000071,0.00000100,0.00000274,0.00000164,-
 0.00000076,0.00000419,0.00000156\\\@


 GARBAGE IN, GARBAGE OUT
 Job cpu time:       0 days 23 hours 26 minutes 52.0 seconds.
 Elapsed time:       0 days  0 hours 46 minutes 38.6 seconds.
 File lengths (MBytes):  RWF=   2323 Int=      0 D2E=      0 Chk=     41 Scr=      1
 Normal termination of Gaussian 16 at Sat Jun 15 10:03:43 2019.
