 Entering Gaussian System, Link 0=g16
 Input=clay_new-glu_gluC6-BCDR-Na2_1Me2O-bisCF3-ts-bhandh-custom-pcm_thf.gjf
 Output=clay_new-glu_gluC6-BCDR-Na2_1Me2O-bisCF3-ts-bhandh-custom-pcm_thf.out
 Initial command:
 /home/ekwan/sw/g16/l1.exe "/scratch/users/ekwan/clay_new-glu_gluC6-BCDR-Na2_1Me2O-bisCF3-ts-bhandh-custom-pcm_thf/Gau-30314.inp" -scrdir="/scratch/users/ekwan/clay_new-glu_gluC6-BCDR-Na2_1Me2O-bisCF3-ts-bhandh-custom-pcm_thf/"
 Entering Link 1 = /home/ekwan/sw/g16/l1.exe PID=     30315.
  
 Copyright (c) 1988,1990,1992,1993,1995,1998,2003,2009,2016,
            Gaussian, Inc.  All Rights Reserved.
  
 This is part of the Gaussian(R) 16 program.  It is based on
 the Gaussian(R) 09 system (copyright 2009, Gaussian, Inc.),
 the Gaussian(R) 03 system (copyright 2003, Gaussian, Inc.),
 the Gaussian(R) 98 system (copyright 1998, Gaussian, Inc.),
 the Gaussian(R) 94 system (copyright 1995, Gaussian, Inc.),
 the Gaussian 92(TM) system (copyright 1992, Gaussian, Inc.),
 the Gaussian 90(TM) system (copyright 1990, Gaussian, Inc.),
 the Gaussian 88(TM) system (copyright 1988, Gaussian, Inc.),
 the Gaussian 86(TM) system (copyright 1986, Carnegie Mellon
 University), and the Gaussian 82(TM) system (copyright 1983,
 Carnegie Mellon University). Gaussian is a federally registered
 trademark of Gaussian, Inc.
  
 This software contains proprietary and confidential information,
 including trade secrets, belonging to Gaussian, Inc.
  
 This software is provided under written license and may be
 used, copied, transmitted, or stored only in accord with that
 written license.
  
 The following legend is applicable only to US Government
 contracts under FAR:
  
                    RESTRICTED RIGHTS LEGEND
  
 Use, reproduction and disclosure by the US Government is
 subject to restrictions as set forth in subparagraphs (a)
 and (c) of the Commercial Computer Software - Restricted
 Rights clause in FAR 52.227-19.
  
 Gaussian, Inc.
 340 Quinnipiac St., Bldg. 40, Wallingford CT 06492
  
  
 ---------------------------------------------------------------
 Warning -- This program may not be used in any manner that
 competes with the business of Gaussian, Inc. or will provide
 assistance to any competitor of Gaussian, Inc.  The licensee
 of this program is prohibited from giving any competitor of
 Gaussian, Inc. access to this program.  By using this program,
 the user acknowledges that Gaussian, Inc. is engaged in the
 business of creating and licensing software in the field of
 computational chemistry and represents and warrants to the
 licensee that it is not a competitor of Gaussian, Inc. and that
 it will not use this program in any manner prohibited above.
 ---------------------------------------------------------------
  

 Cite this work as:
 Gaussian 16, Revision A.03,
 M. J. Frisch, G. W. Trucks, H. B. Schlegel, G. E. Scuseria, 
 M. A. Robb, J. R. Cheeseman, G. Scalmani, V. Barone, 
 G. A. Petersson, H. Nakatsuji, X. Li, M. Caricato, A. V. Marenich, 
 J. Bloino, B. G. Janesko, R. Gomperts, B. Mennucci, H. P. Hratchian, 
 J. V. Ortiz, A. F. Izmaylov, J. L. Sonnenberg, D. Williams-Young, 
 F. Ding, F. Lipparini, F. Egidi, J. Goings, B. Peng, A. Petrone, 
 T. Henderson, D. Ranasinghe, V. G. Zakrzewski, J. Gao, N. Rega, 
 G. Zheng, W. Liang, M. Hada, M. Ehara, K. Toyota, R. Fukuda, 
 J. Hasegawa, M. Ishida, T. Nakajima, Y. Honda, O. Kitao, H. Nakai, 
 T. Vreven, K. Throssell, J. A. Montgomery, Jr., J. E. Peralta, 
 F. Ogliaro, M. J. Bearpark, J. J. Heyd, E. N. Brothers, K. N. Kudin, 
 V. N. Staroverov, T. A. Keith, R. Kobayashi, J. Normand, 
 K. Raghavachari, A. P. Rendell, J. C. Burant, S. S. Iyengar, 
 J. Tomasi, M. Cossi, J. M. Millam, M. Klene, C. Adamo, R. Cammi, 
 J. W. Ochterski, R. L. Martin, K. Morokuma, O. Farkas, 
 J. B. Foresman, and D. J. Fox, Gaussian, Inc., Wallingford CT, 2016.
 
 ******************************************
 Gaussian 16:  AS64L-G16RevA.03 25-Dec-2016
                16-Jun-2019 
 ******************************************
 %mem=48GB
 %nprocshared=32
 Will use up to   32 processors via shared memory.
 ----------------------------------------------------------------------
 #p opt=(ts,calcfc,noeigentest,maxstep=5) freq=noraman pop=none extraba
 sis 6-31g* scrf=(pcm,solvent=tetrahydrofuran) bhandh
 ----------------------------------------------------------------------
 1/5=1,8=5,10=4,11=1,18=20,26=3,38=1/1,3;
 2/9=110,12=2,17=6,18=5,40=1/2;
 3/5=1,6=6,7=1,10=1,11=2,25=1,30=1,70=2201,71=2,72=20,74=-2,140=1/1,2,3;
 4//1;
 5/5=2,38=5,53=20/2;
 8/6=4,10=90,11=11/1;
 11/6=1,8=1,9=11,15=111,16=1/1,2,10;
 10/6=1,13=1/2;
 7/10=1,18=20,25=1/1,2,3,16;
 1/5=1,8=5,10=4,11=1,18=20,26=3/3(2);
 2/9=110/2;
 99//99;
 2/9=110/2;
 3/5=7,6=1,7=1,11=2,25=1,30=1,70=2205,71=1,72=20,74=-2,82=7/1,2,3;
 4/5=5,16=3,69=1/1;
 5/5=2,38=5,53=20/2;
 7//1,2,3,16;
 1/5=1,8=5,11=1,18=20,26=3/3(-5);
 2/9=110/2;
 99/9=1/99;
 Leave Link    1 at Sun Jun 16 13:28:31 2019, MaxMem=  6442450944 cpu:               4.0 elap:               0.2
 (Enter /home/ekwan/sw/g16/l101.exe)
 -----
 title
 -----
 Symbolic Z-matrix:
 Charge =  0 Multiplicity = 1
 6                    -1.80652   1.35201   2.22821 
 6                    -2.08655   2.15756   0.98434 
 6                    -1.18311   3.36269   0.9246 
 6                     0.48192   2.30879   2.20531 
 6                    -0.33424   1.04012   2.31538 
 1                    -1.28828   3.87064  -0.04108 
 1                    -1.85074   1.54535   0.10463 
 1                    -2.09776   1.95573   3.09772 
 1                     0.21914   2.95017   3.0549 
 1                    -0.09178   0.37022   1.48217 
 8                     0.15032   2.9734    1.0017 
 8                    -1.51932   4.20682   1.95014 
 8                    -3.40273   2.59061   0.94489 
 8                    -2.58034   0.19615   2.17498 
 8                    -0.05373   0.40715   3.52314 
 6                     1.97294   2.08827   2.19708 
 1                     2.21326   1.59693   3.15605 
 1                     2.42305   3.10071   2.26526 
 8                     2.42389   1.41465   1.10805 
 6                    -4.23533   1.80328   0.15764 
 1                    -3.92578   1.82341  -0.8934 
 1                    -4.24316   0.76634   0.50052 
 1                    -5.24131   2.21478   0.22701 
 6                    -2.98094  -0.28143   3.42065 
 1                    -2.12559  -0.58287   4.02678 
 1                    -3.54651   0.48286   3.96495 
 1                    -3.62483  -1.14005   3.24533 
 6                     0.77318  -0.70733   3.39089 
 1                     0.25592  -1.51594   2.864 
 1                     1.68823  -0.47443   2.84106 
 1                     1.03093  -1.04554   4.39436 
 6                     3.66589  -1.44173  -1.36673 
 6                     3.08677  -0.14321  -0.86991 
 6                     1.74737  -0.33743  -0.26833 
 6                     2.04472  -2.63996   0.09356 
 6                     3.49472  -2.46151  -0.26807 
 1                     1.04954   0.46953  -0.18628 
 1                     3.68896   0.20039  -0.01494 
 1                     3.14387  -1.76371  -2.27523 
 1                     1.50616  -3.04699  -0.76579 
 1                     4.03852  -2.10273   0.61244 
 8                     1.4287   -1.38267   0.38166 
 8                    -0.44232   0.29079  -3.8579 
 8                     2.97927   0.88543  -1.78783 
 8                     5.01938  -1.2551   -1.60672 
 8                     3.98277  -3.6929   -0.67466 
 6                     1.81856  -3.50713   1.28451 
 1                     2.12454  -4.53025   1.03222 
 1                     0.7451   -3.52377   1.51952 
 8                     2.55083  -3.00515   2.34258 
 16                   -0.25373   0.13567  -2.43334 
 8                    -0.10864   1.39413  -1.69299 
 8                     0.82636  -0.80992  -2.06653 
 6                    -1.70859  -0.62183  -1.79544 
 6                    -2.92885  -0.39673  -2.39322 
 6                    -1.60329  -1.39459  -0.66116 
 6                    -4.0548   -0.95478  -1.82723 
 1                    -2.99486   0.20325  -3.29207 
 6                    -2.73819  -1.95609  -0.12298 
 1                    -0.64023  -1.56091  -0.19514 
 6                    -3.97005  -1.74173  -0.6976 
 1                    -4.86162  -2.17865  -0.26711 
 6                     4.19953   1.40723  -2.23638 
 1                     4.89802   1.52707  -1.40484 
 1                     4.65411   0.76117  -2.9871 
 1                     3.98403   2.38262  -2.66743 
 6                     5.50857  -1.96972  -2.69908 
 1                     5.32595  -3.03953  -2.58531 
 1                     5.04695  -1.62488  -3.63114 
 1                     6.58013  -1.78711  -2.74998 
 6                     4.93474  -4.23331   0.19069 
 1                     5.83758  -3.61647   0.20949 
 1                     4.54196  -4.3152    1.20906 
 1                     5.18566  -5.22466  -0.18018 
 6                     2.32376  -3.70468   3.52095 
 1                     2.92965  -3.24716   4.29976 
 1                     1.26857  -3.6528    3.8115 
 1                     2.60622  -4.75813   3.41752 
 6                    -0.79725   5.39733   1.93978 
 1                    -1.21604   6.04012   2.7103 
 1                     0.26171   5.22512   2.14908 
 1                    -0.88544   5.89683   0.96881 
 11                    1.6213    2.56206  -0.71017 
 8                     3.28454   4.02721  -0.8121 
 6                     3.61089   5.0991   -1.63222 
 1                     4.53666   4.8984   -2.18293 
 1                     2.7979    5.24432  -2.34083 
 1                     3.74574   6.01388  -1.04644 
 6                     4.26137   3.76893   0.15085 
 1                     4.35921   4.61753   0.83581 
 1                     3.94308   2.87235   0.68871 
 1                     5.23173   3.59484  -0.32771 
 6                    -5.39068  -0.63355  -2.38663 
 9                    -5.9084    0.43447  -1.79717 
 9                    -6.24485  -1.62127  -2.20749 
 9                    -5.33137  -0.37185  -3.67594 
 6                    -2.60341  -2.84835   1.05444 
 9                    -1.61603  -2.4687    1.84805 
 9                    -2.33631  -4.09109   0.69135 
 9                    -3.71119  -2.88517   1.77016 
 
 Add virtual bond connecting atoms O52        and H37        Dist= 3.99D+00.
 Add virtual bond connecting atoms O53        and C34        Dist= 3.92D+00.
 Add virtual bond connecting atoms H60        and O42        Dist= 4.07D+00.
 ITRead=  0  0  0  0  0  0  0  0  0  0  0  0  0  0  0  0  0  0  0  0
 ITRead=  0  0  0  0  0  0  0  0  0  0  0  0  0  0  0  0  0  0  0  0
 ITRead=  0  0  0  0  0  0  0  0  0  0  0  0  0  0  0  0  0  0  0  0
 ITRead=  0  0  0  0  0  0  0  0  0  0  0  0  0  0  0  0  0  0  0  0
 ITRead=  0  0  0  0  0  0  0  0  0  0  0  0  0  0  0  0  0  0  0  0
 MicOpt= -1 -1 -1 -1 -1 -1 -1 -1 -1 -1 -1 -1 -1 -1 -1 -1 -1 -1 -1 -1
 MicOpt= -1 -1 -1 -1 -1 -1 -1 -1 -1 -1 -1 -1 -1 -1 -1 -1 -1 -1 -1 -1
 MicOpt= -1 -1 -1 -1 -1 -1 -1 -1 -1 -1 -1 -1 -1 -1 -1 -1 -1 -1 -1 -1
 MicOpt= -1 -1 -1 -1 -1 -1 -1 -1 -1 -1 -1 -1 -1 -1 -1 -1 -1 -1 -1 -1
 MicOpt= -1 -1 -1 -1 -1 -1 -1 -1 -1 -1 -1 -1 -1 -1 -1 -1 -1 -1 -1 -1
 NAtoms=    100 NQM=      100 NQMF=       0 NMMI=      0 NMMIF=      0
                NMic=       0 NMicF=      0.
                    Isotopes and Nuclear Properties:
 (Nuclear quadrupole moments (NQMom) in fm**2, nuclear magnetic moments (NMagM)
  in nuclear magnetons)

  Atom         1           2           3           4           5           6           7           8           9          10
 IAtWgt=          12          12          12          12          12           1           1           1           1           1
 AtmWgt=  12.0000000  12.0000000  12.0000000  12.0000000  12.0000000   1.0078250   1.0078250   1.0078250   1.0078250   1.0078250
 NucSpn=           0           0           0           0           0           1           1           1           1           1
 AtZEff=   0.0000000   0.0000000   0.0000000   0.0000000   0.0000000   0.0000000   0.0000000   0.0000000   0.0000000   0.0000000
 NQMom=    0.0000000   0.0000000   0.0000000   0.0000000   0.0000000   0.0000000   0.0000000   0.0000000   0.0000000   0.0000000
 NMagM=    0.0000000   0.0000000   0.0000000   0.0000000   0.0000000   2.7928460   2.7928460   2.7928460   2.7928460   2.7928460
 AtZNuc=   6.0000000   6.0000000   6.0000000   6.0000000   6.0000000   1.0000000   1.0000000   1.0000000   1.0000000   1.0000000

  Atom        11          12          13          14          15          16          17          18          19          20
 IAtWgt=          16          16          16          16          16          12           1           1          16          12
 AtmWgt=  15.9949146  15.9949146  15.9949146  15.9949146  15.9949146  12.0000000   1.0078250   1.0078250  15.9949146  12.0000000
 NucSpn=           0           0           0           0           0           0           1           1           0           0
 AtZEff=   0.0000000   0.0000000   0.0000000   0.0000000   0.0000000   0.0000000   0.0000000   0.0000000   0.0000000   0.0000000
 NQMom=    0.0000000   0.0000000   0.0000000   0.0000000   0.0000000   0.0000000   0.0000000   0.0000000   0.0000000   0.0000000
 NMagM=    0.0000000   0.0000000   0.0000000   0.0000000   0.0000000   0.0000000   2.7928460   2.7928460   0.0000000   0.0000000
 AtZNuc=   8.0000000   8.0000000   8.0000000   8.0000000   8.0000000   6.0000000   1.0000000   1.0000000   8.0000000   6.0000000

  Atom        21          22          23          24          25          26          27          28          29          30
 IAtWgt=           1           1           1          12           1           1           1          12           1           1
 AtmWgt=   1.0078250   1.0078250   1.0078250  12.0000000   1.0078250   1.0078250   1.0078250  12.0000000   1.0078250   1.0078250
 NucSpn=           1           1           1           0           1           1           1           0           1           1
 AtZEff=   0.0000000   0.0000000   0.0000000   0.0000000   0.0000000   0.0000000   0.0000000   0.0000000   0.0000000   0.0000000
 NQMom=    0.0000000   0.0000000   0.0000000   0.0000000   0.0000000   0.0000000   0.0000000   0.0000000   0.0000000   0.0000000
 NMagM=    2.7928460   2.7928460   2.7928460   0.0000000   2.7928460   2.7928460   2.7928460   0.0000000   2.7928460   2.7928460
 AtZNuc=   1.0000000   1.0000000   1.0000000   6.0000000   1.0000000   1.0000000   1.0000000   6.0000000   1.0000000   1.0000000

  Atom        31          32          33          34          35          36          37          38          39          40
 IAtWgt=           1          12          12          12          12          12           1           1           1           1
 AtmWgt=   1.0078250  12.0000000  12.0000000  12.0000000  12.0000000  12.0000000   1.0078250   1.0078250   1.0078250   1.0078250
 NucSpn=           1           0           0           0           0           0           1           1           1           1
 AtZEff=   0.0000000   0.0000000   0.0000000   0.0000000   0.0000000   0.0000000   0.0000000   0.0000000   0.0000000   0.0000000
 NQMom=    0.0000000   0.0000000   0.0000000   0.0000000   0.0000000   0.0000000   0.0000000   0.0000000   0.0000000   0.0000000
 NMagM=    2.7928460   0.0000000   0.0000000   0.0000000   0.0000000   0.0000000   2.7928460   2.7928460   2.7928460   2.7928460
 AtZNuc=   1.0000000   6.0000000   6.0000000   6.0000000   6.0000000   6.0000000   1.0000000   1.0000000   1.0000000   1.0000000

  Atom        41          42          43          44          45          46          47          48          49          50
 IAtWgt=           1          16          16          16          16          16          12           1           1          16
 AtmWgt=   1.0078250  15.9949146  15.9949146  15.9949146  15.9949146  15.9949146  12.0000000   1.0078250   1.0078250  15.9949146
 NucSpn=           1           0           0           0           0           0           0           1           1           0
 AtZEff=   0.0000000   0.0000000   0.0000000   0.0000000   0.0000000   0.0000000   0.0000000   0.0000000   0.0000000   0.0000000
 NQMom=    0.0000000   0.0000000   0.0000000   0.0000000   0.0000000   0.0000000   0.0000000   0.0000000   0.0000000   0.0000000
 NMagM=    2.7928460   0.0000000   0.0000000   0.0000000   0.0000000   0.0000000   0.0000000   2.7928460   2.7928460   0.0000000
 AtZNuc=   1.0000000   8.0000000   8.0000000   8.0000000   8.0000000   8.0000000   6.0000000   1.0000000   1.0000000   8.0000000

  Atom        51          52          53          54          55          56          57          58          59          60
 IAtWgt=          32          16          16          12          12          12          12           1          12           1
 AtmWgt=  31.9720718  15.9949146  15.9949146  12.0000000  12.0000000  12.0000000  12.0000000   1.0078250  12.0000000   1.0078250
 NucSpn=           0           0           0           0           0           0           0           1           0           1
 AtZEff=   0.0000000   0.0000000   0.0000000   0.0000000   0.0000000   0.0000000   0.0000000   0.0000000   0.0000000   0.0000000
 NQMom=    0.0000000   0.0000000   0.0000000   0.0000000   0.0000000   0.0000000   0.0000000   0.0000000   0.0000000   0.0000000
 NMagM=    0.0000000   0.0000000   0.0000000   0.0000000   0.0000000   0.0000000   0.0000000   2.7928460   0.0000000   2.7928460
 AtZNuc=  16.0000000   8.0000000   8.0000000   6.0000000   6.0000000   6.0000000   6.0000000   1.0000000   6.0000000   1.0000000

  Atom        61          62          63          64          65          66          67          68          69          70
 IAtWgt=          12           1          12           1           1           1          12           1           1           1
 AtmWgt=  12.0000000   1.0078250  12.0000000   1.0078250   1.0078250   1.0078250  12.0000000   1.0078250   1.0078250   1.0078250
 NucSpn=           0           1           0           1           1           1           0           1           1           1
 AtZEff=   0.0000000   0.0000000   0.0000000   0.0000000   0.0000000   0.0000000   0.0000000   0.0000000   0.0000000   0.0000000
 NQMom=    0.0000000   0.0000000   0.0000000   0.0000000   0.0000000   0.0000000   0.0000000   0.0000000   0.0000000   0.0000000
 NMagM=    0.0000000   2.7928460   0.0000000   2.7928460   2.7928460   2.7928460   0.0000000   2.7928460   2.7928460   2.7928460
 AtZNuc=   6.0000000   1.0000000   6.0000000   1.0000000   1.0000000   1.0000000   6.0000000   1.0000000   1.0000000   1.0000000

  Atom        71          72          73          74          75          76          77          78          79          80
 IAtWgt=          12           1           1           1          12           1           1           1          12           1
 AtmWgt=  12.0000000   1.0078250   1.0078250   1.0078250  12.0000000   1.0078250   1.0078250   1.0078250  12.0000000   1.0078250
 NucSpn=           0           1           1           1           0           1           1           1           0           1
 AtZEff=   0.0000000   0.0000000   0.0000000   0.0000000   0.0000000   0.0000000   0.0000000   0.0000000   0.0000000   0.0000000
 NQMom=    0.0000000   0.0000000   0.0000000   0.0000000   0.0000000   0.0000000   0.0000000   0.0000000   0.0000000   0.0000000
 NMagM=    0.0000000   2.7928460   2.7928460   2.7928460   0.0000000   2.7928460   2.7928460   2.7928460   0.0000000   2.7928460
 AtZNuc=   6.0000000   1.0000000   1.0000000   1.0000000   6.0000000   1.0000000   1.0000000   1.0000000   6.0000000   1.0000000

  Atom        81          82          83          84          85          86          87          88          89          90
 IAtWgt=           1           1          23          16          12           1           1           1          12           1
 AtmWgt=   1.0078250   1.0078250  22.9897697  15.9949146  12.0000000   1.0078250   1.0078250   1.0078250  12.0000000   1.0078250
 NucSpn=           1           1           3           0           0           1           1           1           0           1
 AtZEff=   0.0000000   0.0000000   0.0000000   0.0000000   0.0000000   0.0000000   0.0000000   0.0000000   0.0000000   0.0000000
 NQMom=    0.0000000   0.0000000  10.4000000   0.0000000   0.0000000   0.0000000   0.0000000   0.0000000   0.0000000   0.0000000
 NMagM=    2.7928460   2.7928460   2.2175200   0.0000000   0.0000000   2.7928460   2.7928460   2.7928460   0.0000000   2.7928460
 AtZNuc=   1.0000000   1.0000000  11.0000000   8.0000000   6.0000000   1.0000000   1.0000000   1.0000000   6.0000000   1.0000000

  Atom        91          92          93          94          95          96          97          98          99         100
 IAtWgt=           1           1          12          19          19          19          12          19          19          19
 AtmWgt=   1.0078250   1.0078250  12.0000000  18.9984033  18.9984033  18.9984033  12.0000000  18.9984033  18.9984033  18.9984033
 NucSpn=           1           1           0           1           1           1           0           1           1           1
 AtZEff=   0.0000000   0.0000000   0.0000000   0.0000000   0.0000000   0.0000000   0.0000000   0.0000000   0.0000000   0.0000000
 NQMom=    0.0000000   0.0000000   0.0000000   0.0000000   0.0000000   0.0000000   0.0000000   0.0000000   0.0000000   0.0000000
 NMagM=    2.7928460   2.7928460   0.0000000   2.6288670   2.6288670   2.6288670   0.0000000   2.6288670   2.6288670   2.6288670
 AtZNuc=   1.0000000   1.0000000   6.0000000   9.0000000   9.0000000   9.0000000   6.0000000   9.0000000   9.0000000   9.0000000
 Leave Link  101 at Sun Jun 16 13:28:32 2019, MaxMem=  6442450944 cpu:              16.4 elap:               0.7
 (Enter /home/ekwan/sw/g16/l103.exe)

 GradGradGradGradGradGradGradGradGradGradGradGradGradGradGradGradGradGrad
 Berny optimization.
 Initialization pass.
                           ----------------------------
                           !    Initial Parameters    !
                           ! (Angstroms and Degrees)  !
 --------------------------                            --------------------------
 ! Name  Definition              Value          Derivative Info.                !
 --------------------------------------------------------------------------------
 ! R1    R(1,2)                  1.5082         calculate D2E/DX2 analytically  !
 ! R2    R(1,5)                  1.5075         calculate D2E/DX2 analytically  !
 ! R3    R(1,8)                  1.0979         calculate D2E/DX2 analytically  !
 ! R4    R(1,14)                 1.392          calculate D2E/DX2 analytically  !
 ! R5    R(2,3)                  1.5074         calculate D2E/DX2 analytically  !
 ! R6    R(2,7)                  1.0974         calculate D2E/DX2 analytically  !
 ! R7    R(2,13)                 1.3861         calculate D2E/DX2 analytically  !
 ! R8    R(3,6)                  1.0962         calculate D2E/DX2 analytically  !
 ! R9    R(3,11)                 1.3912         calculate D2E/DX2 analytically  !
 ! R10   R(3,12)                 1.3702         calculate D2E/DX2 analytically  !
 ! R11   R(4,5)                  1.5125         calculate D2E/DX2 analytically  !
 ! R12   R(4,9)                  1.0965         calculate D2E/DX2 analytically  !
 ! R13   R(4,11)                 1.4143         calculate D2E/DX2 analytically  !
 ! R14   R(4,16)                 1.5073         calculate D2E/DX2 analytically  !
 ! R15   R(5,10)                 1.0963         calculate D2E/DX2 analytically  !
 ! R16   R(5,15)                 1.3921         calculate D2E/DX2 analytically  !
 ! R17   R(11,83)                2.2942         calculate D2E/DX2 analytically  !
 ! R18   R(12,79)                1.3924         calculate D2E/DX2 analytically  !
 ! R19   R(13,20)                1.3903         calculate D2E/DX2 analytically  !
 ! R20   R(14,24)                1.3929         calculate D2E/DX2 analytically  !
 ! R21   R(15,28)                1.394          calculate D2E/DX2 analytically  !
 ! R22   R(16,17)                1.104          calculate D2E/DX2 analytically  !
 ! R23   R(16,18)                1.1101         calculate D2E/DX2 analytically  !
 ! R24   R(16,19)                1.3576         calculate D2E/DX2 analytically  !
 ! R25   R(19,83)                2.2949         calculate D2E/DX2 analytically  !
 ! R26   R(20,21)                1.0959         calculate D2E/DX2 analytically  !
 ! R27   R(20,22)                1.0922         calculate D2E/DX2 analytically  !
 ! R28   R(20,23)                1.0891         calculate D2E/DX2 analytically  !
 ! R29   R(24,25)                1.0908         calculate D2E/DX2 analytically  !
 ! R30   R(24,26)                1.0956         calculate D2E/DX2 analytically  !
 ! R31   R(24,27)                1.0875         calculate D2E/DX2 analytically  !
 ! R32   R(28,29)                1.095          calculate D2E/DX2 analytically  !
 ! R33   R(28,30)                1.0927         calculate D2E/DX2 analytically  !
 ! R34   R(28,31)                1.0899         calculate D2E/DX2 analytically  !
 ! R35   R(32,33)                1.5061         calculate D2E/DX2 analytically  !
 ! R36   R(32,36)                1.5087         calculate D2E/DX2 analytically  !
 ! R37   R(32,39)                1.0962         calculate D2E/DX2 analytically  !
 ! R38   R(32,45)                1.3872         calculate D2E/DX2 analytically  !
 ! R39   R(33,34)                1.4811         calculate D2E/DX2 analytically  !
 ! R40   R(33,38)                1.1008         calculate D2E/DX2 analytically  !
 ! R41   R(33,44)                1.3828         calculate D2E/DX2 analytically  !
 ! R42   R(34,37)                1.07           calculate D2E/DX2 analytically  !
 ! R43   R(34,42)                1.2714         calculate D2E/DX2 analytically  !
 ! R44   R(34,53)                2.0749         calculate D2E/DX2 analytically  !
 ! R45   R(35,36)                1.505          calculate D2E/DX2 analytically  !
 ! R46   R(35,40)                1.0928         calculate D2E/DX2 analytically  !
 ! R47   R(35,42)                1.4294         calculate D2E/DX2 analytically  !
 ! R48   R(35,47)                1.4905         calculate D2E/DX2 analytically  !
 ! R49   R(36,41)                1.0953         calculate D2E/DX2 analytically  !
 ! R50   R(36,46)                1.3856         calculate D2E/DX2 analytically  !
 ! R51   R(37,52)                2.1134         calculate D2E/DX2 analytically  !
 ! R52   R(37,83)                2.2316         calculate D2E/DX2 analytically  !
 ! R53   R(42,60)                2.1552         calculate D2E/DX2 analytically  !
 ! R54   R(43,51)                1.4453         calculate D2E/DX2 analytically  !
 ! R55   R(44,63)                1.4009         calculate D2E/DX2 analytically  !
 ! R56   R(45,67)                1.394          calculate D2E/DX2 analytically  !
 ! R57   R(46,71)                1.3954         calculate D2E/DX2 analytically  !
 ! R58   R(47,48)                1.0973         calculate D2E/DX2 analytically  !
 ! R59   R(47,49)                1.099          calculate D2E/DX2 analytically  !
 ! R60   R(47,50)                1.3812         calculate D2E/DX2 analytically  !
 ! R61   R(50,75)                1.389          calculate D2E/DX2 analytically  !
 ! R62   R(51,52)                1.4673         calculate D2E/DX2 analytically  !
 ! R63   R(51,53)                1.4817         calculate D2E/DX2 analytically  !
 ! R64   R(51,54)                1.7599         calculate D2E/DX2 analytically  !
 ! R65   R(54,55)                1.3773         calculate D2E/DX2 analytically  !
 ! R66   R(54,56)                1.3765         calculate D2E/DX2 analytically  !
 ! R67   R(55,57)                1.3782         calculate D2E/DX2 analytically  !
 ! R68   R(55,58)                1.0827         calculate D2E/DX2 analytically  !
 ! R69   R(56,59)                1.3758         calculate D2E/DX2 analytically  !
 ! R70   R(56,60)                1.0827         calculate D2E/DX2 analytically  !
 ! R71   R(57,61)                1.3793         calculate D2E/DX2 analytically  !
 ! R72   R(57,93)                1.4835         calculate D2E/DX2 analytically  !
 ! R73   R(59,61)                1.3761         calculate D2E/DX2 analytically  !
 ! R74   R(59,97)                1.4834         calculate D2E/DX2 analytically  !
 ! R75   R(61,62)                1.0822         calculate D2E/DX2 analytically  !
 ! R76   R(63,64)                1.0926         calculate D2E/DX2 analytically  !
 ! R77   R(63,65)                1.0898         calculate D2E/DX2 analytically  !
 ! R78   R(63,66)                1.0879         calculate D2E/DX2 analytically  !
 ! R79   R(67,68)                1.0912         calculate D2E/DX2 analytically  !
 ! R80   R(67,69)                1.0958         calculate D2E/DX2 analytically  !
 ! R81   R(67,70)                1.0882         calculate D2E/DX2 analytically  !
 ! R82   R(71,72)                1.0936         calculate D2E/DX2 analytically  !
 ! R83   R(71,73)                1.0946         calculate D2E/DX2 analytically  !
 ! R84   R(71,74)                1.0878         calculate D2E/DX2 analytically  !
 ! R85   R(75,76)                1.0876         calculate D2E/DX2 analytically  !
 ! R86   R(75,77)                1.0957         calculate D2E/DX2 analytically  !
 ! R87   R(75,78)                1.0956         calculate D2E/DX2 analytically  !
 ! R88   R(79,80)                1.0873         calculate D2E/DX2 analytically  !
 ! R89   R(79,81)                1.0931         calculate D2E/DX2 analytically  !
 ! R90   R(79,82)                1.0955         calculate D2E/DX2 analytically  !
 ! R91   R(83,84)                2.2189         calculate D2E/DX2 analytically  !
 ! R92   R(84,85)                1.3885         calculate D2E/DX2 analytically  !
 ! R93   R(84,89)                1.3958         calculate D2E/DX2 analytically  !
 ! R94   R(85,86)                1.0957         calculate D2E/DX2 analytically  !
 ! R95   R(85,87)                1.0882         calculate D2E/DX2 analytically  !
 ! R96   R(85,88)                1.0946         calculate D2E/DX2 analytically  !
 ! R97   R(89,90)                1.0949         calculate D2E/DX2 analytically  !
 ! R98   R(89,91)                1.0929         calculate D2E/DX2 analytically  !
 ! R99   R(89,92)                1.0959         calculate D2E/DX2 analytically  !
 ! R100  R(93,94)                1.3252         calculate D2E/DX2 analytically  !
 ! R101  R(93,95)                1.3181         calculate D2E/DX2 analytically  !
 ! R102  R(93,96)                1.3169         calculate D2E/DX2 analytically  !
 ! R103  R(97,98)                1.3224         calculate D2E/DX2 analytically  !
 ! R104  R(97,99)                1.322          calculate D2E/DX2 analytically  !
 ! R105  R(97,100)               1.3194         calculate D2E/DX2 analytically  !
 ! A1    A(2,1,5)              109.8494         calculate D2E/DX2 analytically  !
 ! A2    A(2,1,8)              108.0732         calculate D2E/DX2 analytically  !
 ! A3    A(2,1,14)             107.9846         calculate D2E/DX2 analytically  !
 ! A4    A(5,1,8)              109.0899         calculate D2E/DX2 analytically  !
 ! A5    A(5,1,14)             111.9216         calculate D2E/DX2 analytically  !
 ! A6    A(8,1,14)             109.8424         calculate D2E/DX2 analytically  !
 ! A7    A(1,2,3)              110.3917         calculate D2E/DX2 analytically  !
 ! A8    A(1,2,7)              108.8614         calculate D2E/DX2 analytically  !
 ! A9    A(1,2,13)             111.5092         calculate D2E/DX2 analytically  !
 ! A10   A(3,2,7)              106.5859         calculate D2E/DX2 analytically  !
 ! A11   A(3,2,13)             108.5538         calculate D2E/DX2 analytically  !
 ! A12   A(7,2,13)             110.8244         calculate D2E/DX2 analytically  !
 ! A13   A(2,3,6)              110.358          calculate D2E/DX2 analytically  !
 ! A14   A(2,3,11)             110.3982         calculate D2E/DX2 analytically  !
 ! A15   A(2,3,12)             108.4106         calculate D2E/DX2 analytically  !
 ! A16   A(6,3,11)             105.6903         calculate D2E/DX2 analytically  !
 ! A17   A(6,3,12)             110.5095         calculate D2E/DX2 analytically  !
 ! A18   A(11,3,12)            111.4747         calculate D2E/DX2 analytically  !
 ! A19   A(5,4,9)              107.7548         calculate D2E/DX2 analytically  !
 ! A20   A(5,4,11)             109.2425         calculate D2E/DX2 analytically  !
 ! A21   A(5,4,16)             114.2967         calculate D2E/DX2 analytically  !
 ! A22   A(9,4,11)             109.1679         calculate D2E/DX2 analytically  !
 ! A23   A(9,4,16)             109.08           calculate D2E/DX2 analytically  !
 ! A24   A(11,4,16)            107.2192         calculate D2E/DX2 analytically  !
 ! A25   A(1,5,4)              110.4412         calculate D2E/DX2 analytically  !
 ! A26   A(1,5,10)             107.3665         calculate D2E/DX2 analytically  !
 ! A27   A(1,5,15)             109.9395         calculate D2E/DX2 analytically  !
 ! A28   A(4,5,10)             109.7495         calculate D2E/DX2 analytically  !
 ! A29   A(4,5,15)             109.6201         calculate D2E/DX2 analytically  !
 ! A30   A(10,5,15)            109.6931         calculate D2E/DX2 analytically  !
 ! A31   A(3,11,4)             113.7888         calculate D2E/DX2 analytically  !
 ! A32   A(3,11,83)            128.5607         calculate D2E/DX2 analytically  !
 ! A33   A(4,11,83)            113.6041         calculate D2E/DX2 analytically  !
 ! A34   A(3,12,79)            113.1998         calculate D2E/DX2 analytically  !
 ! A35   A(2,13,20)            114.0687         calculate D2E/DX2 analytically  !
 ! A36   A(1,14,24)            114.2285         calculate D2E/DX2 analytically  !
 ! A37   A(5,15,28)            113.6227         calculate D2E/DX2 analytically  !
 ! A38   A(4,16,17)            106.0038         calculate D2E/DX2 analytically  !
 ! A39   A(4,16,18)            105.5056         calculate D2E/DX2 analytically  !
 ! A40   A(4,16,19)            113.9262         calculate D2E/DX2 analytically  !
 ! A41   A(17,16,18)           105.3252         calculate D2E/DX2 analytically  !
 ! A42   A(17,16,19)           113.8069         calculate D2E/DX2 analytically  !
 ! A43   A(18,16,19)           111.5387         calculate D2E/DX2 analytically  !
 ! A44   A(16,19,83)           105.7414         calculate D2E/DX2 analytically  !
 ! A45   A(13,20,21)           111.3167         calculate D2E/DX2 analytically  !
 ! A46   A(13,20,22)           111.3581         calculate D2E/DX2 analytically  !
 ! A47   A(13,20,23)           107.6455         calculate D2E/DX2 analytically  !
 ! A48   A(21,20,22)           108.6973         calculate D2E/DX2 analytically  !
 ! A49   A(21,20,23)           108.3643         calculate D2E/DX2 analytically  !
 ! A50   A(22,20,23)           109.3964         calculate D2E/DX2 analytically  !
 ! A51   A(14,24,25)           111.4785         calculate D2E/DX2 analytically  !
 ! A52   A(14,24,26)           110.706          calculate D2E/DX2 analytically  !
 ! A53   A(14,24,27)           107.2667         calculate D2E/DX2 analytically  !
 ! A54   A(25,24,26)           108.7551         calculate D2E/DX2 analytically  !
 ! A55   A(25,24,27)           109.6146         calculate D2E/DX2 analytically  !
 ! A56   A(26,24,27)           108.9802         calculate D2E/DX2 analytically  !
 ! A57   A(15,28,29)           110.843          calculate D2E/DX2 analytically  !
 ! A58   A(15,28,30)           111.9684         calculate D2E/DX2 analytically  !
 ! A59   A(15,28,31)           107.5199         calculate D2E/DX2 analytically  !
 ! A60   A(29,28,30)           108.112          calculate D2E/DX2 analytically  !
 ! A61   A(29,28,31)           109.002          calculate D2E/DX2 analytically  !
 ! A62   A(30,28,31)           109.3542         calculate D2E/DX2 analytically  !
 ! A63   A(33,32,36)           107.3926         calculate D2E/DX2 analytically  !
 ! A64   A(33,32,39)           110.0925         calculate D2E/DX2 analytically  !
 ! A65   A(33,32,45)           108.4359         calculate D2E/DX2 analytically  !
 ! A66   A(36,32,39)           110.5463         calculate D2E/DX2 analytically  !
 ! A67   A(36,32,45)           109.1233         calculate D2E/DX2 analytically  !
 ! A68   A(39,32,45)           111.1484         calculate D2E/DX2 analytically  !
 ! A69   A(32,33,34)           111.6328         calculate D2E/DX2 analytically  !
 ! A70   A(32,33,38)           108.3593         calculate D2E/DX2 analytically  !
 ! A71   A(32,33,44)           116.8888         calculate D2E/DX2 analytically  !
 ! A72   A(34,33,38)           102.7201         calculate D2E/DX2 analytically  !
 ! A73   A(34,33,44)           107.2695         calculate D2E/DX2 analytically  !
 ! A74   A(38,33,44)           109.0209         calculate D2E/DX2 analytically  !
 ! A75   A(33,34,37)           121.4692         calculate D2E/DX2 analytically  !
 ! A76   A(33,34,42)           122.8275         calculate D2E/DX2 analytically  !
 ! A77   A(33,34,53)            94.5466         calculate D2E/DX2 analytically  !
 ! A78   A(37,34,42)           114.6666         calculate D2E/DX2 analytically  !
 ! A79   A(37,34,53)            87.0596         calculate D2E/DX2 analytically  !
 ! A80   A(42,34,53)            98.3134         calculate D2E/DX2 analytically  !
 ! A81   A(36,35,40)           109.27           calculate D2E/DX2 analytically  !
 ! A82   A(36,35,42)           111.0593         calculate D2E/DX2 analytically  !
 ! A83   A(36,35,47)           114.0272         calculate D2E/DX2 analytically  !
 ! A84   A(40,35,42)           105.8856         calculate D2E/DX2 analytically  !
 ! A85   A(40,35,47)           109.6857         calculate D2E/DX2 analytically  !
 ! A86   A(42,35,47)           106.5777         calculate D2E/DX2 analytically  !
 ! A87   A(32,36,35)           111.3716         calculate D2E/DX2 analytically  !
 ! A88   A(32,36,41)           107.9184         calculate D2E/DX2 analytically  !
 ! A89   A(32,36,46)           110.3071         calculate D2E/DX2 analytically  !
 ! A90   A(35,36,41)           108.9048         calculate D2E/DX2 analytically  !
 ! A91   A(35,36,46)           107.7274         calculate D2E/DX2 analytically  !
 ! A92   A(41,36,46)           110.6173         calculate D2E/DX2 analytically  !
 ! A93   A(34,37,52)           129.2485         calculate D2E/DX2 analytically  !
 ! A94   A(34,37,83)           121.4715         calculate D2E/DX2 analytically  !
 ! A95   A(52,37,83)            64.0755         calculate D2E/DX2 analytically  !
 ! A96   A(34,42,35)           120.8003         calculate D2E/DX2 analytically  !
 ! A97   A(34,42,60)            99.8912         calculate D2E/DX2 analytically  !
 ! A98   A(35,42,60)           106.6796         calculate D2E/DX2 analytically  !
 ! A99   A(33,44,63)           114.9547         calculate D2E/DX2 analytically  !
 ! A100  A(32,45,67)           114.1415         calculate D2E/DX2 analytically  !
 ! A101  A(36,46,71)           113.7352         calculate D2E/DX2 analytically  !
 ! A102  A(35,47,48)           108.449          calculate D2E/DX2 analytically  !
 ! A103  A(35,47,49)           109.1407         calculate D2E/DX2 analytically  !
 ! A104  A(35,47,50)           108.6754         calculate D2E/DX2 analytically  !
 ! A105  A(48,47,49)           107.9039         calculate D2E/DX2 analytically  !
 ! A106  A(48,47,50)           111.5404         calculate D2E/DX2 analytically  !
 ! A107  A(49,47,50)           111.0714         calculate D2E/DX2 analytically  !
 ! A108  A(47,50,75)           112.3439         calculate D2E/DX2 analytically  !
 ! A109  A(43,51,52)           114.7196         calculate D2E/DX2 analytically  !
 ! A110  A(43,51,53)           114.0552         calculate D2E/DX2 analytically  !
 ! A111  A(43,51,54)           107.1923         calculate D2E/DX2 analytically  !
 ! A112  A(52,51,53)           110.5101         calculate D2E/DX2 analytically  !
 ! A113  A(52,51,54)           105.5465         calculate D2E/DX2 analytically  !
 ! A114  A(53,51,54)           103.7798         calculate D2E/DX2 analytically  !
 ! A115  A(37,52,51)            92.2173         calculate D2E/DX2 analytically  !
 ! A116  A(34,53,51)           113.1295         calculate D2E/DX2 analytically  !
 ! A117  A(51,54,55)           120.3132         calculate D2E/DX2 analytically  !
 ! A118  A(51,54,56)           118.4937         calculate D2E/DX2 analytically  !
 ! A119  A(55,54,56)           121.1417         calculate D2E/DX2 analytically  !
 ! A120  A(54,55,57)           118.6446         calculate D2E/DX2 analytically  !
 ! A121  A(54,55,58)           120.3246         calculate D2E/DX2 analytically  !
 ! A122  A(57,55,58)           121.0301         calculate D2E/DX2 analytically  !
 ! A123  A(54,56,59)           119.231          calculate D2E/DX2 analytically  !
 ! A124  A(54,56,60)           120.5934         calculate D2E/DX2 analytically  !
 ! A125  A(59,56,60)           120.1756         calculate D2E/DX2 analytically  !
 ! A126  A(55,57,61)           121.1404         calculate D2E/DX2 analytically  !
 ! A127  A(55,57,93)           119.547          calculate D2E/DX2 analytically  !
 ! A128  A(61,57,93)           119.1894         calculate D2E/DX2 analytically  !
 ! A129  A(56,59,61)           120.7646         calculate D2E/DX2 analytically  !
 ! A130  A(56,59,97)           118.7505         calculate D2E/DX2 analytically  !
 ! A131  A(61,59,97)           120.4284         calculate D2E/DX2 analytically  !
 ! A132  A(42,60,56)           163.0074         calculate D2E/DX2 analytically  !
 ! A133  A(57,61,59)           119.0688         calculate D2E/DX2 analytically  !
 ! A134  A(57,61,62)           120.3657         calculate D2E/DX2 analytically  !
 ! A135  A(59,61,62)           120.5645         calculate D2E/DX2 analytically  !
 ! A136  A(44,63,64)           110.7344         calculate D2E/DX2 analytically  !
 ! A137  A(44,63,65)           111.291          calculate D2E/DX2 analytically  !
 ! A138  A(44,63,66)           106.7543         calculate D2E/DX2 analytically  !
 ! A139  A(64,63,65)           108.8226         calculate D2E/DX2 analytically  !
 ! A140  A(64,63,66)           109.2588         calculate D2E/DX2 analytically  !
 ! A141  A(65,63,66)           109.9495         calculate D2E/DX2 analytically  !
 ! A142  A(45,67,68)           111.2322         calculate D2E/DX2 analytically  !
 ! A143  A(45,67,69)           110.9393         calculate D2E/DX2 analytically  !
 ! A144  A(45,67,70)           107.2287         calculate D2E/DX2 analytically  !
 ! A145  A(68,67,69)           109.0689         calculate D2E/DX2 analytically  !
 ! A146  A(68,67,70)           109.5224         calculate D2E/DX2 analytically  !
 ! A147  A(69,67,70)           108.7979         calculate D2E/DX2 analytically  !
 ! A148  A(46,71,72)           110.8202         calculate D2E/DX2 analytically  !
 ! A149  A(46,71,73)           111.1706         calculate D2E/DX2 analytically  !
 ! A150  A(46,71,74)           107.3907         calculate D2E/DX2 analytically  !
 ! A151  A(72,71,73)           108.8114         calculate D2E/DX2 analytically  !
 ! A152  A(72,71,74)           109.2365         calculate D2E/DX2 analytically  !
 ! A153  A(73,71,74)           109.3779         calculate D2E/DX2 analytically  !
 ! A154  A(50,75,76)           107.7305         calculate D2E/DX2 analytically  !
 ! A155  A(50,75,77)           111.0107         calculate D2E/DX2 analytically  !
 ! A156  A(50,75,78)           111.2236         calculate D2E/DX2 analytically  !
 ! A157  A(76,75,77)           109.0675         calculate D2E/DX2 analytically  !
 ! A158  A(76,75,78)           109.175          calculate D2E/DX2 analytically  !
 ! A159  A(77,75,78)           108.5942         calculate D2E/DX2 analytically  !
 ! A160  A(12,79,80)           107.4847         calculate D2E/DX2 analytically  !
 ! A161  A(12,79,81)           111.4851         calculate D2E/DX2 analytically  !
 ! A162  A(12,79,82)           110.7751         calculate D2E/DX2 analytically  !
 ! A163  A(80,79,81)           109.3033         calculate D2E/DX2 analytically  !
 ! A164  A(80,79,82)           109.1197         calculate D2E/DX2 analytically  !
 ! A165  A(81,79,82)           108.6348         calculate D2E/DX2 analytically  !
 ! A166  A(11,83,19)            73.901          calculate D2E/DX2 analytically  !
 ! A167  A(11,83,37)            80.1352         calculate D2E/DX2 analytically  !
 ! A168  A(11,83,84)           113.3592         calculate D2E/DX2 analytically  !
 ! A169  A(19,83,37)            55.583          calculate D2E/DX2 analytically  !
 ! A170  A(19,83,84)            95.992          calculate D2E/DX2 analytically  !
 ! A171  A(37,83,84)           145.2855         calculate D2E/DX2 analytically  !
 ! A172  A(83,84,85)           135.4827         calculate D2E/DX2 analytically  !
 ! A173  A(83,84,89)           111.7594         calculate D2E/DX2 analytically  !
 ! A174  A(85,84,89)           112.6963         calculate D2E/DX2 analytically  !
 ! A175  A(84,85,86)           110.7337         calculate D2E/DX2 analytically  !
 ! A176  A(84,85,87)           108.1818         calculate D2E/DX2 analytically  !
 ! A177  A(84,85,88)           110.9779         calculate D2E/DX2 analytically  !
 ! A178  A(86,85,87)           109.1711         calculate D2E/DX2 analytically  !
 ! A179  A(86,85,88)           108.5397         calculate D2E/DX2 analytically  !
 ! A180  A(87,85,88)           109.2077         calculate D2E/DX2 analytically  !
 ! A181  A(84,89,90)           110.5304         calculate D2E/DX2 analytically  !
 ! A182  A(84,89,91)           106.7094         calculate D2E/DX2 analytically  !
 ! A183  A(84,89,92)           110.3537         calculate D2E/DX2 analytically  !
 ! A184  A(90,89,91)           110.7293         calculate D2E/DX2 analytically  !
 ! A185  A(90,89,92)           108.4925         calculate D2E/DX2 analytically  !
 ! A186  A(91,89,92)           110.0278         calculate D2E/DX2 analytically  !
 ! A187  A(57,93,94)           111.0134         calculate D2E/DX2 analytically  !
 ! A188  A(57,93,95)           111.7191         calculate D2E/DX2 analytically  !
 ! A189  A(57,93,96)           111.8176         calculate D2E/DX2 analytically  !
 ! A190  A(94,93,95)           106.8765         calculate D2E/DX2 analytically  !
 ! A191  A(94,93,96)           107.0327         calculate D2E/DX2 analytically  !
 ! A192  A(95,93,96)           108.1291         calculate D2E/DX2 analytically  !
 ! A193  A(59,97,98)           111.8067         calculate D2E/DX2 analytically  !
 ! A194  A(59,97,99)           111.4561         calculate D2E/DX2 analytically  !
 ! A195  A(59,97,100)          111.781          calculate D2E/DX2 analytically  !
 ! A196  A(98,97,99)           106.4897         calculate D2E/DX2 analytically  !
 ! A197  A(98,97,100)          108.0204         calculate D2E/DX2 analytically  !
 ! A198  A(99,97,100)          107.0019         calculate D2E/DX2 analytically  !
 ! D1    D(5,1,2,3)            -52.5611         calculate D2E/DX2 analytically  !
 ! D2    D(5,1,2,7)             64.1064         calculate D2E/DX2 analytically  !
 ! D3    D(5,1,2,13)          -173.3168         calculate D2E/DX2 analytically  !
 ! D4    D(8,1,2,3)             66.3571         calculate D2E/DX2 analytically  !
 ! D5    D(8,1,2,7)           -176.9755         calculate D2E/DX2 analytically  !
 ! D6    D(8,1,2,13)           -54.3986         calculate D2E/DX2 analytically  !
 ! D7    D(14,1,2,3)          -174.8708         calculate D2E/DX2 analytically  !
 ! D8    D(14,1,2,7)           -58.2033         calculate D2E/DX2 analytically  !
 ! D9    D(14,1,2,13)           64.3735         calculate D2E/DX2 analytically  !
 ! D10   D(2,1,5,4)             53.3242         calculate D2E/DX2 analytically  !
 ! D11   D(2,1,5,10)           -66.3062         calculate D2E/DX2 analytically  !
 ! D12   D(2,1,5,15)           174.4158         calculate D2E/DX2 analytically  !
 ! D13   D(8,1,5,4)            -64.9672         calculate D2E/DX2 analytically  !
 ! D14   D(8,1,5,10)           175.4024         calculate D2E/DX2 analytically  !
 ! D15   D(8,1,5,15)            56.1245         calculate D2E/DX2 analytically  !
 ! D16   D(14,1,5,4)           173.2663         calculate D2E/DX2 analytically  !
 ! D17   D(14,1,5,10)           53.636          calculate D2E/DX2 analytically  !
 ! D18   D(14,1,5,15)          -65.642          calculate D2E/DX2 analytically  !
 ! D19   D(2,1,14,24)         -148.6322         calculate D2E/DX2 analytically  !
 ! D20   D(5,1,14,24)           90.34           calculate D2E/DX2 analytically  !
 ! D21   D(8,1,14,24)          -30.9933         calculate D2E/DX2 analytically  !
 ! D22   D(1,2,3,6)            172.2107         calculate D2E/DX2 analytically  !
 ! D23   D(1,2,3,11)            55.7403         calculate D2E/DX2 analytically  !
 ! D24   D(1,2,3,12)           -66.6328         calculate D2E/DX2 analytically  !
 ! D25   D(7,2,3,6)             54.1384         calculate D2E/DX2 analytically  !
 ! D26   D(7,2,3,11)           -62.3321         calculate D2E/DX2 analytically  !
 ! D27   D(7,2,3,12)           175.2949         calculate D2E/DX2 analytically  !
 ! D28   D(13,2,3,6)           -65.284          calculate D2E/DX2 analytically  !
 ! D29   D(13,2,3,11)          178.2456         calculate D2E/DX2 analytically  !
 ! D30   D(13,2,3,12)           55.8725         calculate D2E/DX2 analytically  !
 ! D31   D(1,2,13,20)          -98.544          calculate D2E/DX2 analytically  !
 ! D32   D(3,2,13,20)          139.631          calculate D2E/DX2 analytically  !
 ! D33   D(7,2,13,20)           22.8996         calculate D2E/DX2 analytically  !
 ! D34   D(2,3,11,4)           -61.4808         calculate D2E/DX2 analytically  !
 ! D35   D(2,3,11,83)           94.1667         calculate D2E/DX2 analytically  !
 ! D36   D(6,3,11,4)           179.1798         calculate D2E/DX2 analytically  !
 ! D37   D(6,3,11,83)          -25.1727         calculate D2E/DX2 analytically  !
 ! D38   D(12,3,11,4)           59.0752         calculate D2E/DX2 analytically  !
 ! D39   D(12,3,11,83)        -145.2773         calculate D2E/DX2 analytically  !
 ! D40   D(2,3,12,79)         -176.2875         calculate D2E/DX2 analytically  !
 ! D41   D(6,3,12,79)          -55.2245         calculate D2E/DX2 analytically  !
 ! D42   D(11,3,12,79)          61.9975         calculate D2E/DX2 analytically  !
 ! D43   D(9,4,5,1)             62.158          calculate D2E/DX2 analytically  !
 ! D44   D(9,4,5,10)          -179.6606         calculate D2E/DX2 analytically  !
 ! D45   D(9,4,5,15)           -59.1234         calculate D2E/DX2 analytically  !
 ! D46   D(11,4,5,1)           -56.3269         calculate D2E/DX2 analytically  !
 ! D47   D(11,4,5,10)           61.8544         calculate D2E/DX2 analytically  !
 ! D48   D(11,4,5,15)         -177.6083         calculate D2E/DX2 analytically  !
 ! D49   D(16,4,5,1)          -176.4329         calculate D2E/DX2 analytically  !
 ! D50   D(16,4,5,10)          -58.2516         calculate D2E/DX2 analytically  !
 ! D51   D(16,4,5,15)           62.2856         calculate D2E/DX2 analytically  !
 ! D52   D(5,4,11,3)            61.5643         calculate D2E/DX2 analytically  !
 ! D53   D(5,4,11,83)          -97.8336         calculate D2E/DX2 analytically  !
 ! D54   D(9,4,11,3)           -56.0349         calculate D2E/DX2 analytically  !
 ! D55   D(9,4,11,83)          144.5671         calculate D2E/DX2 analytically  !
 ! D56   D(16,4,11,3)         -174.0721         calculate D2E/DX2 analytically  !
 ! D57   D(16,4,11,83)          26.53           calculate D2E/DX2 analytically  !
 ! D58   D(5,4,16,17)          -60.4182         calculate D2E/DX2 analytically  !
 ! D59   D(5,4,16,18)         -171.8203         calculate D2E/DX2 analytically  !
 ! D60   D(5,4,16,19)           65.5025         calculate D2E/DX2 analytically  !
 ! D61   D(9,4,16,17)           60.2576         calculate D2E/DX2 analytically  !
 ! D62   D(9,4,16,18)          -51.1445         calculate D2E/DX2 analytically  !
 ! D63   D(9,4,16,19)         -173.8217         calculate D2E/DX2 analytically  !
 ! D64   D(11,4,16,17)         178.3518         calculate D2E/DX2 analytically  !
 ! D65   D(11,4,16,18)          66.9498         calculate D2E/DX2 analytically  !
 ! D66   D(11,4,16,19)         -55.7275         calculate D2E/DX2 analytically  !
 ! D67   D(1,5,15,28)          134.399          calculate D2E/DX2 analytically  !
 ! D68   D(4,5,15,28)         -104.0177         calculate D2E/DX2 analytically  !
 ! D69   D(10,5,15,28)          16.5538         calculate D2E/DX2 analytically  !
 ! D70   D(3,11,83,19)        -157.0585         calculate D2E/DX2 analytically  !
 ! D71   D(3,11,83,37)        -100.2146         calculate D2E/DX2 analytically  !
 ! D72   D(3,11,83,84)         113.3025         calculate D2E/DX2 analytically  !
 ! D73   D(4,11,83,19)          -1.3743         calculate D2E/DX2 analytically  !
 ! D74   D(4,11,83,37)          55.4697         calculate D2E/DX2 analytically  !
 ! D75   D(4,11,83,84)         -91.0133         calculate D2E/DX2 analytically  !
 ! D76   D(3,12,79,80)         173.3476         calculate D2E/DX2 analytically  !
 ! D77   D(3,12,79,81)         -66.8868         calculate D2E/DX2 analytically  !
 ! D78   D(3,12,79,82)          54.2175         calculate D2E/DX2 analytically  !
 ! D79   D(2,13,20,21)         -63.2062         calculate D2E/DX2 analytically  !
 ! D80   D(2,13,20,22)          58.2659         calculate D2E/DX2 analytically  !
 ! D81   D(2,13,20,23)         178.1725         calculate D2E/DX2 analytically  !
 ! D82   D(1,14,24,25)         -63.5518         calculate D2E/DX2 analytically  !
 ! D83   D(1,14,24,26)          57.6535         calculate D2E/DX2 analytically  !
 ! D84   D(1,14,24,27)         176.4435         calculate D2E/DX2 analytically  !
 ! D85   D(5,15,28,29)         -68.0936         calculate D2E/DX2 analytically  !
 ! D86   D(5,15,28,30)          52.7212         calculate D2E/DX2 analytically  !
 ! D87   D(5,15,28,31)         172.8588         calculate D2E/DX2 analytically  !
 ! D88   D(4,16,19,83)          53.3795         calculate D2E/DX2 analytically  !
 ! D89   D(17,16,19,83)        175.0763         calculate D2E/DX2 analytically  !
 ! D90   D(18,16,19,83)        -65.9308         calculate D2E/DX2 analytically  !
 ! D91   D(16,19,83,11)        -26.823          calculate D2E/DX2 analytically  !
 ! D92   D(16,19,83,37)       -115.7681         calculate D2E/DX2 analytically  !
 ! D93   D(16,19,83,84)         85.7991         calculate D2E/DX2 analytically  !
 ! D94   D(36,32,33,34)        -47.6824         calculate D2E/DX2 analytically  !
 ! D95   D(36,32,33,38)         64.725          calculate D2E/DX2 analytically  !
 ! D96   D(36,32,33,44)       -171.6812         calculate D2E/DX2 analytically  !
 ! D97   D(39,32,33,34)         72.7285         calculate D2E/DX2 analytically  !
 ! D98   D(39,32,33,38)       -174.8641         calculate D2E/DX2 analytically  !
 ! D99   D(39,32,33,44)        -51.2704         calculate D2E/DX2 analytically  !
 ! D100  D(45,32,33,34)       -165.4761         calculate D2E/DX2 analytically  !
 ! D101  D(45,32,33,38)        -53.0687         calculate D2E/DX2 analytically  !
 ! D102  D(45,32,33,44)         70.5251         calculate D2E/DX2 analytically  !
 ! D103  D(33,32,36,35)         59.0958         calculate D2E/DX2 analytically  !
 ! D104  D(33,32,36,41)        -60.3889         calculate D2E/DX2 analytically  !
 ! D105  D(33,32,36,46)        178.6635         calculate D2E/DX2 analytically  !
 ! D106  D(39,32,36,35)        -61.0271         calculate D2E/DX2 analytically  !
 ! D107  D(39,32,36,41)        179.4883         calculate D2E/DX2 analytically  !
 ! D108  D(39,32,36,46)         58.5406         calculate D2E/DX2 analytically  !
 ! D109  D(45,32,36,35)        176.4418         calculate D2E/DX2 analytically  !
 ! D110  D(45,32,36,41)         56.9572         calculate D2E/DX2 analytically  !
 ! D111  D(45,32,36,46)        -63.9905         calculate D2E/DX2 analytically  !
 ! D112  D(33,32,45,67)       -144.6464         calculate D2E/DX2 analytically  !
 ! D113  D(36,32,45,67)         98.6691         calculate D2E/DX2 analytically  !
 ! D114  D(39,32,45,67)        -23.5001         calculate D2E/DX2 analytically  !
 ! D115  D(32,33,34,37)       -157.7555         calculate D2E/DX2 analytically  !
 ! D116  D(32,33,34,42)         34.5151         calculate D2E/DX2 analytically  !
 ! D117  D(32,33,34,53)        -68.4237         calculate D2E/DX2 analytically  !
 ! D118  D(38,33,34,37)         86.339          calculate D2E/DX2 analytically  !
 ! D119  D(38,33,34,42)        -81.3903         calculate D2E/DX2 analytically  !
 ! D120  D(38,33,34,53)        175.6709         calculate D2E/DX2 analytically  !
 ! D121  D(44,33,34,37)        -28.4993         calculate D2E/DX2 analytically  !
 ! D122  D(44,33,34,42)        163.7713         calculate D2E/DX2 analytically  !
 ! D123  D(44,33,34,53)         60.8325         calculate D2E/DX2 analytically  !
 ! D124  D(32,33,44,63)        -67.44           calculate D2E/DX2 analytically  !
 ! D125  D(34,33,44,63)        166.3675         calculate D2E/DX2 analytically  !
 ! D126  D(38,33,44,63)         55.8146         calculate D2E/DX2 analytically  !
 ! D127  D(33,34,37,52)         74.0379         calculate D2E/DX2 analytically  !
 ! D128  D(33,34,37,83)         -6.6498         calculate D2E/DX2 analytically  !
 ! D129  D(42,34,37,52)       -117.2957         calculate D2E/DX2 analytically  !
 ! D130  D(42,34,37,83)        162.0166         calculate D2E/DX2 analytically  !
 ! D131  D(53,34,37,52)        -19.4951         calculate D2E/DX2 analytically  !
 ! D132  D(53,34,37,83)       -100.1828         calculate D2E/DX2 analytically  !
 ! D133  D(33,34,42,35)        -28.5805         calculate D2E/DX2 analytically  !
 ! D134  D(33,34,42,60)       -144.8847         calculate D2E/DX2 analytically  !
 ! D135  D(37,34,42,35)        162.9256         calculate D2E/DX2 analytically  !
 ! D136  D(37,34,42,60)         46.6214         calculate D2E/DX2 analytically  !
 ! D137  D(53,34,42,35)         72.3493         calculate D2E/DX2 analytically  !
 ! D138  D(53,34,42,60)        -43.9549         calculate D2E/DX2 analytically  !
 ! D139  D(33,34,53,51)       -118.9585         calculate D2E/DX2 analytically  !
 ! D140  D(37,34,53,51)          2.3935         calculate D2E/DX2 analytically  !
 ! D141  D(42,34,53,51)        116.9014         calculate D2E/DX2 analytically  !
 ! D142  D(40,35,36,32)         64.0088         calculate D2E/DX2 analytically  !
 ! D143  D(40,35,36,41)       -177.0943         calculate D2E/DX2 analytically  !
 ! D144  D(40,35,36,46)        -57.0789         calculate D2E/DX2 analytically  !
 ! D145  D(42,35,36,32)        -52.4358         calculate D2E/DX2 analytically  !
 ! D146  D(42,35,36,41)         66.4611         calculate D2E/DX2 analytically  !
 ! D147  D(42,35,36,46)       -173.5236         calculate D2E/DX2 analytically  !
 ! D148  D(47,35,36,32)       -172.8598         calculate D2E/DX2 analytically  !
 ! D149  D(47,35,36,41)        -53.963          calculate D2E/DX2 analytically  !
 ! D150  D(47,35,36,46)         66.0524         calculate D2E/DX2 analytically  !
 ! D151  D(36,35,42,34)         36.3292         calculate D2E/DX2 analytically  !
 ! D152  D(36,35,42,60)        149.121          calculate D2E/DX2 analytically  !
 ! D153  D(40,35,42,34)        -82.1776         calculate D2E/DX2 analytically  !
 ! D154  D(40,35,42,60)         30.6142         calculate D2E/DX2 analytically  !
 ! D155  D(47,35,42,34)        161.0696         calculate D2E/DX2 analytically  !
 ! D156  D(47,35,42,60)        -86.1386         calculate D2E/DX2 analytically  !
 ! D157  D(36,35,47,48)        -66.7363         calculate D2E/DX2 analytically  !
 ! D158  D(36,35,47,49)        175.9522         calculate D2E/DX2 analytically  !
 ! D159  D(36,35,47,50)         54.6847         calculate D2E/DX2 analytically  !
 ! D160  D(40,35,47,48)         56.1689         calculate D2E/DX2 analytically  !
 ! D161  D(40,35,47,49)        -61.1426         calculate D2E/DX2 analytically  !
 ! D162  D(40,35,47,50)        177.5898         calculate D2E/DX2 analytically  !
 ! D163  D(42,35,47,48)        170.3624         calculate D2E/DX2 analytically  !
 ! D164  D(42,35,47,49)         53.0509         calculate D2E/DX2 analytically  !
 ! D165  D(42,35,47,50)        -68.2167         calculate D2E/DX2 analytically  !
 ! D166  D(32,36,46,71)        125.3137         calculate D2E/DX2 analytically  !
 ! D167  D(35,36,46,71)       -112.9352         calculate D2E/DX2 analytically  !
 ! D168  D(41,36,46,71)          5.9914         calculate D2E/DX2 analytically  !
 ! D169  D(34,37,52,51)         33.4681         calculate D2E/DX2 analytically  !
 ! D170  D(83,37,52,51)        144.1051         calculate D2E/DX2 analytically  !
 ! D171  D(34,37,83,11)       -146.4175         calculate D2E/DX2 analytically  !
 ! D172  D(34,37,83,19)        -69.2465         calculate D2E/DX2 analytically  !
 ! D173  D(34,37,83,84)        -29.3089         calculate D2E/DX2 analytically  !
 ! D174  D(52,37,83,11)         91.7625         calculate D2E/DX2 analytically  !
 ! D175  D(52,37,83,19)        168.9335         calculate D2E/DX2 analytically  !
 ! D176  D(52,37,83,84)       -151.1289         calculate D2E/DX2 analytically  !
 ! D177  D(34,42,60,56)          2.3408         calculate D2E/DX2 analytically  !
 ! D178  D(35,42,60,56)       -124.1611         calculate D2E/DX2 analytically  !
 ! D179  D(33,44,63,64)        -42.7468         calculate D2E/DX2 analytically  !
 ! D180  D(33,44,63,65)         78.4364         calculate D2E/DX2 analytically  !
 ! D181  D(33,44,63,66)       -161.581          calculate D2E/DX2 analytically  !
 ! D182  D(32,45,67,68)        -57.1558         calculate D2E/DX2 analytically  !
 ! D183  D(32,45,67,69)         64.4415         calculate D2E/DX2 analytically  !
 ! D184  D(32,45,67,70)       -176.8807         calculate D2E/DX2 analytically  !
 ! D185  D(36,46,71,72)        -65.2224         calculate D2E/DX2 analytically  !
 ! D186  D(36,46,71,73)         55.9236         calculate D2E/DX2 analytically  !
 ! D187  D(36,46,71,74)        175.5375         calculate D2E/DX2 analytically  !
 ! D188  D(35,47,50,75)        175.8541         calculate D2E/DX2 analytically  !
 ! D189  D(48,47,50,75)        -64.6376         calculate D2E/DX2 analytically  !
 ! D190  D(49,47,50,75)         55.7783         calculate D2E/DX2 analytically  !
 ! D191  D(47,50,75,76)       -179.7498         calculate D2E/DX2 analytically  !
 ! D192  D(47,50,75,77)        -60.396          calculate D2E/DX2 analytically  !
 ! D193  D(47,50,75,78)         60.6404         calculate D2E/DX2 analytically  !
 ! D194  D(43,51,52,37)       -152.4776         calculate D2E/DX2 analytically  !
 ! D195  D(53,51,52,37)        -21.8362         calculate D2E/DX2 analytically  !
 ! D196  D(54,51,52,37)         89.7585         calculate D2E/DX2 analytically  !
 ! D197  D(43,51,53,34)        150.0435         calculate D2E/DX2 analytically  !
 ! D198  D(52,51,53,34)         19.0533         calculate D2E/DX2 analytically  !
 ! D199  D(54,51,53,34)        -93.6765         calculate D2E/DX2 analytically  !
 ! D200  D(43,51,54,55)        -30.5671         calculate D2E/DX2 analytically  !
 ! D201  D(43,51,54,56)        152.0094         calculate D2E/DX2 analytically  !
 ! D202  D(52,51,54,55)         92.1463         calculate D2E/DX2 analytically  !
 ! D203  D(52,51,54,56)        -85.2772         calculate D2E/DX2 analytically  !
 ! D204  D(53,51,54,55)       -151.5784         calculate D2E/DX2 analytically  !
 ! D205  D(53,51,54,56)         30.9981         calculate D2E/DX2 analytically  !
 ! D206  D(51,54,55,57)       -176.8975         calculate D2E/DX2 analytically  !
 ! D207  D(51,54,55,58)          3.4003         calculate D2E/DX2 analytically  !
 ! D208  D(56,54,55,57)          0.4568         calculate D2E/DX2 analytically  !
 ! D209  D(56,54,55,58)       -179.2454         calculate D2E/DX2 analytically  !
 ! D210  D(51,54,56,59)        177.7726         calculate D2E/DX2 analytically  !
 ! D211  D(51,54,56,60)         -2.232          calculate D2E/DX2 analytically  !
 ! D212  D(55,54,56,59)          0.3714         calculate D2E/DX2 analytically  !
 ! D213  D(55,54,56,60)       -179.6332         calculate D2E/DX2 analytically  !
 ! D214  D(54,55,57,61)         -1.0226         calculate D2E/DX2 analytically  !
 ! D215  D(54,55,57,93)        174.9089         calculate D2E/DX2 analytically  !
 ! D216  D(58,55,57,61)        178.6774         calculate D2E/DX2 analytically  !
 ! D217  D(58,55,57,93)         -5.3911         calculate D2E/DX2 analytically  !
 ! D218  D(54,56,59,61)         -0.6581         calculate D2E/DX2 analytically  !
 ! D219  D(54,56,59,97)        176.6201         calculate D2E/DX2 analytically  !
 ! D220  D(60,56,59,61)        179.3465         calculate D2E/DX2 analytically  !
 ! D221  D(60,56,59,97)         -3.3753         calculate D2E/DX2 analytically  !
 ! D222  D(54,56,60,42)         18.0487         calculate D2E/DX2 analytically  !
 ! D223  D(59,56,60,42)       -161.9559         calculate D2E/DX2 analytically  !
 ! D224  D(55,57,61,59)          0.7467         calculate D2E/DX2 analytically  !
 ! D225  D(55,57,61,62)       -179.6247         calculate D2E/DX2 analytically  !
 ! D226  D(93,57,61,59)       -175.1991         calculate D2E/DX2 analytically  !
 ! D227  D(93,57,61,62)          4.4295         calculate D2E/DX2 analytically  !
 ! D228  D(55,57,93,94)        -89.9062         calculate D2E/DX2 analytically  !
 ! D229  D(55,57,93,95)        150.8997         calculate D2E/DX2 analytically  !
 ! D230  D(55,57,93,96)         29.5511         calculate D2E/DX2 analytically  !
 ! D231  D(61,57,93,94)         86.1051         calculate D2E/DX2 analytically  !
 ! D232  D(61,57,93,95)        -33.089          calculate D2E/DX2 analytically  !
 ! D233  D(61,57,93,96)       -154.4375         calculate D2E/DX2 analytically  !
 ! D234  D(56,59,61,57)          0.1082         calculate D2E/DX2 analytically  !
 ! D235  D(56,59,61,62)       -179.5196         calculate D2E/DX2 analytically  !
 ! D236  D(97,59,61,57)       -177.1243         calculate D2E/DX2 analytically  !
 ! D237  D(97,59,61,62)          3.2478         calculate D2E/DX2 analytically  !
 ! D238  D(56,59,97,98)         33.7276         calculate D2E/DX2 analytically  !
 ! D239  D(56,59,97,99)        -85.3331         calculate D2E/DX2 analytically  !
 ! D240  D(56,59,97,100)       154.9722         calculate D2E/DX2 analytically  !
 ! D241  D(61,59,97,98)       -148.9847         calculate D2E/DX2 analytically  !
 ! D242  D(61,59,97,99)         91.9546         calculate D2E/DX2 analytically  !
 ! D243  D(61,59,97,100)       -27.7401         calculate D2E/DX2 analytically  !
 ! D244  D(11,83,84,85)       -105.3403         calculate D2E/DX2 analytically  !
 ! D245  D(11,83,84,89)         77.8214         calculate D2E/DX2 analytically  !
 ! D246  D(19,83,84,85)        179.6338         calculate D2E/DX2 analytically  !
 ! D247  D(19,83,84,89)          2.7955         calculate D2E/DX2 analytically  !
 ! D248  D(37,83,84,85)        147.4603         calculate D2E/DX2 analytically  !
 ! D249  D(37,83,84,89)        -29.378          calculate D2E/DX2 analytically  !
 ! D250  D(83,84,85,86)       -115.5707         calculate D2E/DX2 analytically  !
 ! D251  D(83,84,85,87)          4.0271         calculate D2E/DX2 analytically  !
 ! D252  D(83,84,85,88)        123.8151         calculate D2E/DX2 analytically  !
 ! D253  D(89,84,85,86)         61.2464         calculate D2E/DX2 analytically  !
 ! D254  D(89,84,85,87)       -179.1558         calculate D2E/DX2 analytically  !
 ! D255  D(89,84,85,88)        -59.3678         calculate D2E/DX2 analytically  !
 ! D256  D(83,84,89,90)       -118.874          calculate D2E/DX2 analytically  !
 ! D257  D(83,84,89,91)          1.5929         calculate D2E/DX2 analytically  !
 ! D258  D(83,84,89,92)        121.1145         calculate D2E/DX2 analytically  !
 ! D259  D(85,84,89,90)         63.5283         calculate D2E/DX2 analytically  !
 ! D260  D(85,84,89,91)       -176.0048         calculate D2E/DX2 analytically  !
 ! D261  D(85,84,89,92)        -56.4832         calculate D2E/DX2 analytically  !
 --------------------------------------------------------------------------------
 Trust Radius=5.00D-02 FncErr=1.00D-07 GrdErr=1.00D-06 EigMax=2.50D+02 EigMin=1.00D-04
 Number of steps in this run=    574 maximum allowed number of steps=    600.
 Search for a saddle point of order  1.
 GradGradGradGradGradGradGradGradGradGradGradGradGradGradGradGradGradGrad

 Leave Link  103 at Sun Jun 16 13:28:32 2019, MaxMem=  6442450944 cpu:               4.1 elap:               0.2
 (Enter /home/ekwan/sw/g16/l202.exe)
 Stoichiometry    C30H47F6NaO15S
 Framework group  C1[X(C30H47F6NaO15S)]
 Deg. of freedom   294
 Full point group                 C1      NOp   1
 Largest Abelian subgroup         C1      NOp   1
 Largest concise Abelian subgroup C1      NOp   1
                         Standard orientation:                         
 ---------------------------------------------------------------------
 Center     Atomic      Atomic             Coordinates (Angstroms)
 Number     Number       Type             X           Y           Z
 ---------------------------------------------------------------------
      1          6           0       -1.806520    1.352013    2.228207
      2          6           0       -2.086554    2.157559    0.984343
      3          6           0       -1.183112    3.362692    0.924599
      4          6           0        0.481918    2.308791    2.205311
      5          6           0       -0.334235    1.040117    2.315379
      6          1           0       -1.288278    3.870635   -0.041084
      7          1           0       -1.850742    1.545352    0.104631
      8          1           0       -2.097756    1.955734    3.097718
      9          1           0        0.219144    2.950172    3.054900
     10          1           0       -0.091780    0.370215    1.482171
     11          8           0        0.150321    2.973399    1.001703
     12          8           0       -1.519315    4.206820    1.950141
     13          8           0       -3.402729    2.590612    0.944891
     14          8           0       -2.580338    0.196151    2.174977
     15          8           0       -0.053733    0.407148    3.523142
     16          6           0        1.972942    2.088275    2.197076
     17          1           0        2.213259    1.596926    3.156053
     18          1           0        2.423045    3.100712    2.265263
     19          8           0        2.423891    1.414653    1.108049
     20          6           0       -4.235326    1.803278    0.157644
     21          1           0       -3.925776    1.823413   -0.893395
     22          1           0       -4.243160    0.766340    0.500523
     23          1           0       -5.241309    2.214779    0.227010
     24          6           0       -2.980938   -0.281431    3.420654
     25          1           0       -2.125585   -0.582871    4.026781
     26          1           0       -3.546511    0.482855    3.964946
     27          1           0       -3.624831   -1.140046    3.245333
     28          6           0        0.773176   -0.707329    3.390890
     29          1           0        0.255915   -1.515935    2.863995
     30          1           0        1.688233   -0.474425    2.841058
     31          1           0        1.030932   -1.045544    4.394359
     32          6           0        3.665890   -1.441725   -1.366732
     33          6           0        3.086768   -0.143206   -0.869911
     34          6           0        1.747373   -0.337428   -0.268328
     35          6           0        2.044720   -2.639958    0.093562
     36          6           0        3.494724   -2.461507   -0.268068
     37          1           0        1.049541    0.469534   -0.186278
     38          1           0        3.688962    0.200386   -0.014943
     39          1           0        3.143872   -1.763710   -2.275234
     40          1           0        1.506155   -3.046992   -0.765794
     41          1           0        4.038519   -2.102730    0.612444
     42          8           0        1.428702   -1.382668    0.381655
     43          8           0       -0.442319    0.290788   -3.857904
     44          8           0        2.979272    0.885430   -1.787825
     45          8           0        5.019376   -1.255098   -1.606718
     46          8           0        3.982773   -3.692899   -0.674658
     47          6           0        1.818558   -3.507134    1.284508
     48          1           0        2.124542   -4.530251    1.032224
     49          1           0        0.745100   -3.523773    1.519523
     50          8           0        2.550831   -3.005152    2.342582
     51         16           0       -0.253734    0.135672   -2.433336
     52          8           0       -0.108642    1.394127   -1.692986
     53          8           0        0.826363   -0.809923   -2.066526
     54          6           0       -1.708589   -0.621831   -1.795438
     55          6           0       -2.928847   -0.396726   -2.393219
     56          6           0       -1.603287   -1.394591   -0.661161
     57          6           0       -4.054801   -0.954780   -1.827228
     58          1           0       -2.994863    0.203253   -3.292073
     59          6           0       -2.738192   -1.956094   -0.122983
     60          1           0       -0.640230   -1.560913   -0.195139
     61          6           0       -3.970052   -1.741728   -0.697597
     62          1           0       -4.861618   -2.178652   -0.267105
     63          6           0        4.199525    1.407228   -2.236380
     64          1           0        4.898017    1.527068   -1.404839
     65          1           0        4.654112    0.761169   -2.987103
     66          1           0        3.984032    2.382617   -2.667425
     67          6           0        5.508567   -1.969716   -2.699082
     68          1           0        5.325952   -3.039528   -2.585312
     69          1           0        5.046955   -1.624876   -3.631141
     70          1           0        6.580126   -1.787111   -2.749978
     71          6           0        4.934737   -4.233308    0.190685
     72          1           0        5.837579   -3.616466    0.209485
     73          1           0        4.541961   -4.315201    1.209063
     74          1           0        5.185656   -5.224657   -0.180183
     75          6           0        2.323756   -3.704679    3.520949
     76          1           0        2.929647   -3.247163    4.299757
     77          1           0        1.268568   -3.652800    3.811497
     78          1           0        2.606224   -4.758131    3.417518
     79          6           0       -0.797254    5.397326    1.939782
     80          1           0       -1.216039    6.040120    2.710301
     81          1           0        0.261706    5.225123    2.149085
     82          1           0       -0.885441    5.896826    0.968808
     83         11           0        1.621303    2.562055   -0.710169
     84          8           0        3.284540    4.027214   -0.812102
     85          6           0        3.610889    5.099104   -1.632224
     86          1           0        4.536658    4.898399   -2.182927
     87          1           0        2.797900    5.244323   -2.340827
     88          1           0        3.745737    6.013879   -1.046443
     89          6           0        4.261368    3.768927    0.150847
     90          1           0        4.359205    4.617526    0.835805
     91          1           0        3.943078    2.872351    0.688710
     92          1           0        5.231732    3.594844   -0.327714
     93          6           0       -5.390681   -0.633550   -2.386631
     94          9           0       -5.908404    0.434472   -1.797169
     95          9           0       -6.244851   -1.621265   -2.207493
     96          9           0       -5.331371   -0.371850   -3.675944
     97          6           0       -2.603411   -2.848347    1.054436
     98          9           0       -1.616031   -2.468700    1.848048
     99          9           0       -2.336306   -4.091090    0.691345
    100          9           0       -3.711185   -2.885169    1.770156
 ---------------------------------------------------------------------
 Rotational constants (GHZ):           0.0636399           0.0455440           0.0396282
 Leave Link  202 at Sun Jun 16 13:28:32 2019, MaxMem=  6442450944 cpu:               5.1 elap:               0.2
 (Enter /home/ekwan/sw/g16/l301.exe)
 Standard basis: 6-31G(d) (6D, 7F)
 Centers:      19     53     43     52
 SP 1 1.00
     Exponent=  8.4500000000D-02 Coefficients=  1.0000000000D+00  1.0000000000D+00
 ****
 Ernie: Thresh=  0.10000D-02 Tol=  0.10000D-05 Strict=F.
 There are   913 symmetry adapted cartesian basis functions of A   symmetry.
 There are   913 symmetry adapted basis functions of A   symmetry.
   913 basis functions,  1736 primitive gaussians,   913 cartesian basis functions
   214 alpha electrons      214 beta electrons
       nuclear repulsion energy     10034.8853313208 Hartrees.
 IExCor=  202 DFT=T Ex+Corr=BHandH ExCW=0 ScaHFX=  0.500000
 ScaDFX=  0.500000  0.500000  1.000000  1.000000 ScalE2=  1.000000  1.000000
 IRadAn=      5 IRanWt=     -1 IRanGd=            0 ICorTp=0 IEmpDi=  4
 NAtoms=  100 NActive=  100 NUniq=  100 SFac= 1.00D+00 NAtFMM=   60 NAOKFM=T Big=T
 Integral buffers will be    131072 words long.
 Raffenetti 2 integral format.
 Two-electron integral symmetry is turned on.
 Force inversion solution in PCM.
 ------------------------------------------------------------------------------
 Polarizable Continuum Model (PCM)
 =================================
 Model                : PCM.
 Atomic radii         : UFF (Universal Force Field).
 Polarization charges : Total charges.
 Charge compensation  : None.
 Solution method      : Matrix inversion.
 Cavity type          : Scaled VdW (van der Waals Surface) (Alpha=1.100).
 Cavity algorithm     : GePol (No added spheres)
                        Default sphere list used, NSphG=  100.
                        Lebedev-Laikov grids with approx.  5.0 points / Ang**2.
                        Smoothing algorithm: York/Karplus (Gamma=1.0000).
                        Polarization charges: spherical gaussians, with
                                              point-specific exponents (IZeta= 3).
                        Self-potential: point-specific (ISelfS= 7).
                        Self-field    : sphere-specific E.n sum rule (ISelfD= 2).
 1st derivatives      : Analytical E(r).r(x)/FMM algorithm (CHGder, D1EAlg=3).
                        Cavity 1st derivative terms included.
 2nd derivatives      : Analytical E(r).r(xy)/FMM algorithm (CHGder, D2EAlg=3).
                        Cavity 2nd derivative terms included.
 Solvent              : TetraHydroFuran, Eps=   7.425700 Eps(inf)=   1.974025
 ------------------------------------------------------------------------------
 GePol: Number of generator spheres                  =     100
 GePol: Total number of spheres                      =     100
 GePol: Number of exposed spheres                    =     100 (100.00%)
 GePol: Number of points                             =    5517
[...]
 02796,-0.00085199,-0.00044112,0.00135138,-0.00022795,-0.00005320,0.000
 07764,-0.00015503,0.00009095,0.00008869,-0.00012314,0.00020958,0.00001
 400,0.00006393,0.00001303,-0.00004936,-0.00018448,0.00006055,0.0000000
 8,-0.00008123,-0.00059625,-0.00021906,-0.00000732,0.00028179,-0.000032
 53,0.00351193,0.00118797,-0.00161453,-0.00093743,-0.00096779,0.0000538
 9,-0.00155072,0.00024996,0.00005169,-0.00014299,0.00110451,0.00188156,
 0.00048200,-0.00094150,0.00062925,0.00268020,0.00031281,0.00078890,-0.
 00003295,0.00078419,0.00268252,0.00006026,-0.00014867,-0.00023723,0.01
 314351,-0.04730185,-0.00328346,0.00039517,-0.00083995,-0.00092068,-0.0
 0360253,-0.00179123,0.00088865,0.00016511,-0.00094641,-0.00092273,0.00
 014272,0.00006352,-0.00007300,-0.00001993,-0.00000628,-0.00000555,-0.0
 0002456,0.00000395,0.00001883,-0.00000465,-0.00001378,0.00000592,0.000
 03278,-0.00006412,-0.00008097,-0.00000430,0.00001558,0.00000402,0.0000
 0092,-0.00000139,0.00000768,-0.00001015,0.00000504,0.00001071,0.000044
 38,-0.00004256,0.00005147,-0.00000077,0.00000946,-0.00000917,0.0000040
 6,-0.00001437,-0.00001367,-0.00002500,0.00001555,0.00000433,0.00004802
 ,-0.00010351,0.00009576,0.00001807,0.00001037,-0.00000390,-0.00000786,
 -0.00007650,0.00000180,-0.00005857,0.00004745,0.00000525,0.00009961,0.
 00019389,-0.00001747,-0.00000173,-0.00003401,-0.00001486,-0.00002330,-
 0.00000633,0.00000387,-0.00001159,-0.00002015,0.00002246,0.00021098,0.
 00017993,-0.00003343,-0.00006576,-0.00005859,0.00001007,0.00002422,0.0
 0004611,-0.00003333,-0.00001105,0.00000014,0.00000601,0.00000141,0.000
 00071,-0.00000171,-0.00000273,-0.00000907,-0.00000197,0.00002381,-0.00
 000474,0.00001461,-0.00000142,-0.00000964,-0.00000060,0.00004807,0.000
 02784,-0.00000508,-0.00001193,-0.00000472,0.00001396,-0.00290343,0.000
 31036,-0.00089699,0.00077292,-0.00046869,0.00003179,0.00090822,0.00030
 697,0.00023024,0.00077787,-0.00028529,0.00093525,0.04914923,-0.3151777
 3,-0.04083947,-0.02504362,-0.04581786,-0.04226940,-0.07192126,0.425363
 59,0.00030592,0.00051244,-0.00007576,-0.00010565,-0.00000037,-0.000229
 73,-0.00002858,0.00000830,0.00000775,-0.00002520,0.00013202,-0.0001171
 5,-0.00003330,0.00016508,-0.00015844,-0.00000833,-0.00003863,0.0000122
 3,-0.00000390,-0.00003988,0.00000493,-0.00003946,-0.00007723,-0.000005
 86,-0.00001004,-0.00001356,0.00001081,0.00002342,0.00003213,-0.0000555
 8,0.00003910,-0.00007312,0.00013185,0.00001050,-0.00002256,0.00004097,
 0.00019998,0.00011003,0.00023855,0.00004646,-0.00090734,0.00009675,-0.
 00000665,-0.00038662,0.00011885,0.00007057,-0.00003098,-0.00009018,0.0
 0002156,0.00000573,0.00003805,-0.00002765,-0.00000711,0.00002698,-0.00
 005773,0.00004786,0.00018481,-0.00011389,-0.00013951,-0.00018746,-0.00
 001040,-0.00007164,0.00009257,0.00001146,0.00001395,-0.00012623,-0.000
 00598,0.00003090,0.00002243,0.00014051,0.00044088,0.00000485,0.0000289
 9,0.00002116,0.00014468,-0.00003474,-0.00023859,0.00000342,-0.00032930
 ,0.00016095,0.00036702,0.00004981,0.00057488,0.00027253,0.00024137,-0.
 00019061,-0.00001301,-0.00008321,-0.00010867,-0.00008886,-0.00005751,-
 0.00007359,-0.00006827,-0.00004322,0.00000815,-0.00003022,0.00001120,0
 .00001291,0.00000651,-0.00025149,-0.00004181,-0.00050273,-0.00009159,0
 .00002019,-0.00017194,0.00001807,-0.00001632,0.00002224,-0.00001612,-0
 .00000371,-0.00002733,0.00001766,-0.00000551,-0.00002111,-0.00000892,0
 .00000702,0.00001606,-0.00003388,-0.00000078,0.00003300,0.00002143,0.0
 0000498,-0.00000306,0.00012072,-0.00011888,0.00025155,0.00034932,0.000
 21883,-0.00031784,0.00004450,0.00000756,0.00003203,0.00001679,-0.00000
 285,0.00003167,0.00001827,-0.00001436,0.00003739,0.00031058,0.00004954
 ,-0.00010210,-0.00008322,0.00001603,0.00002478,0.00010623,-0.00013249,
 -0.00006589,-0.00014451,0.00002353,0.00007722,-0.00130852,-0.00066102,
 0.00028400,0.00033235,0.00043856,0.00012564,0.00065622,0.00002381,0.00
 018669,-0.00023713,-0.00091077,-0.00057245,-0.00023401,0.00052797,-0.0
 0051301,-0.00129367,-0.00016814,0.00012565,0.00060481,-0.00070404,-0.0
 0099135,-0.00002009,0.00002889,0.00012565,-0.00521088,0.02506430,0.009
 54229,0.00000648,0.00039450,-0.00002253,0.00160472,0.00040287,0.000468
 96,-0.00027110,0.00037730,0.00012607,-0.00002198,-0.00001768,0.0000077
 6,0.00000800,0.00000145,0.00000305,0.00000075,0.00000136,-0.00000119,-
 0.00000172,-0.00000055,-0.00000223,-0.00000395,-0.00000366,-0.00001257
 ,-0.00000230,0.00000182,-0.00000301,-0.00000008,-0.00000466,0.00000536
 ,0.00000350,0.00000149,0.00000086,-0.00001108,0.00001017,-0.00003317,0
 .00000168,0.00000110,0.00000375,0.00000856,-0.00000727,0.00000869,-0.0
 0000275,0.00000144,0.00000217,0.00012091,-0.00002027,-0.00003652,-0.00
 001224,-0.00000444,0.00000368,-0.00004021,-0.00001986,0.00002922,-0.00
 002197,0.00001489,0.00000849,0.00000347,0.00002424,-0.00000308,-0.0000
 0007,0.00000115,-0.00000072,0.00000139,0.00000155,-0.00000144,0.000000
 19,-0.00000596,0.00000633,-0.00004200,-0.00004879,-0.00008032,0.000012
 05,0.00000115,0.00002446,-0.00000251,0.00000020,-0.00000712,-0.0000013
 4,-0.00000085,0.00000019,0.00000229,-0.00000294,0.00000160,0.00000040,
 0.00000158,0.00000230,-0.00001151,0.00000355,-0.00001580,0.00000194,0.
 00000394,0.00000228,0.00000372,-0.00000123,-0.00000394,-0.00000029,-0.
 00000178,0.00000290,0.00105083,-0.00031064,0.00020417,-0.00028785,0.00
 022225,0.00003238,-0.00031716,-0.00004656,-0.00005055,-0.00027980,0.00
 012474,-0.00022689,0.00880088,-0.04058791,-0.08966101,-0.01503720,-0.0
 5347234,-0.01733331,-0.02225169,0.10925308,0.11136102,-0.00023049,0.00
 000109,0.00003579,-0.00009823,0.00012961,0.00008082,-0.00014626,0.0001
 8512,0.00000460,0.00011126,0.00009258,-0.00012428,-0.00017181,0.000465
 18,0.00013472,0.00001396,-0.00000551,0.00000495,-0.00001038,0.00004028
 ,-0.00005402,0.00003029,-0.00004934,-0.00004304,-0.00002414,-0.0000675
 1,-0.00001215,0.00011037,0.00000205,-0.00012593,0.00008865,-0.00018626
 ,0.00005093,0.00003633,-0.00014722,-0.00006326,0.00021441,-0.00007832,
 -0.00005810,0.00105374,0.00011823,-0.00065758,0.00036775,-0.00071095,-
 0.00013777,-0.00003537,0.00009238,0.00012182,0.00003526,0.00001279,-0.
 00000726,-0.00001717,-0.00008027,-0.00001460,-0.00010691,-0.00028298,-
 0.00016848,-0.00005312,-0.00008444,0.00005869,0.00002528,0.00009336,-0
 .00007715,-0.00006140,-0.00001925,0.00012289,0.00003295,-0.00004313,-0
 .00000064,-0.00121787,-0.00091830,0.00088000,0.00021808,0.00036559,0.0
 0024382,0.00022027,0.00016733,0.00005696,0.00017784,-0.00111913,-0.001
 60830,-0.00000147,0.00121900,0.00049614,0.00029721,-0.00030513,0.00012
 212,-0.00007755,-0.00015415,-0.00013086,-0.00013462,-0.00016553,-0.000
 16317,0.00009313,0.00001746,-0.00008593,-0.00000127,0.00007994,-0.0000
 6259,0.00038051,0.00078418,-0.00018229,0.00015885,-0.00011437,-0.00015
 277,0.00019779,-0.00012714,-0.00000155,0.00002336,0.00004058,-0.000016
 96,-0.00000103,0.00000789,0.00004691,-0.00000010,-0.00000317,-0.000007
 42,0.00003735,0.00000149,-0.00005843,-0.00001249,0.00000742,-0.0000007
 6,-0.00045133,-0.00048889,0.00034001,-0.00026945,-0.00025248,0.0006940
 4,-0.00016419,-0.00014430,0.00010711,-0.00020904,-0.00000070,0.0001331
 0,-0.00021025,0.00012489,0.00000921,0.00094006,0.00024322,0.00008729,-
 0.00021869,0.00001945,0.00004195,0.00010047,-0.00035424,0.00015670,-0.
 00051844,0.00004153,-0.00045090,0.00110070,0.00083141,-0.00069173,-0.0
 0027937,-0.00056647,-0.00004282,-0.00039703,-0.00016887,0.00023804,-0.
 00062140,-0.00041607,-0.00036895,0.00049814,0.00004504,0.00013792,0.00
 147858,-0.00166008,0.00305877,0.00110405,-0.00083354,0.00063663,0.0001
 6556,0.00010804,-0.00001608,-0.01227589,-0.00084123,0.01463977,0.00066
 563,0.00062320,-0.00049563,-0.00354123,0.00013515,-0.00331594,0.002147
 79,0.00061108,0.00063446,0.00012648,0.00006370,-0.00004581,-0.00001433
 ,0.00000041,-0.00000597,-0.00001857,0.00000551,0.00000820,-0.00000716,
 -0.00001710,0.00000912,0.00004075,-0.00005001,-0.00009017,0.00000950,0
 .00000578,-0.00000095,0.00000426,0.00000368,0.00001327,-0.00001797,0.0
 0000157,0.00001011,0.00012317,-0.00005565,0.00006394,-0.00002557,-0.00
 000819,-0.00000430,0.00002401,-0.00001393,0.00000196,-0.00001042,0.000
 01721,0.00000238,0.00010444,-0.00020571,0.00024392,-0.00003132,-0.0000
 0496,-0.00003551,-0.00002227,-0.00001724,0.00004740,-0.00002093,0.0000
 5508,0.00000198,0.00001137,0.00005604,-0.00000656,0.00000131,-0.000012
 88,-0.00000615,0.00000075,0.00000228,0.00000412,-0.00000309,-0.0000044
 9,0.00000664,0.00006150,0.00016744,-0.00001854,-0.00002313,-0.00005690
 ,0.00000996,0.00000994,0.00003922,-0.00002360,-0.00000343,-0.00000111,
 0.00000339,0.00000067,0.00000057,0.00000301,-0.00000340,-0.00000878,-0
 .00000269,0.00000288,0.00000499,0.00000397,-0.00000081,-0.00001145,0.0
 0000014,0.00003416,0.00002737,-0.00000144,-0.00000218,-0.00000215,0.00
 000691,-0.00117223,-0.00008193,0.00015201,0.00035303,-0.00018321,-0.00
 008653,0.00038391,0.00018449,-0.00006153,0.00026528,-0.00005375,0.0001
 1731,-0.23958905,-0.01922664,0.12666511,-0.08482501,-0.01774901,0.0044
 5023,-0.02971473,0.03466560,0.03313003,0.36338057,0.00030059,0.0004624
 3,0.00002533,-0.00013992,0.00007486,0.00004747,0.00009927,0.00019682,0
 .00005756,-0.00000152,0.00010534,-0.00002029,0.00004268,0.00001704,0.0
 0012928,-0.00001686,-0.00003614,0.00000476,0.00001696,0.00004487,-0.00
 002881,-0.00004098,-0.00004577,-0.00000537,-0.00000298,-0.00002658,-0.
 00000862,0.00004957,-0.00001126,-0.00001761,-0.00006010,-0.00010091,-0
 .00002788,-0.00005388,-0.00021081,-0.00005396,0.00002164,-0.00019472,-
 0.00005893,0.00017021,0.00025075,-0.00013548,-0.00023516,-0.00002288,-
 0.00010032,0.00003716,-0.00001418,0.00005368,0.00000720,0.00001019,-0.
 00001486,-0.00003223,-0.00003687,-0.00000477,-0.00011827,-0.00007651,-
 0.00006805,0.00002406,0.00016126,0.00002326,0.00000044,0.00005746,-0.0
 0002326,-0.00006818,0.00001351,0.00004280,0.00003498,-0.00005718,-0.00
 000556,0.00157351,0.00029108,-0.00106312,-0.00020567,-0.00020605,-0.00
 008166,-0.00047306,-0.00061801,-0.00015231,-0.00164801,-0.00321314,-0.
 00149144,0.00014610,0.00000262,0.00007482,0.00005436,-0.00002997,0.000
 04337,-0.00002059,-0.00000809,-0.00000502,-0.00003551,-0.00001329,-0.0
 0005255,0.00006076,-0.00003405,-0.00001749,0.00000852,0.00001394,-0.00
 003556,0.00028066,0.00016441,0.00023795,0.00012065,-0.00027126,-0.0000
 2689,0.00005070,-0.00002903,0.00000269,0.00005385,0.00001232,-0.000007
 88,-0.00000868,-0.00000252,0.00002271,0.00000370,-0.00000841,-0.000008
 52,0.00000123,-0.00001954,0.00000684,-0.00000060,0.00000181,0.00000239
 ,-0.00027596,0.00011108,-0.00004093,-0.00040108,-0.00017689,0.00068074
 ,-0.00011020,-0.00003282,0.00003339,-0.00008155,0.00003375,0.00003996,
 -0.00006870,0.00008994,-0.00000270,0.00006488,0.00002521,0.00001373,-0
 .00006439,0.00001832,-0.00000187,-0.00003583,-0.00017806,-0.00002243,-
 0.00002756,0.00009340,-0.00008378,0.00190756,0.00042849,-0.00074410,-0
 .00055550,-0.00053582,-0.00004319,-0.00073245,0.00010060,-0.00001403,-
 0.00034570,-0.00170361,0.00047217,-0.00066225,-0.00036120,0.00044671,0
 .00209495,-0.00010272,0.00291498,-0.00020185,0.00007468,-0.00032806,0.
 00000043,0.00003706,-0.00001927,-0.02181625,0.00564002,0.01886227,0.00
 018418,0.00050495,-0.00004478,-0.00011938,-0.00065874,0.00042534,-0.00
 014860,-0.00051824,0.00069498,0.00007013,0.00003405,-0.00003405,-0.000
 01030,-0.00000276,-0.00000318,-0.00001127,0.00000196,0.00000819,-0.000
 00182,-0.00000690,0.00000318,0.00001717,-0.00002769,-0.00003672,0.,0.0
 0000588,0.00000198,0.00000083,0.00000078,0.00000316,-0.00000634,0.0000
 0161,0.00000476,0.00003139,-0.00002308,0.00003201,-0.00000334,0.000002
 00,-0.00000450,0.00000185,-0.00000475,-0.00000633,-0.00000899,0.000007
 05,0.00000122,-0.00000579,-0.00005511,0.00007206,0.00000632,0.00000332
 ,-0.00000607,0.00000532,-0.00002119,-0.00000082,-0.00001508,0.00001856
 ,0.00000007,0.00004914,0.00009384,-0.00000624,-0.00000101,-0.00001645,
 -0.00000752,-0.00001171,-0.00000370,0.00000210,-0.00000650,-0.00001015
 ,0.00001070,0.00010404,0.00009193,-0.00000942,-0.00003141,-0.00002920,
 0.00000192,0.00001111,0.00002255,-0.00001515,-0.00000471,0.00000008,0.
 00000287,0.00000036,0.00000072,-0.00000065,-0.00000138,-0.00000469,-0.
 00000136,0.00001204,-0.00000206,0.00000890,-0.00000079,-0.00000523,-0.
 00000065,0.00002172,0.00001323,-0.00000161,-0.00000516,-0.00000182,0.0
 0000600,-0.00118335,0.00017745,-0.00050118,0.00033524,-0.00018327,0.00
 003299,0.00040763,0.00012069,0.00009669,0.00026211,-0.00008528,0.00031
 339,-0.01577165,-0.08253326,0.01853907,-0.01992694,0.00845455,0.002121
 77,0.05092327,-0.01383816,-0.03979633,0.00614653,0.08832156,0.00045014
 ,0.00059064,0.00003158,-0.00012473,-0.00009013,-0.00033640,0.00006891,
 -0.00011697,0.00001249,-0.00011713,0.00010611,-0.00006086,0.00008802,-
 0.00014432,-0.00030718,-0.00002119,-0.00004911,0.00001189,0.00001121,-
 0.00007462,0.00004385,-0.00004748,0.00000623,0.00005026,0.00000577,0.0
 0003044,0.00002281,-0.00005654,0.00003961,0.00003033,-0.00000413,0.000
 03434,0.00013760,-0.00000839,0.00006919,0.00009290,0.00013505,0.000196
 45,0.00032829,-0.00074213,-0.00077093,0.00084795,-0.00030064,-0.000029
 16,0.00024698,0.00010630,-0.00009835,-0.00018433,0.00000341,-0.0000014
 0,0.00005019,-0.00002290,0.00004330,0.00004087,0.00001133,0.00023251,0
 .00033649,-0.00011026,-0.00013915,-0.00023399,-0.00002118,-0.00014594,
 0.00013552,0.00003353,0.00000270,-0.00021534,-0.00002291,0.00005907,0.
 00002653,0.00285793,0.00115192,-0.00179335,-0.00021442,-0.00025851,-0.
 00001337,-0.00065058,-0.00090413,-0.00007997,-0.00205467,-0.00174763,-
 0.00007742,0.00009524,-0.00016290,-0.00005089,0.00001843,0.00001557,-0
 .00003026,-0.00004170,-0.00000537,-0.00000222,0.00002217,0.00002456,0.
 00002949,-0.00011130,0.00001664,0.00001857,0.00001275,-0.00002010,0.00
 005309,-0.00058455,-0.00049015,-0.00062679,-0.00020734,0.00021518,-0.0
 0007869,-0.00009253,0.00005104,0.00001560,-0.00004625,-0.00002767,-0.0
 0003122,0.00002696,-0.00001060,-0.00005697,-0.00001019,0.00001478,0.00
 002484,-0.00003704,0.00001496,0.00004825,0.00002490,-0.00000009,-0.000
 00326,0.00047104,0.00002450,0.00015923,0.00079949,0.00048751,-0.001257
 20,0.00017554,0.00008677,-0.00002432,0.00014561,-0.00001901,-0.0000453
 3,0.00013711,-0.00010746,0.00003115,-0.00011523,-0.00002086,-0.0001467
 8,0.00002219,-0.00000176,0.00001420,0.00000938,-0.00001475,-0.00004800
 ,0.00008747,-0.00001891,0.00028147,-0.00336368,-0.00134736,0.00092300,
 0.00089088,0.00117907,0.00027982,0.00138071,-0.00000649,0.00013852,0.0
 0219444,0.00174769,-0.00050217,0.00010195,0.00041600,-0.00061455,-0.00
 430559,0.00333484,-0.00662609,0.00045491,0.00047256,-0.00008460,-0.000
 02525,-0.00006117,0.00001932,0.04280951,0.00703703,-0.02248272,-0.0003
 3603,-0.00048373,0.00001222,0.00151063,-0.00031716,0.00037937,0.000142
 13,0.00034383,-0.00168198,-0.00011171,-0.00006359,0.00004630,0.0000207
 6,0.00000277,0.00000670,0.00001492,-0.00000159,-0.00000875,0.00000213,
 0.00001009,-0.00000827,-0.00002952,0.00003150,0.00004486,-0.00000573,-
 0.00000376,-0.00000317,-0.00000228,-0.00000592,-0.00000228,0.00001392,
 -0.00000036,-0.00000597,-0.00007569,0.00004157,-0.00007113,0.00001398,
 0.00000404,0.00000669,-0.00000279,0.00000027,0.00000953,0.00000565,-0.
 00000907,0.00000140,0.00006419,0.00008228,-0.00014919,0.00000553,-0.00
 000167,0.00001950,-0.00002877,-0.00000996,-0.00000053,-0.00001094,-0.0
 0001326,0.00000786,-0.00000484,-0.00000845,0.00000088,-0.00000136,0.00
 000967,0.00000271,0.00000193,0.00000016,-0.00000445,0.00000206,-0.0000
 0435,0.00000344,-0.00011752,-0.00017428,-0.00009945,0.00003380,0.00003
 829,0.00002320,-0.00001075,-0.00002555,0.00000802,0.00000142,-0.000000
 42,-0.00000214,0.00000227,-0.00000395,0.00000043,0.00000281,0.00000750
 ,0.00000422,-0.00001830,0.00000260,-0.00002283,0.00000316,0.00001187,0
 .00000270,-0.00001797,-0.00001898,-0.00000350,0.00000207,-0.00000060,-
 0.00000138,0.00217691,-0.00055664,0.00064841,-0.00068652,0.00049381,0.
 00006096,-0.00071308,-0.00012725,-0.00013630,-0.00048365,0.00019938,-0
 .00051930,0.11580503,0.02046106,-0.18004925,-0.01296154,-0.00133783,0.
 02380014,0.03414554,-0.02805944,-0.01301717,-0.17854419,-0.00132905,0.
 20222873\\0.00000041,0.,-0.00000007,0.,-0.00000072,-0.00000009,-0.0000
 0051,0.00000059,0.00000068,-0.00000009,-0.00000039,-0.00000036,-0.0000
 0071,0.00000012,0.00000049,-0.00000046,-0.00000023,-0.00000001,-0.0000
 0036,-0.00000025,0.00000021,-0.00000012,-0.00000067,0.00000004,-0.0000
 0048,-0.00000005,0.00000014,0.00000016,-0.00000013,-0.00000002,-0.0000
 0049,-0.00000008,0.00000037,-0.00000066,-0.00000075,-0.00000013,-0.000
 00055,-0.00000069,0.00000004,-0.00000037,-0.00000096,0.00000040,-0.000
 00002,0.00000059,-0.00000029,-0.00000028,-0.00000027,0.00000035,-0.000
 00016,0.00000011,0.00000004,-0.00000027,0.00000052,0.00000004,0.000000
 29,0.00000179,-0.00000103,-0.00000010,-0.00000014,-0.00000035,-0.00000
 039,-0.00000066,0.00000021,-0.00000012,-0.00000113,0.00000006,-0.00000
 014,-0.00000084,0.00000014,0.00000010,-0.00000039,-0.00000052,0.000000
 31,-0.00000064,0.00000018,-0.00000017,-0.00000041,0.00000016,0.0000002
 4,-0.00000077,0.,-0.00000024,-0.00000047,-0.00000068,0.00000045,-0.000
 00002,-0.00000015,0.00000036,-0.00000007,0.,0.00000039,-0.00000031,0.0
 0000046,0.00000015,0.00000027,0.00000037,-0.00000021,0.00000085,-0.000
 00043,0.00000054,0.00000116,-0.00000061,0.00000047,0.00000002,0.000000
 05,0.00000093,0.00000092,-0.00000014,0.00000052,-0.00000053,0.00000195
 ,0.,0.00000187,0.00000041,0.00000019,0.00000036,-0.00000026,0.00000037
 ,0.00000017,0.00000028,0.00000015,0.00000033,-0.00000017,-0.00000099,-
 0.00000046,0.00000003,-0.00000026,0.00000005,0.00000092,-0.00000015,-0
 .00000066,0.00000061,0.00000023,0.00000031,0.00000002,0.00000023,0.000
 00026,0.00000011,0.00000066,0.00000066,-0.00000036,0.00000073,-0.00000
 002,-0.00000011,0.00000036,0.00000011,-0.00000009,0.00000056,0.0000000
 2,-0.00000004,0.00000017,-0.00000057,-0.00000105,-0.00000041,0.0000003
 8,-0.00000032,-0.00000006,0.00000018,-0.00000050,-0.00000041,0.0000004
 3,-0.00000061,0.00000049,-0.00000028,-0.00000030,0.00000003,-0.0000000
 3,0.00000173,-0.00000037,-0.00000098,0.00000074,-0.00000003,-0.0000004
 1,0.00000035,-0.00000047,-0.00000035,-0.00000044,0.00000114,-0.0000011
 3,-0.00000163,0.00000022,-0.00000018,-0.00000031,0.00000058,-0.0000006
 5,0.00000002,0.00000022,0.00000038,-0.00000060,-0.00000016,0.00000078,
 0.00000008,-0.00000021,0.00000090,0.00000012,-0.00000002,0.00000004,-0
 .00000010,0.00000069,0.00000139,-0.00000034,0.00000024,0.00000027,-0.0
 0000004,0.00000015,0.00000069,-0.00000016,-0.00000010,0.00000082,-0.00
 000007,0.00000101,0.00000033,-0.00000111,0.00000035,0.00000076,-0.0000
 0014,0.00000029,0.00000052,0.00000033,0.00000062,0.00000102,0.00000003
 ,0.00000064,0.00000042,-0.00000018,0.00000056,0.00000030,0.00000006,0.
 00000059,-0.00000010,-0.00000011,0.00000070,0.,-0.00000018,-0.00000033
 ,-0.00000052,-0.00000032,-0.00000089,0.,0.00000054,-0.00000068,0.,0.00
 000024,-0.00000076,-0.00000012,0.00000011,0.00000037,0.00000036,-0.000
 00115,-0.00000294,0.00000170,0.00000160,0.00000034,-0.00000080,-0.0000
 0058,-0.00000093,0.00000052,-0.00000004,-0.00000093,0.00000059,0.00000
 037,-0.00000065,0.00000041,0.00000012,-0.00000065,0.00000092,0.0000004
 7,-0.00000046,0.00000062,-0.00000015,-0.00000025,-0.00000239,-0.000000
 65,-0.00000081,0.00000034,0.00000036,0.00000038,-0.00000074,0.00000024
 ,0.00000014,-0.00000071,0.00000017,0.00000022,-0.00000078,-0.00000003,
 -0.00000016,-0.00000079,0.00000033,0.00000119,-0.00000049,0.00000007,0
 .00000036,-0.00000034,-0.00000003,0.00000062,-0.00000019,-0.00000011,-
 0.00000011,-0.00000086,0.00000034\\\@


 Other things may change us, but we start and end with family.
 -- Anthony Brandt
 Job cpu time:       6 days  1 hours 15 minutes 21.1 seconds.
 Elapsed time:       0 days  5 hours  1 minutes 23.0 seconds.
 File lengths (MBytes):  RWF=   9875 Int=      0 D2E=      0 Chk=     86 Scr=      1
 Normal termination of Gaussian 16 at Sun Jun 16 23:32:27 2019.
