 Entering Gaussian System, Link 0=g16
 Input=clay_new-glu_gluC6-bisCF3-sm-b972-custom-pcm_thf.gjf
 Output=clay_new-glu_gluC6-bisCF3-sm-b972-custom-pcm_thf.out
 Initial command:
 /home/ekwan/sw/g16/l1.exe "/scratch/users/ekwan/clay_new-glu_gluC6-bisCF3-sm-b972-custom-pcm_thf/Gau-10843.inp" -scrdir="/scratch/users/ekwan/clay_new-glu_gluC6-bisCF3-sm-b972-custom-pcm_thf/"
 Entering Link 1 = /home/ekwan/sw/g16/l1.exe PID=     10844.
  
 Copyright (c) 1988,1990,1992,1993,1995,1998,2003,2009,2016,
            Gaussian, Inc.  All Rights Reserved.
  
 This is part of the Gaussian(R) 16 program.  It is based on
 the Gaussian(R) 09 system (copyright 2009, Gaussian, Inc.),
 the Gaussian(R) 03 system (copyright 2003, Gaussian, Inc.),
 the Gaussian(R) 98 system (copyright 1998, Gaussian, Inc.),
 the Gaussian(R) 94 system (copyright 1995, Gaussian, Inc.),
 the Gaussian 92(TM) system (copyright 1992, Gaussian, Inc.),
 the Gaussian 90(TM) system (copyright 1990, Gaussian, Inc.),
 the Gaussian 88(TM) system (copyright 1988, Gaussian, Inc.),
 the Gaussian 86(TM) system (copyright 1986, Carnegie Mellon
 University), and the Gaussian 82(TM) system (copyright 1983,
 Carnegie Mellon University). Gaussian is a federally registered
 trademark of Gaussian, Inc.
  
 This software contains proprietary and confidential information,
 including trade secrets, belonging to Gaussian, Inc.
  
 This software is provided under written license and may be
 used, copied, transmitted, or stored only in accord with that
 written license.
  
 The following legend is applicable only to US Government
 contracts under FAR:
  
                    RESTRICTED RIGHTS LEGEND
  
 Use, reproduction and disclosure by the US Government is
 subject to restrictions as set forth in subparagraphs (a)
 and (c) of the Commercial Computer Software - Restricted
 Rights clause in FAR 52.227-19.
  
 Gaussian, Inc.
 340 Quinnipiac St., Bldg. 40, Wallingford CT 06492
  
  
 ---------------------------------------------------------------
 Warning -- This program may not be used in any manner that
 competes with the business of Gaussian, Inc. or will provide
 assistance to any competitor of Gaussian, Inc.  The licensee
 of this program is prohibited from giving any competitor of
 Gaussian, Inc. access to this program.  By using this program,
 the user acknowledges that Gaussian, Inc. is engaged in the
 business of creating and licensing software in the field of
 computational chemistry and represents and warrants to the
 licensee that it is not a competitor of Gaussian, Inc. and that
 it will not use this program in any manner prohibited above.
 ---------------------------------------------------------------
  

 Cite this work as:
 Gaussian 16, Revision A.03,
 M. J. Frisch, G. W. Trucks, H. B. Schlegel, G. E. Scuseria, 
 M. A. Robb, J. R. Cheeseman, G. Scalmani, V. Barone, 
 G. A. Petersson, H. Nakatsuji, X. Li, M. Caricato, A. V. Marenich, 
 J. Bloino, B. G. Janesko, R. Gomperts, B. Mennucci, H. P. Hratchian, 
 J. V. Ortiz, A. F. Izmaylov, J. L. Sonnenberg, D. Williams-Young, 
 F. Ding, F. Lipparini, F. Egidi, J. Goings, B. Peng, A. Petrone, 
 T. Henderson, D. Ranasinghe, V. G. Zakrzewski, J. Gao, N. Rega, 
 G. Zheng, W. Liang, M. Hada, M. Ehara, K. Toyota, R. Fukuda, 
 J. Hasegawa, M. Ishida, T. Nakajima, Y. Honda, O. Kitao, H. Nakai, 
 T. Vreven, K. Throssell, J. A. Montgomery, Jr., J. E. Peralta, 
 F. Ogliaro, M. J. Bearpark, J. J. Heyd, E. N. Brothers, K. N. Kudin, 
 V. N. Staroverov, T. A. Keith, R. Kobayashi, J. Normand, 
 K. Raghavachari, A. P. Rendell, J. C. Burant, S. S. Iyengar, 
 J. Tomasi, M. Cossi, J. M. Millam, M. Klene, C. Adamo, R. Cammi, 
 J. W. Ochterski, R. L. Martin, K. Morokuma, O. Farkas, 
 J. B. Foresman, and D. J. Fox, Gaussian, Inc., Wallingford CT, 2016.
 
 ******************************************
 Gaussian 16:  AS64L-G16RevA.03 25-Dec-2016
                15-Jun-2019 
 ******************************************
 %nprocshared=32
 Will use up to   32 processors via shared memory.
 %mem=48GB
 ----------------------------------------------------------------------
 #p opt freq=noraman pop=none 6-31g* scrf=(pcm,solvent=tetrahydrofuran)
  b972 extrabasis
 ----------------------------------------------------------------------
 1/18=20,19=15,26=3,38=1/1,3;
 2/9=110,12=2,17=6,18=5,40=1/2;
 3/5=1,6=6,7=1,10=1,11=2,25=1,30=1,70=2201,71=1,72=20,74=-21/1,2,3;
 4//1;
 5/5=2,38=5,53=20/2;
 7//1,2,3,16;
 1/18=20,19=15,26=3/3(2);
 2/9=110/2;
 99//99;
 2/9=110/2;
 3/5=7,6=1,7=1,11=2,25=1,30=1,70=2205,71=1,72=20,74=-21,82=7/1,2,3;
 4/5=5,16=3,69=1/1;
 5/5=2,38=5,53=20/2;
 7//1,2,3,16;
 1/18=20,19=15,26=3/3(-5);
 2/9=110/2;
 99/9=1/99;
 Leave Link    1 at Sat Jun 15 06:58:55 2019, MaxMem=  6442450944 cpu:               8.6 elap:               0.3
 (Enter /home/ekwan/sw/g16/l101.exe)
 -----
 title
 -----
 Symbolic Z-matrix:
 Charge =  0 Multiplicity = 1
 6                     3.52613  -0.25026   0.71073 
 6                     3.35439  -0.49542  -0.78957 
 6                     1.88304  -0.35001  -1.21369 
 6                     1.39357   1.10701   0.6166 
 6                     2.84297   1.05885   1.11072 
 1                     1.77035  -0.38314  -2.29582 
 1                     3.89483   0.30207  -1.32027 
 1                     3.06167  -1.07049   1.27166 
 1                     0.81563   0.34324   1.15166 
 1                     3.39214   1.89353   0.66142 
 8                     1.32092   0.83982  -0.79612 
 8                     1.17607  -1.49586  -0.65364 
 8                     3.88993  -1.74948  -1.11927 
 8                     4.8966   -0.14509   1.0376 
 8                     2.81428   1.17835   2.51901 
 6                     0.7191    2.44866   0.87992 
 1                     0.61439   2.54555   1.96256 
 1                    -0.28502   2.43667   0.4384 
 8                     1.44276   3.57855   0.44891 
 16                   -0.11824  -2.106    -1.41484 
 8                    -0.20256  -3.47757  -0.94603 
 8                    -0.01998  -1.80357  -2.83656 
 6                    -1.48916  -1.19287  -0.73274 
 6                    -2.11987  -1.67976   0.40789 
 6                    -1.89469  -0.01522  -1.35256 
 6                    -3.18717  -0.95921   0.93807 
 1                    -1.78866  -2.60287   0.86528 
 6                    -2.95768   0.69496  -0.80132 
 1                    -1.39737   0.33659  -2.2465 
 6                    -3.60527   0.22744   0.3402 
 1                    -4.43353   0.78337   0.75973 
 6                     4.31026  -1.88177  -2.466 
 1                     3.4703   -1.84955  -3.16895 
 1                     5.03126  -1.10005  -2.73367 
 1                     4.79243  -2.85596  -2.54488 
 6                     5.46308  -1.3078    1.61353 
 1                     6.50594  -1.06953   1.8288 
 1                     4.95956  -1.57238   2.55171 
 1                     5.42108  -2.1608    0.93072 
 6                     3.69394   2.15569   3.04601 
 1                     3.55758   2.14412   4.12854 
 1                     4.73675   1.92294   2.81122 
 1                     3.4519    3.15538   2.6665 
 6                     1.23983   3.9429   -0.90382 
 1                     1.69048   4.92846  -1.03214 
 1                     0.1699    4.00798  -1.13956 
 1                     1.7093    3.24012  -1.59828 
 6                    -3.93294  -1.49965   2.13275 
 9                    -3.13507  -2.23542   2.92255 
 9                    -4.95429  -2.28762   1.75154 
 9                    -4.45083  -0.51136   2.88002 
 6                    -3.3638    2.01291  -1.41053 
 9                    -2.6556    3.03017  -0.87641 
 9                    -4.66054   2.28231  -1.19864 
 9                    -3.14897   2.03532  -2.73451 
 
 ITRead=  0  0  0  0  0  0  0  0  0  0  0  0  0  0  0  0  0  0  0  0
 ITRead=  0  0  0  0  0  0  0  0  0  0  0  0  0  0  0  0  0  0  0  0
 ITRead=  0  0  0  0  0  0  0  0  0  0  0  0  0  0  0
 MicOpt= -1 -1 -1 -1 -1 -1 -1 -1 -1 -1 -1 -1 -1 -1 -1 -1 -1 -1 -1 -1
 MicOpt= -1 -1 -1 -1 -1 -1 -1 -1 -1 -1 -1 -1 -1 -1 -1 -1 -1 -1 -1 -1
 MicOpt= -1 -1 -1 -1 -1 -1 -1 -1 -1 -1 -1 -1 -1 -1 -1
 NAtoms=     55 NQM=       55 NQMF=       0 NMMI=      0 NMMIF=      0
                NMic=       0 NMicF=      0.
                    Isotopes and Nuclear Properties:
 (Nuclear quadrupole moments (NQMom) in fm**2, nuclear magnetic moments (NMagM)
  in nuclear magnetons)

  Atom         1           2           3           4           5           6           7           8           9          10
 IAtWgt=          12          12          12          12          12           1           1           1           1           1
 AtmWgt=  12.0000000  12.0000000  12.0000000  12.0000000  12.0000000   1.0078250   1.0078250   1.0078250   1.0078250   1.0078250
 NucSpn=           0           0           0           0           0           1           1           1           1           1
 AtZEff=   0.0000000   0.0000000   0.0000000   0.0000000   0.0000000   0.0000000   0.0000000   0.0000000   0.0000000   0.0000000
 NQMom=    0.0000000   0.0000000   0.0000000   0.0000000   0.0000000   0.0000000   0.0000000   0.0000000   0.0000000   0.0000000
 NMagM=    0.0000000   0.0000000   0.0000000   0.0000000   0.0000000   2.7928460   2.7928460   2.7928460   2.7928460   2.7928460
 AtZNuc=   6.0000000   6.0000000   6.0000000   6.0000000   6.0000000   1.0000000   1.0000000   1.0000000   1.0000000   1.0000000

  Atom        11          12          13          14          15          16          17          18          19          20
 IAtWgt=          16          16          16          16          16          12           1           1          16          32
 AtmWgt=  15.9949146  15.9949146  15.9949146  15.9949146  15.9949146  12.0000000   1.0078250   1.0078250  15.9949146  31.9720718
 NucSpn=           0           0           0           0           0           0           1           1           0           0
 AtZEff=   0.0000000   0.0000000   0.0000000   0.0000000   0.0000000   0.0000000   0.0000000   0.0000000   0.0000000   0.0000000
 NQMom=    0.0000000   0.0000000   0.0000000   0.0000000   0.0000000   0.0000000   0.0000000   0.0000000   0.0000000   0.0000000
 NMagM=    0.0000000   0.0000000   0.0000000   0.0000000   0.0000000   0.0000000   2.7928460   2.7928460   0.0000000   0.0000000
 AtZNuc=   8.0000000   8.0000000   8.0000000   8.0000000   8.0000000   6.0000000   1.0000000   1.0000000   8.0000000  16.0000000

  Atom        21          22          23          24          25          26          27          28          29          30
 IAtWgt=          16          16          12          12          12          12           1          12           1          12
 AtmWgt=  15.9949146  15.9949146  12.0000000  12.0000000  12.0000000  12.0000000   1.0078250  12.0000000   1.0078250  12.0000000
 NucSpn=           0           0           0           0           0           0           1           0           1           0
 AtZEff=   0.0000000   0.0000000   0.0000000   0.0000000   0.0000000   0.0000000   0.0000000   0.0000000   0.0000000   0.0000000
 NQMom=    0.0000000   0.0000000   0.0000000   0.0000000   0.0000000   0.0000000   0.0000000   0.0000000   0.0000000   0.0000000
 NMagM=    0.0000000   0.0000000   0.0000000   0.0000000   0.0000000   0.0000000   2.7928460   0.0000000   2.7928460   0.0000000
 AtZNuc=   8.0000000   8.0000000   6.0000000   6.0000000   6.0000000   6.0000000   1.0000000   6.0000000   1.0000000   6.0000000

  Atom        31          32          33          34          35          36          37          38          39          40
 IAtWgt=           1          12           1           1           1          12           1           1           1          12
 AtmWgt=   1.0078250  12.0000000   1.0078250   1.0078250   1.0078250  12.0000000   1.0078250   1.0078250   1.0078250  12.0000000
 NucSpn=           1           0           1           1           1           0           1           1           1           0
 AtZEff=   0.0000000   0.0000000   0.0000000   0.0000000   0.0000000   0.0000000   0.0000000   0.0000000   0.0000000   0.0000000
 NQMom=    0.0000000   0.0000000   0.0000000   0.0000000   0.0000000   0.0000000   0.0000000   0.0000000   0.0000000   0.0000000
 NMagM=    2.7928460   0.0000000   2.7928460   2.7928460   2.7928460   0.0000000   2.7928460   2.7928460   2.7928460   0.0000000
 AtZNuc=   1.0000000   6.0000000   1.0000000   1.0000000   1.0000000   6.0000000   1.0000000   1.0000000   1.0000000   6.0000000

  Atom        41          42          43          44          45          46          47          48          49          50
 IAtWgt=           1           1           1          12           1           1           1          12          19          19
 AtmWgt=   1.0078250   1.0078250   1.0078250  12.0000000   1.0078250   1.0078250   1.0078250  12.0000000  18.9984033  18.9984033
 NucSpn=           1           1           1           0           1           1           1           0           1           1
 AtZEff=   0.0000000   0.0000000   0.0000000   0.0000000   0.0000000   0.0000000   0.0000000   0.0000000   0.0000000   0.0000000
 NQMom=    0.0000000   0.0000000   0.0000000   0.0000000   0.0000000   0.0000000   0.0000000   0.0000000   0.0000000   0.0000000
 NMagM=    2.7928460   2.7928460   2.7928460   0.0000000   2.7928460   2.7928460   2.7928460   0.0000000   2.6288670   2.6288670
 AtZNuc=   1.0000000   1.0000000   1.0000000   6.0000000   1.0000000   1.0000000   1.0000000   6.0000000   9.0000000   9.0000000

  Atom        51          52          53          54          55
 IAtWgt=          19          12          19          19          19
 AtmWgt=  18.9984033  12.0000000  18.9984033  18.9984033  18.9984033
 NucSpn=           1           0           1           1           1
 AtZEff=   0.0000000   0.0000000   0.0000000   0.0000000   0.0000000
 NQMom=    0.0000000   0.0000000   0.0000000   0.0000000   0.0000000
 NMagM=    2.6288670   0.0000000   2.6288670   2.6288670   2.6288670
 AtZNuc=   9.0000000   6.0000000   9.0000000   9.0000000   9.0000000
 Leave Link  101 at Sat Jun 15 06:58:56 2019, MaxMem=  6442450944 cpu:              17.5 elap:               0.7
 (Enter /home/ekwan/sw/g16/l103.exe)

 GradGradGradGradGradGradGradGradGradGradGradGradGradGradGradGradGradGrad
 Berny optimization.
 Initialization pass.
                           ----------------------------
                           !    Initial Parameters    !
                           ! (Angstroms and Degrees)  !
 --------------------------                            --------------------------
 ! Name  Definition              Value          Derivative Info.                !
 --------------------------------------------------------------------------------
 ! R1    R(1,2)                  1.5299         estimate D2E/DX2                !
 ! R2    R(1,5)                  1.5299         estimate D2E/DX2                !
 ! R3    R(1,8)                  1.0969         estimate D2E/DX2                !
 ! R4    R(1,14)                 1.4128         estimate D2E/DX2                !
 ! R5    R(2,3)                  1.5381         estimate D2E/DX2                !
 ! R6    R(2,7)                  1.0999         estimate D2E/DX2                !
 ! R7    R(2,13)                 1.4029         estimate D2E/DX2                !
 ! R8    R(3,6)                  1.0885         estimate D2E/DX2                !
 ! R9    R(3,11)                 1.3806         estimate D2E/DX2                !
 ! R10   R(3,12)                 1.4582         estimate D2E/DX2                !
 ! R11   R(4,5)                  1.5321         estimate D2E/DX2                !
 ! R12   R(4,9)                  1.0971         estimate D2E/DX2                !
 ! R13   R(4,11)                 1.4396         estimate D2E/DX2                !
 ! R14   R(4,16)                 1.5246         estimate D2E/DX2                !
 ! R15   R(5,10)                 1.0955         estimate D2E/DX2                !
 ! R16   R(5,15)                 1.4136         estimate D2E/DX2                !
 ! R17   R(12,20)                1.6208         estimate D2E/DX2                !
 ! R18   R(13,32)                1.417          estimate D2E/DX2                !
 ! R19   R(14,36)                1.4158         estimate D2E/DX2                !
 ! R20   R(15,40)                1.4166         estimate D2E/DX2                !
 ! R21   R(16,17)                1.092          estimate D2E/DX2                !
 ! R22   R(16,18)                1.097          estimate D2E/DX2                !
 ! R23   R(16,19)                1.4093         estimate D2E/DX2                !
 ! R24   R(19,44)                1.4156         estimate D2E/DX2                !
 ! R25   R(20,21)                1.4519         estimate D2E/DX2                !
 ! R26   R(20,22)                1.4568         estimate D2E/DX2                !
 ! R27   R(20,23)                1.7828         estimate D2E/DX2                !
 ! R28   R(23,24)                1.3914         estimate D2E/DX2                !
 ! R29   R(23,25)                1.3912         estimate D2E/DX2                !
 ! R30   R(24,26)                1.3926         estimate D2E/DX2                !
 ! R31   R(24,27)                1.0822         estimate D2E/DX2                !
 ! R32   R(25,28)                1.3922         estimate D2E/DX2                !
 ! R33   R(25,29)                1.0818         estimate D2E/DX2                !
 ! R34   R(26,30)                1.393          estimate D2E/DX2                !
 ! R35   R(26,48)                1.5085         estimate D2E/DX2                !
 ! R36   R(28,30)                1.3932         estimate D2E/DX2                !
 ! R37   R(28,52)                1.5077         estimate D2E/DX2                !
 ! R38   R(30,31)                1.0822         estimate D2E/DX2                !
 ! R39   R(32,33)                1.0958         estimate D2E/DX2                !
 ! R40   R(32,34)                1.0966         estimate D2E/DX2                !
 ! R41   R(32,35)                1.0898         estimate D2E/DX2                !
 ! R42   R(36,37)                1.0912         estimate D2E/DX2                !
 ! R43   R(36,38)                1.0971         estimate D2E/DX2                !
 ! R44   R(36,39)                1.0934         estimate D2E/DX2                !
 ! R45   R(40,41)                1.0912         estimate D2E/DX2                !
 ! R46   R(40,42)                1.094          estimate D2E/DX2                !
 ! R47   R(40,43)                1.0964         estimate D2E/DX2                !
 ! R48   R(44,45)                1.0913         estimate D2E/DX2                !
 ! R49   R(44,46)                1.0975         estimate D2E/DX2                !
 ! R50   R(44,47)                1.0939         estimate D2E/DX2                !
 ! R51   R(48,49)                1.3423         estimate D2E/DX2                !
 ! R52   R(48,50)                1.3451         estimate D2E/DX2                !
 ! R53   R(48,51)                1.3429         estimate D2E/DX2                !
 ! R54   R(52,53)                1.3497         estimate D2E/DX2                !
 ! R55   R(52,54)                1.3413         estimate D2E/DX2                !
 ! R56   R(52,55)                1.3415         estimate D2E/DX2                !
 ! A1    A(2,1,5)              110.0837         estimate D2E/DX2                !
 ! A2    A(2,1,8)              109.5198         estimate D2E/DX2                !
 ! A3    A(2,1,14)             110.3476         estimate D2E/DX2                !
 ! A4    A(5,1,8)              108.4871         estimate D2E/DX2                !
 ! A5    A(5,1,14)             107.9975         estimate D2E/DX2                !
 ! A6    A(8,1,14)             110.371          estimate D2E/DX2                !
 ! A7    A(1,2,3)              111.2628         estimate D2E/DX2                !
 ! A8    A(1,2,7)              107.5678         estimate D2E/DX2                !
 ! A9    A(1,2,13)             109.3209         estimate D2E/DX2                !
 ! A10   A(3,2,7)              105.5718         estimate D2E/DX2                !
 ! A11   A(3,2,13)             112.6352         estimate D2E/DX2                !
 ! A12   A(7,2,13)             110.314          estimate D2E/DX2                !
 ! A13   A(2,3,6)              111.7328         estimate D2E/DX2                !
 ! A14   A(2,3,11)             112.8022         estimate D2E/DX2                !
 ! A15   A(2,3,12)             106.4737         estimate D2E/DX2                !
 ! A16   A(6,3,11)             106.5453         estimate D2E/DX2                !
 ! A17   A(6,3,12)             107.921          estimate D2E/DX2                !
 ! A18   A(11,3,12)            111.3248         estimate D2E/DX2                !
 ! A19   A(5,4,9)              108.6135         estimate D2E/DX2                !
 ! A20   A(5,4,11)             111.0023         estimate D2E/DX2                !
 ! A21   A(5,4,16)             112.9849         estimate D2E/DX2                !
 ! A22   A(9,4,11)             108.8324         estimate D2E/DX2                !
 ! A23   A(9,4,16)             107.1791         estimate D2E/DX2                !
 ! A24   A(11,4,16)            108.0896         estimate D2E/DX2                !
 ! A25   A(1,5,4)              111.4096         estimate D2E/DX2                !
 ! A26   A(1,5,10)             108.7166         estimate D2E/DX2                !
 ! A27   A(1,5,15)             109.9903         estimate D2E/DX2                !
 ! A28   A(4,5,10)             108.5432         estimate D2E/DX2                !
 ! A29   A(4,5,15)             107.4239         estimate D2E/DX2                !
 ! A30   A(10,5,15)            110.7532         estimate D2E/DX2                !
 ! A31   A(3,11,4)             115.8626         estimate D2E/DX2                !
 ! A32   A(3,12,20)            120.1715         estimate D2E/DX2                !
 ! A33   A(2,13,32)            114.8378         estimate D2E/DX2                !
 ! A34   A(1,14,36)            114.9038         estimate D2E/DX2                !
 ! A35   A(5,15,40)            114.6028         estimate D2E/DX2                !
 ! A36   A(4,16,17)            106.9623         estimate D2E/DX2                !
 ! A37   A(4,16,18)            109.0151         estimate D2E/DX2                !
 ! A38   A(4,16,19)            115.1861         estimate D2E/DX2                !
 ! A39   A(17,16,18)           108.1942         estimate D2E/DX2                !
 ! A40   A(17,16,19)           106.3391         estimate D2E/DX2                !
 ! A41   A(18,16,19)           110.8361         estimate D2E/DX2                !
 ! A42   A(16,19,44)           115.1512         estimate D2E/DX2                !
 ! A43   A(12,20,21)           104.4977         estimate D2E/DX2                !
 ! A44   A(12,20,22)           109.0453         estimate D2E/DX2                !
 ! A45   A(12,20,23)           103.9797         estimate D2E/DX2                !
 ! A46   A(21,20,22)           121.0057         estimate D2E/DX2                !
 ! A47   A(21,20,23)           108.3994         estimate D2E/DX2                !
 ! A48   A(22,20,23)           108.5968         estimate D2E/DX2                !
 ! A49   A(20,23,24)           118.881          estimate D2E/DX2                !
 ! A50   A(20,23,25)           119.1596         estimate D2E/DX2                !
 ! A51   A(24,23,25)           121.9591         estimate D2E/DX2                !
 ! A52   A(23,24,26)           118.5846         estimate D2E/DX2                !
 ! A53   A(23,24,27)           120.4151         estimate D2E/DX2                !
 ! A54   A(26,24,27)           120.9989         estimate D2E/DX2                !
 ! A55   A(23,25,28)           118.5527         estimate D2E/DX2                !
 ! A56   A(23,25,29)           120.6268         estimate D2E/DX2                !
 ! A57   A(28,25,29)           120.8196         estimate D2E/DX2                !
 ! A58   A(24,26,30)           120.4906         estimate D2E/DX2                !
 ! A59   A(24,26,48)           119.6722         estimate D2E/DX2                !
 ! A60   A(30,26,48)           119.7836         estimate D2E/DX2                !
 ! A61   A(25,28,30)           120.5414         estimate D2E/DX2                !
 ! A62   A(25,28,52)           119.4459         estimate D2E/DX2                !
 ! A63   A(30,28,52)           119.948          estimate D2E/DX2                !
 ! A64   A(26,30,28)           119.8685         estimate D2E/DX2                !
 ! A65   A(26,30,31)           120.0641         estimate D2E/DX2                !
 ! A66   A(28,30,31)           120.0671         estimate D2E/DX2                !
 ! A67   A(13,32,33)           112.3075         estimate D2E/DX2                !
 ! A68   A(13,32,34)           111.1281         estimate D2E/DX2                !
 ! A69   A(13,32,35)           106.4679         estimate D2E/DX2                !
 ! A70   A(33,32,34)           109.0528         estimate D2E/DX2                !
 ! A71   A(33,32,35)           108.6023         estimate D2E/DX2                !
 ! A72   A(34,32,35)           109.187          estimate D2E/DX2                !
 ! A73   A(14,36,37)           106.4579         estimate D2E/DX2                !
 ! A74   A(14,36,38)           111.2393         estimate D2E/DX2                !
 ! A75   A(14,36,39)           111.7939         estimate D2E/DX2                !
 ! A76   A(37,36,38)           108.8191         estimate D2E/DX2                !
 ! A77   A(37,36,39)           109.2842         estimate D2E/DX2                !
 ! A78   A(38,36,39)           109.1615         estimate D2E/DX2                !
 ! A79   A(15,40,41)           106.5088         estimate D2E/DX2                !
 ! A80   A(15,40,42)           111.4266         estimate D2E/DX2                !
 ! A81   A(15,40,43)           111.299          estimate D2E/DX2                !
 ! A82   A(41,40,42)           109.2563         estimate D2E/DX2                !
 ! A83   A(41,40,43)           108.9956         estimate D2E/DX2                !
 ! A84   A(42,40,43)           109.278          estimate D2E/DX2                !
 ! A85   A(19,44,45)           106.5958         estimate D2E/DX2                !
 ! A86   A(19,44,46)           111.1174         estimate D2E/DX2                !
 ! A87   A(19,44,47)           112.3209         estimate D2E/DX2                !
 ! A88   A(45,44,46)           108.8906         estimate D2E/DX2                !
 ! A89   A(45,44,47)           109.1681         estimate D2E/DX2                !
 ! A90   A(46,44,47)           108.6703         estimate D2E/DX2                !
 ! A91   A(26,48,49)           111.6236         estimate D2E/DX2                !
 ! A92   A(26,48,50)           111.1497         estimate D2E/DX2                !
 ! A93   A(26,48,51)           111.5742         estimate D2E/DX2                !
 ! A94   A(49,48,50)           107.2768         estimate D2E/DX2                !
 ! A95   A(49,48,51)           107.7715         estimate D2E/DX2                !
 ! A96   A(50,48,51)           107.217          estimate D2E/DX2                !
 ! A97   A(28,52,53)           110.9538         estimate D2E/DX2                !
 ! A98   A(28,52,54)           111.8492         estimate D2E/DX2                !
 ! A99   A(28,52,55)           111.7324         estimate D2E/DX2                !
 ! A100  A(53,52,54)           107.0608         estimate D2E/DX2                !
 ! A101  A(53,52,55)           107.0948         estimate D2E/DX2                !
 ! A102  A(54,52,55)           107.902          estimate D2E/DX2                !
 ! D1    D(5,1,2,3)            -50.1803         estimate D2E/DX2                !
 ! D2    D(5,1,2,7)             64.9923         estimate D2E/DX2                !
 ! D3    D(5,1,2,13)          -175.2137         estimate D2E/DX2                !
 ! D4    D(8,1,2,3)             69.0175         estimate D2E/DX2                !
 ! D5    D(8,1,2,7)           -175.8099         estimate D2E/DX2                !
 ! D6    D(8,1,2,13)           -56.0159         estimate D2E/DX2                !
 ! D7    D(14,1,2,3)          -169.289          estimate D2E/DX2                !
 ! D8    D(14,1,2,7)           -54.1165         estimate D2E/DX2                !
 ! D9    D(14,1,2,13)           65.6775         estimate D2E/DX2                !
 ! D10   D(2,1,5,4)             51.6266         estimate D2E/DX2                !
 ! D11   D(2,1,5,10)           -67.9446         estimate D2E/DX2                !
 ! D12   D(2,1,5,15)           170.6316         estimate D2E/DX2                !
 ! D13   D(8,1,5,4)            -68.1996         estimate D2E/DX2                !
 ! D14   D(8,1,5,10)           172.2292         estimate D2E/DX2                !
 ! D15   D(8,1,5,15)            50.8055         estimate D2E/DX2                !
 ! D16   D(14,1,5,4)           172.161          estimate D2E/DX2                !
 ! D17   D(14,1,5,10)           52.5898         estimate D2E/DX2                !
 ! D18   D(14,1,5,15)          -68.834          estimate D2E/DX2                !
 ! D19   D(2,1,14,36)         -101.2436         estimate D2E/DX2                !
 ! D20   D(5,1,14,36)          138.3872         estimate D2E/DX2                !
 ! D21   D(8,1,14,36)           19.9446         estimate D2E/DX2                !
 ! D22   D(1,2,3,6)            171.9547         estimate D2E/DX2                !
 ! D23   D(1,2,3,11)            51.946          estimate D2E/DX2                !
 ! D24   D(1,2,3,12)           -70.4448         estimate D2E/DX2                !
 ! D25   D(7,2,3,6)             55.5528         estimate D2E/DX2                !
 ! D26   D(7,2,3,11)           -64.4559         estimate D2E/DX2                !
 ! D27   D(7,2,3,12)           173.1533         estimate D2E/DX2                !
 ! D28   D(13,2,3,6)           -64.8896         estimate D2E/DX2                !
 ! D29   D(13,2,3,11)          175.1017         estimate D2E/DX2                !
 ! D30   D(13,2,3,12)           52.711          estimate D2E/DX2                !
 ! D31   D(1,2,13,32)         -154.7755         estimate D2E/DX2                !
 ! D32   D(3,2,13,32)           80.9918         estimate D2E/DX2                !
 ! D33   D(7,2,13,32)          -36.686          estimate D2E/DX2                !
 ! D34   D(2,3,11,4)           -55.4558         estimate D2E/DX2                !
 ! D35   D(6,3,11,4)          -178.406          estimate D2E/DX2                !
 ! D36   D(12,3,11,4)           64.1707         estimate D2E/DX2                !
 ! D37   D(2,3,12,20)         -149.6313         estimate D2E/DX2                !
 ! D38   D(6,3,12,20)          -29.5353         estimate D2E/DX2                !
 ! D39   D(11,3,12,20)          87.0507         estimate D2E/DX2                !
 ! D40   D(9,4,5,1)             66.6653         estimate D2E/DX2                !
 ! D41   D(9,4,5,10)          -173.6607         estimate D2E/DX2                !
 ! D42   D(9,4,5,15)           -53.8595         estimate D2E/DX2                !
 ! D43   D(11,4,5,1)           -52.9489         estimate D2E/DX2                !
 ! D44   D(11,4,5,10)           66.7251         estimate D2E/DX2                !
 ! D45   D(11,4,5,15)         -173.4737         estimate D2E/DX2                !
 ! D46   D(16,4,5,1)          -174.5581         estimate D2E/DX2                !
 ! D47   D(16,4,5,10)          -54.884          estimate D2E/DX2                !
 ! D48   D(16,4,5,15)           64.9171         estimate D2E/DX2                !
 ! D49   D(5,4,11,3)            55.8916         estimate D2E/DX2                !
 ! D50   D(9,4,11,3)           -63.5917         estimate D2E/DX2                !
 ! D51   D(16,4,11,3)         -179.6763         estimate D2E/DX2                !
 ! D52   D(5,4,16,17)          -67.2746         estimate D2E/DX2                !
 ! D53   D(5,4,16,18)          175.9564         estimate D2E/DX2                !
 ! D54   D(5,4,16,19)           50.6593         estimate D2E/DX2                !
 ! D55   D(9,4,16,17)           52.3312         estimate D2E/DX2                !
 ! D56   D(9,4,16,18)          -64.4378         estimate D2E/DX2                !
 ! D57   D(9,4,16,19)          170.265          estimate D2E/DX2                !
 ! D58   D(11,4,16,17)         169.488          estimate D2E/DX2                !
 ! D59   D(11,4,16,18)          52.719          estimate D2E/DX2                !
 ! D60   D(11,4,16,19)         -72.5781         estimate D2E/DX2                !
 ! D61   D(1,5,15,40)          108.281          estimate D2E/DX2                !
 ! D62   D(4,5,15,40)         -130.3006         estimate D2E/DX2                !
 ! D63   D(10,5,15,40)         -11.9176         estimate D2E/DX2                !
 ! D64   D(3,12,20,21)         156.683          estimate D2E/DX2                !
 ! D65   D(3,12,20,22)          25.9798         estimate D2E/DX2                !
 ! D66   D(3,12,20,23)         -89.7173         estimate D2E/DX2                !
 ! D67   D(2,13,32,33)         -67.0345         estimate D2E/DX2                !
 ! D68   D(2,13,32,34)          55.433          estimate D2E/DX2                !
 ! D69   D(2,13,32,35)         174.2256         estimate D2E/DX2                !
 ! D70   D(1,14,36,37)        -178.7844         estimate D2E/DX2                !
 ! D71   D(1,14,36,38)         -60.38           estimate D2E/DX2                !
 ! D72   D(1,14,36,39)          61.9413         estimate D2E/DX2                !
 ! D73   D(5,15,40,41)         179.385          estimate D2E/DX2                !
 ! D74   D(5,15,40,42)         -61.5486         estimate D2E/DX2                !
 ! D75   D(5,15,40,43)          60.7043         estimate D2E/DX2                !
 ! D76   D(4,16,19,44)          86.0806         estimate D2E/DX2                !
 ! D77   D(17,16,19,44)       -155.6365         estimate D2E/DX2                !
 ! D78   D(18,16,19,44)        -38.2674         estimate D2E/DX2                !
 ! D79   D(16,19,44,45)        168.7105         estimate D2E/DX2                !
 ! D80   D(16,19,44,46)         50.2038         estimate D2E/DX2                !
 ! D81   D(16,19,44,47)        -71.7697         estimate D2E/DX2                !
 ! D82   D(12,20,23,24)        -89.4629         estimate D2E/DX2                !
 ! D83   D(12,20,23,25)         90.3821         estimate D2E/DX2                !
 ! D84   D(21,20,23,24)         21.3118         estimate D2E/DX2                !
 ! D85   D(21,20,23,25)       -158.8433         estimate D2E/DX2                !
 ! D86   D(22,20,23,24)        154.5246         estimate D2E/DX2                !
 ! D87   D(22,20,23,25)        -25.6305         estimate D2E/DX2                !
 ! D88   D(20,23,24,26)        179.7864         estimate D2E/DX2                !
 ! D89   D(20,23,24,27)         -0.6404         estimate D2E/DX2                !
 ! D90   D(25,23,24,26)         -0.054          estimate D2E/DX2                !
 ! D91   D(25,23,24,27)        179.5192         estimate D2E/DX2                !
 ! D92   D(20,23,25,28)       -179.3463         estimate D2E/DX2                !
 ! D93   D(20,23,25,29)          0.9948         estimate D2E/DX2                !
 ! D94   D(24,23,25,28)          0.4937         estimate D2E/DX2                !
 ! D95   D(24,23,25,29)       -179.1652         estimate D2E/DX2                !
 ! D96   D(23,24,26,30)         -0.3886         estimate D2E/DX2                !
 ! D97   D(23,24,26,48)        176.9435         estimate D2E/DX2                !
 ! D98   D(27,24,26,30)       -179.9591         estimate D2E/DX2                !
 ! D99   D(27,24,26,48)         -2.627          estimate D2E/DX2                !
 ! D100  D(23,25,28,30)         -0.4976         estimate D2E/DX2                !
 ! D101  D(23,25,28,52)        176.5764         estimate D2E/DX2                !
 ! D102  D(29,25,28,30)        179.1607         estimate D2E/DX2                !
 ! D103  D(29,25,28,52)         -3.7653         estimate D2E/DX2                !
 ! D104  D(24,26,30,28)          0.3826         estimate D2E/DX2                !
 ! D105  D(24,26,30,31)       -179.8166         estimate D2E/DX2                !
 ! D106  D(48,26,30,28)       -176.9465         estimate D2E/DX2                !
 ! D107  D(48,26,30,31)          2.8542         estimate D2E/DX2                !
 ! D108  D(24,26,48,49)         30.2725         estimate D2E/DX2                !
 ! D109  D(24,26,48,50)        -89.4566         estimate D2E/DX2                !
 ! D110  D(24,26,48,51)        150.9232         estimate D2E/DX2                !
 ! D111  D(30,26,48,49)       -152.3763         estimate D2E/DX2                !
 ! D112  D(30,26,48,50)         87.8946         estimate D2E/DX2                !
 ! D113  D(30,26,48,51)        -31.7256         estimate D2E/DX2                !
 ! D114  D(25,28,30,26)          0.0698         estimate D2E/DX2                !
 ! D115  D(25,28,30,31)       -179.731          estimate D2E/DX2                !
 ! D116  D(52,28,30,26)       -176.9895         estimate D2E/DX2                !
 ! D117  D(52,28,30,31)          3.2097         estimate D2E/DX2                !
 ! D118  D(25,28,52,53)        -87.5138         estimate D2E/DX2                !
 ! D119  D(25,28,52,54)        153.0127         estimate D2E/DX2                !
 ! D120  D(25,28,52,55)         31.9251         estimate D2E/DX2                !
 ! D121  D(30,28,52,53)         89.5778         estimate D2E/DX2                !
 ! D122  D(30,28,52,54)        -29.8957         estimate D2E/DX2                !
 ! D123  D(30,28,52,55)       -150.9833         estimate D2E/DX2                !
 --------------------------------------------------------------------------------
 Trust Radius=3.00D-01 FncErr=1.00D-07 GrdErr=1.00D-06 EigMax=2.50D+02 EigMin=1.00D-04
 Number of steps in this run=    291 maximum allowed number of steps=    330.
 GradGradGradGradGradGradGradGradGradGradGradGradGradGradGradGradGradGrad

 Leave Link  103 at Sat Jun 15 06:58:56 2019, MaxMem=  6442450944 cpu:               2.3 elap:               0.1
 (Enter /home/ekwan/sw/g16/l202.exe)
 Stoichiometry    C18H22F6O8S
 Framework group  C1[X(C18H22F6O8S)]
 Deg. of freedom   159
 Full point group                 C1      NOp   1
 Largest Abelian subgroup         C1      NOp   1
 Largest concise Abelian subgroup C1      NOp   1
                         Standard orientation:                         
 ---------------------------------------------------------------------
 Center     Atomic      Atomic             Coordinates (Angstroms)
 Number     Number       Type             X           Y           Z
 ---------------------------------------------------------------------
      1          6           0        3.526134   -0.250257    0.710732
      2          6           0        3.354385   -0.495415   -0.789565
      3          6           0        1.883038   -0.350008   -1.213686
      4          6           0        1.393570    1.107009    0.616597
      5          6           0        2.842973    1.058849    1.110717
      6          1           0        1.770350   -0.383143   -2.295822
      7          1           0        3.894831    0.302067   -1.320267
      8          1           0        3.061668   -1.070488    1.271661
      9          1           0        0.815630    0.343235    1.151660
     10          1           0        3.392144    1.893529    0.661418
     11          8           0        1.320919    0.839821   -0.796118
     12          8           0        1.176074   -1.495860   -0.653642
     13          8           0        3.889933   -1.749479   -1.119268
     14          8           0        4.896601   -0.145086    1.037603
     15          8           0        2.814281    1.178347    2.519013
     16          6           0        0.719103    2.448660    0.879922
     17          1           0        0.614394    2.545547    1.962564
     18          1           0       -0.285018    2.436668    0.438404
     19          8           0        1.442762    3.578550    0.448905
     20         16           0       -0.118242   -2.105996   -1.414840
     21          8           0       -0.202561   -3.477570   -0.946025
     22          8           0       -0.019983   -1.803566   -2.836557
     23          6           0       -1.489158   -1.192872   -0.732744
     24          6           0       -2.119873   -1.679756    0.407886
     25          6           0       -1.894687   -0.015216   -1.352563
     26          6           0       -3.187166   -0.959207    0.938072
     27          1           0       -1.788655   -2.602869    0.865277
     28          6           0       -2.957683    0.694955   -0.801322
     29          1           0       -1.397365    0.336585   -2.246496
     30          6           0       -3.605271    0.227443    0.340204
     31          1           0       -4.433530    0.783373    0.759727
     32          6           0        4.310260   -1.881773   -2.466001
     33          1           0        3.470300   -1.849549   -3.168955
     34          1           0        5.031260   -1.100049   -2.733666
     35          1           0        4.792434   -2.855963   -2.544878
     36          6           0        5.463082   -1.307804    1.613529
     37          1           0        6.505939   -1.069526    1.828795
     38          1           0        4.959562   -1.572383    2.551708
     39          1           0        5.421083   -2.160803    0.930721
     40          6           0        3.693939    2.155687    3.046005
     41          1           0        3.557578    2.144122    4.128542
     42          1           0        4.736745    1.922941    2.811223
     43          1           0        3.451901    3.155379    2.666498
     44          6           0        1.239825    3.942898   -0.903820
     45          1           0        1.690478    4.928464   -1.032138
     46          1           0        0.169898    4.007983   -1.139560
     47          1           0        1.709295    3.240122   -1.598284
     48          6           0       -3.932941   -1.499649    2.132752
     49          9           0       -3.135067   -2.235419    2.922548
     50          9           0       -4.954287   -2.287616    1.751535
     51          9           0       -4.450831   -0.511364    2.880020
     52          6           0       -3.363798    2.012911   -1.410534
     53          9           0       -2.655601    3.030175   -0.876410
     54          9           0       -4.660536    2.282311   -1.198636
     55          9           0       -3.148972    2.035325   -2.734509
 ---------------------------------------------------------------------
 Rotational constants (GHZ):           0.1500889           0.0796772           0.0737965
 Leave Link  202 at Sat Jun 15 06:58:56 2019, MaxMem=  6442450944 cpu:               5.3 elap:               0.2
 (Enter /home/ekwan/sw/g16/l301.exe)
 Standard basis: 6-31G(d) (6D, 7F)
 Centers:      12     22     21
 SP 1 1.00
     Exponent=  8.4500000000D-02 Coefficients=  1.0000000000D+00  1.0000000000D+00
 ****
 Ernie: Thresh=  0.10000D-02 Tol=  0.10000D-05 Strict=F.
 There are   555 symmetry adapted cartesian basis functions of A   symmetry.
 There are   555 symmetry adapted basis functions of A   symmetry.
   555 basis functions,  1048 primitive gaussians,   555 cartesian basis functions
   132 alpha electrons      132 beta electrons
       nuclear repulsion energy      4266.0166600384 Hartrees.
 IExCor= 1715 DFT=T Ex+Corr=B972 ExCW=0 ScaHFX=  0.210000
 ScaDFX=  1.000000  1.000000  1.000000  1.000000 ScalE2=  1.000000  1.000000
 IRadAn=      5 IRanWt=     -1 IRanGd=            0 ICorTp=0 IEmpDi=  4
 NAtoms=   55 NActive=   55 NUniq=   55 SFac= 1.00D+00 NAtFMM=   60 NAOKFM=F Big=F
 Integral buffers will be    131072 words long.
 Raffenetti 2 integral format.
 Two-electron integral symmetry is turned on.
 ------------------------------------------------------------------------------
 Polarizable Continuum Model (PCM)
 =================================
 Model                : PCM.
 Atomic radii         : UFF (Universal Force Field).
 Polarization charges : Total charges.
 Charge compensation  : None.
 Solution method      : On-the-fly selection.
 Cavity type          : Scaled VdW (van der Waals Surface) (Alpha=1.100).
 Cavity algorithm     : GePol (No added spheres)
                        Default sphere list used, NSphG=   55.
                        Lebedev-Laikov grids with approx.  5.0 points / Ang**2.
                        Smoothing algorithm: York/Karplus (Gamma=1.0000).
                        Polarization charges: spherical gaussians, with
                                              point-specific exponents (IZeta= 3).
                        Self-potential: point-specific (ISelfS= 7).
                        Self-field    : sphere-specific E.n sum rule (ISelfD= 2).
 1st derivatives      : Analytical E(r).r(x)/FMM algorithm (CHGder, D1EAlg=3).
                        Cavity 1st derivative terms included.
 Solvent              : TetraHydroFuran, Eps=   7.425700 Eps(inf)=   1.974025
 ------------------------------------------------------------------------------
 GePol: Number of generator spheres                  =      55
 GePol: Total number of spheres                      =      55
 GePol: Number of exposed spheres                    =      55 (100.00%)
 GePol: Number of points                             =    4046
 GePol: Average weight of points                     =       0.13
 GePol: Minimum weight of points                     =   0.13D-11
 GePol: Maximum weight of points                     =    0.20577
 GePol: Number of points with low weight             =     265
 GePol: Fraction of low-weight points (<1% of avg)   =       6.55%
 GePol: Cavity surface area                          =    511.361 Ang**2
 GePol: Cavity volume                                =    581.859 Ang**3
 Leave Link  301 at Sat Jun 15 06:58:56 2019, MaxMem=  6442450944 cpu:               9.1 elap:               0.4
 (Enter /home/ekwan/sw/g16/l302.exe)
 NPDir=0 NMtPBC=     1 NCelOv=     1 NCel=       1 NClECP=     1 NCelD=      1
         NCelK=      1 NCelE2=     1 NClLst=     1 CellRange=     0.0.
 One-electron integrals computed using PRISM.
 One-electron integral symmetry used in STVInt
 NBasis=   555 RedAO= T EigKep=  4.00D-04  NBF=   555
 NBsUse=   555 1.00D-06 EigRej= -1.00D+00 NBFU=   555
 Precomputing XC quadrature grid using
 IXCGrd= 4 IRadAn=           5 IRanWt=          -1 IRanGd=           0 AccXCQ= 0.00D+00.
 Generated NRdTot=       0 NPtTot=           0 NUsed=           0 NTot=          32
 NSgBfM=   542   541   542   542   542 MxSgAt=    55 MxSgA2=    55.
 Leave Link  302 at Sat Jun 15 06:59:05 2019, MaxMem=  6442450944 cpu:             245.4 elap:               8.6
 (Enter /home/ekwan/sw/g16/l303.exe)
 DipDrv:  MaxL=1.
 Leave Link  303 at Sat Jun 15 06:59:09 2019, MaxMem=  6442450944 cpu:             115.9 elap:               4.2
 (Enter /home/ekwan/sw/g16/l401.exe)
 ExpMin= 8.45D-02 ExpMax= 2.19D+04 ExpMxC= 3.30D+03 IAcc=3 IRadAn=         5 AccDes= 0.00D+00
 Harris functional with IExCor= 1715 and IRadAn=       5 diagonalized for initial guess.
 HarFok:  IExCor= 1715 AccDes= 0.00D+00 IRadAn=         5 IDoV= 1 UseB2=F ITyADJ=14
 ICtDFT=  3500011 ScaDFX=  1.000000  1.000000  1.000000  1.000000
 FoFCou: FMM=F IPFlag=           0 FMFlag=      100000 FMFlg1=           0
         NFxFlg=           0 DoJE=T BraDBF=F KetDBF=T FulRan=T
         wScrn=  0.000000 ICntrl=       500 IOpCl=  0 I1Cent=   200000004 NGrid=           0
         NMat0=    1 NMatS0=      1 NMatT0=    0 NMatD0=    1 NMtDS0=    0 NMtDT0=    0
 Petite list used in FoFCou.
 Harris En= -2244.92137727969    
 JPrj=0 DoOrth=F DoCkMO=F.
 Leave Link  401 at Sat Jun 15 06:59:19 2019, MaxMem=  6442450944 cpu:             275.5 elap:               9.3
 (Enter /home/ekwan/sw/g16/l502.exe)
 Integral symmetry usage will be decided dynamically.
 Closed shell SCF:
 Using DIIS extrapolation, IDIIS=  1040.
 NGot=  6442450944 LenX=  6441811192 LenY=  6441502612
 Requested convergence on RMS density matrix=1.00D-08 within 128 cycles.
 Requested convergence on MAX density matrix=1.00D-06.
 Requested convergence on             energy=1.00D-06.
 No special actions if energy rises.
 Fock matrices will be formed incrementally for  20 cycles.

 Cycle   1  Pass 1  IDiag  1:
 FoFJK:  IHMeth= 1 ICntrl=       0 DoSepK=F KAlg= 0 I1Cent=           0 FoldK=F
 IRaf= 690000000 NMat=       1 IRICut=       1 DoRegI=T DoRafI=F ISym2E= 0 IDoP0=0 IntGTp=1.
 FoFCou: FMM=F IPFlag=           0 FMFlag=      100000 FMFlg1=           0
         NFxFlg=           0 DoJE=F BraDBF=F KetDBF=F FulRan=T
         wScrn=  0.000000 ICntrl=         0 IOpCl=  0 I1Cent=           0 NGrid=           0
         NMat0=    1 NMatS0=      1 NMatT0=    0 NMatD0=    1 NMtDS0=    0 NMtDT0=    0
 Symmetry not used in FoFCou.
 Inv3:  Mode=1 IEnd=    49110348.
 Iteration    1 A*A^-1 deviation from unit magnitude is 4.22D-15 for   4032.
 Iteration    1 A*A^-1 deviation from orthogonality  is 3.06D-15 for   2939    245.
 Iteration    1 A^-1*A deviation from unit magnitude is 4.00D-15 for   4024.
 Iteration    1 A^-1*A deviation from orthogonality  is 2.15D-15 for   3303   2248.
 E= -2296.79653348148    
 DIIS: error= 6.56D-02 at cycle   1 NSaved=   1.
 NSaved= 1 IEnMin= 1 EnMin= -2296.79653348148     IErMin= 1 ErrMin= 6.56D-02
 ErrMax= 6.56D-02  0.00D+00 EMaxC= 1.00D-01 BMatC= 1.91D+00 BMatP= 1.91D+00
 IDIUse=3 WtCom= 3.44D-01 WtEn= 6.56D-01
 Coeff-Com:  0.100D+01
 Coeff-En:   0.100D+01
 Coeff:      0.100D+01
 Gap=     0.268 Goal=   None    Shift=    0.000
 GapD=    0.268 DampG=1.000 DampE=0.500 DampFc=0.5000 IDamp=-1.
 Damping current iteration by 5.00D-01
 RMSDP=3.97D-03 MaxDP=5.86D-01              OVMax= 2.44D-01

 Cycle   2  Pass 1  IDiag  1:
 RMSU=  1.99D-03    CP:  9.99D-01
 E= -2297.08252793748     Delta-E=       -0.285994456000 Rises=F Damp=T
 DIIS: error= 3.01D-02 at cycle   2 NSaved=   2.
 NSaved= 2 IEnMin= 2 EnMin= -2297.08252793748     IErMin= 2 ErrMin= 3.01D-02
 ErrMax= 3.01D-02  0.00D+00 EMaxC= 1.00D-01 BMatC= 2.96D-01 BMatP= 1.91D+00
 IDIUse=3 WtCom= 6.99D-01 WtEn= 3.01D-01
 Coeff-Com: -0.181D+00 0.118D+01
 Coeff-En:   0.101D+00 0.899D+00
 Coeff:     -0.962D-01 0.110D+01
 Gap=     0.373 Goal=   None    Shift=    0.000
 RMSDP=1.32D-03 MaxDP=1.07D-01 DE=-2.86D-01 OVMax= 1.71D-01

 Cycle   3  Pass 1  IDiag  1:
 RMSU=  1.29D-03    CP:  1.00D+00  8.54D-01
 E= -2297.33158305121     Delta-E=       -0.249055113727 Rises=F Damp=F
 DIIS: error= 9.77D-03 at cycle   3 NSaved=   3.
 NSaved= 3 IEnMin= 3 EnMin= -2297.33158305121     IErMin= 3 ErrMin= 9.77D-03
 ErrMax= 9.77D-03  0.00D+00 EMaxC= 1.00D-01 BMatC= 1.87D-01 BMatP= 2.96D-01
 IDIUse=3 WtCom= 9.02D-01 WtEn= 9.77D-02
 Coeff-Com: -0.214D+00 0.607D+00 0.607D+00
 Coeff-En:   0.000D+00 0.000D+00 0.100D+01
 Coeff:     -0.193D+00 0.548D+00 0.645D+00
 Gap=     0.178 Goal=   None    Shift=    0.000
 RMSDP=1.12D-03 MaxDP=7.73D-02 DE=-2.49D-01 OVMax= 9.66D-02

 Cycle   4  Pass 1  IDiag  1:
 RMSU=  6.20D-04    CP:  1.00D+00  1.13D+00  4.12D-01
 E= -2297.43783144878     Delta-E=       -0.106248397574 Rises=F Damp=F
 DIIS: error= 6.56D-03 at cycle   4 NSaved=   4.
 NSaved= 4 IEnMin= 4 EnMin= -2297.43783144878     IErMin= 4 ErrMin= 6.56D-03
 ErrMax= 6.56D-03  0.00D+00 EMaxC= 1.00D-01 BMatC= 5.48D-02 BMatP= 1.87D-01
 IDIUse=3 WtCom= 9.34D-01 WtEn= 6.56D-02
 Coeff-Com: -0.109D+00 0.251D+00 0.414D+00 0.443D+00
 Coeff-En:   0.000D+00 0.000D+00 0.239D+00 0.761D+00
 Coeff:     -0.102D+00 0.235D+00 0.403D+00 0.464D+00
 Gap=     0.184 Goal=   None    Shift=    0.000
 RMSDP=5.03D-04 MaxDP=3.09D-02 DE=-1.06D-01 OVMax= 3.95D-02

 Cycle   5  Pass 1  IDiag  1:
 RMSU=  1.89D-04    CP:  1.00D+00  1.10D+00  6.22D-01  3.95D-01
 E= -2297.47863106054     Delta-E=       -0.040799611757 Rises=F Damp=F
 DIIS: error= 1.17D-03 at cycle   5 NSaved=   5.
 NSaved= 5 IEnMin= 5 EnMin= -2297.47863106054     IErMin= 5 ErrMin= 1.17D-03
 ErrMax= 1.17D-03  0.00D+00 EMaxC= 1.00D-01 BMatC= 2.26D-03 BMatP= 5.48D-02
 IDIUse=3 WtCom= 9.88D-01 WtEn= 1.17D-02
 Coeff-Com: -0.394D-01 0.833D-01 0.171D+00 0.259D+00 0.526D+00
 Coeff-En:   0.000D+00 0.000D+00 0.000D+00 0.000D+00 0.100D+01
 Coeff:     -0.390D-01 0.823D-01 0.169D+00 0.256D+00 0.532D+00
 Gap=     0.176 Goal=   None    Shift=    0.000
 RMSDP=1.02D-04 MaxDP=4.79D-03 DE=-4.08D-02 OVMax= 7.48D-03

 Cycle   6  Pass 1  IDiag  1:
 RMSU=  4.53D-05    CP:  1.00D+00  1.10D+00  6.13D-01  4.92D-01  6.44D-01
 E= -2297.48049163266     Delta-E=       -0.001860572118 Rises=F Damp=F
 DIIS: error= 1.81D-04 at cycle   6 NSaved=   6.
 NSaved= 6 IEnMin= 6 EnMin= -2297.48049163266     IErMin= 6 ErrMin= 1.81D-04
 ErrMax= 1.81D-04  0.00D+00 EMaxC= 1.00D-01 BMatC= 8.44D-05 BMatP= 2.26D-03
 IDIUse=3 WtCom= 9.98D-01 WtEn= 1.81D-03
 Coeff-Com: -0.837D-02 0.165D-01 0.393D-01 0.733D-01 0.236D+00 0.644D+00
 Coeff-En:   0.000D+00 0.000D+00 0.000D+00 0.000D+00 0.000D+00 0.100D+01
 Coeff:     -0.836D-02 0.165D-01 0.392D-01 0.732D-01 0.235D+00 0.644D+00
 Gap=     0.176 Goal=   None    Shift=    0.000
 RMSDP=2.38D-05 MaxDP=1.47D-03 DE=-1.86D-03 OVMax= 2.02D-03

 Cycle   7  Pass 1  IDiag  1:
 RMSU=  1.68D-05    CP:  1.00D+00  1.10D+00  6.16D-01  4.93D-01  6.81D-01
                    CP:  6.93D-01
 E= -2297.48054911204     Delta-E=       -0.000057479378 Rises=F Damp=F
 DIIS: error= 9.14D-05 at cycle   7 NSaved=   7.
 NSaved= 7 IEnMin= 7 EnMin= -2297.48054911204     IErMin= 7 ErrMin= 9.14D-05
 ErrMax= 9.14D-05  0.00D+00 EMaxC= 1.00D-01 BMatC= 1.52D-05 BMatP= 8.44D-05
 IDIUse=1 WtCom= 1.00D+00 WtEn= 0.00D+00
 Coeff-Com:  0.703D-03-0.190D-02-0.185D-02 0.479D-02 0.577D-01 0.356D+00
 Coeff-Com:  0.584D+00
 Coeff:      0.703D-03-0.190D-02-0.185D-02 0.479D-02 0.577D-01 0.356D+00
 Coeff:      0.584D+00
 Gap=     0.177 Goal=   None    Shift=    0.000
 RMSDP=8.16D-06 MaxDP=4.33D-04 DE=-5.75D-05 OVMax= 9.02D-04

 Cycle   8  Pass 1  IDiag  1:
 RMSU=  3.48D-06    CP:  1.00D+00  1.10D+00  6.15D-01  4.92D-01  6.88D-01
                    CP:  7.71D-01  6.45D-01
 E= -2297.48056253959     Delta-E=       -0.000013427550 Rises=F Damp=F
 DIIS: error= 2.27D-05 at cycle   8 NSaved=   8.
 NSaved= 8 IEnMin= 8 EnMin= -2297.48056253959     IErMin= 8 ErrMin= 2.27D-05
 ErrMax= 2.27D-05  0.00D+00 EMaxC= 1.00D-01 BMatC= 4.98D-07 BMatP= 1.52D-05
 IDIUse=1 WtCom= 1.00D+00 WtEn= 0.00D+00
 Coeff-Com:  0.703D-03-0.165D-02-0.255D-02-0.396D-03 0.207D-01 0.159D+00
 Coeff-Com:  0.288D+00 0.536D+00
 Coeff:      0.703D-03-0.165D-02-0.255D-02-0.396D-03 0.207D-01 0.159D+00
 Coeff:      0.288D+00 0.536D+00
 Gap=     0.177 Goal=   None    Shift=    0.000
 RMSDP=1.64D-06 MaxDP=1.25D-04 DE=-1.34D-05 OVMax= 1.68D-04

 Cycle   9  Pass 1  IDiag  1:
 RMSU=  1.41D-06    CP:  1.00D+00  1.10D+00  6.15D-01  4.92D-01  6.89D-01
                    CP:  7.74D-01  6.55D-01  7.81D-01
 E= -2297.48056284922     Delta-E=       -0.000000309637 Rises=F Damp=F
 DIIS: error= 9.49D-06 at cycle   9 NSaved=   9.
 NSaved= 9 IEnMin= 9 EnMin= -2297.48056284922     IErMin= 9 ErrMin= 9.49D-06
 ErrMax= 9.49D-06  0.00D+00 EMaxC= 1.00D-01 BMatC= 9.97D-08 BMatP= 4.98D-07
 IDIUse=1 WtCom= 1.00D+00 WtEn= 0.00D+00
 Coeff-Com:  0.285D-03-0.631D-03-0.118D-02-0.987D-03 0.297D-02 0.380D-01
 Coeff-Com:  0.772D-01 0.322D+00 0.563D+00
 Coeff:      0.285D-03-0.631D-03-0.118D-02-0.987D-03 0.297D-02 0.380D-01
 Coeff:      0.772D-01 0.322D+00 0.563D+00
 Gap=     0.177 Goal=   None    Shift=    0.000
 RMSDP=6.94D-07 MaxDP=5.79D-05 DE=-3.10D-07 OVMax= 7.96D-05

 Cycle  10  Pass 1  IDiag  1:
 RMSU=  3.94D-07    CP:  1.00D+00  1.10D+00  6.15D-01  4.92D-01  6.89D-01
                    CP:  7.75D-01  6.57D-01  8.48D-01  6.43D-01
 E= -2297.48056292055     Delta-E=       -0.000000071328 Rises=F Damp=F
 DIIS: error= 3.72D-06 at cycle  10 NSaved=  10.
 NSaved=10 IEnMin=10 EnMin= -2297.48056292055     IErMin=10 ErrMin= 3.72D-06
 ErrMax= 3.72D-06  0.00D+00 EMaxC= 1.00D-01 BMatC= 1.07D-08 BMatP= 9.97D-08
 IDIUse=1 WtCom= 1.00D+00 WtEn= 0.00D+00
 Coeff-Com:  0.102D-03-0.216D-03-0.456D-03-0.531D-03 0.190D-04 0.911D-02
 Coeff-Com:  0.213D-01 0.135D+00 0.321D+00 0.514D+00
 Coeff:      0.102D-03-0.216D-03-0.456D-03-0.531D-03 0.190D-04 0.911D-02
 Coeff:      0.213D-01 0.135D+00 0.321D+00 0.514D+00
 Gap=     0.177 Goal=   None    Shift=    0.000
 RMSDP=2.03D-07 MaxDP=1.43D-05 DE=-7.13D-08 OVMax= 2.02D-05

 Cycle  11  Pass 1  IDiag  1:
 RMSU=  1.25D-07    CP:  1.00D+00  1.10D+00  6.15D-01  4.92D-01  6.89D-01
                    CP:  7.76D-01  6.59D-01  8.46D-01  7.03D-01  6.80D-01
 E= -2297.48056292828     Delta-E=       -0.000000007724 Rises=F Damp=F
 DIIS: error= 8.86D-07 at cycle  11 NSaved=  11.
 NSaved=11 IEnMin=11 EnMin= -2297.48056292828     IErMin=11 ErrMin= 8.86D-07
 ErrMax= 8.86D-07  0.00D+00 EMaxC= 1.00D-01 BMatC= 5.84D-10 BMatP= 1.07D-08
 IDIUse=1 WtCom= 1.00D+00 WtEn= 0.00D+00
 Coeff-Com:  0.144D-04-0.270D-04-0.720D-04-0.135D-03-0.414D-03-0.725D-03
 Coeff-Com: -0.247D-03 0.169D-01 0.683D-01 0.229D+00 0.687D+00
 Coeff:      0.144D-04-0.270D-04-0.720D-04-0.135D-03-0.414D-03-0.725D-03
 Coeff:     -0.247D-03 0.169D-01 0.683D-01 0.229D+00 0.687D+00
 Gap=     0.177 Goal=   None    Shift=    0.000
 RMSDP=5.36D-08 MaxDP=2.87D-06 DE=-7.72D-09 OVMax= 5.33D-06

 Cycle  12  Pass 1  IDiag  1:
 RMSU=  3.59D-08    CP:  1.00D+00  1.10D+00  6.15D-01  4.92D-01  6.89D-01
                    CP:  7.76D-01  6.59D-01  8.51D-01  7.05D-01  7.26D-01
                    CP:  7.84D-01
 E= -2297.48056292871     Delta-E=       -0.000000000437 Rises=F Damp=F
 DIIS: error= 4.06D-07 at cycle  12 NSaved=  12.
 NSaved=12 IEnMin=12 EnMin= -2297.48056292871     IErMin=12 ErrMin= 4.06D-07
 ErrMax= 4.06D-07  0.00D+00 EMaxC= 1.00D-01 BMatC= 8.51D-11 BMatP= 5.84D-10
 IDIUse=1 WtCom= 1.00D+00 WtEn= 0.00D+00
 Coeff-Com: -0.104D-05 0.412D-05-0.254D-06-0.292D-04-0.247D-03-0.124D-02
 Coeff-Com: -0.203D-02-0.201D-02 0.120D-01 0.870D-01 0.379D+00 0.527D+00
 Coeff:     -0.104D-05 0.412D-05-0.254D-06-0.292D-04-0.247D-03-0.124D-02
 Coeff:     -0.203D-02-0.201D-02 0.120D-01 0.870D-01 0.379D+00 0.527D+00
 Gap=     0.177 Goal=   None    Shift=    0.000
 RMSDP=2.24D-08 MaxDP=1.17D-06 DE=-4.37D-10 OVMax= 3.39D-06

 Cycle  13  Pass 1  IDiag  1:
 RMSU=  1.40D-08    CP:  1.00D+00  1.10D+00  6.15D-01  4.92D-01  6.89D-01
                    CP:  7.76D-01  6.59D-01  8.52D-01  7.06D-01  7.34D-01
                    CP:  8.45D-01  6.04D-01
 E= -2297.48056292877     Delta-E=       -0.000000000058 Rises=F Damp=F
 DIIS: error= 1.13D-07 at cycle  13 NSaved=  13.
 NSaved=13 IEnMin=13 EnMin= -2297.48056292877     IErMin=13 ErrMin= 1.13D-07
 ErrMax= 1.13D-07  0.00D+00 EMaxC= 1.00D-01 BMatC= 8.08D-12 BMatP= 8.51D-11
 IDIUse=1 WtCom= 1.00D+00 WtEn= 0.00D+00
 Coeff-Com: -0.193D-05 0.458D-05 0.766D-05 0.127D-05-0.747D-04-0.507D-03
 Coeff-Com: -0.907D-03-0.278D-02-0.105D-02 0.194D-01 0.117D+00 0.280D+00
 Coeff-Com:  0.589D+00
 Coeff:     -0.193D-05 0.458D-05 0.766D-05 0.127D-05-0.747D-04-0.507D-03
 Coeff:     -0.907D-03-0.278D-02-0.105D-02 0.194D-01 0.117D+00 0.280D+00
 Coeff:      0.589D+00
 Gap=     0.177 Goal=   None    Shift=    0.000
 RMSDP=6.73D-09 MaxDP=4.31D-07 DE=-5.82D-11 OVMax= 9.68D-07

 Error on total polarization charges =  0.00985
 SCF Done:  E(RB972) =  -2297.48056293     A.U. after   13 cycles
            NFock= 13  Conv=0.67D-08     -V/T= 2.0066
 KE= 2.282337553680D+03 PE=-1.394055611353D+04 EE= 5.094721336887D+03
 Leave Link  502 at Sat Jun 15 07:03:15 2019, MaxMem=  6442450944 cpu:            7281.1 elap:             236.4
 (Enter /home/ekwan/sw/g16/l701.exe)
 ... and contract with generalized density number  0.
 Compute integral first derivatives.
 D1PCM: PCM CHGder 1st derivatives, ID1Alg=3 FixD1E=F DoIter=F DoCFld=F I1PDM=0.
 GePol: Maximum number of non-zero 1st derivatives   =     224
 Leave Link  701 at Sat Jun 15 07:03:27 2019, MaxMem=  6442450944 cpu:             335.0 elap:              11.7
 (Enter /home/ekwan/sw/g16/l702.exe)
 L702 exits ... SP integral derivatives will be done elsewhere.
 Leave Link  702 at Sat Jun 15 07:03:27 2019, MaxMem=  6442450944 cpu:               2.3 elap:               0.2
 (Enter /home/ekwan/sw/g16/l703.exe)
 Integral derivatives from FoFJK, PRISM(SPDF).
 Compute integral first derivatives, UseDBF=F ICtDFT=           0.
 Calling FoFJK, ICntrl=      2127 FMM=F ISym2X=0 I1Cent= 0 IOpClX= 0 NMat=1 NMatS=1 NMatT=0.
 FoFJK:  IHMeth= 1 ICntrl=    2127 DoSepK=F KAlg= 0 I1Cent=           0 FoldK=F
 IRaf=         0 NMat=       1 IRICut=       1 DoRegI=T DoRafI=F ISym2E= 0 IDoP0=0 IntGTp=1.
 FoFCou: FMM=F IPFlag=           0 FMFlag=      100000 FMFlg1=         800
         NFxFlg=           0 DoJE=F BraDBF=F KetDBF=F FulRan=T
         wScrn=  0.000000 ICntrl=      2127 IOpCl=  0 I1Cent=           0 NGrid=           0
         NMat0=    1 NMatS0=      1 NMatT0=    0 NMatD0=    1 NMtDS0=    0 NMtDT0=    0
 Symmetry not used in FoFCou.
 Leave Link  703 at Sat Jun 15 07:04:11 2019, MaxMem=  6442450944 cpu:            1326.6 elap:              43.9
 (Enter /home/ekwan/sw/g16/l716.exe)
 Dipole        = 4.57739325D-01 1.43157120D+00 5.34144398D-02
 ***** Axes restored to original set *****
 -------------------------------------------------------------------
 Center     Atomic                   Forces (Hartrees/Bohr)
 Number     Number              X              Y              Z
 -------------------------------------------------------------------
      1        6           0.000000760    0.000002848   -0.000000218
      2        6           0.000017102   -0.000009047   -0.000002009
      3        6          -0.000016771   -0.000020484    0.000004502
      4        6          -0.000001906   -0.000002264   -0.000009651
      5        6          -0.000000051    0.000003499    0.000003119
      6        1           0.000004073    0.000002666    0.000000376
      7        1           0.000001742    0.000000862    0.000003401
      8        1          -0.000001590   -0.000001699   -0.000000577
      9        1          -0.000000448   -0.000000227    0.000001592
     10        1          -0.000000045    0.000000722   -0.000000634
     11        8          -0.000006003    0.000013588    0.000003001
     12        8           0.000003573   -0.000007761   -0.000005606
     13        8          -0.000016516    0.000005477    0.000006957
     14        8          -0.000000905    0.000002061    0.000002450
     15        8           0.000002582   -0.000002003    0.000000134
     16        6           0.000000981    0.000004024    0.000002869
     17        1          -0.000001712   -0.000000007    0.000000630
     18        1           0.000000851   -0.000000218   -0.000002655
     19        8          -0.000000208   -0.000003798   -0.000001494
     20       16           0.000014954    0.000008530   -0.000001718
     21        8          -0.000000859   -0.000001246    0.000006385
     22        8           0.000000526    0.000003798    0.000003066
     23        6           0.000004036    0.000005569   -0.000008977
     24        6          -0.000002466    0.000007971    0.000006266
     25        6          -0.000002238   -0.000000149    0.000001081
     26        6           0.000006596   -0.000007705    0.000001011
     27        1          -0.000000675   -0.000000347   -0.000003164
     28        6          -0.000005260    0.000001514    0.000003990
     29        1           0.000002846   -0.000004959   -0.000000159
     30        6          -0.000003381    0.000001491   -0.000006812
     31        1           0.000000626    0.000000555   -0.000000064
     32        6           0.000006612    0.000000992   -0.000005758
     33        1          -0.000001416   -0.000002501    0.000001471
     34        1          -0.000002506   -0.000000700    0.000000311
     35        1           0.000002916   -0.000000481    0.000002756
     36        6           0.000000244   -0.000000546   -0.000001652
     37        1          -0.000000368    0.000000489    0.000002754
     38        1          -0.000001128   -0.000000346    0.000001724
     39        1          -0.000000110    0.000000141    0.000002338
     40        6          -0.000001765    0.000001658   -0.000000174
     41        1          -0.000000649    0.000000509    0.000000315
     42        1          -0.000000146   -0.000000108    0.000000371
     43        1          -0.000000606   -0.000000144    0.000000018
     44        6          -0.000001267   -0.000000917   -0.000000366
     45        1           0.000000431   -0.000000173   -0.000000654
     46        1           0.000001364   -0.000000785   -0.000001220
     47        1           0.000000989   -0.000002090    0.000000003
     48        6          -0.000000867    0.000001439   -0.000005065
     49        9          -0.000001209   -0.000000848    0.000000546
     50        9          -0.000001877    0.000001300   -0.000000413
     51        9          -0.000000874    0.000002184    0.000000536
     52        6           0.000001460   -0.000002103    0.000002011
     53        9          -0.000000102   -0.000001164   -0.000001382
     54        9           0.000000780    0.000001675   -0.000001367
     55        9          -0.000000122   -0.000000743   -0.000004195
 -------------------------------------------------------------------
 Cartesian Forces:  Max     0.000020484 RMS     0.000004360
 Leave Link  716 at Sat Jun 15 07:04:11 2019, MaxMem=  6442450944 cpu:               2.9 elap:               0.1
 (Enter /home/ekwan/sw/g16/l103.exe)

 GradGradGradGradGradGradGradGradGradGradGradGradGradGradGradGradGradGrad
 Berny optimization.
 FormGI is forming the generalized inverse of G from B-inverse, IUseBI=4.
 Internal  Forces:  Max     0.000022331 RMS     0.000002886
 Search for a local minimum.
 Step number   1 out of a maximum of  291
 All quantities printed in internal units (Hartrees-Bohrs-Radians)
 RMS Force = .28863D-05 SwitMx=.10000D-02 MixMth= 2
 Mixed Optimization -- En-DIIS/RFO-DIIS
 Second derivative matrix not updated -- first step.
 ITU=  0
     Eigenvalues ---    0.00441   0.00565   0.00598   0.00620   0.00654
     Eigenvalues ---    0.00664   0.00922   0.01375   0.01467   0.01472
     Eigenvalues ---    0.01483   0.01486   0.01511   0.01522   0.01541
     Eigenvalues ---    0.01569   0.01604   0.01609   0.01653   0.02180
     Eigenvalues ---    0.02183   0.02189   0.02195   0.02198   0.02202
     Eigenvalues ---    0.02344   0.02879   0.03303   0.04333   0.04548
     Eigenvalues ---    0.04628   0.04821   0.04902   0.05237   0.05263
     Eigenvalues ---    0.05775   0.06057   0.06548   0.06970   0.07020
     Eigenvalues ---    0.07144   0.07824   0.09299   0.09999   0.10018
     Eigenvalues ---    0.10048   0.10074   0.10583   0.10597   0.10615
     Eigenvalues ---    0.10615   0.10717   0.10736   0.10784   0.10898
     Eigenvalues ---    0.10921   0.10960   0.11473   0.11805   0.11880
     Eigenvalues ---    0.14164   0.15040   0.16000   0.16000   0.16000
     Eigenvalues ---    0.16000   0.16000   0.16000   0.16000   0.16000
     Eigenvalues ---    0.16000   0.16000   0.16000   0.16000   0.16000
     Eigenvalues ---    0.16000   0.16000   0.16440   0.16890   0.17531
     Eigenvalues ---    0.18716   0.19759   0.19797   0.20851   0.22139
     Eigenvalues ---    0.23479   0.23482   0.23502   0.24966   0.24974
     Eigenvalues ---    0.25000   0.25000   0.25000   0.25000   0.25000
     Eigenvalues ---    0.25000   0.25000   0.25000   0.25000   0.25000
     Eigenvalues ---    0.25000   0.25000   0.25000   0.27087   0.27518
     Eigenvalues ---    0.28610   0.28718   0.29001   0.29932   0.31504
     Eigenvalues ---    0.31586   0.33697   0.33958   0.34000   0.34003
     Eigenvalues ---    0.34020   0.34029   0.34059   0.34089   0.34154
     Eigenvalues ---    0.34183   0.34360   0.34368   0.34419   0.34582
     Eigenvalues ---    0.34665   0.34677   0.34680   0.34831   0.34987
     Eigenvalues ---    0.35735   0.35736   0.35782   0.37187   0.38275
     Eigenvalues ---    0.42714   0.42817   0.42917   0.42979   0.43098
     Eigenvalues ---    0.43137   0.43431   0.43559   0.44114   0.45140
     Eigenvalues ---    0.46804   0.46904   0.46943   0.47018   0.47065
     Eigenvalues ---    0.47400   0.55088   0.56071   0.56564   0.56695
     Eigenvalues ---    0.56875   0.56921   0.92947   0.95081
 RFO step:  Lambda=-2.21229045D-08 EMin= 4.41109185D-03
 Linear search not attempted -- first point.
 Iteration  1 RMS(Cart)=  0.00031129 RMS(Int)=  0.00000002
 Iteration  2 RMS(Cart)=  0.00000004 RMS(Int)=  0.00000000
 ITry= 1 IFail=0 DXMaxC= 1.23D-03 DCOld= 1.00D+10 DXMaxT= 3.00D-01 DXLimC= 3.00D+00 Rises=F
 Variable       Old X    -DE/DX   Delta X   Delta X   Delta X     New X
                                 (Linear)    (Quad)   (Total)
    R1        2.89103   0.00000   0.00000   0.00000   0.00000   2.89103
    R2        2.89101   0.00000   0.00000   0.00000   0.00000   2.89101
    R3        2.07281   0.00000   0.00000   0.00000   0.00000   2.07281
    R4        2.66986   0.00000   0.00000   0.00000   0.00000   2.66986
    R5        2.90667   0.00000   0.00000   0.00001   0.00001   2.90668
    R6        2.07844   0.00000   0.00000   0.00000   0.00000   2.07845
    R7        2.65114  -0.00001   0.00000  -0.00002  -0.00002   2.65112
    R8        2.05695   0.00000   0.00000   0.00000   0.00000   2.05695
    R9        2.60894   0.00001   0.00000   0.00002   0.00002   2.60896
   R10        2.75565  -0.00001   0.00000  -0.00004  -0.00004   2.75561
   R11        2.89520   0.00000   0.00000   0.00001   0.00001   2.89520
   R12        2.07324   0.00000   0.00000   0.00000   0.00000   2.07325
   R13        2.72044  -0.00001   0.00000  -0.00002  -0.00002   2.72042
   R14        2.88099   0.00000   0.00000  -0.00001  -0.00001   2.88098
   R15        2.07022   0.00000   0.00000   0.00000   0.00000   2.07022
   R16        2.67141   0.00000   0.00000   0.00000   0.00000   2.67141
   R17        3.06284  -0.00002   0.00000  -0.00004  -0.00004   3.06280
   R18        2.67773   0.00001   0.00000   0.00002   0.00002   2.67774
   R19        2.67548   0.00000   0.00000   0.00000   0.00000   2.67549
   R20        2.67696   0.00000   0.00000   0.00000   0.00000   2.67696
   R21        2.06358   0.00000   0.00000   0.00000   0.00000   2.06359
   R22        2.07297   0.00000   0.00000   0.00000   0.00000   2.07297
   R23        2.66318  -0.00001   0.00000  -0.00001  -0.00001   2.66317
   R24        2.67501   0.00000   0.00000   0.00000   0.00000   2.67501
   R25        2.74376   0.00000   0.00000   0.00000   0.00000   2.74376
   R26        2.75304   0.00000   0.00000   0.00000   0.00000   2.75304
   R27        3.36905   0.00000   0.00000   0.00001   0.00001   3.36906
   R28        2.62930   0.00000   0.00000   0.00001   0.00001   2.62930
   R29        2.62903   0.00000   0.00000  -0.00001  -0.00001   2.62902
   R30        2.63168   0.00000   0.00000  -0.00001  -0.00001   2.63167
   R31        2.04497   0.00000   0.00000   0.00000   0.00000   2.04497
   R32        2.63084   0.00000   0.00000   0.00001   0.00001   2.63085
   R33        2.04423   0.00000   0.00000   0.00000   0.00000   2.04423
   R34        2.63235   0.00000   0.00000   0.00000   0.00000   2.63236
   R35        2.85062   0.00000   0.00000   0.00000   0.00000   2.85062
   R36        2.63278   0.00000   0.00000  -0.00001  -0.00001   2.63277
   R37        2.84909   0.00000   0.00000  -0.00001  -0.00001   2.84908
   R38        2.04499   0.00000   0.00000   0.00000   0.00000   2.04499
   R39        2.07071   0.00000   0.00000   0.00000   0.00000   2.07071
   R40        2.07231   0.00000   0.00000  -0.00001  -0.00001   2.07231
   R41        2.05951   0.00000   0.00000   0.00000   0.00000   2.05951
   R42        2.06203   0.00000   0.00000   0.00000   0.00000   2.06203
   R43        2.07329   0.00000   0.00000   0.00000   0.00000   2.07329
   R44        2.06629   0.00000   0.00000   0.00000   0.00000   2.06629
   R45        2.06198   0.00000   0.00000   0.00000   0.00000   2.06198
   R46        2.06728   0.00000   0.00000   0.00000   0.00000   2.06728
   R47        2.07181   0.00000   0.00000   0.00000   0.00000   2.07181
   R48        2.06222   0.00000   0.00000   0.00000   0.00000   2.06222
   R49        2.07401   0.00000   0.00000   0.00000   0.00000   2.07401
   R50        2.06714   0.00000   0.00000   0.00000   0.00000   2.06714
   R51        2.53656   0.00000   0.00000   0.00000   0.00000   2.53656
   R52        2.54192   0.00000   0.00000   0.00000   0.00000   2.54192
   R53        2.53768   0.00000   0.00000   0.00000   0.00000   2.53768
   R54        2.55054   0.00000   0.00000   0.00000   0.00000   2.55054
   R55        2.53463   0.00000   0.00000   0.00000   0.00000   2.53463
   R56        2.53503   0.00000   0.00000   0.00000   0.00000   2.53503
    A1        1.92132   0.00000   0.00000   0.00002   0.00002   1.92134
    A2        1.91148   0.00000   0.00000  -0.00003  -0.00003   1.91145
    A3        1.92593   0.00000   0.00000   0.00002   0.00002   1.92595
    A4        1.89346   0.00000   0.00000   0.00000   0.00000   1.89346
    A5        1.88491   0.00000   0.00000  -0.00001  -0.00001   1.88490
    A6        1.92634   0.00000   0.00000   0.00000   0.00000   1.92634
    A7        1.94190   0.00000   0.00000  -0.00001  -0.00001   1.94189
    A8        1.87741   0.00000   0.00000  -0.00001  -0.00001   1.87740
    A9        1.90801   0.00000   0.00000   0.00001   0.00001   1.90802
   A10        1.84257   0.00000   0.00000   0.00002   0.00002   1.84260
   A11        1.96585   0.00000   0.00000  -0.00004  -0.00004   1.96582
   A12        1.92534   0.00000   0.00000   0.00003   0.00003   1.92537
   A13        1.95011   0.00000   0.00000  -0.00003  -0.00003   1.95008
   A14        1.96877   0.00000   0.00000   0.00002   0.00002   1.96879
   A15        1.85832   0.00000   0.00000   0.00000   0.00000   1.85832
   A16        1.85957   0.00000   0.00000  -0.00003  -0.00003   1.85954
   A17        1.88358   0.00000   0.00000   0.00002   0.00002   1.88360
   A18        1.94298   0.00000   0.00000   0.00001   0.00001   1.94300
   A19        1.89566   0.00000   0.00000   0.00001   0.00001   1.89568
   A20        1.93735   0.00000   0.00000  -0.00001  -0.00001   1.93734
   A21        1.97196   0.00000   0.00000   0.00000   0.00000   1.97196
   A22        1.89948   0.00000   0.00000   0.00003   0.00003   1.89951
   A23        1.87063   0.00000   0.00000   0.00002   0.00002   1.87064
   A24        1.88652   0.00000   0.00000  -0.00004  -0.00004   1.88648
   A25        1.94446   0.00000   0.00000   0.00000   0.00000   1.94447
   A26        1.89746   0.00000   0.00000   0.00000   0.00000   1.89746
   A27        1.91969   0.00000   0.00000  -0.00002  -0.00002   1.91968
   A28        1.89444   0.00000   0.00000  -0.00001  -0.00001   1.89443
   A29        1.87490   0.00000   0.00000   0.00002   0.00002   1.87492
   A30        1.93301   0.00000   0.00000   0.00000   0.00000   1.93301
   A31        2.02218   0.00000   0.00000  -0.00001  -0.00001   2.02218
   A32        2.09739  -0.00002   0.00000  -0.00009  -0.00009   2.09730
   A33        2.00430   0.00000   0.00000   0.00000   0.00000   2.00430
   A34        2.00545   0.00000   0.00000   0.00000   0.00000   2.00545
   A35        2.00020   0.00000   0.00000  -0.00001  -0.00001   2.00019
   A36        1.86684   0.00000   0.00000   0.00005   0.00005   1.86689
   A37        1.90267   0.00000   0.00000  -0.00003  -0.00003   1.90264
   A38        2.01038  -0.00001   0.00000  -0.00005  -0.00005   2.01033
   A39        1.88834   0.00000   0.00000   0.00001   0.00001   1.88836
   A40        1.85597   0.00000   0.00000   0.00005   0.00005   1.85601
   A41        1.93446   0.00000   0.00000  -0.00002  -0.00002   1.93444
   A42        2.00977  -0.00001   0.00000  -0.00003  -0.00003   2.00974
   A43        1.82383   0.00000   0.00000  -0.00001  -0.00001   1.82382
   A44        1.90320   0.00000   0.00000  -0.00001  -0.00001   1.90319
   A45        1.81479   0.00000   0.00000   0.00001   0.00001   1.81480
   A46        2.11195   0.00001   0.00000   0.00004   0.00004   2.11199
   A47        1.89193   0.00000   0.00000  -0.00001  -0.00001   1.89192
   A48        1.89537   0.00000   0.00000  -0.00002  -0.00002   1.89535
   A49        2.07487   0.00000   0.00000  -0.00001  -0.00001   2.07486
   A50        2.07973   0.00001   0.00000   0.00002   0.00002   2.07975
   A51        2.12859   0.00000   0.00000  -0.00001  -0.00001   2.12858
   A52        2.06969   0.00000   0.00000   0.00001   0.00001   2.06970
   A53        2.10164   0.00000   0.00000  -0.00002  -0.00002   2.10162
   A54        2.11183   0.00000   0.00000   0.00001   0.00001   2.11184
   A55        2.06913   0.00000   0.00000   0.00001   0.00001   2.06914
   A56        2.10533  -0.00001   0.00000  -0.00004  -0.00004   2.10530
   A57        2.10870   0.00000   0.00000   0.00003   0.00003   2.10873
   A58        2.10296   0.00000   0.00000   0.00000   0.00000   2.10295
   A59        2.08867   0.00001   0.00000   0.00002   0.00002   2.08870
   A60        2.09062  -0.00001   0.00000  -0.00002  -0.00002   2.09060
   A61        2.10384   0.00000   0.00000   0.00000   0.00000   2.10384
   A62        2.08472   0.00000   0.00000   0.00000   0.00000   2.08472
   A63        2.09349   0.00000   0.00000   0.00000   0.00000   2.09349
   A64        2.09210   0.00000   0.00000   0.00000   0.00000   2.09210
   A65        2.09551   0.00000   0.00000   0.00000   0.00000   2.09551
   A66        2.09557   0.00000   0.00000   0.00001   0.00001   2.09557
   A67        1.96014   0.00000   0.00000  -0.00002  -0.00002   1.96012
   A68        1.93955   0.00000   0.00000   0.00001   0.00001   1.93956
   A69        1.85822   0.00000   0.00000  -0.00001  -0.00001   1.85821
   A70        1.90333   0.00000   0.00000   0.00000   0.00000   1.90333
   A71        1.89547   0.00000   0.00000   0.00001   0.00001   1.89547
   A72        1.90567   0.00000   0.00000   0.00000   0.00000   1.90568
   A73        1.85804   0.00000   0.00000   0.00000   0.00000   1.85804
   A74        1.94149   0.00000   0.00000   0.00000   0.00000   1.94149
   A75        1.95117   0.00000   0.00000   0.00001   0.00001   1.95118
   A76        1.89925   0.00000   0.00000  -0.00001  -0.00001   1.89925
   A77        1.90737   0.00000   0.00000   0.00000   0.00000   1.90737
   A78        1.90523   0.00000   0.00000  -0.00001  -0.00001   1.90522
   A79        1.85893   0.00000   0.00000   0.00000   0.00000   1.85893
   A80        1.94476   0.00000   0.00000   0.00000   0.00000   1.94476
   A81        1.94253   0.00000   0.00000   0.00000   0.00000   1.94253
   A82        1.90688   0.00000   0.00000   0.00000   0.00000   1.90688
   A83        1.90233   0.00000   0.00000   0.00000   0.00000   1.90233
   A84        1.90726   0.00000   0.00000   0.00000   0.00000   1.90726
   A85        1.86045   0.00000   0.00000   0.00000   0.00000   1.86045
   A86        1.93936   0.00000   0.00000   0.00001   0.00001   1.93937
   A87        1.96037   0.00000   0.00000  -0.00002  -0.00002   1.96035
   A88        1.90050   0.00000   0.00000   0.00001   0.00001   1.90050
   A89        1.90534   0.00000   0.00000   0.00001   0.00001   1.90535
   A90        1.89666   0.00000   0.00000   0.00000   0.00000   1.89665
   A91        1.94820   0.00000   0.00000   0.00001   0.00001   1.94821
   A92        1.93993   0.00000   0.00000   0.00000   0.00000   1.93993
   A93        1.94734   0.00000   0.00000   0.00000   0.00000   1.94733
   A94        1.87233   0.00000   0.00000   0.00000   0.00000   1.87233
   A95        1.88097   0.00000   0.00000   0.00000   0.00000   1.88096
   A96        1.87129   0.00000   0.00000  -0.00001  -0.00001   1.87128
   A97        1.93651   0.00000   0.00000  -0.00001  -0.00001   1.93650
   A98        1.95214   0.00000   0.00000   0.00001   0.00001   1.95215
[...]
 00030,-0.00000183,-0.00002529,0.00000214,-0.00013809,-0.00011762,-0.00
 007583,-0.00000082,0.00001238,0.00001174,0.00004418,0.00000485,0.00000
 173,-0.00000905,0.00000904,0.00000147,-0.00060573,0.00006431,0.0002789
 4,0.00010851,0.00005639,-0.00003470,-0.00029321,-0.00028048,0.00023252
 ,0.00020029,-0.00005942,-0.00006695,0.00090564,0.00223347,-0.00154362,
 -0.00008844,-0.00048264,0.00047567,-0.00065049,-0.00068052,0.00023756,
 -0.00033260,-0.00029854,0.00058368,-0.01159344,-0.03523698,0.54819974,
 0.00001691,-0.00011433,-0.00004985,0.00003258,0.00000747,-0.00005487,-
 0.00003231,-0.00058498,-0.00000037,-0.00019782,-0.00034440,-0.00033310
 ,0.00008594,0.00013455,0.00015183,-0.00000781,0.00002923,0.00000523,0.
 00002101,0.00000453,0.00000525,-0.00000483,0.00001235,-0.00000594,-0.0
 0000170,0.00002538,-0.00000782,0.00002552,-0.00001376,-0.00000359,-0.0
 0011192,0.00037292,0.00020661,0.00048579,0.00035231,0.00001601,-0.0000
 4722,0.00007648,0.00004708,-0.00011160,0.00009715,-0.00002571,-0.00010
 010,0.00001771,-0.00005930,0.00142926,0.00037832,0.00037262,-0.0001689
 0,0.00003706,-0.00011100,-0.00106520,0.00007088,-0.00038294,-0.0008286
 4,-0.00020980,-0.00024579,-0.00083037,0.00004388,0.00026035,0.00019981
 ,-0.00019158,-0.00003642,0.00018911,-0.00000249,-0.00012151,0.00081025
 ,-0.00094051,0.00046657,0.00043297,-0.00008166,-0.00052464,-0.00097731
 ,-0.00095363,0.00077752,-0.00028353,0.00032091,-0.00008022,-0.00000823
 ,-0.00003235,-0.00002612,0.00778879,-0.00534580,-0.00368196,-0.0001755
 7,-0.00015927,-0.00023003,0.00024889,0.00042832,0.00070470,-0.00005933
 ,0.00018694,-0.00040444,0.00000544,-0.00000259,-0.00003443,0.00000126,
 -0.00000588,0.00000766,0.00000259,-0.00000055,0.00000499,-0.00000568,0
 .00000581,0.00000487,0.00001499,-0.00005817,0.00003784,-0.00000954,0.0
 0000725,-0.00000569,0.00000326,0.00000605,-0.00000778,-0.00000333,0.00
 001393,0.00000023,0.00006957,0.00003583,0.00005409,-0.00000337,-0.0000
 0371,-0.00001683,-0.00002054,-0.00000353,-0.00000275,0.00000871,0.0000
 0956,0.00000660,0.00092799,-0.00029683,0.00031108,-0.00017960,-0.00003
 997,-0.00001365,-0.00088782,0.00021465,-0.00002234,-0.00012681,0.00002
 482,0.00003107,0.00000034,0.00006907,-0.00038237,0.00005685,-0.0000682
 8,0.00013924,-0.00005105,-0.00005311,0.00007220,-0.00002107,0.00000760
 ,0.00011516,-0.11101875,-0.06862594,-0.02782619,0.16429464,-0.00006641
 ,-0.00011365,-0.00011757,-0.00012279,0.00014293,-0.00007002,-0.0004278
 9,-0.00112798,0.00027336,-0.00025147,-0.00044318,-0.00046918,0.0000203
 6,0.00007183,0.00004312,-0.00002084,0.00005108,-0.00000745,0.00008958,
 0.00000477,0.00001638,-0.00000565,0.00002416,-0.00001669,-0.00000322,0
 .00003893,-0.00004062,0.00004921,-0.00000499,0.00000404,0.00019794,0.0
 0065517,0.00033836,0.00170213,0.00065544,-0.00005398,0.00009279,0.0000
 1432,-0.00002600,0.00003912,0.00007066,0.00004567,-0.00000686,0.000106
 19,0.00007904,0.00093884,0.00007139,0.00044522,-0.00006212,0.00004657,
 -0.00005189,0.00058080,-0.00070219,0.00029958,-0.00049367,0.00024055,-
 0.00034094,-0.00361166,0.00158237,0.00155004,0.00084367,-0.00114026,-0
 .00022362,0.00088205,-0.00031324,-0.00089492,0.00159432,-0.00022362,0.
 00158733,0.00015770,-0.00116834,0.00030426,-0.00264303,-0.00048230,0.0
 0231151,0.00167863,-0.00003945,0.00198241,-0.00018672,-0.00005820,-0.0
 0016036,-0.02220647,-0.04373363,-0.01282300,-0.00077598,-0.00051202,-0
 .00080350,0.00265957,-0.00174080,-0.00270849,-0.00095696,-0.00048415,-
 0.00063642,-0.00006045,0.00000148,0.00005818,0.00000059,-0.00000186,0.
 00001059,0.00001829,0.00001543,-0.00000718,0.00000150,-0.00000446,-0.0
 0000277,-0.00001610,-0.00000571,0.00000762,0.00000728,0.00000286,0.000
 00105,0.00000038,-0.00000506,-0.00000328,-0.00000746,0.00000553,0.0000
 0295,-0.00000175,-0.00006610,0.00001009,0.00000465,0.00000202,-0.00000
 025,-0.00000608,0.00000702,-0.00000119,0.00001264,0.00002869,-0.000001
 80,0.00109857,-0.00029063,0.00051413,-0.00016255,-0.00001441,-0.000024
 51,-0.00010238,0.00033213,-0.00028351,-0.00020701,0.00002244,0.0000264
 4,0.00183139,0.00077544,-0.00239250,-0.00009637,-0.00062758,0.00102921
 ,-0.00076101,-0.00052699,0.00037771,-0.00049046,0.00018254,0.00081793,
 -0.07158921,-0.20309020,-0.04934181,0.12423399,0.24611813,0.00001449,-
 0.00007147,-0.00003921,0.00003048,-0.00001737,-0.00003237,0.00003135,-
 0.00018562,-0.00006875,-0.00011526,-0.00023166,-0.00028026,0.00006064,
 0.00009467,0.00009512,-0.00001591,0.00002443,0.00001116,-0.00000396,0.
 00000116,0.00000170,-0.00000164,0.00000296,0.00000091,0.00000051,-0.00
 000273,0.00001234,0.00000556,-0.00001160,-0.00000274,-0.00008612,0.000
 17115,0.00018676,0.00002147,0.00009848,0.00009207,-0.00004015,0.000046
 50,0.00005658,-0.00007950,0.00005997,-0.00000890,-0.00007166,0.0000077
 7,-0.00001789,0.00091904,0.00037196,0.00030010,-0.00007836,0.00001214,
 -0.00004125,-0.00047074,-0.00003708,-0.00028630,-0.00048218,-0.0002179
 8,0.00010944,-0.00002320,-0.00013476,-0.00044374,0.00000553,0.00005388
 ,0.00007663,0.00002036,-0.00001568,0.00016709,-0.00033559,0.00033721,-
 0.00055607,-0.00053287,0.00026124,0.00037119,0.00115597,0.00051838,-0.
 00024144,-0.00004485,-0.00083999,0.00058530,-0.00000059,-0.00001811,0.
 00002362,-0.00098923,0.00363070,0.01086951,-0.00022551,0.00030353,0.00
 001587,0.00029994,-0.00091031,-0.00046572,-0.00004525,-0.00003581,-0.0
 0004556,0.00000952,-0.00000089,-0.00004953,0.00000557,-0.00000147,0.00
 000801,-0.00000288,-0.00000272,0.00000414,-0.00000314,0.00000275,0.000
 00542,0.00001129,-0.00003506,0.00001837,-0.00000729,0.00000438,-0.0000
 0433,0.00000116,0.00000328,-0.00000206,-0.00000178,0.00000998,-0.00000
 017,0.00004946,0.00002755,0.00003298,0.00000018,-0.00000362,-0.0000065
 1,-0.00001636,-0.00000086,-0.00000124,0.00000646,0.00000407,0.00000058
 ,0.00037101,-0.00002811,-0.00002826,-0.00006070,-0.00002619,0.00001827
 ,0.00019290,0.00010155,-0.00023128,-0.00008862,0.00002016,0.00003495,0
 .00007941,-0.00017798,-0.00009531,0.00001801,-0.00003668,0.00009774,0.
 00001821,0.00004351,0.00002171,-0.00000905,0.00007029,0.00004424,-0.02
 804349,-0.04727111,-0.09091457,0.06531477,0.09577959,0.12527049,0.0000
 9164,-0.00004927,0.00005808,0.00015882,-0.00014088,-0.00000460,0.00030
 562,0.00018193,-0.00022634,0.00001897,-0.00002096,0.00010872,0.0000955
 7,0.00007709,0.00015601,0.00001672,-0.00001448,0.00000929,-0.00004927,
 0.00000447,-0.00001054,-0.00000264,-0.00000182,0.00000271,0.00000262,0
 .00000289,0.00001621,-0.00000069,-0.00001113,-0.00001083,-0.00031403,-
 0.00005337,-0.00008166,-0.00085132,-0.00012406,0.00003540,-0.00014987,
 0.00010692,0.00007810,-0.00018777,0.00007574,-0.00008782,-0.00012342,-
 0.00005765,-0.00016189,0.00065307,0.00020238,0.00020946,-0.00007647,0.
 00000001,-0.00006861,0.00006533,-0.00006777,0.00014455,-0.00037752,-0.
 00013791,-0.00012790,0.00204778,-0.00109094,-0.00104794,-0.00059004,0.
 00113376,0.00009474,-0.00049390,0.00028760,0.00060746,-0.00089151,0.00
 067705,0.00137089,0.00001244,0.00022182,-0.00044990,0.00012322,0.00427
 628,-0.00482927,0.00044772,0.00101693,-0.00053360,0.00007061,-0.000082
 26,-0.00011974,-0.03017617,0.01220650,0.00568370,0.00038381,-0.0006703
 0,-0.00019791,-0.00142671,-0.00094866,0.00379322,0.00054846,0.00016399
 ,-0.00216627,0.00006143,-0.00000932,-0.00008953,-0.00000165,-0.0000096
 9,-0.00000061,-0.00000926,-0.00001313,0.00001426,-0.00001151,0.0000147
 5,0.00000799,0.00003918,-0.00008523,0.00005099,-0.00001920,0.00000736,
 -0.00000872,0.00000474,0.00001373,-0.00001092,0.00000194,0.00001472,-0
 .00000074,0.00008979,0.00008865,0.00006188,-0.00000687,-0.00000752,-0.
 00002277,-0.00002211,-0.00000936,-0.00000139,-0.00000079,-0.00000689,0
 .00000780,0.00046483,-0.00007935,0.00016764,-0.00010614,-0.00004827,-0
 .00001437,-0.00001208,0.00020995,-0.00007386,-0.00002462,0.00001616,-0
 .00000171,-0.00132646,-0.00032341,0.00120991,0.00014096,0.00025730,-0.
 00044051,0.00058972,0.00034610,-0.00018785,0.00038176,-0.00015438,-0.0
 0044835,-0.25841472,0.06306795,0.01615952,-0.06931977,-0.02583304,-0.0
 1155348,0.38718632,-0.00006187,-0.00002561,-0.00006702,-0.00011325,0.0
 0011340,-0.00002870,-0.00029808,-0.00056354,0.00021545,-0.00011088,-0.
 00016590,-0.00021450,-0.00002980,-0.00000133,-0.00004353,-0.00001266,0
 .00002348,-0.00000945,0.00005773,0.00000141,0.00001114,-0.00000134,0.0
 0001079,-0.00000904,-0.00000237,0.00001611,-0.00002696,0.00001985,0.00
 000320,0.00000600,0.00018859,0.00029276,0.00015605,0.00103943,0.000324
 52,-0.00004226,0.00009700,-0.00003411,-0.00004619,0.00008794,-0.000000
 51,0.00004996,0.00004477,0.00006374,0.00009014,0.00013917,-0.00007327,
 0.00007469,-0.00000409,0.00001866,0.00000163,0.00003647,-0.00013486,0.
 00003175,-0.00005842,0.00012660,-0.00007985,-0.00257300,0.00083869,0.0
 0108075,0.00074726,-0.00103679,-0.00010863,0.00058491,-0.00018186,-0.0
 0068676,0.00057196,-0.00193456,-0.00113690,0.00067089,-0.00058391,-0.0
 0002640,0.00005174,-0.00290219,0.00513064,0.00003365,-0.00009411,-0.00
 035970,0.00001460,0.00003701,0.00002121,0.03906410,-0.00627495,-0.0035
 4537,0.00010776,0.00052822,0.00016940,0.00109754,-0.00087945,-0.000070
 60,0.00085275,-0.00104683,0.00091761,-0.00004843,0.00000391,0.00006402
 ,-0.00000027,0.00000231,0.00000362,0.00001192,0.00001176,-0.00000838,0
 .00000464,-0.00000707,-0.00000472,-0.00002134,0.00002957,-0.00001543,0
 .00001035,-0.00000163,0.00000391,-0.00000145,-0.00000715,0.00000238,-0
 .00000378,-0.00000361,0.00000159,-0.00003548,-0.00005945,-0.00001951,0
 .00000421,0.00000369,0.00000806,0.00000649,0.00000593,0.00000009,0.000
 00490,0.00001381,-0.00000333,0.00017949,-0.00006429,0.00009459,-0.0000
 1339,0.00001231,-0.00000476,0.00000402,0.00004860,-0.00004234,-0.00004
 713,-0.00000068,0.00000933,0.00103437,0.00059212,-0.00146109,-0.000049
 49,-0.00030886,0.00051058,-0.00048850,-0.00033384,0.00024032,-0.000323
 65,0.00009320,0.00050655,0.05737474,-0.09637089,-0.00062509,-0.0420810
 3,0.00816879,-0.00271844,-0.06146421,0.08972493,0.00001512,-0.00000306
 ,0.00000150,0.00002430,-0.00003260,0.00000245,0.00006978,0.00014521,-0
 .00008686,0.00001879,-0.00000117,-0.00002904,0.00001263,0.00000909,0.0
 0001147,-0.00000628,0.00000293,0.00000671,-0.00001793,-0.00000085,-0.0
 0000245,0.00000053,-0.00000336,0.00000379,0.00000048,-0.00000991,0.000
 01335,-0.00000564,-0.00000340,-0.00000118,-0.00003947,-0.00004465,0.00
 002935,-0.00030685,-0.00008123,0.00006403,-0.00002607,0.00001259,0.000
 03107,-0.00002633,0.00000674,-0.00000362,-0.00001943,-0.00000789,-0.00
 000344,0.00008649,0.00006226,-0.00000209,0.00000469,-0.00000331,0.0000
 0812,0.00001837,-0.00001367,0.00001978,-0.00004944,-0.00005299,0.00007
 137,0.00063483,-0.00023873,-0.00055301,-0.00017190,0.00027531,0.000082
 72,-0.00013585,0.00001333,0.00028393,-0.00082826,0.00045305,0.00046507
 ,-0.00015496,0.00026065,-0.00001888,0.00017687,0.00164885,-0.00148287,
 -0.00060485,-0.00028410,0.00062915,-0.00005797,0.00003744,0.00006169,-
 0.00862245,0.00456353,0.01052115,-0.00032040,0.00031444,0.00007504,-0.
 00027748,0.00071179,-0.00201015,-0.00150569,0.00104118,0.00058172,0.00
 001070,-0.00000096,-0.00003359,0.00000395,0.00000042,0.00000294,-0.000
 00427,-0.00000317,0.00000253,-0.00000102,0.00000104,0.00000273,0.00000
 586,-0.00000801,0.00000091,-0.00000296,0.00000057,-0.00000150,-0.00000
 027,0.00000107,0.00000106,0.00000046,0.00000256,-0.00000025,0.00001348
 ,0.00001187,0.00000544,0.00000089,-0.00000140,0.00000050,-0.00000485,0
 .00000006,0.00000008,0.00000111,-0.00000157,-0.00000113,0.00003380,-0.
 00000135,-0.00005222,-0.00000495,-0.00000396,0.00000527,0.00003411,0.0
 0002620,-0.00002342,-0.00002265,0.00000710,0.00000818,-0.00017516,-0.0
 0044359,0.00036440,-0.00002415,0.00012913,-0.00014339,0.00014534,0.000
 14260,-0.00004793,0.00004769,0.00007568,-0.00010787,0.02109702,-0.0025
 5763,-0.07780205,-0.01745935,-0.00241411,0.01152957,-0.05049577,0.0090
 3382,0.08740350,0.00002231,-0.00001280,0.00002003,0.00003785,-0.000028
 41,-0.00000640,0.00006458,-0.00004964,-0.00001864,0.00000188,0.0000032
 0,0.00007337,0.00002447,0.00001440,0.00003674,0.00001291,-0.00000564,-
 0.00000234,-0.00000421,0.00000240,-0.00000181,-0.00000124,0.00000146,-
 0.00000192,0.00000116,0.00000657,-0.00000531,0.00000337,-0.00000136,-0
 .00000254,-0.00007918,0.00001826,-0.00004769,-0.00009548,0.00003792,-0
 .00002287,-0.00003578,0.00003118,0.00001009,-0.00004604,0.00002133,-0.
 00002641,-0.00003017,-0.00001268,-0.00004827,0.00011033,0.00000552,0.0
 0005192,-0.00001858,0.00000051,-0.00002183,0.00001448,-0.00000866,0.00
 003711,-0.00007257,0.00000200,-0.00008893,0.00024642,-0.00041792,0.000
 05872,-0.00002261,0.00015620,-0.00003603,-0.00008251,0.00011537,0.0000
 1304,0.00046598,-0.00048232,-0.00044570,0.00005585,0.00014918,-0.00012
 184,-0.00179373,0.00075358,-0.00033547,0.00032071,0.00001224,-0.000753
 75,0.00007307,0.00002927,-0.00005118,0.01046498,0.00173614,-0.00386135
 ,0.00058674,0.00050286,-0.00121476,-0.00073076,0.00140827,0.00000175,0
 .00019577,0.00031334,-0.00034257,0.00001357,-0.00000317,-0.00001192,-0
 .00000235,-0.00000411,-0.00000139,-0.00000009,-0.00000226,0.00000355,-
 0.00000370,0.00000461,0.00000096,0.00001016,-0.00002407,0.00001550,-0.
 00000452,0.00000202,-0.00000203,0.00000154,0.00000374,-0.00000407,0.00
 000033,0.00000359,0.00000023,0.00002098,0.00002022,0.00001550,-0.00000
 207,-0.00000186,-0.00000686,-0.00000483,-0.00000268,-0.00000022,-0.000
 00069,-0.00000082,0.00000251,0.00010998,-0.00002142,0.00008330,-0.0000
 2995,-0.00001626,-0.00001200,-0.00003341,0.00005591,0.00002309,0.00002
 225,0.00000199,-0.00000714,-0.00034277,-0.00001990,0.00020192,0.000033
 17,0.00007776,-0.00013467,0.00013108,0.00007500,-0.00003218,0.00008208
 ,-0.00004214,-0.00007540,-0.07732695,0.00024620,0.02479060,0.00950728,
 -0.00756039,-0.02521394,-0.02901658,0.00370068,0.05891535,0.08714549,-
 0.00004401,-0.00002890,-0.00004780,-0.00008079,0.00007851,-0.00001968,
 -0.00024406,-0.00047637,0.00016003,-0.00009523,-0.00014657,-0.00015339
 ,-0.00001690,0.00000735,-0.00001619,-0.00000845,0.00001501,-0.00000695
 ,0.00004523,0.00000232,0.00000752,-0.00000175,0.00001035,-0.00000864,-
 0.00000245,0.00001875,-0.00002430,0.00001949,0.00000234,0.00000365,0.0
 0013819,0.00025754,0.00011055,0.00081987,0.00023243,-0.00003110,0.0000
 6742,-0.00001531,-0.00003583,0.00005568,0.00000994,0.00002985,0.000027
 54,0.00005046,0.00005391,0.00016920,-0.00006364,0.00010141,-0.00001517
 ,0.00001631,-0.00001143,0.00006304,-0.00012497,0.00001246,-0.00008582,
 0.00011646,-0.00011604,-0.00184000,0.00102984,0.00063912,0.00041626,-0
 .00056588,-0.00007295,0.00047183,-0.00019862,-0.00047755,-0.00060749,0
 .00014179,-0.00003640,-0.00023334,-0.00042123,0.00086022,0.00078556,-0
 .00107602,0.00096701,-0.00116184,-0.00168396,0.00086171,-0.00001149,0.
 00003120,0.00004846,-0.00405967,0.00128192,0.03530669,0.00026083,-0.00
 112796,0.00131817,0.00424463,-0.00286568,0.00018566,0.00013364,0.00037
 864,0.00019013,-0.00003643,0.00000164,0.00004924,-0.00000154,0.0000001
 0,0.00000266,0.00001038,0.00000920,-0.00000566,0.00000249,-0.00000404,
 -0.00000355,-0.00001438,0.00001419,-0.00000524,0.00000709,-0.00000040,
 0.00000248,-0.00000043,-0.00000433,-0.00000031,-0.00000318,-0.00000159
 ,0.00000143,-0.00002224,-0.00004356,-0.00000955,0.00000229,0.00000245,
 0.00000321,0.00000403,0.00000381,-0.00000014,0.00000369,0.00001191,-0.
 00000143,0.00019407,-0.00006010,0.00011411,-0.00002213,0.00000507,-0.0
 0000763,-0.00002319,0.00004322,-0.00001963,-0.00003368,-0.00000070,0.0
 0000462,0.00120969,0.00016495,-0.00160830,-0.00000830,-0.00035722,0.00
 065034,-0.00062325,-0.00035288,0.00026482,-0.00030276,0.00010732,0.000
 46373,0.00140984,-0.08165145,0.02489200,-0.00701085,-0.00251786,-0.049
 02992,0.00684325,0.01198174,-0.01277384,-0.00079441,0.07776247,0.00005
 952,-0.00003077,-0.00000160,0.00009955,-0.00009660,-0.00000703,0.00026
 950,0.00032504,-0.00029429,0.00004532,-0.00004115,-0.00012732,0.000065
 36,0.00005236,0.00007805,-0.00002036,0.00001272,0.00002323,-0.00005513
 ,-0.00000245,-0.00000593,0.00000104,-0.00000988,0.00001250,0.00000295,
 -0.00003322,0.00004836,-0.00001819,-0.00001370,-0.00000592,-0.00023384
 ,-0.00008424,0.00012384,-0.00088009,-0.00014266,0.00020390,-0.00010580
 ,0.00006063,0.00011453,-0.00011666,0.00003987,-0.00002074,-0.00009023,
 -0.00003252,-0.00003969,0.00055291,0.00028503,0.00009596,-0.00002160,-
 0.00000857,0.00000234,0.00011404,-0.00007491,0.00001937,-0.00029374,-0
 .00023106,0.00023031,0.00203445,-0.00102739,-0.00159931,-0.00051914,0.
 00069675,0.00024175,-0.00045330,0.00010849,0.00092785,-0.00010973,0.00
 129505,0.00052819,-0.00033809,0.00032970,-0.00018388,0.00331196,-0.001
 51805,-0.00117568,0.00180000,0.00067890,-0.00125779,-0.00013428,-0.000
 07072,0.00004241,0.00720830,0.00623056,-0.03813765,-0.00201395,0.00069
 104,0.00010183,-0.00510715,0.00540635,-0.00031699,-0.00030225,-0.00068
 657,0.00043858,0.00003964,-0.00000314,-0.00012256,0.00001319,0.,0.0000
 1105,-0.00001464,-0.00001156,0.00000990,-0.00000466,0.00000481,0.00001
 052,0.00002367,-0.00003927,0.00001189,-0.00001265,0.00000344,-0.000006
 24,0.00000009,0.00000549,0.00000199,0.00000123,0.00001136,-0.00000135,
 0.00006271,0.00005638,0.00003260,0.00000075,-0.00000559,-0.00000378,-0
 .00002041,-0.00000203,-0.00000080,0.00000400,-0.00000587,-0.00000130,0
 .00018899,-0.00000088,-0.00017940,-0.00003888,-0.00002387,0.00001809,0
 .00008459,0.00007235,-0.00008815,-0.00008889,0.00002814,0.00003010,-0.
 00154555,-0.00052441,0.00169237,-0.00001300,0.00055880,-0.00088835,0.0
 0076479,0.00050219,-0.00022225,0.00030552,0.00001895,-0.00048983,0.020
 42370,0.03105705,-0.27298251,-0.01695655,-0.03399827,-0.05619841,0.043
 42683,-0.00703033,-0.02988364,-0.05139585,-0.00278176,0.39919084\\-0.0
 0000063,-0.00000279,0.00000030,-0.00001704,0.00000898,0.00000200,0.000
 01690,0.00002081,-0.00000456,0.00000194,0.00000230,0.00000966,0.000000
 07,-0.00000350,-0.00000312,-0.00000410,-0.00000272,-0.00000038,-0.0000
 0178,-0.00000087,-0.00000340,0.00000155,0.00000167,0.00000058,0.000000
 43,0.00000020,-0.00000158,0.00000003,-0.00000074,0.00000064,0.00000595
 ,-0.00001364,-0.00000303,-0.00000357,0.00000772,0.00000565,0.00001652,
 -0.00000549,-0.00000694,0.00000087,-0.00000206,-0.00000246,-0.00000259
 ,0.00000199,-0.00000016,-0.00000101,-0.00000406,-0.00000285,0.00000172
 ,0.,-0.00000063,-0.00000084,0.00000022,0.00000266,0.00000021,0.0000038
 0,0.00000148,-0.00001529,-0.00000857,0.00000167,0.00000093,0.00000120,
 -0.00000634,-0.00000047,-0.00000379,-0.00000304,-0.00000415,-0.0000054
 4,0.00000901,0.00000264,-0.00000799,-0.00000644,0.00000231,0.,-0.00000
 103,-0.00000659,0.00000751,-0.00000085,0.00000065,0.00000037,0.0000031
 8,0.00000540,-0.00000142,-0.00000422,-0.00000288,0.00000496,0.00000021
 ,0.00000328,-0.00000139,0.00000683,-0.00000065,-0.00000054,0.00000008,
 -0.00000660,-0.00000099,0.00000574,0.00000141,0.00000250,-0.00000147,0
 .00000250,0.00000070,-0.00000031,-0.00000292,0.00000048,-0.00000275,-0
 .00000028,0.00000061,0.00000162,0.00000037,-0.00000050,-0.00000275,0.0
 0000113,0.00000033,-0.00000171,0.00000012,-0.00000016,-0.00000233,0.00
 000179,-0.00000165,0.00000018,0.00000065,-0.00000051,-0.00000031,0.000
 00013,0.00000011,-0.00000037,0.00000060,0.00000014,-0.00000002,0.00000
 127,0.00000093,0.00000030,-0.00000043,0.00000016,0.00000067,-0.0000013
 6,0.00000078,0.00000124,-0.00000099,0.00000210,0.00000002,0.00000081,-
 0.00000146,0.00000516,0.00000116,0.00000091,-0.00000062,0.00000195,-0.
 00000125,0.00000042,0.00000091,-0.00000224,-0.00000059,-0.00000152,0.0
 0000209,-0.00000207,0.00000008,0.00000112,0.00000136,-0.00000069,-0.00
 000169,0.00000136,0.00000011,0.00000074,0.00000433\\\@


 EDUCATION DOESN'T COST 
           ... IT PAYS!

 -- POSTMARK, UNIV. OF MISSISSIPPI, DEC 78
 Job cpu time:       0 days 23 hours 14 minutes 11.3 seconds.
 Elapsed time:       0 days  0 hours 45 minutes 42.3 seconds.
 File lengths (MBytes):  RWF=   2334 Int=      0 D2E=      0 Chk=     41 Scr=      1
 Normal termination of Gaussian 16 at Sat Jun 15 07:50:13 2019.
