 Entering Gaussian System, Link 0=g16
 Input=clay_new-glu_gluC6-BCDR-Na2_1Me2O-bisCF3-ts-mpw3pbe-custom-pcm_thf.gjf
 Output=clay_new-glu_gluC6-BCDR-Na2_1Me2O-bisCF3-ts-mpw3pbe-custom-pcm_thf.out
 Initial command:
 /n/sw/g16_nehalem/g16/l1.exe "/scratch/Gau-50444.inp" -scrdir="/scratch/"
 Entering Link 1 = /n/sw/g16_nehalem/g16/l1.exe PID=     50445.
  
 Copyright (c) 1988,1990,1992,1993,1995,1998,2003,2009,2016,
            Gaussian, Inc.  All Rights Reserved.
  
 This is part of the Gaussian(R) 16 program.  It is based on
 the Gaussian(R) 09 system (copyright 2009, Gaussian, Inc.),
 the Gaussian(R) 03 system (copyright 2003, Gaussian, Inc.),
 the Gaussian(R) 98 system (copyright 1998, Gaussian, Inc.),
 the Gaussian(R) 94 system (copyright 1995, Gaussian, Inc.),
 the Gaussian 92(TM) system (copyright 1992, Gaussian, Inc.),
 the Gaussian 90(TM) system (copyright 1990, Gaussian, Inc.),
 the Gaussian 88(TM) system (copyright 1988, Gaussian, Inc.),
 the Gaussian 86(TM) system (copyright 1986, Carnegie Mellon
 University), and the Gaussian 82(TM) system (copyright 1983,
 Carnegie Mellon University). Gaussian is a federally registered
 trademark of Gaussian, Inc.
  
 This software contains proprietary and confidential information,
 including trade secrets, belonging to Gaussian, Inc.
  
 This software is provided under written license and may be
 used, copied, transmitted, or stored only in accord with that
 written license.
  
 The following legend is applicable only to US Government
 contracts under FAR:
  
                    RESTRICTED RIGHTS LEGEND
  
 Use, reproduction and disclosure by the US Government is
 subject to restrictions as set forth in subparagraphs (a)
 and (c) of the Commercial Computer Software - Restricted
 Rights clause in FAR 52.227-19.
  
 Gaussian, Inc.
 340 Quinnipiac St., Bldg. 40, Wallingford CT 06492
  
  
 ---------------------------------------------------------------
 Warning -- This program may not be used in any manner that
 competes with the business of Gaussian, Inc. or will provide
 assistance to any competitor of Gaussian, Inc.  The licensee
 of this program is prohibited from giving any competitor of
 Gaussian, Inc. access to this program.  By using this program,
 the user acknowledges that Gaussian, Inc. is engaged in the
 business of creating and licensing software in the field of
 computational chemistry and represents and warrants to the
 licensee that it is not a competitor of Gaussian, Inc. and that
 it will not use this program in any manner prohibited above.
 ---------------------------------------------------------------
  

 Cite this work as:
 Gaussian 16, Revision A.03,
 M. J. Frisch, G. W. Trucks, H. B. Schlegel, G. E. Scuseria, 
 M. A. Robb, J. R. Cheeseman, G. Scalmani, V. Barone, 
 G. A. Petersson, H. Nakatsuji, X. Li, M. Caricato, A. V. Marenich, 
 J. Bloino, B. G. Janesko, R. Gomperts, B. Mennucci, H. P. Hratchian, 
 J. V. Ortiz, A. F. Izmaylov, J. L. Sonnenberg, D. Williams-Young, 
 F. Ding, F. Lipparini, F. Egidi, J. Goings, B. Peng, A. Petrone, 
 T. Henderson, D. Ranasinghe, V. G. Zakrzewski, J. Gao, N. Rega, 
 G. Zheng, W. Liang, M. Hada, M. Ehara, K. Toyota, R. Fukuda, 
 J. Hasegawa, M. Ishida, T. Nakajima, Y. Honda, O. Kitao, H. Nakai, 
 T. Vreven, K. Throssell, J. A. Montgomery, Jr., J. E. Peralta, 
 F. Ogliaro, M. J. Bearpark, J. J. Heyd, E. N. Brothers, K. N. Kudin, 
 V. N. Staroverov, T. A. Keith, R. Kobayashi, J. Normand, 
 K. Raghavachari, A. P. Rendell, J. C. Burant, S. S. Iyengar, 
 J. Tomasi, M. Cossi, J. M. Millam, M. Klene, C. Adamo, R. Cammi, 
 J. W. Ochterski, R. L. Martin, K. Morokuma, O. Farkas, 
 J. B. Foresman, and D. J. Fox, Gaussian, Inc., Wallingford CT, 2016.
 
 ******************************************
 Gaussian 16:  ES64L-G16RevA.03 25-Dec-2016
                17-Jun-2019 
 ******************************************
 %nprocshared=36
 Will use up to   36 processors via shared memory.
 %mem=96GB
 ----------------------------------------------------------------------
 #p opt=(calcfc,ts,noeigentest,maxstep=1) freq=noraman 6-31g(d) scrf=(s
 olvent=tetrahydrofuran,pcm) pop=none extrabasis mpw3pbe
 ----------------------------------------------------------------------
 1/5=1,8=1,10=4,11=1,18=20,26=3,38=1/1,3;
 2/9=110,12=2,17=6,18=5,40=1/2;
 3/5=1,6=6,7=1,10=1,11=2,25=1,30=1,70=2201,71=2,72=20,74=-12,140=1/1,2,3;
 4//1;
 5/5=2,38=5,53=20/2;
 8/6=4,10=90,11=11/1;
 11/6=1,8=1,9=11,15=111,16=1/1,2,10;
 10/6=1,13=1/2;
 7/10=1,18=20,25=1/1,2,3,16;
 1/5=1,8=1,10=4,11=1,18=20,26=3/3(2);
 2/9=110/2;
 99//99;
 2/9=110/2;
 3/5=7,6=1,7=1,11=2,25=1,30=1,70=2205,71=1,72=20,74=-12,82=7/1,2,3;
 4/5=5,16=3,69=1/1;
 5/5=2,38=5,53=20/2;
 7//1,2,3,16;
 1/5=1,8=1,11=1,18=20,26=3/3(-5);
 2/9=110/2;
 99/9=1/99;
 Leave Link    1 at Mon Jun 17 15:21:10 2019, MaxMem= 12884901888 cpu:               3.5 elap:               0.1
 (Enter /n/sw/g16_nehalem/g16/l101.exe)
 -----
 title
 -----
 Symbolic Z-matrix:
 Charge =  0 Multiplicity = 1
 C                    -2.17035   1.21546   2.46944 
 C                    -2.57378   2.06224   1.2651 
 C                    -1.86856   3.41868   1.32314 
 C                     0.01761   2.50832   2.51074 
 C                    -0.64842   1.13134   2.58413 
 H                    -2.05352   3.98625   0.39839 
 H                    -2.2245    1.56395   0.34844 
 H                    -2.56893   1.69294   3.37529 
 H                    -0.24887   3.06625   3.42049 
 H                    -0.27674   0.51566   1.75262 
 O                    -0.46481   3.23249   1.36 
 O                    -2.34446   4.12228   2.42698 
 O                    -3.96971   2.27324   1.20897 
 O                    -2.71938  -0.08724   2.32416 
 O                    -0.31073   0.53409   3.82883 
 C                     1.54859   2.44338   2.38807 
 H                     1.89035   1.87858   3.28094 
 H                     1.90473   3.4871    2.54786 
 O                     2.01037   1.92581   1.20062 
 C                    -4.64343   1.42861   0.29502 
 H                    -4.29157   1.58642  -0.73586 
 H                    -4.51913   0.3709    0.55284 
 H                    -5.70403   1.69202   0.34611 
 C                    -3.37286  -0.57712   3.47824 
 H                    -2.70269  -0.5942    4.3471 
 H                    -4.26024   0.02463   3.72468 
 H                    -3.68752  -1.59863   3.24787 
 C                     0.3355   -0.71886   3.72395 
 H                    -0.28142  -1.4468    3.18037 
 H                     1.31207  -0.63737   3.22696 
 H                     0.49005  -1.07842   4.74612 
 C                     4.27944  -0.74364  -1.26149 
 C                     3.36357   0.36166  -0.73051 
 C                     2.1212   -0.21232  -0.12901 
 C                     3.13434  -2.35813   0.30406 
 C                     4.47219  -1.76654  -0.13969 
 H                     1.24691   0.40181   0.01764 
 H                     3.84126   0.84269   0.14284 
 H                     3.8015   -1.21957  -2.12852 
 H                     2.74611  -3.0013   -0.49295 
 H                     4.94719  -1.26566   0.71386 
 O                     2.10117  -1.33413   0.49009 
 O                    -0.26104  -0.01631  -3.88097 
 O                     3.01543   1.34807  -1.66723 
 O                     5.52384  -0.18556  -1.62149 
 O                     5.25723  -2.85503  -0.57753 
 C                     3.19225  -3.14553   1.59234 
 H                     3.81782  -4.03467   1.41526 
 H                     2.17826  -3.49208   1.84954 
 O                     3.72459  -2.32988   2.60391 
 S                    -0.0952   -0.17038  -2.42412 
 O                    -0.26764   1.09258  -1.6503 
 O                     1.16018  -0.89775  -2.03232 
 C                    -1.43778  -1.22628  -1.86066 
 C                    -2.68758  -1.11849  -2.46143 
 C                    -1.23285  -2.07985  -0.78073 
 C                    -3.74811  -1.87194  -1.95962 
 H                    -2.82897  -0.45922  -3.31222 
 C                    -2.30075  -2.82781  -0.29312 
 H                    -0.25179  -2.1546   -0.32453 
 C                    -3.56222  -2.72711  -0.87653 
 H                    -4.39318  -3.30876  -0.49096 
 C                     3.92108   2.45155  -1.70154 
 H                     3.9701    2.93676  -0.71728 
 H                     4.92079   2.13128  -2.00591 
 H                     3.51437   3.15298  -2.43316 
 C                     6.04457  -0.6763   -2.84762 
 H                     6.19074  -1.76223  -2.81591 
 H                     5.38315  -0.42539  -3.68847 
 H                     7.00963  -0.1846   -2.99393 
 C                     6.53033  -2.93828   0.0455 
 H                     7.13772  -2.05054  -0.16906 
 H                     6.43498  -3.05549   1.13373 
 H                     7.02159  -3.82213  -0.36867 
 C                     3.81207  -3.0008    3.84422 
 H                     4.23391  -2.29324   4.56156 
 H                     2.82128  -3.32418   4.19647 
 H                     4.4666   -3.88286   3.77803 
 C                    -1.92663   5.47622   2.45982 
 H                    -2.42505   5.93986   3.31412 
 H                    -0.84009   5.56216   2.58353 
 H                    -2.224     6.00105   1.53991 
 Na                    0.90654   2.80101  -0.57525 
 O                     1.12391   4.77419  -1.82654 
 C                     0.63772   4.90509  -3.15049 
 H                     1.46341   5.06599  -3.85828 
 H                     0.12312   3.97519  -3.40315 
 H                    -0.06751   5.74464  -3.22905 
 C                     1.82115   5.92793  -1.3955 
 H                     1.16511   6.80994  -1.40176 
 H                     2.16432   5.74133  -0.37504 
 H                     2.68985   6.12655  -2.03956 
 C                    -5.12046  -1.69992  -2.54991 
 F                    -5.77564  -0.67075  -1.9714 
 F                    -5.88116  -2.79458  -2.37905 
 F                    -5.06742  -1.43907  -3.86685 
 C                    -2.09151  -3.78916   0.84384 
 F                    -0.98233  -3.50241   1.55168 
 F                    -1.96059  -5.05497   0.40298 
 F                    -3.13237  -3.78035   1.69812 
 
 Add virtual bond connecting atoms H37        and O19        Dist= 3.92D+00.
 Add virtual bond connecting atoms O52        and H37        Dist= 4.45D+00.
 Add virtual bond connecting atoms O52        and Na83       Dist= 4.41D+00.
 Add virtual bond connecting atoms O53        and C34        Dist= 4.23D+00.
 Add virtual bond connecting atoms O84        and Na83       Dist= 4.43D+00.
 ITRead=  0  0  0  0  0  0  0  0  0  0  0  0  0  0  0  0  0  0  0  0
 ITRead=  0  0  0  0  0  0  0  0  0  0  0  0  0  0  0  0  0  0  0  0
 ITRead=  0  0  0  0  0  0  0  0  0  0  0  0  0  0  0  0  0  0  0  0
 ITRead=  0  0  0  0  0  0  0  0  0  0  0  0  0  0  0  0  0  0  0  0
 ITRead=  0  0  0  0  0  0  0  0  0  0  0  0  0  0  0  0  0  0  0  0
 MicOpt= -1 -1 -1 -1 -1 -1 -1 -1 -1 -1 -1 -1 -1 -1 -1 -1 -1 -1 -1 -1
 MicOpt= -1 -1 -1 -1 -1 -1 -1 -1 -1 -1 -1 -1 -1 -1 -1 -1 -1 -1 -1 -1
 MicOpt= -1 -1 -1 -1 -1 -1 -1 -1 -1 -1 -1 -1 -1 -1 -1 -1 -1 -1 -1 -1
 MicOpt= -1 -1 -1 -1 -1 -1 -1 -1 -1 -1 -1 -1 -1 -1 -1 -1 -1 -1 -1 -1
 MicOpt= -1 -1 -1 -1 -1 -1 -1 -1 -1 -1 -1 -1 -1 -1 -1 -1 -1 -1 -1 -1
 NAtoms=    100 NQM=      100 NQMF=       0 NMMI=      0 NMMIF=      0
                NMic=       0 NMicF=      0.
                    Isotopes and Nuclear Properties:
 (Nuclear quadrupole moments (NQMom) in fm**2, nuclear magnetic moments (NMagM)
  in nuclear magnetons)

  Atom         1           2           3           4           5           6           7           8           9          10
 IAtWgt=          12          12          12          12          12           1           1           1           1           1
 AtmWgt=  12.0000000  12.0000000  12.0000000  12.0000000  12.0000000   1.0078250   1.0078250   1.0078250   1.0078250   1.0078250
 NucSpn=           0           0           0           0           0           1           1           1           1           1
 AtZEff=   0.0000000   0.0000000   0.0000000   0.0000000   0.0000000   0.0000000   0.0000000   0.0000000   0.0000000   0.0000000
 NQMom=    0.0000000   0.0000000   0.0000000   0.0000000   0.0000000   0.0000000   0.0000000   0.0000000   0.0000000   0.0000000
 NMagM=    0.0000000   0.0000000   0.0000000   0.0000000   0.0000000   2.7928460   2.7928460   2.7928460   2.7928460   2.7928460
 AtZNuc=   6.0000000   6.0000000   6.0000000   6.0000000   6.0000000   1.0000000   1.0000000   1.0000000   1.0000000   1.0000000

  Atom        11          12          13          14          15          16          17          18          19          20
 IAtWgt=          16          16          16          16          16          12           1           1          16          12
 AtmWgt=  15.9949146  15.9949146  15.9949146  15.9949146  15.9949146  12.0000000   1.0078250   1.0078250  15.9949146  12.0000000
 NucSpn=           0           0           0           0           0           0           1           1           0           0
 AtZEff=   0.0000000   0.0000000   0.0000000   0.0000000   0.0000000   0.0000000   0.0000000   0.0000000   0.0000000   0.0000000
 NQMom=    0.0000000   0.0000000   0.0000000   0.0000000   0.0000000   0.0000000   0.0000000   0.0000000   0.0000000   0.0000000
 NMagM=    0.0000000   0.0000000   0.0000000   0.0000000   0.0000000   0.0000000   2.7928460   2.7928460   0.0000000   0.0000000
 AtZNuc=   8.0000000   8.0000000   8.0000000   8.0000000   8.0000000   6.0000000   1.0000000   1.0000000   8.0000000   6.0000000

  Atom        21          22          23          24          25          26          27          28          29          30
 IAtWgt=           1           1           1          12           1           1           1          12           1           1
 AtmWgt=   1.0078250   1.0078250   1.0078250  12.0000000   1.0078250   1.0078250   1.0078250  12.0000000   1.0078250   1.0078250
 NucSpn=           1           1           1           0           1           1           1           0           1           1
 AtZEff=   0.0000000   0.0000000   0.0000000   0.0000000   0.0000000   0.0000000   0.0000000   0.0000000   0.0000000   0.0000000
 NQMom=    0.0000000   0.0000000   0.0000000   0.0000000   0.0000000   0.0000000   0.0000000   0.0000000   0.0000000   0.0000000
 NMagM=    2.7928460   2.7928460   2.7928460   0.0000000   2.7928460   2.7928460   2.7928460   0.0000000   2.7928460   2.7928460
 AtZNuc=   1.0000000   1.0000000   1.0000000   6.0000000   1.0000000   1.0000000   1.0000000   6.0000000   1.0000000   1.0000000

  Atom        31          32          33          34          35          36          37          38          39          40
 IAtWgt=           1          12          12          12          12          12           1           1           1           1
 AtmWgt=   1.0078250  12.0000000  12.0000000  12.0000000  12.0000000  12.0000000   1.0078250   1.0078250   1.0078250   1.0078250
 NucSpn=           1           0           0           0           0           0           1           1           1           1
 AtZEff=   0.0000000   0.0000000   0.0000000   0.0000000   0.0000000   0.0000000   0.0000000   0.0000000   0.0000000   0.0000000
 NQMom=    0.0000000   0.0000000   0.0000000   0.0000000   0.0000000   0.0000000   0.0000000   0.0000000   0.0000000   0.0000000
 NMagM=    2.7928460   0.0000000   0.0000000   0.0000000   0.0000000   0.0000000   2.7928460   2.7928460   2.7928460   2.7928460
 AtZNuc=   1.0000000   6.0000000   6.0000000   6.0000000   6.0000000   6.0000000   1.0000000   1.0000000   1.0000000   1.0000000

  Atom        41          42          43          44          45          46          47          48          49          50
 IAtWgt=           1          16          16          16          16          16          12           1           1          16
 AtmWgt=   1.0078250  15.9949146  15.9949146  15.9949146  15.9949146  15.9949146  12.0000000   1.0078250   1.0078250  15.9949146
 NucSpn=           1           0           0           0           0           0           0           1           1           0
 AtZEff=   0.0000000   0.0000000   0.0000000   0.0000000   0.0000000   0.0000000   0.0000000   0.0000000   0.0000000   0.0000000
 NQMom=    0.0000000   0.0000000   0.0000000   0.0000000   0.0000000   0.0000000   0.0000000   0.0000000   0.0000000   0.0000000
 NMagM=    2.7928460   0.0000000   0.0000000   0.0000000   0.0000000   0.0000000   0.0000000   2.7928460   2.7928460   0.0000000
 AtZNuc=   1.0000000   8.0000000   8.0000000   8.0000000   8.0000000   8.0000000   6.0000000   1.0000000   1.0000000   8.0000000

  Atom        51          52          53          54          55          56          57          58          59          60
 IAtWgt=          32          16          16          12          12          12          12           1          12           1
 AtmWgt=  31.9720718  15.9949146  15.9949146  12.0000000  12.0000000  12.0000000  12.0000000   1.0078250  12.0000000   1.0078250
 NucSpn=           0           0           0           0           0           0           0           1           0           1
 AtZEff=   0.0000000   0.0000000   0.0000000   0.0000000   0.0000000   0.0000000   0.0000000   0.0000000   0.0000000   0.0000000
 NQMom=    0.0000000   0.0000000   0.0000000   0.0000000   0.0000000   0.0000000   0.0000000   0.0000000   0.0000000   0.0000000
 NMagM=    0.0000000   0.0000000   0.0000000   0.0000000   0.0000000   0.0000000   0.0000000   2.7928460   0.0000000   2.7928460
 AtZNuc=  16.0000000   8.0000000   8.0000000   6.0000000   6.0000000   6.0000000   6.0000000   1.0000000   6.0000000   1.0000000

  Atom        61          62          63          64          65          66          67          68          69          70
 IAtWgt=          12           1          12           1           1           1          12           1           1           1
 AtmWgt=  12.0000000   1.0078250  12.0000000   1.0078250   1.0078250   1.0078250  12.0000000   1.0078250   1.0078250   1.0078250
 NucSpn=           0           1           0           1           1           1           0           1           1           1
 AtZEff=   0.0000000   0.0000000   0.0000000   0.0000000   0.0000000   0.0000000   0.0000000   0.0000000   0.0000000   0.0000000
 NQMom=    0.0000000   0.0000000   0.0000000   0.0000000   0.0000000   0.0000000   0.0000000   0.0000000   0.0000000   0.0000000
 NMagM=    0.0000000   2.7928460   0.0000000   2.7928460   2.7928460   2.7928460   0.0000000   2.7928460   2.7928460   2.7928460
 AtZNuc=   6.0000000   1.0000000   6.0000000   1.0000000   1.0000000   1.0000000   6.0000000   1.0000000   1.0000000   1.0000000

  Atom        71          72          73          74          75          76          77          78          79          80
 IAtWgt=          12           1           1           1          12           1           1           1          12           1
 AtmWgt=  12.0000000   1.0078250   1.0078250   1.0078250  12.0000000   1.0078250   1.0078250   1.0078250  12.0000000   1.0078250
 NucSpn=           0           1           1           1           0           1           1           1           0           1
 AtZEff=   0.0000000   0.0000000   0.0000000   0.0000000   0.0000000   0.0000000   0.0000000   0.0000000   0.0000000   0.0000000
 NQMom=    0.0000000   0.0000000   0.0000000   0.0000000   0.0000000   0.0000000   0.0000000   0.0000000   0.0000000   0.0000000
 NMagM=    0.0000000   2.7928460   2.7928460   2.7928460   0.0000000   2.7928460   2.7928460   2.7928460   0.0000000   2.7928460
 AtZNuc=   6.0000000   1.0000000   1.0000000   1.0000000   6.0000000   1.0000000   1.0000000   1.0000000   6.0000000   1.0000000

  Atom        81          82          83          84          85          86          87          88          89          90
 IAtWgt=           1           1          23          16          12           1           1           1          12           1
 AtmWgt=   1.0078250   1.0078250  22.9897697  15.9949146  12.0000000   1.0078250   1.0078250   1.0078250  12.0000000   1.0078250
 NucSpn=           1           1           3           0           0           1           1           1           0           1
 AtZEff=   0.0000000   0.0000000   0.0000000   0.0000000   0.0000000   0.0000000   0.0000000   0.0000000   0.0000000   0.0000000
 NQMom=    0.0000000   0.0000000  10.4000000   0.0000000   0.0000000   0.0000000   0.0000000   0.0000000   0.0000000   0.0000000
 NMagM=    2.7928460   2.7928460   2.2175200   0.0000000   0.0000000   2.7928460   2.7928460   2.7928460   0.0000000   2.7928460
 AtZNuc=   1.0000000   1.0000000  11.0000000   8.0000000   6.0000000   1.0000000   1.0000000   1.0000000   6.0000000   1.0000000

  Atom        91          92          93          94          95          96          97          98          99         100
 IAtWgt=           1           1          12          19          19          19          12          19          19          19
 AtmWgt=   1.0078250   1.0078250  12.0000000  18.9984033  18.9984033  18.9984033  12.0000000  18.9984033  18.9984033  18.9984033
 NucSpn=           1           1           0           1           1           1           0           1           1           1
 AtZEff=   0.0000000   0.0000000   0.0000000   0.0000000   0.0000000   0.0000000   0.0000000   0.0000000   0.0000000   0.0000000
 NQMom=    0.0000000   0.0000000   0.0000000   0.0000000   0.0000000   0.0000000   0.0000000   0.0000000   0.0000000   0.0000000
 NMagM=    2.7928460   2.7928460   0.0000000   2.6288670   2.6288670   2.6288670   0.0000000   2.6288670   2.6288670   2.6288670
 AtZNuc=   1.0000000   1.0000000   6.0000000   9.0000000   9.0000000   9.0000000   6.0000000   9.0000000   9.0000000   9.0000000
 Leave Link  101 at Mon Jun 17 15:21:10 2019, MaxMem= 12884901888 cpu:              14.0 elap:               0.4
 (Enter /n/sw/g16_nehalem/g16/l103.exe)

 GradGradGradGradGradGradGradGradGradGradGradGradGradGradGradGradGradGrad
 Berny optimization.
 Initialization pass.
                           ----------------------------
                           !    Initial Parameters    !
                           ! (Angstroms and Degrees)  !
 --------------------------                            --------------------------
 ! Name  Definition              Value          Derivative Info.                !
 --------------------------------------------------------------------------------
 ! R1    R(1,2)                  1.5265         calculate D2E/DX2 analytically  !
 ! R2    R(1,5)                  1.5286         calculate D2E/DX2 analytically  !
 ! R3    R(1,8)                  1.0988         calculate D2E/DX2 analytically  !
 ! R4    R(1,14)                 1.4211         calculate D2E/DX2 analytically  !
 ! R5    R(2,3)                  1.5299         calculate D2E/DX2 analytically  !
 ! R6    R(2,7)                  1.1002         calculate D2E/DX2 analytically  !
 ! R7    R(2,13)                 1.4129         calculate D2E/DX2 analytically  !
 ! R8    R(3,6)                  1.1007         calculate D2E/DX2 analytically  !
 ! R9    R(3,11)                 1.4165         calculate D2E/DX2 analytically  !
 ! R10   R(3,12)                 1.3928         calculate D2E/DX2 analytically  !
 ! R11   R(4,5)                  1.5314         calculate D2E/DX2 analytically  !
 ! R12   R(4,9)                  1.1            calculate D2E/DX2 analytically  !
 ! R13   R(4,11)                 1.4427         calculate D2E/DX2 analytically  !
 ! R14   R(4,16)                 1.5373         calculate D2E/DX2 analytically  !
 ! R15   R(5,10)                 1.0994         calculate D2E/DX2 analytically  !
 ! R16   R(5,15)                 1.4213         calculate D2E/DX2 analytically  !
 ! R17   R(12,79)                1.4173         calculate D2E/DX2 analytically  !
 ! R18   R(13,20)                1.4151         calculate D2E/DX2 analytically  !
 ! R19   R(14,24)                1.4138         calculate D2E/DX2 analytically  !
 ! R20   R(15,28)                1.4137         calculate D2E/DX2 analytically  !
 ! R21   R(16,17)                1.1104         calculate D2E/DX2 analytically  !
 ! R22   R(16,18)                1.1143         calculate D2E/DX2 analytically  !
 ! R23   R(16,19)                1.3752         calculate D2E/DX2 analytically  !
 ! R24   R(19,37)                2.0748         calculate D2E/DX2 analytically  !
 ! R25   R(19,83)                2.2667         calculate D2E/DX2 analytically  !
 ! R26   R(20,21)                1.1007         calculate D2E/DX2 analytically  !
 ! R27   R(20,22)                1.0957         calculate D2E/DX2 analytically  !
 ! R28   R(20,23)                1.094          calculate D2E/DX2 analytically  !
 ! R29   R(24,25)                1.0974         calculate D2E/DX2 analytically  !
 ! R30   R(24,26)                1.1001         calculate D2E/DX2 analytically  !
 ! R31   R(24,27)                1.0934         calculate D2E/DX2 analytically  !
 ! R32   R(28,29)                1.0982         calculate D2E/DX2 analytically  !
 ! R33   R(28,30)                1.0988         calculate D2E/DX2 analytically  !
 ! R34   R(28,31)                1.0945         calculate D2E/DX2 analytically  !
 ! R35   R(32,33)                1.5305         calculate D2E/DX2 analytically  !
 ! R36   R(32,36)                1.5303         calculate D2E/DX2 analytically  !
 ! R37   R(32,39)                1.0985         calculate D2E/DX2 analytically  !
 ! R38   R(32,45)                1.4105         calculate D2E/DX2 analytically  !
 ! R39   R(33,34)                1.4949         calculate D2E/DX2 analytically  !
 ! R40   R(33,38)                1.1056         calculate D2E/DX2 analytically  !
 ! R41   R(33,44)                1.4042         calculate D2E/DX2 analytically  !
 ! R42   R(34,37)                1.0784         calculate D2E/DX2 analytically  !
 ! R43   R(34,42)                1.2815         calculate D2E/DX2 analytically  !
 ! R44   R(34,53)                2.2396         calculate D2E/DX2 analytically  !
 ! R45   R(35,36)                1.5286         calculate D2E/DX2 analytically  !
 ! R46   R(35,40)                1.0953         calculate D2E/DX2 analytically  !
 ! R47   R(35,42)                1.4665         calculate D2E/DX2 analytically  !
 ! R48   R(35,47)                1.511          calculate D2E/DX2 analytically  !
 ! R49   R(36,41)                1.0978         calculate D2E/DX2 analytically  !
 ! R50   R(36,46)                1.4117         calculate D2E/DX2 analytically  !
 ! R51   R(37,52)                2.3565         calculate D2E/DX2 analytically  !
 ! R52   R(43,51)                1.4743         calculate D2E/DX2 analytically  !
 ! R53   R(44,63)                1.428          calculate D2E/DX2 analytically  !
 ! R54   R(45,67)                1.4196         calculate D2E/DX2 analytically  !
 ! R55   R(46,71)                1.4198         calculate D2E/DX2 analytically  !
 ! R56   R(47,48)                1.1015         calculate D2E/DX2 analytically  !
 ! R57   R(47,49)                1.102          calculate D2E/DX2 analytically  !
 ! R58   R(47,50)                1.4043         calculate D2E/DX2 analytically  !
 ! R59   R(50,75)                1.4129         calculate D2E/DX2 analytically  !
 ! R60   R(51,52)                1.4912         calculate D2E/DX2 analytically  !
 ! R61   R(51,53)                1.5028         calculate D2E/DX2 analytically  !
 ! R62   R(51,54)                1.7986         calculate D2E/DX2 analytically  !
 ! R63   R(52,83)                2.3352         calculate D2E/DX2 analytically  !
 ! R64   R(54,55)                1.3909         calculate D2E/DX2 analytically  !
 ! R65   R(54,56)                1.3917         calculate D2E/DX2 analytically  !
 ! R66   R(55,57)                1.3943         calculate D2E/DX2 analytically  !
 ! R67   R(55,58)                1.0856         calculate D2E/DX2 analytically  !
 ! R68   R(56,59)                1.392          calculate D2E/DX2 analytically  !
 ! R69   R(56,60)                1.0845         calculate D2E/DX2 analytically  !
 ! R70   R(57,61)                1.3925         calculate D2E/DX2 analytically  !
 ! R71   R(57,93)                1.5038         calculate D2E/DX2 analytically  !
 ! R72   R(59,61)                1.3935         calculate D2E/DX2 analytically  !
 ! R73   R(59,97)                1.5036         calculate D2E/DX2 analytically  !
 ! R74   R(61,62)                1.0851         calculate D2E/DX2 analytically  !
 ! R75   R(63,64)                1.0985         calculate D2E/DX2 analytically  !
 ! R76   R(63,65)                1.093          calculate D2E/DX2 analytically  !
 ! R77   R(63,66)                1.0921         calculate D2E/DX2 analytically  !
 ! R78   R(67,68)                1.0962         calculate D2E/DX2 analytically  !
 ! R79   R(67,69)                1.0988         calculate D2E/DX2 analytically  !
 ! R80   R(67,70)                1.0929         calculate D2E/DX2 analytically  !
 ! R81   R(71,72)                1.0968         calculate D2E/DX2 analytically  !
 ! R82   R(71,73)                1.0987         calculate D2E/DX2 analytically  !
 ! R83   R(71,74)                1.0927         calculate D2E/DX2 analytically  !
 ! R84   R(75,76)                1.0923         calculate D2E/DX2 analytically  !
 ! R85   R(75,77)                1.1001         calculate D2E/DX2 analytically  !
 ! R86   R(75,78)                1.1004         calculate D2E/DX2 analytically  !
 ! R87   R(79,80)                1.0923         calculate D2E/DX2 analytically  !
 ! R88   R(79,81)                1.0969         calculate D2E/DX2 analytically  !
 ! R89   R(79,82)                1.1            calculate D2E/DX2 analytically  !
 ! R90   R(83,84)                2.3466         calculate D2E/DX2 analytically  !
 ! R91   R(84,85)                1.4165         calculate D2E/DX2 analytically  !
 ! R92   R(84,89)                1.4153         calculate D2E/DX2 analytically  !
 ! R93   R(85,86)                1.0994         calculate D2E/DX2 analytically  !
 ! R94   R(85,87)                1.0924         calculate D2E/DX2 analytically  !
 ! R95   R(85,88)                1.0993         calculate D2E/DX2 analytically  !
 ! R96   R(89,90)                1.0993         calculate D2E/DX2 analytically  !
 ! R97   R(89,91)                1.0927         calculate D2E/DX2 analytically  !
 ! R98   R(89,92)                1.0995         calculate D2E/DX2 analytically  !
 ! R99   R(93,94)                1.3502         calculate D2E/DX2 analytically  !
 ! R100  R(93,95)                1.3439         calculate D2E/DX2 analytically  !
 ! R101  R(93,96)                1.3436         calculate D2E/DX2 analytically  !
 ! R102  R(97,98)                1.3467         calculate D2E/DX2 analytically  !
 ! R103  R(97,99)                1.3468         calculate D2E/DX2 analytically  !
 ! R104  R(97,100)               1.3466         calculate D2E/DX2 analytically  !
 ! A1    A(2,1,5)              110.6622         calculate D2E/DX2 analytically  !
 ! A2    A(2,1,8)              108.2693         calculate D2E/DX2 analytically  !
 ! A3    A(2,1,14)             109.0101         calculate D2E/DX2 analytically  !
 ! A4    A(5,1,8)              108.8579         calculate D2E/DX2 analytically  !
 ! A5    A(5,1,14)             109.992          calculate D2E/DX2 analytically  !
 ! A6    A(8,1,14)             110.0273         calculate D2E/DX2 analytically  !
 ! A7    A(1,2,3)              109.8808         calculate D2E/DX2 analytically  !
 ! A8    A(1,2,7)              108.7946         calculate D2E/DX2 analytically  !
 ! A9    A(1,2,13)             112.0424         calculate D2E/DX2 analytically  !
 ! A10   A(3,2,7)              106.6673         calculate D2E/DX2 analytically  !
 ! A11   A(3,2,13)             108.9363         calculate D2E/DX2 analytically  !
 ! A12   A(7,2,13)             110.3761         calculate D2E/DX2 analytically  !
 ! A13   A(2,3,6)              110.3561         calculate D2E/DX2 analytically  !
 ! A14   A(2,3,11)             109.9526         calculate D2E/DX2 analytically  !
 ! A15   A(2,3,12)             108.6901         calculate D2E/DX2 analytically  !
 ! A16   A(6,3,11)             104.8428         calculate D2E/DX2 analytically  !
 ! A17   A(6,3,12)             110.361          calculate D2E/DX2 analytically  !
 ! A18   A(11,3,12)            112.6045         calculate D2E/DX2 analytically  !
 ! A19   A(5,4,9)              108.125          calculate D2E/DX2 analytically  !
 ! A20   A(5,4,11)             110.1298         calculate D2E/DX2 analytically  !
 ! A21   A(5,4,16)             113.5149         calculate D2E/DX2 analytically  !
 ! A22   A(9,4,11)             108.9103         calculate D2E/DX2 analytically  !
 ! A23   A(9,4,16)             109.1893         calculate D2E/DX2 analytically  !
 ! A24   A(11,4,16)            106.8924         calculate D2E/DX2 analytically  !
 ! A25   A(1,5,4)              112.3314         calculate D2E/DX2 analytically  !
 ! A26   A(1,5,10)             108.1009         calculate D2E/DX2 analytically  !
 ! A27   A(1,5,15)             108.9899         calculate D2E/DX2 analytically  !
 ! A28   A(4,5,10)             108.6799         calculate D2E/DX2 analytically  !
 ! A29   A(4,5,15)             108.4509         calculate D2E/DX2 analytically  !
 ! A30   A(10,5,15)            110.2865         calculate D2E/DX2 analytically  !
 ! A31   A(3,11,4)             114.7152         calculate D2E/DX2 analytically  !
 ! A32   A(3,12,79)            113.5908         calculate D2E/DX2 analytically  !
 ! A33   A(2,13,20)            114.0095         calculate D2E/DX2 analytically  !
 ! A34   A(1,14,24)            114.3769         calculate D2E/DX2 analytically  !
 ! A35   A(5,15,28)            114.588          calculate D2E/DX2 analytically  !
 ! A36   A(4,16,17)            105.2985         calculate D2E/DX2 analytically  !
 ! A37   A(4,16,18)            105.5029         calculate D2E/DX2 analytically  !
 ! A38   A(4,16,19)            114.7861         calculate D2E/DX2 analytically  !
 ! A39   A(17,16,18)           105.2328         calculate D2E/DX2 analytically  !
 ! A40   A(17,16,19)           113.5485         calculate D2E/DX2 analytically  !
 ! A41   A(18,16,19)           111.6544         calculate D2E/DX2 analytically  !
 ! A42   A(16,19,37)           130.1807         calculate D2E/DX2 analytically  !
 ! A43   A(16,19,83)           111.5707         calculate D2E/DX2 analytically  !
 ! A44   A(37,19,83)            69.9844         calculate D2E/DX2 analytically  !
 ! A45   A(13,20,21)           111.5382         calculate D2E/DX2 analytically  !
 ! A46   A(13,20,22)           111.7263         calculate D2E/DX2 analytically  !
 ! A47   A(13,20,23)           106.7188         calculate D2E/DX2 analytically  !
 ! A48   A(21,20,22)           108.8152         calculate D2E/DX2 analytically  !
 ! A49   A(21,20,23)           108.6103         calculate D2E/DX2 analytically  !
 ! A50   A(22,20,23)           109.3543         calculate D2E/DX2 analytically  !
 ! A51   A(14,24,25)           111.6788         calculate D2E/DX2 analytically  !
 ! A52   A(14,24,26)           111.4789         calculate D2E/DX2 analytically  !
 ! A53   A(14,24,27)           106.5433         calculate D2E/DX2 analytically  !
 ! A54   A(25,24,26)           108.8891         calculate D2E/DX2 analytically  !
 ! A55   A(25,24,27)           109.1475         calculate D2E/DX2 analytically  !
 ! A56   A(26,24,27)           109.0309         calculate D2E/DX2 analytically  !
 ! A57   A(15,28,29)           111.5564         calculate D2E/DX2 analytically  !
 ! A58   A(15,28,30)           111.9693         calculate D2E/DX2 analytically  !
 ! A59   A(15,28,31)           106.6441         calculate D2E/DX2 analytically  !
 ! A60   A(29,28,30)           108.9389         calculate D2E/DX2 analytically  !
 ! A61   A(29,28,31)           108.8946         calculate D2E/DX2 analytically  !
 ! A62   A(30,28,31)           108.74           calculate D2E/DX2 analytically  !
 ! A63   A(33,32,36)           107.6843         calculate D2E/DX2 analytically  !
 ! A64   A(33,32,39)           109.0481         calculate D2E/DX2 analytically  !
 ! A65   A(33,32,45)           109.314          calculate D2E/DX2 analytically  !
 ! A66   A(36,32,39)           110.1079         calculate D2E/DX2 analytically  !
 ! A67   A(36,32,45)           109.903          calculate D2E/DX2 analytically  !
 ! A68   A(39,32,45)           110.7213         calculate D2E/DX2 analytically  !
 ! A69   A(32,33,34)           111.0776         calculate D2E/DX2 analytically  !
 ! A70   A(32,33,38)           109.2516         calculate D2E/DX2 analytically  !
 ! A71   A(32,33,44)           115.1033         calculate D2E/DX2 analytically  !
 ! A72   A(34,33,38)           102.0225         calculate D2E/DX2 analytically  !
 ! A73   A(34,33,44)           109.396          calculate D2E/DX2 analytically  !
 ! A74   A(38,33,44)           109.1746         calculate D2E/DX2 analytically  !
 ! A75   A(33,34,37)           120.6512         calculate D2E/DX2 analytically  !
 ! A76   A(33,34,42)           122.9223         calculate D2E/DX2 analytically  !
 ! A77   A(33,34,53)            97.595          calculate D2E/DX2 analytically  !
 ! A78   A(37,34,42)           114.8439         calculate D2E/DX2 analytically  !
 ! A79   A(37,34,53)            86.6739         calculate D2E/DX2 analytically  !
 ! A80   A(42,34,53)            97.8134         calculate D2E/DX2 analytically  !
 ! A81   A(36,35,40)           109.0404         calculate D2E/DX2 analytically  !
 ! A82   A(36,35,42)           112.5309         calculate D2E/DX2 analytically  !
 ! A83   A(36,35,47)           114.5599         calculate D2E/DX2 analytically  !
 ! A84   A(40,35,42)           104.6327         calculate D2E/DX2 analytically  !
 ! A85   A(40,35,47)           109.1477         calculate D2E/DX2 analytically  !
 ! A86   A(42,35,47)           106.4229         calculate D2E/DX2 analytically  !
 ! A87   A(32,36,35)           111.1765         calculate D2E/DX2 analytically  !
 ! A88   A(32,36,41)           108.6322         calculate D2E/DX2 analytically  !
 ! A89   A(32,36,46)           110.9823         calculate D2E/DX2 analytically  !
 ! A90   A(35,36,41)           109.2421         calculate D2E/DX2 analytically  !
 ! A91   A(35,36,46)           106.1608         calculate D2E/DX2 analytically  !
 ! A92   A(41,36,46)           110.6315         calculate D2E/DX2 analytically  !
 ! A93   A(19,37,34)           101.3911         calculate D2E/DX2 analytically  !
 ! A94   A(19,37,52)           115.1347         calculate D2E/DX2 analytically  !
 ! A95   A(34,37,52)           126.2791         calculate D2E/DX2 analytically  !
 ! A96   A(34,42,35)           122.6136         calculate D2E/DX2 analytically  !
 ! A97   A(33,44,63)           113.6813         calculate D2E/DX2 analytically  !
 ! A98   A(32,45,67)           114.0335         calculate D2E/DX2 analytically  !
 ! A99   A(36,46,71)           114.0635         calculate D2E/DX2 analytically  !
 ! A100  A(35,47,48)           107.7792         calculate D2E/DX2 analytically  !
 ! A101  A(35,47,49)           109.1235         calculate D2E/DX2 analytically  !
 ! A102  A(35,47,50)           109.0279         calculate D2E/DX2 analytically  !
 ! A103  A(48,47,49)           107.8335         calculate D2E/DX2 analytically  !
 ! A104  A(48,47,50)           111.6774         calculate D2E/DX2 analytically  !
 ! A105  A(49,47,50)           111.3059         calculate D2E/DX2 analytically  !
 ! A106  A(47,50,75)           112.3358         calculate D2E/DX2 analytically  !
 ! A107  A(43,51,52)           114.2837         calculate D2E/DX2 analytically  !
 ! A108  A(43,51,53)           113.713          calculate D2E/DX2 analytically  !
 ! A109  A(43,51,54)           106.6751         calculate D2E/DX2 analytically  !
 ! A110  A(52,51,53)           111.7919         calculate D2E/DX2 analytically  !
 ! A111  A(52,51,54)           104.3788         calculate D2E/DX2 analytically  !
 ! A112  A(53,51,54)           104.936          calculate D2E/DX2 analytically  !
 ! A113  A(37,52,51)            92.5622         calculate D2E/DX2 analytically  !
 ! A114  A(37,52,83)            64.2424         calculate D2E/DX2 analytically  !
 ! A115  A(51,52,83)           143.1668         calculate D2E/DX2 analytically  !
 ! A116  A(34,53,51)           115.5861         calculate D2E/DX2 analytically  !
 ! A117  A(51,54,55)           119.3366         calculate D2E/DX2 analytically  !
 ! A118  A(51,54,56)           119.5539         calculate D2E/DX2 analytically  !
 ! A119  A(55,54,56)           120.9989         calculate D2E/DX2 analytically  !
 ! A120  A(54,55,57)           119.0857         calculate D2E/DX2 analytically  !
 ! A121  A(54,55,58)           120.1731         calculate D2E/DX2 analytically  !
 ! A122  A(57,55,58)           120.7405         calculate D2E/DX2 analytically  !
 ! A123  A(54,56,59)           119.2366         calculate D2E/DX2 analytically  !
 ! A124  A(54,56,60)           120.1253         calculate D2E/DX2 analytically  !
 ! A125  A(59,56,60)           120.6375         calculate D2E/DX2 analytically  !
 ! A126  A(55,57,61)           120.6805         calculate D2E/DX2 analytically  !
 ! A127  A(55,57,93)           119.4085         calculate D2E/DX2 analytically  !
 ! A128  A(61,57,93)           119.828          calculate D2E/DX2 analytically  !
 ! A129  A(56,59,61)           120.5979         calculate D2E/DX2 analytically  !
 ! A130  A(56,59,97)           120.1117         calculate D2E/DX2 analytically  !
 ! A131  A(61,59,97)           119.2602         calculate D2E/DX2 analytically  !
 ! A132  A(57,61,59)           119.398          calculate D2E/DX2 analytically  !
 ! A133  A(57,61,62)           120.2218         calculate D2E/DX2 analytically  !
 ! A134  A(59,61,62)           120.3802         calculate D2E/DX2 analytically  !
 ! A135  A(44,63,64)           110.3723         calculate D2E/DX2 analytically  !
 ! A136  A(44,63,65)           111.1216         calculate D2E/DX2 analytically  !
 ! A137  A(44,63,66)           106.0357         calculate D2E/DX2 analytically  !
 ! A138  A(64,63,65)           109.7637         calculate D2E/DX2 analytically  !
 ! A139  A(64,63,66)           109.4626         calculate D2E/DX2 analytically  !
 ! A140  A(65,63,66)           110.0155         calculate D2E/DX2 analytically  !
 ! A141  A(45,67,68)           111.4914         calculate D2E/DX2 analytically  !
 ! A142  A(45,67,69)           111.1733         calculate D2E/DX2 analytically  !
 ! A143  A(45,67,70)           106.4989         calculate D2E/DX2 analytically  !
 ! A144  A(68,67,69)           109.1842         calculate D2E/DX2 analytically  !
 ! A145  A(68,67,70)           109.3782         calculate D2E/DX2 analytically  !
 ! A146  A(69,67,70)           109.0465         calculate D2E/DX2 analytically  !
 ! A147  A(46,71,72)           111.3001         calculate D2E/DX2 analytically  !
 ! A148  A(46,71,73)           111.29           calculate D2E/DX2 analytically  !
 ! A149  A(46,71,74)           106.512          calculate D2E/DX2 analytically  !
 ! A150  A(72,71,73)           109.1576         calculate D2E/DX2 analytically  !
 ! A151  A(72,71,74)           109.3622         calculate D2E/DX2 analytically  !
 ! A152  A(73,71,74)           109.1562         calculate D2E/DX2 analytically  !
 ! A153  A(50,75,76)           107.0272         calculate D2E/DX2 analytically  !
 ! A154  A(50,75,77)           111.402          calculate D2E/DX2 analytically  !
 ! A155  A(50,75,78)           111.3876         calculate D2E/DX2 analytically  !
 ! A156  A(76,75,77)           109.1436         calculate D2E/DX2 analytically  !
 ! A157  A(76,75,78)           109.21           calculate D2E/DX2 analytically  !
 ! A158  A(77,75,78)           108.6223         calculate D2E/DX2 analytically  !
 ! A159  A(12,79,80)           106.8027         calculate D2E/DX2 analytically  !
 ! A160  A(12,79,81)           111.6826         calculate D2E/DX2 analytically  !
 ! A161  A(12,79,82)           110.8976         calculate D2E/DX2 analytically  !
 ! A162  A(80,79,81)           109.299          calculate D2E/DX2 analytically  !
 ! A163  A(80,79,82)           109.1569         calculate D2E/DX2 analytically  !
 ! A164  A(81,79,82)           108.9472         calculate D2E/DX2 analytically  !
 ! A165  A(19,83,52)           108.8479         calculate D2E/DX2 analytically  !
 ! A166  A(19,83,84)           134.2126         calculate D2E/DX2 analytically  !
 ! A167  A(52,83,84)           114.5994         calculate D2E/DX2 analytically  !
 ! A168  A(83,84,85)           122.9788         calculate D2E/DX2 analytically  !
 ! A169  A(83,84,89)           124.6602         calculate D2E/DX2 analytically  !
 ! A170  A(85,84,89)           112.2366         calculate D2E/DX2 analytically  !
 ! A171  A(84,85,86)           110.9466         calculate D2E/DX2 analytically  !
 ! A172  A(84,85,87)           107.41           calculate D2E/DX2 analytically  !
 ! A173  A(84,85,88)           110.9519         calculate D2E/DX2 analytically  !
 ! A174  A(86,85,87)           109.2374         calculate D2E/DX2 analytically  !
 ! A175  A(86,85,88)           108.9079         calculate D2E/DX2 analytically  !
 ! A176  A(87,85,88)           109.3526         calculate D2E/DX2 analytically  !
 ! A177  A(84,89,90)           110.998          calculate D2E/DX2 analytically  !
 ! A178  A(84,89,91)           107.4539         calculate D2E/DX2 analytically  !
 ! A179  A(84,89,92)           110.9829         calculate D2E/DX2 analytically  !
 ! A180  A(90,89,91)           109.2557         calculate D2E/DX2 analytically  !
 ! A181  A(90,89,92)           108.859          calculate D2E/DX2 analytically  !
 ! A182  A(91,89,92)           109.2557         calculate D2E/DX2 analytically  !
 ! A183  A(57,93,94)           111.2126         calculate D2E/DX2 analytically  !
 ! A184  A(57,93,95)           111.9303         calculate D2E/DX2 analytically  !
 ! A185  A(57,93,96)           111.7732         calculate D2E/DX2 analytically  !
 ! A186  A(94,93,95)           106.961          calculate D2E/DX2 analytically  !
 ! A187  A(94,93,96)           106.9258         calculate D2E/DX2 analytically  !
 ! A188  A(95,93,96)           107.7639         calculate D2E/DX2 analytically  !
 ! A189  A(59,97,98)           112.083          calculate D2E/DX2 analytically  !
 ! A190  A(59,97,99)           111.5274         calculate D2E/DX2 analytically  !
 ! A191  A(59,97,100)          111.5908         calculate D2E/DX2 analytically  !
 ! A192  A(98,97,99)           106.9852         calculate D2E/DX2 analytically  !
 ! A193  A(98,97,100)          107.5657         calculate D2E/DX2 analytically  !
 ! A194  A(99,97,100)          106.7956         calculate D2E/DX2 analytically  !
 ! D1    D(5,1,2,3)            -52.7174         calculate D2E/DX2 analytically  !
 ! D2    D(5,1,2,7)             63.7209         calculate D2E/DX2 analytically  !
 ! D3    D(5,1,2,13)          -173.9631         calculate D2E/DX2 analytically  !
 ! D4    D(8,1,2,3)             66.5097         calculate D2E/DX2 analytically  !
 ! D5    D(8,1,2,7)           -177.0519         calculate D2E/DX2 analytically  !
 ! D6    D(8,1,2,13)           -54.736          calculate D2E/DX2 analytically  !
 ! D7    D(14,1,2,3)          -173.8082         calculate D2E/DX2 analytically  !
 ! D8    D(14,1,2,7)           -57.3699         calculate D2E/DX2 analytically  !
 ! D9    D(14,1,2,13)           64.9461         calculate D2E/DX2 analytically  !
 ! D10   D(2,1,5,4)             50.0519         calculate D2E/DX2 analytically  !
 ! D11   D(2,1,5,10)           -69.8518         calculate D2E/DX2 analytically  !
 ! D12   D(2,1,5,15)           170.2641         calculate D2E/DX2 analytically  !
 ! D13   D(8,1,5,4)            -68.8194         calculate D2E/DX2 analytically  !
 ! D14   D(8,1,5,10)           171.2769         calculate D2E/DX2 analytically  !
 ! D15   D(8,1,5,15)            51.3929         calculate D2E/DX2 analytically  !
 ! D16   D(14,1,5,4)           170.5593         calculate D2E/DX2 analytically  !
 ! D17   D(14,1,5,10)           50.6556         calculate D2E/DX2 analytically  !
 ! D18   D(14,1,5,15)          -69.2285         calculate D2E/DX2 analytically  !
 ! D19   D(2,1,14,24)         -132.3026         calculate D2E/DX2 analytically  !
 ! D20   D(5,1,14,24)          106.1982         calculate D2E/DX2 analytically  !
 ! D21   D(8,1,14,24)          -13.7157         calculate D2E/DX2 analytically  !
 ! D22   D(1,2,3,6)            172.9473         calculate D2E/DX2 analytically  !
 ! D23   D(1,2,3,11)            57.773          calculate D2E/DX2 analytically  !
 ! D24   D(1,2,3,12)           -65.9025         calculate D2E/DX2 analytically  !
 ! D25   D(7,2,3,6)             55.1799         calculate D2E/DX2 analytically  !
 ! D26   D(7,2,3,11)           -59.9944         calculate D2E/DX2 analytically  !
 ! D27   D(7,2,3,12)           176.3301         calculate D2E/DX2 analytically  !
 ! D28   D(13,2,3,6)           -63.9613         calculate D2E/DX2 analytically  !
 ! D29   D(13,2,3,11)         -179.1356         calculate D2E/DX2 analytically  !
 ! D30   D(13,2,3,12)           57.1889         calculate D2E/DX2 analytically  !
 ! D31   D(1,2,13,20)         -100.3116         calculate D2E/DX2 analytically  !
 ! D32   D(3,2,13,20)          137.9            calculate D2E/DX2 analytically  !
 ! D33   D(7,2,13,20)           21.0989         calculate D2E/DX2 analytically  !
 ! D34   D(2,3,11,4)           -61.8134         calculate D2E/DX2 analytically  !
 ! D35   D(6,3,11,4)           179.5632         calculate D2E/DX2 analytically  !
 ! D36   D(12,3,11,4)           59.5478         calculate D2E/DX2 analytically  !
 ! D37   D(2,3,12,79)         -170.2206         calculate D2E/DX2 analytically  !
 ! D38   D(6,3,12,79)          -49.0734         calculate D2E/DX2 analytically  !
 ! D39   D(11,3,12,79)          67.702          calculate D2E/DX2 analytically  !
 ! D40   D(9,4,5,1)             68.2849         calculate D2E/DX2 analytically  !
 ! D41   D(9,4,5,10)          -172.1484         calculate D2E/DX2 analytically  !
 ! D42   D(9,4,5,15)           -52.2391         calculate D2E/DX2 analytically  !
 ! D43   D(11,4,5,1)           -50.6081         calculate D2E/DX2 analytically  !
 ! D44   D(11,4,5,10)           68.9587         calculate D2E/DX2 analytically  !
 ! D45   D(11,4,5,15)         -171.132          calculate D2E/DX2 analytically  !
 ! D46   D(16,4,5,1)          -170.4095         calculate D2E/DX2 analytically  !
 ! D47   D(16,4,5,10)          -50.8428         calculate D2E/DX2 analytically  !
 ! D48   D(16,4,5,15)           69.0666         calculate D2E/DX2 analytically  !
 ! D49   D(5,4,11,3)            57.7236         calculate D2E/DX2 analytically  !
 ! D50   D(9,4,11,3)           -60.6879         calculate D2E/DX2 analytically  !
 ! D51   D(16,4,11,3)         -178.5369         calculate D2E/DX2 analytically  !
 ! D52   D(5,4,16,17)          -58.1058         calculate D2E/DX2 analytically  !
 ! D53   D(5,4,16,18)         -169.1173         calculate D2E/DX2 analytically  !
 ! D54   D(5,4,16,19)           67.5239         calculate D2E/DX2 analytically  !
 ! D55   D(9,4,16,17)           62.6019         calculate D2E/DX2 analytically  !
 ! D56   D(9,4,16,18)          -48.4096         calculate D2E/DX2 analytically  !
 ! D57   D(9,4,16,19)         -171.7684         calculate D2E/DX2 analytically  !
 ! D58   D(11,4,16,17)        -179.7321         calculate D2E/DX2 analytically  !
 ! D59   D(11,4,16,18)          69.2565         calculate D2E/DX2 analytically  !
 ! D60   D(11,4,16,19)         -54.1024         calculate D2E/DX2 analytically  !
 ! D61   D(1,5,15,28)          114.9688         calculate D2E/DX2 analytically  !
 ! D62   D(4,5,15,28)         -122.4548         calculate D2E/DX2 analytically  !
 ! D63   D(10,5,15,28)          -3.554          calculate D2E/DX2 analytically  !
 ! D64   D(3,12,79,80)         175.3652         calculate D2E/DX2 analytically  !
 ! D65   D(3,12,79,81)         -65.1898         calculate D2E/DX2 analytically  !
 ! D66   D(3,12,79,82)          56.5344         calculate D2E/DX2 analytically  !
 ! D67   D(2,13,20,21)         -61.411          calculate D2E/DX2 analytically  !
 ! D68   D(2,13,20,22)          60.6291         calculate D2E/DX2 analytically  !
 ! D69   D(2,13,20,23)        -179.8863         calculate D2E/DX2 analytically  !
 ! D70   D(1,14,24,25)         -57.4774         calculate D2E/DX2 analytically  !
 ! D71   D(1,14,24,26)          64.5819         calculate D2E/DX2 analytically  !
 ! D72   D(1,14,24,27)        -176.5743         calculate D2E/DX2 analytically  !
 ! D73   D(5,15,28,29)         -58.5471         calculate D2E/DX2 analytically  !
 ! D74   D(5,15,28,30)          63.8413         calculate D2E/DX2 analytically  !
 ! D75   D(5,15,28,31)        -177.331          calculate D2E/DX2 analytically  !
 ! D76   D(4,16,19,37)         -36.1033         calculate D2E/DX2 analytically  !
 ! D77   D(4,16,19,83)          45.3927         calculate D2E/DX2 analytically  !
 ! D78   D(17,16,19,37)         85.1129         calculate D2E/DX2 analytically  !
 ! D79   D(17,16,19,83)        166.6089         calculate D2E/DX2 analytically  !
 ! D80   D(18,16,19,37)       -156.1098         calculate D2E/DX2 analytically  !
 ! D81   D(18,16,19,83)        -74.6139         calculate D2E/DX2 analytically  !
 ! D82   D(16,19,37,34)       -129.5141         calculate D2E/DX2 analytically  !
 ! D83   D(16,19,37,52)         90.9098         calculate D2E/DX2 analytically  !
 ! D84   D(83,19,37,34)        128.685          calculate D2E/DX2 analytically  !
 ! D85   D(83,19,37,52)        -10.8911         calculate D2E/DX2 analytically  !
 ! D86   D(16,19,83,52)       -115.9591         calculate D2E/DX2 analytically  !
 ! D87   D(16,19,83,84)         82.9947         calculate D2E/DX2 analytically  !
 ! D88   D(37,19,83,52)         10.5091         calculate D2E/DX2 analytically  !
 ! D89   D(37,19,83,84)       -150.5371         calculate D2E/DX2 analytically  !
 ! D90   D(36,32,33,34)        -51.2735         calculate D2E/DX2 analytically  !
 ! D91   D(36,32,33,38)         60.5075         calculate D2E/DX2 analytically  !
 ! D92   D(36,32,33,44)       -176.2752         calculate D2E/DX2 analytically  !
 ! D93   D(39,32,33,34)         68.1873         calculate D2E/DX2 analytically  !
 ! D94   D(39,32,33,38)        179.9683         calculate D2E/DX2 analytically  !
 ! D95   D(39,32,33,44)        -56.8144         calculate D2E/DX2 analytically  !
 ! D96   D(45,32,33,34)       -170.6381         calculate D2E/DX2 analytically  !
 ! D97   D(45,32,33,38)        -58.8572         calculate D2E/DX2 analytically  !
 ! D98   D(45,32,33,44)         64.3601         calculate D2E/DX2 analytically  !
 ! D99   D(33,32,36,35)         59.2163         calculate D2E/DX2 analytically  !
 ! D100  D(33,32,36,41)        -61.0217         calculate D2E/DX2 analytically  !
 ! D101  D(33,32,36,46)        177.1378         calculate D2E/DX2 analytically  !
 ! D102  D(39,32,36,35)        -59.5679         calculate D2E/DX2 analytically  !
 ! D103  D(39,32,36,41)       -179.8058         calculate D2E/DX2 analytically  !
 ! D104  D(39,32,36,46)         58.3536         calculate D2E/DX2 analytically  !
 ! D105  D(45,32,36,35)        178.2051         calculate D2E/DX2 analytically  !
 ! D106  D(45,32,36,41)         57.9672         calculate D2E/DX2 analytically  !
 ! D107  D(45,32,36,46)        -63.8734         calculate D2E/DX2 analytically  !
 ! D108  D(33,32,45,67)       -137.3638         calculate D2E/DX2 analytically  !
 ! D109  D(36,32,45,67)        104.6522         calculate D2E/DX2 analytically  !
 ! D110  D(39,32,45,67)        -17.21           calculate D2E/DX2 analytically  !
 ! D111  D(32,33,34,37)       -161.2689         calculate D2E/DX2 analytically  !
 ! D112  D(32,33,34,42)         33.8214         calculate D2E/DX2 analytically  !
 ! D113  D(32,33,34,53)        -70.6398         calculate D2E/DX2 analytically  !
 ! D114  D(38,33,34,37)         82.4123         calculate D2E/DX2 analytically  !
 ! D115  D(38,33,34,42)        -82.4973         calculate D2E/DX2 analytically  !
 ! D116  D(38,33,34,53)        173.0415         calculate D2E/DX2 analytically  !
 ! D117  D(44,33,34,37)        -33.1187         calculate D2E/DX2 analytically  !
 ! D118  D(44,33,34,42)        161.9716         calculate D2E/DX2 analytically  !
 ! D119  D(44,33,34,53)         57.5104         calculate D2E/DX2 analytically  !
 ! D120  D(32,33,44,63)        -89.9871         calculate D2E/DX2 analytically  !
 ! D121  D(34,33,44,63)        144.1399         calculate D2E/DX2 analytically  !
 ! D122  D(38,33,44,63)         33.2711         calculate D2E/DX2 analytically  !
 ! D123  D(33,34,37,19)        -57.017          calculate D2E/DX2 analytically  !
 ! D124  D(33,34,37,52)         76.247          calculate D2E/DX2 analytically  !
 ! D125  D(42,34,37,19)        109.048          calculate D2E/DX2 analytically  !
 ! D126  D(42,34,37,52)       -117.688          calculate D2E/DX2 analytically  !
 ! D127  D(53,34,37,19)       -153.8776         calculate D2E/DX2 analytically  !
 ! D128  D(53,34,37,52)        -20.6137         calculate D2E/DX2 analytically  !
 ! D129  D(33,34,42,35)        -20.708          calculate D2E/DX2 analytically  !
 ! D130  D(37,34,42,35)        173.5808         calculate D2E/DX2 analytically  !
 ! D131  D(53,34,42,35)         83.6382         calculate D2E/DX2 analytically  !
 ! D132  D(33,34,53,51)       -112.7976         calculate D2E/DX2 analytically  !
 ! D133  D(37,34,53,51)          7.6959         calculate D2E/DX2 analytically  !
 ! D134  D(42,34,53,51)        122.3303         calculate D2E/DX2 analytically  !
 ! D135  D(40,35,36,32)         69.8662         calculate D2E/DX2 analytically  !
 ! D136  D(40,35,36,41)       -170.2575         calculate D2E/DX2 analytically  !
 ! D137  D(40,35,36,46)        -50.9359         calculate D2E/DX2 analytically  !
 ! D138  D(42,35,36,32)        -45.7599         calculate D2E/DX2 analytically  !
 ! D139  D(42,35,36,41)         74.1165         calculate D2E/DX2 analytically  !
 ! D140  D(42,35,36,46)       -166.5619         calculate D2E/DX2 analytically  !
 ! D141  D(47,35,36,32)       -167.5033         calculate D2E/DX2 analytically  !
 ! D142  D(47,35,36,41)        -47.6269         calculate D2E/DX2 analytically  !
 ! D143  D(47,35,36,46)         71.6947         calculate D2E/DX2 analytically  !
 ! D144  D(36,35,42,34)         26.0089         calculate D2E/DX2 analytically  !
 ! D145  D(40,35,42,34)        -92.2427         calculate D2E/DX2 analytically  !
 ! D146  D(47,35,42,34)        152.2658         calculate D2E/DX2 analytically  !
 ! D147  D(36,35,47,48)        -65.5667         calculate D2E/DX2 analytically  !
 ! D148  D(36,35,47,49)        177.588          calculate D2E/DX2 analytically  !
 ! D149  D(36,35,47,50)         55.827          calculate D2E/DX2 analytically  !
 ! D150  D(40,35,47,48)         57.0058         calculate D2E/DX2 analytically  !
 ! D151  D(40,35,47,49)        -59.8395         calculate D2E/DX2 analytically  !
 ! D152  D(40,35,47,50)        178.3994         calculate D2E/DX2 analytically  !
 ! D153  D(42,35,47,48)        169.4096         calculate D2E/DX2 analytically  !
 ! D154  D(42,35,47,49)         52.5643         calculate D2E/DX2 analytically  !
 ! D155  D(42,35,47,50)        -69.1968         calculate D2E/DX2 analytically  !
 ! D156  D(32,36,46,71)        112.612          calculate D2E/DX2 analytically  !
 ! D157  D(35,36,46,71)       -126.4608         calculate D2E/DX2 analytically  !
 ! D158  D(41,36,46,71)         -8.0535         calculate D2E/DX2 analytically  !
 ! D159  D(19,37,52,51)        161.2558         calculate D2E/DX2 analytically  !
 ! D160  D(19,37,52,83)         11.0309         calculate D2E/DX2 analytically  !
 ! D161  D(34,37,52,51)         33.3036         calculate D2E/DX2 analytically  !
 ! D162  D(34,37,52,83)       -116.9213         calculate D2E/DX2 analytically  !
 ! D163  D(33,44,63,64)        -59.2975         calculate D2E/DX2 analytically  !
 ! D164  D(33,44,63,65)         62.7169         calculate D2E/DX2 analytically  !
 ! D165  D(33,44,63,66)       -177.7576         calculate D2E/DX2 analytically  !
 ! D166  D(32,45,67,68)        -59.5317         calculate D2E/DX2 analytically  !
 ! D167  D(32,45,67,69)         62.5574         calculate D2E/DX2 analytically  !
 ! D168  D(32,45,67,70)       -178.7758         calculate D2E/DX2 analytically  !
 ! D169  D(36,46,71,72)        -61.6817         calculate D2E/DX2 analytically  !
 ! D170  D(36,46,71,73)         60.321          calculate D2E/DX2 analytically  !
 ! D171  D(36,46,71,74)        179.1924         calculate D2E/DX2 analytically  !
 ! D172  D(35,47,50,75)       -179.914          calculate D2E/DX2 analytically  !
 ! D173  D(48,47,50,75)        -60.9237         calculate D2E/DX2 analytically  !
 ! D174  D(49,47,50,75)         59.6574         calculate D2E/DX2 analytically  !
 ! D175  D(47,50,75,76)        179.9671         calculate D2E/DX2 analytically  !
 ! D176  D(47,50,75,77)        -60.7972         calculate D2E/DX2 analytically  !
 ! D177  D(47,50,75,78)         60.6588         calculate D2E/DX2 analytically  !
 ! D178  D(43,51,52,37)       -149.4201         calculate D2E/DX2 analytically  !
 ! D179  D(43,51,52,83)       -101.1697         calculate D2E/DX2 analytically  !
 ! D180  D(53,51,52,37)        -18.4603         calculate D2E/DX2 analytically  !
 ! D181  D(53,51,52,83)         29.7902         calculate D2E/DX2 analytically  !
 ! D182  D(54,51,52,37)         94.4351         calculate D2E/DX2 analytically  !
 ! D183  D(54,51,52,83)        142.6855         calculate D2E/DX2 analytically  !
 ! D184  D(43,51,53,34)        145.7222         calculate D2E/DX2 analytically  !
 ! D185  D(52,51,53,34)         14.4712         calculate D2E/DX2 analytically  !
 ! D186  D(54,51,53,34)        -98.0761         calculate D2E/DX2 analytically  !
 ! D187  D(43,51,54,55)        -35.8867         calculate D2E/DX2 analytically  !
 ! D188  D(43,51,54,56)        147.8987         calculate D2E/DX2 analytically  !
 ! D189  D(52,51,54,55)         85.4443         calculate D2E/DX2 analytically  !
 ! D190  D(52,51,54,56)        -90.7703         calculate D2E/DX2 analytically  !
 ! D191  D(53,51,54,55)       -156.8436         calculate D2E/DX2 analytically  !
 ! D192  D(53,51,54,56)         26.9418         calculate D2E/DX2 analytically  !
 ! D193  D(37,52,83,19)         -9.6447         calculate D2E/DX2 analytically  !
 ! D194  D(37,52,83,84)        155.5198         calculate D2E/DX2 analytically  !
 ! D195  D(51,52,83,19)        -65.4916         calculate D2E/DX2 analytically  !
 ! D196  D(51,52,83,84)         99.6728         calculate D2E/DX2 analytically  !
 ! D197  D(51,54,55,57)       -175.5782         calculate D2E/DX2 analytically  !
 ! D198  D(51,54,55,58)          4.7294         calculate D2E/DX2 analytically  !
 ! D199  D(56,54,55,57)          0.5802         calculate D2E/DX2 analytically  !
 ! D200  D(56,54,55,58)       -179.1122         calculate D2E/DX2 analytically  !
 ! D201  D(51,54,56,59)        175.7156         calculate D2E/DX2 analytically  !
 ! D202  D(51,54,56,60)         -3.9966         calculate D2E/DX2 analytically  !
 ! D203  D(55,54,56,59)         -0.4345         calculate D2E/DX2 analytically  !
 ! D204  D(55,54,56,60)        179.8533         calculate D2E/DX2 analytically  !
 ! D205  D(54,55,57,61)         -0.3264         calculate D2E/DX2 analytically  !
 ! D206  D(54,55,57,93)        176.3557         calculate D2E/DX2 analytically  !
 ! D207  D(58,55,57,61)        179.3642         calculate D2E/DX2 analytically  !
 ! D208  D(58,55,57,93)         -3.9537         calculate D2E/DX2 analytically  !
 ! D209  D(54,56,59,61)          0.031          calculate D2E/DX2 analytically  !
 ! D210  D(54,56,59,97)        178.0183         calculate D2E/DX2 analytically  !
 ! D211  D(60,56,59,61)        179.7417         calculate D2E/DX2 analytically  !
 ! D212  D(60,56,59,97)         -2.271          calculate D2E/DX2 analytically  !
 ! D213  D(55,57,61,59)         -0.0661         calculate D2E/DX2 analytically  !
 ! D214  D(55,57,61,62)        179.897          calculate D2E/DX2 analytically  !
 ! D215  D(93,57,61,59)       -176.7344         calculate D2E/DX2 analytically  !
 ! D216  D(93,57,61,62)          3.2287         calculate D2E/DX2 analytically  !
 ! D217  D(55,57,93,94)        -85.3188         calculate D2E/DX2 analytically  !
 ! D218  D(55,57,93,95)        155.104          calculate D2E/DX2 analytically  !
 ! D219  D(55,57,93,96)         34.1082         calculate D2E/DX2 analytically  !
 ! D220  D(61,57,93,94)         91.3921         calculate D2E/DX2 analytically  !
 ! D221  D(61,57,93,95)        -28.1852         calculate D2E/DX2 analytically  !
 ! D222  D(61,57,93,96)       -149.181          calculate D2E/DX2 analytically  !
 ! D223  D(56,59,61,57)          0.2157         calculate D2E/DX2 analytically  !
 ! D224  D(56,59,61,62)       -179.7474         calculate D2E/DX2 analytically  !
 ! D225  D(97,59,61,57)       -177.7887         calculate D2E/DX2 analytically  !
 ! D226  D(97,59,61,62)          2.2483         calculate D2E/DX2 analytically  !
 ! D227  D(56,59,97,98)         20.5097         calculate D2E/DX2 analytically  !
 ! D228  D(56,59,97,99)        -99.4195         calculate D2E/DX2 analytically  !
 ! D229  D(56,59,97,100)       141.2286         calculate D2E/DX2 analytically  !
 ! D230  D(61,59,97,98)       -161.476          calculate D2E/DX2 analytically  !
 ! D231  D(61,59,97,99)         78.5947         calculate D2E/DX2 analytically  !
 ! D232  D(61,59,97,100)       -40.7572         calculate D2E/DX2 analytically  !
 ! D233  D(19,83,84,85)        157.5087         calculate D2E/DX2 analytically  !
 ! D234  D(19,83,84,89)        -18.1173         calculate D2E/DX2 analytically  !
 ! D235  D(52,83,84,85)         -2.7318         calculate D2E/DX2 analytically  !
 ! D236  D(52,83,84,89)       -178.3578         calculate D2E/DX2 analytically  !
 ! D237  D(83,84,85,86)       -115.8308         calculate D2E/DX2 analytically  !
 ! D238  D(83,84,85,87)          3.4946         calculate D2E/DX2 analytically  !
 ! D239  D(83,84,85,88)        122.9632         calculate D2E/DX2 analytically  !
 ! D240  D(89,84,85,86)         60.2831         calculate D2E/DX2 analytically  !
 ! D241  D(89,84,85,87)        179.6085         calculate D2E/DX2 analytically  !
 ! D242  D(89,84,85,88)        -60.9229         calculate D2E/DX2 analytically  !
 ! D243  D(83,84,89,90)       -123.0374         calculate D2E/DX2 analytically  !
 ! D244  D(83,84,89,91)         -3.633          calculate D2E/DX2 analytically  !
 ! D245  D(83,84,89,92)        115.7626         calculate D2E/DX2 analytically  !
 ! D246  D(85,84,89,90)         60.926          calculate D2E/DX2 analytically  !
 ! D247  D(85,84,89,91)       -179.6696         calculate D2E/DX2 analytically  !
 ! D248  D(85,84,89,92)        -60.274          calculate D2E/DX2 analytically  !
 --------------------------------------------------------------------------------
 Trust Radius=1.00D-02 FncErr=1.00D-07 GrdErr=1.00D-06 EigMax=2.50D+02 EigMin=1.00D-04
 Number of steps in this run=    556 maximum allowed number of steps=    600.
 Search for a saddle point of order  1.
 GradGradGradGradGradGradGradGradGradGradGradGradGradGradGradGradGradGrad

 Leave Link  103 at Mon Jun 17 15:21:10 2019, MaxMem= 12884901888 cpu:               1.0 elap:               0.1
 (Enter /n/sw/g16_nehalem/g16/l202.exe)
 Stoichiometry    C30H47F6NaO15S
 Framework group  C1[X(C30H47F6NaO15S)]
 Deg. of freedom   294
 Full point group                 C1      NOp   1
 Largest Abelian subgroup         C1      NOp   1
 Largest concise Abelian subgroup C1      NOp   1
                         Standard orientation:                         
 ---------------------------------------------------------------------
 Center     Atomic      Atomic             Coordinates (Angstroms)
 Number     Number       Type             X           Y           Z
 ---------------------------------------------------------------------
      1          6           0       -2.170345    1.215456    2.469444
      2          6           0       -2.573779    2.062241    1.265096
      3          6           0       -1.868564    3.418680    1.323140
      4          6           0        0.017605    2.508320    2.510743
      5          6           0       -0.648424    1.131341    2.584132
      6          1           0       -2.053522    3.986254    0.398392
      7          1           0       -2.224495    1.563949    0.348443
      8          1           0       -2.568927    1.692935    3.375287
      9          1           0       -0.248866    3.066252    3.420494
     10          1           0       -0.276735    0.515657    1.752619
     11          8           0       -0.464809    3.232487    1.360004
     12          8           0       -2.344459    4.122276    2.426976
     13          8           0       -3.969712    2.273242    1.208965
     14          8           0       -2.719377   -0.087244    2.324160
     15          8           0       -0.310733    0.534092    3.828825
     16          6           0        1.548587    2.443377    2.388071
     17          1           0        1.890351    1.878579    3.280936
     18          1           0        1.904731    3.487099    2.547858
     19          8           0        2.010375    1.925809    1.200624
     20          6           0       -4.643433    1.428606    0.295024
     21          1           0       -4.291574    1.586422   -0.735862
     22          1           0       -4.519130    0.370903    0.552842
     23          1           0       -5.704031    1.692020    0.346109
     24          6           0       -3.372861   -0.577121    3.478237
     25          1           0       -2.702688   -0.594203    4.347102
     26          1           0       -4.260244    0.024630    3.724680
     27          1           0       -3.687522   -1.598625    3.247873
     28          6           0        0.335504   -0.718856    3.723954
     29          1           0       -0.281419   -1.446799    3.180373
     30          1           0        1.312070   -0.637369    3.226964
     31          1           0        0.490052   -1.078416    4.746116
     32          6           0        4.279438   -0.743644   -1.261492
     33          6           0        3.363567    0.361655   -0.730508
     34          6           0        2.121196   -0.212321   -0.129009
     35          6           0        3.134341   -2.358128    0.304061
     36          6           0        4.472192   -1.766540   -0.139694
     37          1           0        1.246908    0.401813    0.017643
     38          1           0        3.841261    0.842692    0.142839
     39          1           0        3.801499   -1.219574   -2.128516
     40          1           0        2.746112   -3.001301   -0.492953
     41          1           0        4.947193   -1.265655    0.713864
     42          8           0        2.101167   -1.334131    0.490088
     43          8           0       -0.261039   -0.016307   -3.880965
     44          8           0        3.015426    1.348065   -1.667230
     45          8           0        5.523838   -0.185564   -1.621490
     46          8           0        5.257234   -2.855031   -0.577534
     47          6           0        3.192250   -3.145532    1.592344
     48          1           0        3.817818   -4.034665    1.415255
     49          1           0        2.178257   -3.492081    1.849542
     50          8           0        3.724594   -2.329880    2.603911
     51         16           0       -0.095195   -0.170382   -2.424116
     52          8           0       -0.267639    1.092583   -1.650304
     53          8           0        1.160184   -0.897747   -2.032321
     54          6           0       -1.437784   -1.226280   -1.860660
     55          6           0       -2.687580   -1.118493   -2.461430
     56          6           0       -1.232853   -2.079847   -0.780731
     57          6           0       -3.748105   -1.871935   -1.959621
     58          1           0       -2.828968   -0.459222   -3.312221
     59          6           0       -2.300752   -2.827807   -0.293124
     60          1           0       -0.251787   -2.154598   -0.324528
     61          6           0       -3.562221   -2.727105   -0.876525
     62          1           0       -4.393180   -3.308760   -0.490963
     63          6           0        3.921077    2.451551   -1.701543
     64          1           0        3.970096    2.936758   -0.717281
     65          1           0        4.920793    2.131275   -2.005914
     66          1           0        3.514370    3.152975   -2.433158
     67          6           0        6.044569   -0.676295   -2.847624
     68          1           0        6.190742   -1.762231   -2.815907
     69          1           0        5.383152   -0.425390   -3.688469
     70          1           0        7.009628   -0.184604   -2.993934
     71          6           0        6.530326   -2.938276    0.045501
     72          1           0        7.137721   -2.050544   -0.169062
     73          1           0        6.434984   -3.055490    1.133728
     74          1           0        7.021589   -3.822125   -0.368673
     75          6           0        3.812072   -3.000796    3.844220
     76          1           0        4.233914   -2.293240    4.561560
     77          1           0        2.821283   -3.324183    4.196472
     78          1           0        4.466600   -3.882857    3.778027
     79          6           0       -1.926634    5.476218    2.459817
     80          1           0       -2.425050    5.939861    3.314115
     81          1           0       -0.840089    5.562163    2.583534
     82          1           0       -2.224004    6.001053    1.539914
     83         11           0        0.906542    2.801010   -0.575247
     84          8           0        1.123910    4.774187   -1.826539
     85          6           0        0.637721    4.905086   -3.150493
     86          1           0        1.463411    5.065990   -3.858284
     87          1           0        0.123115    3.975186   -3.403153
     88          1           0       -0.067509    5.744641   -3.229052
     89          6           0        1.821152    5.927931   -1.395495
     90          1           0        1.165107    6.809942   -1.401760
     91          1           0        2.164318    5.741328   -0.375039
     92          1           0        2.689845    6.126553   -2.039559
     93          6           0       -5.120459   -1.699919   -2.549908
     94          9           0       -5.775637   -0.670750   -1.971396
     95          9           0       -5.881156   -2.794582   -2.379052
     96          9           0       -5.067419   -1.439066   -3.866849
     97          6           0       -2.091506   -3.789157    0.843841
     98          9           0       -0.982332   -3.502414    1.551679
     99          9           0       -1.960590   -5.054973    0.402980
    100          9           0       -3.132365   -3.780348    1.698116
 ---------------------------------------------------------------------
 Rotational constants (GHZ):           0.0543457           0.0417685           0.0359394
 Leave Link  202 at Mon Jun 17 15:21:10 2019, MaxMem= 12884901888 cpu:               0.4 elap:               0.0
 (Enter /n/sw/g16_nehalem/g16/l301.exe)
 Standard basis: 6-31G(d) (6D, 7F)
 Centers:      19     53     43     52
 SP 1 1.00
     Exponent=  8.4500000000D-02 Coefficients=  1.0000000000D+00  1.0000000000D+00
 ****
 Ernie: Thresh=  0.10000D-02 Tol=  0.10000D-05 Strict=F.
 There are   913 symmetry adapted cartesian basis functions of A   symmetry.
 There are   913 symmetry adapted basis functions of A   symmetry.
   913 basis functions,  1736 primitive gaussians,   913 cartesian basis functions
   214 alpha electrons      214 beta electrons
       nuclear repulsion energy      9537.6772728681 Hartrees.
 IExCor=  909 DFT=T Ex+Corr=mPW3PBE ExCW=0 ScaHFX=  0.200000
 ScaDFX=  0.800000  0.720000  1.000000  0.810000 ScalE2=  1.000000  1.000000
 IRadAn=      5 IRanWt=     -1 IRanGd=            0 ICorTp=0 IEmpDi=  4
 NAtoms=  100 NActive=  100 NUniq=  100 SFac= 1.00D+00 NAtFMM=   60 NAOKFM=T Big=T
 Integral buffers will be    131072 words long.
 Raffenetti 2 integral format.
 Two-electron integral symmetry is turned on.
 Force inversion solution in PCM.
 ------------------------------------------------------------------------------
 Polarizable Continuum Model (PCM)
 =================================
 Model                : PCM.
 Atomic radii         : UFF (Universal Force Field).
 Polarization charges : Total charges.
 Charge compensation  : None.
 Solution method      : Matrix inversion.
 Cavity type          : Scaled VdW (van der Waals Surface) (Alpha=1.100).
 Cavity algorithm     : GePol (No added spheres)
                        Default sphere list used, NSphG=  100.
                        Lebedev-Laikov grids with approx.  5.0 points / Ang**2.
                        Smoothing algorithm: York/Karplus (Gamma=1.0000).
                        Polarization charges: spherical gaussians, with
                                              point-specific exponents (IZeta= 3).
                        Self-potential: point-specific (ISelfS= 7).
                        Self-field    : sphere-specific E.n sum rule (ISelfD= 2).
 1st derivatives      : Analytical E(r).r(x)/FMM algorithm (CHGder, D1EAlg=3).
                        Cavity 1st derivative terms included.
 2nd derivatives      : Analytical E(r).r(xy)/FMM algorithm (CHGder, D2EAlg=3).
                        Cavity 2nd derivative terms included.
 Solvent              : TetraHydroFuran, Eps=   7.425700 Eps(inf)=   1.974025
 ------------------------------------------------------------------------------
 GePol: Number of generator spheres                  =     100
 GePol: Total number of spheres                      =     100
 GePol: Number of exposed spheres                    =     100 (100.00%)
 GePol: Number of points                             =    6717
 GePol: Average weight of points                     =       0.12
 GePol: Minimum weight of points                     =   0.78D-11
 GePol: Maximum weight of points                     =    0.21371
 GePol: Number of points with low weight             =     486
 GePol: Fraction of low-weight points (<1% of avg)   =       7.24%
 GePol: Cavity surface area                          =    831.677 Ang**2
 GePol: Cavity volume                                =   1000.268 Ang**3
 Leave Link  301 at Mon Jun 17 15:21:10 2019, MaxMem= 12884901888 cpu:               3.2 elap:               0.1
 (Enter /n/sw/g16_nehalem/g16/l302.exe)
 NPDir=0 NMtPBC=     1 NCelOv=     1 NCel=       1 NClECP=     1 NCelD=      1
         NCelK=      1 NCelE2=     1 NClLst=     1 CellRange=     0.0.
 One-electron integrals computed using PRISM.
 One-electron integral symmetry used in STVInt
 NBasis=   913 RedAO= T EigKep=  3.82D-04  NBF=   913
 NBsUse=   913 1.00D-06 EigRej= -1.00D+00 NBFU=   913
 Precomputing XC quadrature grid using
 IXCGrd= 4 IRadAn=           5 IRanWt=          -1 IRanGd=           0 AccXCQ= 0.00D+00.
 Generated NRdTot=       0 NPtTot=           0 NUsed=           0 NTot=          32
 NSgBfM=   850   850   850   850   850 MxSgAt=   100 MxSgA2=   100.
 Leave Link  302 at Mon Jun 17 15:21:13 2019, MaxMem= 12884901888 cpu:              89.1 elap:               2.5
 (Enter /n/sw/g16_nehalem/g16/l303.exe)
 DipDrv:  MaxL=1.
[...]
 4,0.00007536,-0.00013778,0.00010695,0.00001243,0.00010583,0.00001912,-
 0.00001944,-0.00008256,0.00001193,-0.00001197,0.00007242,-0.00008157,0
 .00002131,-0.00006559,0.00008996,-0.00005465,0.00332533,0.00189193,-0.
 00118891,-0.00067334,-0.00119873,-0.00009307,-0.00160937,-0.00006598,-
 0.00008989,-0.00053827,0.00063285,0.00240102,0.00020575,-0.00088563,0.
 00042381,0.00377895,-0.00071980,0.00084598,-0.00005412,0.00050543,0.00
 229503,0.00011027,-0.00017767,-0.00018408,0.00583889,-0.04550591,-0.00
 403235,0.00036462,-0.00063234,-0.00102078,-0.00341266,-0.00118226,0.00
 002149,0.00062553,-0.00078306,-0.00088716,0.00006958,0.00010438,-0.000
 01477,-0.00000807,-0.00001291,-0.00001009,-0.00002264,-0.00001455,0.00
 000445,0.00000124,-0.00000825,0.00000176,0.00003355,-0.00004030,-0.000
 07026,-0.00000584,0.00001460,0.00000545,0.00000040,0.00000192,0.000005
 51,-0.00000945,0.00000082,0.00000952,0.00005778,-0.00001141,0.00003508
 ,-0.00000422,0.00000122,-0.00000500,-0.00000287,-0.00000654,-0.0000094
 5,-0.00002055,0.00000754,0.00000242,0.00004387,-0.00005117,0.00006221,
 0.00000147,0.00000464,-0.00000476,0.00000401,-0.00001210,0.00000218,-0
 .00002930,0.00001876,-0.00000089,0.00002518,0.00010767,-0.00000228,0.0
 0000305,-0.00001723,-0.00001087,-0.00001098,-0.00000800,0.00000336,-0.
 00000439,-0.00001434,0.00001030,0.00008577,0.00021126,0.00003619,-0.00
 003138,-0.00006213,0.00000406,0.00001260,0.00002019,-0.00001232,-0.000
 01075,-0.00000519,0.00000471,-0.00000658,-0.00000404,-0.00000736,0.000
 00251,-0.00000442,-0.00000162,0.00003493,0.00004590,0.00001708,0.00000
 082,-0.00000932,-0.00000109,0.00000215,0.00000080,-0.00000393,-0.00001
 001,-0.00000807,0.00000634,-0.00283995,-0.00000249,-0.00095042,0.00086
 849,-0.00042061,0.00003390,0.00084951,0.00039503,0.00020677,0.00072097
 ,-0.00017530,0.00086028,0.02243811,-0.25847745,-0.03982963,-0.02904652
 ,-0.03267898,-0.03388875,-0.02867977,0.35490563,0.00007530,0.00018620,
 0.00000657,-0.00003620,-0.00000178,-0.00009148,-0.00000322,0.00002086,
 -0.00000130,-0.00001519,0.00006925,-0.00004075,-0.00003215,0.00007262,
 -0.00012112,-0.00000016,-0.00002266,0.00000702,0.00000059,-0.00000061,
 0.00000837,-0.00000666,-0.00001861,-0.00000111,-0.00000634,-0.00000659
 ,0.00000555,0.00001234,0.00000824,-0.00001536,0.00001294,-0.00004868,0
 .00006192,0.00000238,-0.00002454,0.00001686,0.00005335,0.00000945,0.00
 008882,-0.00004234,-0.00030803,0.00004778,0.00003337,-0.00032525,0.000
 04592,0.00005536,0.00000099,-0.00007760,0.00000985,-0.00000126,0.00002
 503,-0.00001866,-0.00000127,0.00001949,-0.00004876,0.00001808,0.000113
 48,-0.00001553,-0.00002029,-0.00007944,-0.00000386,-0.00003057,0.00003
 357,0.00000587,-0.00000282,-0.00003449,0.,0.00000654,0.00000761,0.0001
 8071,0.00033939,-0.00005615,-0.00001811,-0.00003266,0.00001393,0.00000
 076,-0.00010410,-0.00001301,-0.00025347,0.00005686,0.00023831,0.000182
 60,0.00040013,0.00016384,-0.00008111,0.00002258,0.00009185,-0.00003927
 ,-0.00003909,-0.00002557,-0.00002273,-0.00003263,-0.00003525,-0.000027
 27,-0.00000349,-0.00002339,0.00000123,0.00001026,-0.00000141,-0.000151
 83,-0.00000682,-0.00033583,-0.00003786,-0.00000265,-0.00007113,0.00001
 372,-0.00000529,-0.00000018,0.00000854,-0.00000349,-0.00002170,0.00001
 023,0.00000123,-0.00000671,-0.00000781,0.00000501,0.00001355,0.0000044
 6,0.00000306,-0.00000137,0.00000872,0.00000478,-0.00000003,0.00002974,
 -0.00010094,0.00015109,0.00026248,0.00024080,-0.00024657,0.00002588,0.
 00000879,0.00002301,0.00001010,0.00000173,0.00002500,0.00001096,-0.000
 00434,0.00002230,0.00013095,0.00006048,-0.00006108,-0.00003158,-0.0000
 0028,0.00001045,0.00002476,-0.00004305,0.00002673,-0.00006093,-0.00001
 812,0.00004360,-0.00100375,-0.00070138,0.00011579,0.00019445,0.0004040
 7,0.00011969,0.00052792,0.00008018,0.00016107,-0.00006700,-0.00056261,
 -0.00099436,0.00013445,0.00049726,-0.00035711,-0.00146967,-0.00004404,
 0.00030594,0.00045050,-0.00053145,-0.00030882,-0.00001109,0.00003810,0
 .00008557,-0.00202544,0.01931240,0.00945534,0.00010174,0.00042450,0.00
 009794,0.00081012,0.00045266,0.00022379,-0.00014896,0.00017302,0.00000
 387,-0.00001238,-0.00002362,-0.00000018,0.00000262,0.00000525,0.000004
 89,0.00000303,0.00000279,-0.00000110,-0.00000024,-0.00000208,0.0000007
 0,-0.00000297,-0.00000452,-0.00001351,-0.00000215,0.00000151,-0.000001
 44,0.00000207,-0.00000361,0.00000485,0.00000235,0.00000196,0.00000092,
 -0.00001025,0.00000083,-0.00001406,0.00000078,0.00000072,0.00000056,0.
 00000356,-0.00000057,0.00000607,-0.00000125,0.00000103,0.00000009,0.00
 005789,0.00001541,-0.00002620,-0.00000488,-0.00000460,0.00000192,-0.00
 001727,-0.00000719,0.00001446,-0.00001283,0.00000406,0.00000481,0.0000
 0122,0.00001968,-0.00000416,-0.00000070,-0.00000007,-0.00000047,-0.000
 00071,-0.00000060,-0.00000076,0.00000115,-0.00000435,0.00000465,-0.000
 01617,-0.00004961,-0.00006309,0.00001036,0.00001767,0.00001705,-0.0000
 0765,-0.00000815,-0.00001208,0.00000049,-0.00000041,0.00000171,0.00000
 455,0.00000267,0.00000054,-0.00000017,0.00000178,0.00000195,-0.0000087
 7,-0.00001394,-0.00000942,0.00000005,0.00000344,-0.00000007,0.00000205
 ,0.00000042,0.00000288,0.00000132,0.00000209,-0.00000009,0.00087330,-0
 .00022202,0.00020688,-0.00027263,0.00017970,0.00002397,-0.00025188,-0.
 00004379,-0.00004197,-0.00021213,0.00007508,-0.00016810,0.00373472,-0.
 03896030,-0.08231582,-0.01941165,-0.04282123,-0.01397423,-0.01153986,0
 .10491649,0.10843352,-0.00020574,-0.00032428,-0.00000711,-0.00003400,0
 .00005676,0.00007138,-0.00013168,0.00001284,-0.00000591,0.00004978,0.0
 0000016,-0.00002871,-0.00012464,0.00018182,0.00000002,0.00001356,0.000
 01987,-0.00000144,-0.00000528,0.00000417,-0.00002008,0.00002288,0.0000
 1238,-0.00000553,0.00000181,-0.00001943,-0.00000803,0.00003979,-0.0000
 2068,-0.00004626,0.00008875,-0.00004694,0.00001114,0.00004305,-0.00000
 290,-0.00003114,0.00011496,0.00005228,-0.00002856,0.00041433,0.0005281
 1,-0.00010969,0.00019217,-0.00035352,-0.00005330,-0.00008396,0.0000402
 3,0.00012777,0.00001343,0.00000853,-0.00001887,0.00002132,-0.00004211,
 -0.00003875,0.00005418,-0.00014606,-0.00015199,-0.00003267,-0.00012589
 ,0.00004008,0.00001067,0.00005647,-0.00004244,-0.00001656,-0.00000561,
 0.00003577,0.00000975,-0.00000488,-0.00000084,-0.00070224,-0.00099760,
 0.00033535,0.00006617,0.00019451,0.00006785,0.00006445,0.00021303,0.00
 002271,0.00057057,-0.00004892,-0.00071585,0.00012445,0.00046534,0.0001
 8493,-0.00015167,0.00008774,0.00018658,0.00002695,0.00000142,-0.000016
 41,-0.00004171,-0.00005262,-0.00006767,0.00006324,0.00002717,-0.000040
 33,-0.00003695,0.00003824,-0.00002592,0.00016306,0.00048780,0.00004297
 ,0.00008538,-0.00002325,-0.00001483,0.00009913,-0.00002776,-0.00001291
 ,-0.00000374,0.00005254,0.00000865,-0.00000491,0.00000597,0.00002369,0
 .00000556,-0.00000122,-0.00001315,0.00002954,0.00000260,-0.00003390,-0
 .00001516,-0.00000094,-0.00000037,-0.00016841,-0.00030599,0.00010834,-
 0.00019893,-0.00025361,0.00047596,-0.00005571,-0.00010664,0.00003405,-
 0.00010296,-0.00003530,0.00006291,-0.00012531,0.00002363,0.00000223,0.
 00035083,0.00020775,0.00004602,-0.00005780,-0.00001277,0.00000650,0.00
 007090,-0.00009975,0.00012844,-0.00017591,-0.00007957,-0.00019610,0.00
 086704,0.00086790,-0.00040057,-0.00014116,-0.00054363,-0.00012124,-0.0
 0038982,-0.00020791,0.00005159,-0.00025083,-0.00045012,-0.00034063,0.0
 0038708,0.00013281,0.00015640,0.00131724,-0.00068798,0.00173218,0.0010
 4522,-0.00103817,0.00049980,0.00011097,0.00012681,0.00004625,-0.006106
 44,-0.00115768,0.01395519,0.00041973,0.00074707,-0.00033575,-0.0026482
 4,-0.00051038,-0.00248418,0.00161969,0.00095916,0.00070753,0.00004973,
 0.00007525,0.00000063,-0.00000726,-0.00000790,-0.00001004,-0.00001091,
 -0.00000497,0.00000051,-0.00000204,-0.00000852,0.00000447,0.00002258,-
 0.00001436,-0.00004697,0.00000459,0.00000373,0.00000251,0.00000101,0.0
 0000624,0.00000612,-0.00001119,-0.00000314,0.00000629,0.00008622,-0.00
 000521,0.00003852,-0.00001323,-0.00000996,-0.00000159,0.00000221,0.000
 00024,-0.00000749,-0.00000697,0.00000723,-0.00000112,0.00006040,-0.000
 05892,0.00010955,-0.00001718,-0.00000950,-0.00001954,-0.00000481,0.000
 01682,0.00001133,-0.00001074,0.00002178,-0.00000498,-0.00000953,-0.000
 00385,0.00000093,0.00000118,-0.00000223,-0.00000211,0.00000490,0.00000
 343,0.00000223,-0.00000092,0.00000158,-0.00000035,-0.00001089,0.000121
 05,0.00002947,-0.00000027,-0.00002948,-0.00000541,-0.00000070,0.000009
 94,-0.00000127,0.00000013,0.00000054,0.00000008,-0.00000770,-0.0000003
 4,-0.00000033,0.00000219,-0.00000653,-0.00000068,0.00000811,0.00002047
 ,0.00000882,0.00000189,-0.00000655,0.00000060,-0.00000123,0.00000129,-
 0.00000087,-0.00000174,-0.00000249,0.00000011,-0.00104078,-0.00011397,
 0.00011850,0.00035446,-0.00016965,-0.00009331,0.00031854,0.00017113,-0
 .00004131,0.00023767,-0.00003481,0.00011090,-0.17142202,-0.00993126,0.
 09919926,-0.07927404,-0.01200044,0.01409804,-0.01415150,0.02818005,0.0
 2938560,0.26828463,0.00008484,0.00018494,0.00000367,-0.00005167,0.0000
 1906,0.00003308,0.00001986,0.00008599,0.00004064,-0.00000334,0.0000404
 9,0.00000069,0.00000912,0.00000566,0.00008554,-0.00000264,-0.00001226,
 -0.00000065,0.00000909,0.00001822,-0.00001865,-0.00000918,-0.00002684,
 -0.00001095,0.00000064,-0.00001421,-0.00000933,0.00002810,-0.00001821,
 -0.00002824,-0.00001644,-0.00004300,-0.00002174,-0.00000122,-0.0000903
 1,-0.00003873,0.00001448,-0.00007600,-0.00003921,-0.00001624,-0.000238
 34,-0.00021248,-0.00005447,-0.00000146,-0.00006855,0.00000030,-0.00000
 919,0.00005213,0.00000193,0.00000790,-0.00001619,-0.00000766,-0.000027
 60,-0.00001650,-0.00002953,-0.00005597,-0.00006834,-0.00000493,0.00008
 536,0.00002475,-0.00000106,0.00001708,-0.00000880,-0.00003859,0.000007
 85,0.00004080,0.00001982,-0.00002369,-0.00000367,0.00028259,0.00026965
 ,0.00002180,-0.00004177,-0.00010435,-0.00005197,-0.00004863,-0.0001688
 6,-0.00007554,-0.00015645,-0.00120591,-0.00039956,0.00006337,0.0000167
 2,0.00004733,-0.00000244,-0.00003098,0.00000776,-0.00000598,-0.0000012
 1,-0.00000323,-0.00001445,-0.00000781,-0.00003025,0.00005046,-0.000010
 47,-0.00001125,-0.00000713,0.00000150,-0.00002101,0.00020226,0.0000998
 7,0.00027430,0.00010989,-0.00012849,0.00001579,0.00002963,-0.00000954,
 0.00000182,0.00001664,0.00003097,0.00000996,-0.00000912,-0.00000198,0.
 00001436,0.00000805,-0.00000694,-0.00000920,-0.00000688,-0.00000631,0.
 00000676,-0.00000213,0.00000140,0.00000053,-0.00013602,0.00008143,-0.0
 0008661,-0.00034018,-0.00023515,0.00054602,-0.00005806,-0.00003279,0.0
 0000516,-0.00005339,0.00000615,0.00002196,-0.00005508,0.00004025,-0.00
 000197,0.00001021,-0.00000393,0.00001096,-0.00001986,0.00000423,-0.000
 00730,0.00002463,-0.00001663,0.00001167,-0.00001027,0.00003496,-0.0000
 3967,0.00168873,0.00070911,-0.00054133,-0.00039392,-0.00062178,-0.0001
 0509,-0.00072013,-0.00003502,-0.00007787,0.00016995,-0.00164141,0.0001
 7730,-0.00055799,-0.00043135,0.00042782,0.00190616,0.00040910,0.001958
 48,0.00003356,-0.00016291,-0.00035023,-0.00000783,0.00006074,0.0000324
 8,-0.01735638,0.00475193,0.01996578,-0.00005912,0.00054215,0.00008301,
 -0.00054318,-0.00054821,0.00060007,0.00008093,-0.00019412,0.00068488,0
 .00003003,0.00004627,-0.00000590,-0.00000380,-0.00000635,-0.00000512,-
 0.00000948,-0.00000627,0.00000203,0.00000057,-0.00000274,0.00000046,0.
 00001348,-0.00001364,-0.00002312,-0.00000141,0.00000499,0.00000243,-0.
 00000034,0.00000177,0.00000086,-0.00000431,-0.00000034,0.00000335,0.00
 002573,-0.00000448,0.00001751,-0.00000201,-0.00000006,-0.00000202,-0.0
 0000202,-0.00000216,-0.00000527,-0.00000706,0.00000263,0.00000078,-0.0
 0000236,-0.00002590,0.00003509,0.00000207,0.00000272,-0.00000271,0.000
 00707,-0.00000118,-0.00000369,-0.00000624,0.00000629,-0.00000192,0.000
 01180,0.00004672,0.00000044,0.00000139,-0.00000809,-0.00000497,-0.0000
 0531,-0.00000394,0.00000162,-0.00000242,-0.00000642,0.00000389,0.00004
 482,0.00010133,0.00002393,-0.00001454,-0.00002866,-0.00000147,0.000006
 11,0.00000941,-0.00000288,-0.00000435,-0.00000190,0.00000168,-0.000003
 69,-0.00000202,-0.00000292,0.00000111,-0.00000227,-0.00000105,0.000015
 82,0.00002144,0.00000893,0.00000031,-0.00000449,-0.00000047,0.00000047
 ,0.00000035,-0.00000215,-0.00000442,-0.00000370,0.00000255,-0.00115438
 ,0.00003769,-0.00046004,0.00036351,-0.00016372,0.00002100,0.00036018,0
 .00014733,0.00008506,0.00024825,-0.00005579,0.00029238,-0.00879750,-0.
 07401718,0.01278043,-0.01147232,0.01021752,0.00250561,0.04044105,-0.01
 512772,-0.04296206,-0.00409765,0.07755310,0.00021825,0.00042315,0.0000
 2569,-0.00003319,-0.00005118,-0.00017632,0.00008739,-0.00001793,-0.000
 00512,-0.00005998,0.00006970,-0.00003091,0.00005642,-0.00006303,-0.000
 15890,-0.00000994,-0.00003926,0.00000950,0.00000386,-0.00000910,0.0000
 3248,-0.00002459,-0.00001973,0.00001182,-0.00000859,0.00001112,0.00001
 610,-0.00002398,0.00003243,0.00002824,-0.00003880,-0.00000478,0.000073
 49,-0.00002572,0.00000534,0.00005592,0.00000538,0.00002022,0.00015006,
 -0.00033658,-0.00069218,0.00020593,-0.00009799,-0.00007447,0.00012874,
 0.00012522,-0.00002740,-0.00020039,0.00000031,-0.00001056,0.00004902,-
 0.00003520,0.00003936,0.00005681,-0.00007795,0.00014683,0.00027100,-0.
 00000667,-0.00000275,-0.00012986,-0.00001013,-0.00007131,0.00006616,0.
 00002359,-0.00000815,-0.00008283,-0.00001073,0.00001757,0.00001114,0.0
 0098633,0.00115173,-0.00031304,-0.00007488,-0.00016352,-0.00000166,-0.
 00009074,-0.00035446,-0.00004223,-0.00085608,-0.00045070,0.00032309,0.
 00003141,0.00004141,0.00001412,0.00008339,-0.00006278,-0.00011631,-0.0
 0005850,-0.00004463,-0.00001314,0.00002202,0.00001556,0.00003395,-0.00
 009667,-0.00000969,0.00001036,0.00002637,-0.00000899,0.00002708,-0.000
 39480,-0.00036995,-0.00057868,-0.00016161,0.00010770,-0.00006906,-0.00
 006237,0.00001525,0.00000278,0.00000282,-0.00005435,-0.00003946,0.0000
 2059,-0.00000114,-0.00003128,-0.00001545,0.00001113,0.00002808,-0.0000
 0598,0.00000513,0.00001261,0.00001790,0.00000395,-0.00000004,0.0002234
 3,0.00001471,0.00015516,0.00067683,0.00057410,-0.00109352,0.00010155,0
 .00009309,0.00000235,0.00010498,0.00001691,-0.00002719,0.00011742,-0.0
 0004397,0.00002074,-0.00005276,-0.00004553,-0.00010584,0.00001113,0.00
 000374,0.00001344,0.00000807,0.00001438,-0.00001615,0.00004220,0.00000
 724,0.00017541,-0.00304754,-0.00171845,0.00073285,0.00062584,0.0013368
 4,0.00035847,0.00135470,0.00020496,0.00018626,0.00141409,0.00216535,-0
 .00026422,0.00027431,0.00046458,-0.00057603,-0.00448063,0.00148750,-0.
 00555538,-0.00001363,0.00048058,0.00002759,-0.00002921,-0.00005997,-0.
 00003715,0.03591208,0.00776203,-0.02541429,-0.00001492,-0.00052076,-0.
 00001466,0.00183898,0.00037696,0.00023232,-0.00017004,0.00004398,-0.00
 150301,-0.00006134,-0.00010041,0.00000391,0.00000975,0.00001443,0.0000
 1422,0.00001631,0.00001057,-0.00000259,0.00000032,0.00000475,-0.000002
 29,-0.00002480,0.00001339,0.00003029,-0.00000326,-0.00000420,-0.000004
 35,0.00000154,-0.00000783,0.00000040,0.00001143,0.00000361,-0.00000513
 ,-0.00007395,0.00000587,-0.00004617,0.00000936,0.00000651,0.00000246,0
 .00000353,0.00000031,0.00001307,0.00000728,-0.00000478,0.00000069,0.00
 002464,0.00006147,-0.00010645,0.00000503,0.00000018,0.00001438,-0.0000
 1724,-0.00001717,0.00000942,-0.00000457,-0.00001148,0.00000924,0.00000
 320,0.00000840,-0.00000513,-0.00000235,0.00000415,0.00000238,-0.000001
 91,-0.00000176,-0.00000302,0.00000261,-0.00000412,0.00000435,-0.000035
 28,-0.00019099,-0.00011441,0.00001873,0.00005391,0.00002200,-0.0000112
 0,-0.00002019,-0.00000998,0.00000286,0.00000034,0.00000087,0.00001231,
 0.00000391,0.00000274,-0.00000206,0.00000764,0.00000298,-0.00002345,-0
 .00003938,-0.00002103,-0.00000102,0.00001048,-0.00000031,0.00000271,-0
 .00000078,0.00000480,0.00000478,0.00000598,-0.00000151,0.00221797,-0.0
 0029850,0.00056735,-0.00074995,0.00043526,0.00006607,-0.00067872,-0.00
 021046,-0.00010931,-0.00048684,0.00014642,-0.00049208,0.09197885,0.014
 18945,-0.17233546,-0.00060507,0.00050862,0.02196828,0.03110966,-0.0316
 1199,-0.02094406,-0.15665089,0.00486454,0.20451132\\0.00000116,0.00000
 238,0.,0.00000144,0.00000169,0.00000065,0.00000162,0.00000074,-0.00000
 091,0.00000104,0.00000141,-0.00000081,0.00000056,0.00000167,0.00000011
 ,0.00000119,0.00000089,-0.00000077,0.00000037,0.00000081,0.00000032,0.
 00000152,0.00000223,0.00000064,0.00000210,0.00000151,-0.00000122,0.000
 00069,0.00000084,0.00000016,0.00000077,0.00000093,-0.00000070,0.000001
 99,0.00000233,-0.00000032,0.00000032,0.00000176,0.00000067,0.00000081,
 0.00000191,0.00000139,0.00000173,0.00000182,0.00000029,0.00000107,0.00
 000032,-0.00000115,0.00000154,0.00000063,-0.00000113,0.00000206,0.0000
 0051,-0.00000160,0.00000170,-0.00000035,-0.00000284,-0.00000017,0.0000
 0143,0.00000159,0.00000012,0.00000115,0.00000093,0.00000004,0.00000211
 ,0.00000167,0.00000077,0.00000196,0.00000150,0.00000111,0.00000230,0.0
 0000195,0.00000079,0.00000293,0.00000132,0.00000104,0.00000316,0.00000
 191,0.00000043,0.00000286,0.00000232,0.00000096,0.00000179,0.00000096,
 0.00000040,0.00000128,0.00000077,0.00000066,0.00000135,0.00000023,0.00
 000104,0.00000200,0.00000058,-0.00000072,-0.00000234,-0.00000093,-0.00
 000065,-0.00000154,-0.00000083,0.00000004,-0.00000050,0.00000154,-0.00
 000036,-0.00000086,0.00000003,-0.00000109,-0.00000075,-0.00000025,-0.0
 0000040,-0.00000051,-0.00000096,0.00000047,-0.00000133,-0.00000150,-0.
 00000132,-0.00000219,-0.00000024,-0.00000127,-0.00000128,0.00000094,-0
 .00000030,-0.00000140,-0.00000084,-0.00000065,0.00000007,-0.00000059,-
 0.00000181,-0.00000186,0.00000058,0.,-0.00000215,-0.00000076,-0.000000
 83,-0.00000228,-0.00000142,-0.00000180,-0.00000199,-0.00000040,-0.0000
 0090,-0.00000049,0.00000059,-0.00000102,-0.00000038,0.00000078,-0.0000
 0039,0.00000017,0.00000117,-0.00000032,-0.00000054,0.00000037,-0.00000
 045,-0.00000145,0.00000024,-0.00000140,0.00000123,-0.00000046,-0.00000
 144,-0.00000109,-0.00000024,-0.00000186,-0.00000051,0.00000132,-0.0000
 0095,-0.00000056,0.00000239,-0.00000151,-0.00000015,0.00000155,-0.0000
 0205,0.00000073,0.00000215,-0.00000159,-0.00000038,0.00000140,-0.00000
 076,0.00000087,0.00000255,-0.00000077,-0.00000020,0.00000157,-0.000001
 10,0.00000097,0.00000253,-0.00000182,0.00000111,0.00000348,0.00000054,
 -0.00000239,-0.00000220,0.00000077,-0.00000158,-0.00000225,-0.00000038
 ,-0.00000247,-0.00000221,0.00000009,-0.00000205,-0.00000274,-0.0000014
 7,-0.00000363,-0.00000161,-0.00000175,-0.00000311,-0.00000112,-0.00000
 160,-0.00000323,-0.00000135,-0.00000124,-0.00000342,-0.00000212,-0.000
 00084,-0.00000266,-0.00000038,-0.00000081,-0.00000208,-0.00000141,-0.0
 0000072,-0.00000153,-0.00000070,-0.00000163,-0.00000205,-0.00000031,0.
 00000072,0.00000015,-0.00000027,0.00000076,0.00000096,0.00000002,-0.00
 000015,0.00000100,0.00000100,-0.00000038,0.00000061,0.00000048,0.00000
 169,0.00000158,-0.00000159,0.00000297,0.00000227,-0.00000159,0.0000029
 4,0.00000154,-0.00000180,0.00000237,0.00000138,-0.00000143,-0.00000156
 ,-0.00000333,-0.00000076,0.00000172,0.00000190,-0.00000309,0.00000043,
 -0.00000205,-0.00000249,0.00000046,-0.00000182,-0.00000193,-0.00000040
 ,-0.00000128,-0.00000166,0.00000050,-0.00000191,-0.00000230,-0.0000000
 9,-0.00000077,-0.00000116,0.00000145,-0.00000080,-0.00000344,0.0000035
 7,-0.00000079,-0.00000447,0.00000100,-0.00000185,-0.00000285,-0.000000
 80,0.00000039,0.00000302,-0.00000128,0.00000122,0.00000290,-0.00000206
 ,0.00000066,0.00000360,-0.00000210,-0.00000008,0.00000254,-0.00000108,
 0.00000067,0.00000258,-0.00000084,0.00000114,0.00000222,-0.00000152,0.
 00000080,0.00000331,-0.00000115,0.00000186,0.00000331\\\@


 We find comfort among those who agree with us -- growth among those who don't.
 -- Frank A. Clark
 Job cpu time:       2 days  3 hours 56 minutes 15.7 seconds.
 Elapsed time:       0 days  1 hours 26 minutes 48.7 seconds.
 File lengths (MBytes):  RWF=  10125 Int=      0 D2E=      0 Chk=     89 Scr=      1
 Normal termination of Gaussian 16 at Mon Jun 17 18:14:33 2019.
