 Entering Gaussian System, Link 0=g16
 Input=clay_new-glu_gluC6-BCDR-Na2_1Me2O-bisCF3-ts-b972-custom-pcm_thf.gjf
 Output=clay_new-glu_gluC6-BCDR-Na2_1Me2O-bisCF3-ts-b972-custom-pcm_thf.out
 Initial command:
 /home/ekwan/sw/g16/l1.exe "/scratch/users/ekwan/clay_new-glu_gluC6-BCDR-Na2_1Me2O-bisCF3-ts-b972-custom-pcm_thf/Gau-16827.inp" -scrdir="/scratch/users/ekwan/clay_new-glu_gluC6-BCDR-Na2_1Me2O-bisCF3-ts-b972-custom-pcm_thf/"
 Entering Link 1 = /home/ekwan/sw/g16/l1.exe PID=     16828.
  
 Copyright (c) 1988,1990,1992,1993,1995,1998,2003,2009,2016,
            Gaussian, Inc.  All Rights Reserved.
  
 This is part of the Gaussian(R) 16 program.  It is based on
 the Gaussian(R) 09 system (copyright 2009, Gaussian, Inc.),
 the Gaussian(R) 03 system (copyright 2003, Gaussian, Inc.),
 the Gaussian(R) 98 system (copyright 1998, Gaussian, Inc.),
 the Gaussian(R) 94 system (copyright 1995, Gaussian, Inc.),
 the Gaussian 92(TM) system (copyright 1992, Gaussian, Inc.),
 the Gaussian 90(TM) system (copyright 1990, Gaussian, Inc.),
 the Gaussian 88(TM) system (copyright 1988, Gaussian, Inc.),
 the Gaussian 86(TM) system (copyright 1986, Carnegie Mellon
 University), and the Gaussian 82(TM) system (copyright 1983,
 Carnegie Mellon University). Gaussian is a federally registered
 trademark of Gaussian, Inc.
  
 This software contains proprietary and confidential information,
 including trade secrets, belonging to Gaussian, Inc.
  
 This software is provided under written license and may be
 used, copied, transmitted, or stored only in accord with that
 written license.
  
 The following legend is applicable only to US Government
 contracts under FAR:
  
                    RESTRICTED RIGHTS LEGEND
  
 Use, reproduction and disclosure by the US Government is
 subject to restrictions as set forth in subparagraphs (a)
 and (c) of the Commercial Computer Software - Restricted
 Rights clause in FAR 52.227-19.
  
 Gaussian, Inc.
 340 Quinnipiac St., Bldg. 40, Wallingford CT 06492
  
  
 ---------------------------------------------------------------
 Warning -- This program may not be used in any manner that
 competes with the business of Gaussian, Inc. or will provide
 assistance to any competitor of Gaussian, Inc.  The licensee
 of this program is prohibited from giving any competitor of
 Gaussian, Inc. access to this program.  By using this program,
 the user acknowledges that Gaussian, Inc. is engaged in the
 business of creating and licensing software in the field of
 computational chemistry and represents and warrants to the
 licensee that it is not a competitor of Gaussian, Inc. and that
 it will not use this program in any manner prohibited above.
 ---------------------------------------------------------------
  

 Cite this work as:
 Gaussian 16, Revision A.03,
 M. J. Frisch, G. W. Trucks, H. B. Schlegel, G. E. Scuseria, 
 M. A. Robb, J. R. Cheeseman, G. Scalmani, V. Barone, 
 G. A. Petersson, H. Nakatsuji, X. Li, M. Caricato, A. V. Marenich, 
 J. Bloino, B. G. Janesko, R. Gomperts, B. Mennucci, H. P. Hratchian, 
 J. V. Ortiz, A. F. Izmaylov, J. L. Sonnenberg, D. Williams-Young, 
 F. Ding, F. Lipparini, F. Egidi, J. Goings, B. Peng, A. Petrone, 
 T. Henderson, D. Ranasinghe, V. G. Zakrzewski, J. Gao, N. Rega, 
 G. Zheng, W. Liang, M. Hada, M. Ehara, K. Toyota, R. Fukuda, 
 J. Hasegawa, M. Ishida, T. Nakajima, Y. Honda, O. Kitao, H. Nakai, 
 T. Vreven, K. Throssell, J. A. Montgomery, Jr., J. E. Peralta, 
 F. Ogliaro, M. J. Bearpark, J. J. Heyd, E. N. Brothers, K. N. Kudin, 
 V. N. Staroverov, T. A. Keith, R. Kobayashi, J. Normand, 
 K. Raghavachari, A. P. Rendell, J. C. Burant, S. S. Iyengar, 
 J. Tomasi, M. Cossi, J. M. Millam, M. Klene, C. Adamo, R. Cammi, 
 J. W. Ochterski, R. L. Martin, K. Morokuma, O. Farkas, 
 J. B. Foresman, and D. J. Fox, Gaussian, Inc., Wallingford CT, 2016.
 
 ******************************************
 Gaussian 16:  AS64L-G16RevA.03 25-Dec-2016
                16-Jun-2019 
 ******************************************
 %mem=48GB
 %nprocshared=32
 Will use up to   32 processors via shared memory.
 ----------------------------------------------------------------------
 #p opt=(calcfc,ts,noeigentest,maxstep=5) freq=noraman 6-31g(d) scrf=(s
 olvent=tetrahydrofuran,pcm) pop=none extrabasis b972
 ----------------------------------------------------------------------
 1/5=1,8=5,10=4,11=1,18=20,26=3,38=1/1,3;
 2/9=110,12=2,17=6,18=5,40=1/2;
 3/5=1,6=6,7=1,10=1,11=2,25=1,30=1,70=2201,71=2,72=20,74=-21,140=1/1,2,3;
 4//1;
 5/5=2,38=5,53=20/2;
 8/6=4,10=90,11=11/1;
 11/6=1,8=1,9=11,15=111,16=1/1,2,10;
 10/6=1,13=1/2;
 7/10=1,18=20,25=1/1,2,3,16;
 1/5=1,8=5,10=4,11=1,18=20,26=3/3(2);
 2/9=110/2;
 99//99;
 2/9=110/2;
 3/5=7,6=1,7=1,11=2,25=1,30=1,70=2205,71=1,72=20,74=-21,82=7/1,2,3;
 4/5=5,16=3,69=1/1;
 5/5=2,38=5,53=20/2;
 7//1,2,3,16;
 1/5=1,8=5,11=1,18=20,26=3/3(-5);
 2/9=110/2;
 99/9=1/99;
 Leave Link    1 at Sun Jun 16 11:41:05 2019, MaxMem=  6442450944 cpu:             832.4 elap:              34.7
 (Enter /home/ekwan/sw/g16/l101.exe)
 -----
 title
 -----
 Symbolic Z-matrix:
 Charge =  0 Multiplicity = 1
 6                    -2.25114   1.13849   2.53852 
 6                    -2.78163   1.91435   1.33402 
 6                    -2.20709   3.33336   1.32453 
 6                    -0.18944   2.62592   2.44102 
 6                    -0.72356   1.19695   2.59287 
 1                    -2.48056   3.8498    0.39504 
 1                    -2.42147   1.42529   0.42108 
 1                    -2.64518   1.59553   3.45259 
 1                    -0.4543    3.18562   3.34665 
 1                    -0.32157   0.58453   1.77713 
 8                    -0.79313   3.27364   1.30178 
 8                    -2.70121   4.02734   2.42614 
 8                    -4.19498   1.97381   1.33072 
 8                    -2.65613  -0.22166   2.46139 
 8                    -0.28462   0.70182   3.84926 
 6                     1.33541   2.69368   2.23838 
 1                     1.76967   2.20348   3.13166 
 1                     1.5983    3.76974   2.34141 
 8                     1.78675   2.16976   1.05224 
 6                    -4.8087    1.1694    0.34277 
 1                    -4.50096   1.46392  -0.6689 
 1                    -4.58274   0.10831   0.48473 
 1                    -5.88511   1.32187   0.43879 
 6                    -3.62336  -0.60497   3.4172 
 1                    -3.24884  -0.4792    4.44066 
 1                    -4.55301  -0.03576   3.30758 
 1                    -3.82777  -1.66245   3.24302 
 6                     0.36196  -0.55339   3.80127 
 1                    -0.2756   -1.3191    3.34837 
 1                     1.30858  -0.50346   3.25006 
 1                     0.57414  -0.83367   4.83538 
 6                     4.52076  -0.671    -1.1567 
 6                     3.58522   0.46565  -0.72981 
 6                     2.32355  -0.06021  -0.12475 
 6                     3.30483  -2.20291   0.43181 
 6                     4.6663   -1.63994   0.01852 
 1                     1.44117   0.5566   -0.06014 
 1                     4.05211   0.99713   0.11514 
 1                     4.07814  -1.19084  -2.01322 
 1                     2.94566  -2.87907  -0.34681 
 1                     5.11053  -1.10678   0.86505 
 8                     2.2617   -1.16418   0.50689 
 8                    -0.25674  -0.13296  -3.9862 
 8                     3.28472   1.36364  -1.75876 
 8                     5.77523  -0.12725  -1.49382 
 8                     5.4528   -2.75404  -0.33988 
 6                     3.2875   -2.92827   1.75826 
 1                     3.91067  -3.82649   1.65114 
 1                     2.26114  -3.25517   1.97567 
 8                     3.77556  -2.07516   2.75978 
 16                   -0.05471  -0.24588  -2.52993 
 8                    -0.28021   1.03028  -1.79451 
 8                     1.22478  -0.90597  -2.14136 
 6                    -1.35382  -1.33656  -1.92336 
 6                    -2.60348  -1.32005  -2.53376 
 6                    -1.11788  -2.13229  -0.80618 
 6                    -3.62903  -2.10585  -2.00919 
 1                    -2.76945  -0.70715  -3.41061 
 6                    -2.14961  -2.91302  -0.29244 
 1                    -0.14042  -2.13756  -0.34348 
 6                    -3.40877  -2.90321  -0.88915 
 1                    -4.20933  -3.50991  -0.48616 
 6                     4.04694   2.56705  -1.72614 
 1                     3.83101   3.13492  -0.81555 
 1                     5.1168    2.35717  -1.79044 
 1                     3.73548   3.14349  -2.59701 
 6                     6.29108  -0.56748  -2.74049 
 1                     6.42818  -1.65279  -2.7564 
 1                     5.63505  -0.27329  -3.56721 
 1                     7.259    -0.08041  -2.86218 
 6                     6.72092  -2.80869   0.29674 
 1                     7.33235  -1.93878   0.04075 
 1                     6.61707  -2.86997   1.38598 
 1                     7.20806  -3.71341  -0.06744 
 6                     3.82401  -2.69892   4.02699 
 1                     4.21041  -1.96046   4.72914 
 1                     2.82709  -3.01999   4.354 
 1                     4.48939  -3.5717    4.0172 
 6                    -2.4276    5.41742   2.39951 
 1                    -2.93443   5.85296   3.26054 
 1                    -1.35472   5.62046   2.47113 
 1                    -2.81757   5.87634   1.48224 
 11                    0.55049   2.92589  -0.69535 
 8                     0.77548   4.90783  -1.9842 
 6                     0.59937   4.94651  -3.38871 
 1                     1.5505    5.14118  -3.89901 
 1                     0.22016   3.9718   -3.69561 
 1                    -0.12206   5.7221   -3.67265 
 6                     1.27538   6.1269   -1.4683 
 1                     0.58186   6.95259  -1.66839 
 1                     1.3856    6.00308  -0.3907 
 1                     2.2516    6.36915  -1.90587 
 6                    -5.00454  -2.03175  -2.6168 
 9                    -5.71978  -1.01845  -2.08369 
 9                    -5.70804  -3.1579   -2.41031 
 9                    -4.95576  -1.81999  -3.94232 
 6                    -1.8987   -3.81677   0.88501 
 9                    -0.83494  -3.42261   1.60956 
 9                    -1.65834  -5.08279   0.49262 
 9                    -2.95801  -3.86135   1.71388 
 
 Add virtual bond connecting atoms H37        and O19        Dist= 3.76D+00.
 Add virtual bond connecting atoms C34        and O53        Dist= 4.62D+00.
 Add virtual bond connecting atoms H37        and O52        Dist= 4.70D+00.
 Add virtual bond connecting atoms Na83       and O52        Dist= 4.43D+00.
 Add virtual bond connecting atoms O84        and Na83       Dist= 4.49D+00.
 ITRead=  0  0  0  0  0  0  0  0  0  0  0  0  0  0  0  0  0  0  0  0
 ITRead=  0  0  0  0  0  0  0  0  0  0  0  0  0  0  0  0  0  0  0  0
 ITRead=  0  0  0  0  0  0  0  0  0  0  0  0  0  0  0  0  0  0  0  0
 ITRead=  0  0  0  0  0  0  0  0  0  0  0  0  0  0  0  0  0  0  0  0
 ITRead=  0  0  0  0  0  0  0  0  0  0  0  0  0  0  0  0  0  0  0  0
 MicOpt= -1 -1 -1 -1 -1 -1 -1 -1 -1 -1 -1 -1 -1 -1 -1 -1 -1 -1 -1 -1
 MicOpt= -1 -1 -1 -1 -1 -1 -1 -1 -1 -1 -1 -1 -1 -1 -1 -1 -1 -1 -1 -1
 MicOpt= -1 -1 -1 -1 -1 -1 -1 -1 -1 -1 -1 -1 -1 -1 -1 -1 -1 -1 -1 -1
 MicOpt= -1 -1 -1 -1 -1 -1 -1 -1 -1 -1 -1 -1 -1 -1 -1 -1 -1 -1 -1 -1
 MicOpt= -1 -1 -1 -1 -1 -1 -1 -1 -1 -1 -1 -1 -1 -1 -1 -1 -1 -1 -1 -1
 NAtoms=    100 NQM=      100 NQMF=       0 NMMI=      0 NMMIF=      0
                NMic=       0 NMicF=      0.
                    Isotopes and Nuclear Properties:
 (Nuclear quadrupole moments (NQMom) in fm**2, nuclear magnetic moments (NMagM)
  in nuclear magnetons)

  Atom         1           2           3           4           5           6           7           8           9          10
 IAtWgt=          12          12          12          12          12           1           1           1           1           1
 AtmWgt=  12.0000000  12.0000000  12.0000000  12.0000000  12.0000000   1.0078250   1.0078250   1.0078250   1.0078250   1.0078250
 NucSpn=           0           0           0           0           0           1           1           1           1           1
 AtZEff=   0.0000000   0.0000000   0.0000000   0.0000000   0.0000000   0.0000000   0.0000000   0.0000000   0.0000000   0.0000000
 NQMom=    0.0000000   0.0000000   0.0000000   0.0000000   0.0000000   0.0000000   0.0000000   0.0000000   0.0000000   0.0000000
 NMagM=    0.0000000   0.0000000   0.0000000   0.0000000   0.0000000   2.7928460   2.7928460   2.7928460   2.7928460   2.7928460
 AtZNuc=   6.0000000   6.0000000   6.0000000   6.0000000   6.0000000   1.0000000   1.0000000   1.0000000   1.0000000   1.0000000

  Atom        11          12          13          14          15          16          17          18          19          20
 IAtWgt=          16          16          16          16          16          12           1           1          16          12
 AtmWgt=  15.9949146  15.9949146  15.9949146  15.9949146  15.9949146  12.0000000   1.0078250   1.0078250  15.9949146  12.0000000
 NucSpn=           0           0           0           0           0           0           1           1           0           0
 AtZEff=   0.0000000   0.0000000   0.0000000   0.0000000   0.0000000   0.0000000   0.0000000   0.0000000   0.0000000   0.0000000
 NQMom=    0.0000000   0.0000000   0.0000000   0.0000000   0.0000000   0.0000000   0.0000000   0.0000000   0.0000000   0.0000000
 NMagM=    0.0000000   0.0000000   0.0000000   0.0000000   0.0000000   0.0000000   2.7928460   2.7928460   0.0000000   0.0000000
 AtZNuc=   8.0000000   8.0000000   8.0000000   8.0000000   8.0000000   6.0000000   1.0000000   1.0000000   8.0000000   6.0000000

  Atom        21          22          23          24          25          26          27          28          29          30
 IAtWgt=           1           1           1          12           1           1           1          12           1           1
 AtmWgt=   1.0078250   1.0078250   1.0078250  12.0000000   1.0078250   1.0078250   1.0078250  12.0000000   1.0078250   1.0078250
 NucSpn=           1           1           1           0           1           1           1           0           1           1
 AtZEff=   0.0000000   0.0000000   0.0000000   0.0000000   0.0000000   0.0000000   0.0000000   0.0000000   0.0000000   0.0000000
 NQMom=    0.0000000   0.0000000   0.0000000   0.0000000   0.0000000   0.0000000   0.0000000   0.0000000   0.0000000   0.0000000
 NMagM=    2.7928460   2.7928460   2.7928460   0.0000000   2.7928460   2.7928460   2.7928460   0.0000000   2.7928460   2.7928460
 AtZNuc=   1.0000000   1.0000000   1.0000000   6.0000000   1.0000000   1.0000000   1.0000000   6.0000000   1.0000000   1.0000000

  Atom        31          32          33          34          35          36          37          38          39          40
 IAtWgt=           1          12          12          12          12          12           1           1           1           1
 AtmWgt=   1.0078250  12.0000000  12.0000000  12.0000000  12.0000000  12.0000000   1.0078250   1.0078250   1.0078250   1.0078250
 NucSpn=           1           0           0           0           0           0           1           1           1           1
 AtZEff=   0.0000000   0.0000000   0.0000000   0.0000000   0.0000000   0.0000000   0.0000000   0.0000000   0.0000000   0.0000000
 NQMom=    0.0000000   0.0000000   0.0000000   0.0000000   0.0000000   0.0000000   0.0000000   0.0000000   0.0000000   0.0000000
 NMagM=    2.7928460   0.0000000   0.0000000   0.0000000   0.0000000   0.0000000   2.7928460   2.7928460   2.7928460   2.7928460
 AtZNuc=   1.0000000   6.0000000   6.0000000   6.0000000   6.0000000   6.0000000   1.0000000   1.0000000   1.0000000   1.0000000

  Atom        41          42          43          44          45          46          47          48          49          50
 IAtWgt=           1          16          16          16          16          16          12           1           1          16
 AtmWgt=   1.0078250  15.9949146  15.9949146  15.9949146  15.9949146  15.9949146  12.0000000   1.0078250   1.0078250  15.9949146
 NucSpn=           1           0           0           0           0           0           0           1           1           0
 AtZEff=   0.0000000   0.0000000   0.0000000   0.0000000   0.0000000   0.0000000   0.0000000   0.0000000   0.0000000   0.0000000
 NQMom=    0.0000000   0.0000000   0.0000000   0.0000000   0.0000000   0.0000000   0.0000000   0.0000000   0.0000000   0.0000000
 NMagM=    2.7928460   0.0000000   0.0000000   0.0000000   0.0000000   0.0000000   0.0000000   2.7928460   2.7928460   0.0000000
 AtZNuc=   1.0000000   8.0000000   8.0000000   8.0000000   8.0000000   8.0000000   6.0000000   1.0000000   1.0000000   8.0000000

  Atom        51          52          53          54          55          56          57          58          59          60
 IAtWgt=          32          16          16          12          12          12          12           1          12           1
 AtmWgt=  31.9720718  15.9949146  15.9949146  12.0000000  12.0000000  12.0000000  12.0000000   1.0078250  12.0000000   1.0078250
 NucSpn=           0           0           0           0           0           0           0           1           0           1
 AtZEff=   0.0000000   0.0000000   0.0000000   0.0000000   0.0000000   0.0000000   0.0000000   0.0000000   0.0000000   0.0000000
 NQMom=    0.0000000   0.0000000   0.0000000   0.0000000   0.0000000   0.0000000   0.0000000   0.0000000   0.0000000   0.0000000
 NMagM=    0.0000000   0.0000000   0.0000000   0.0000000   0.0000000   0.0000000   0.0000000   2.7928460   0.0000000   2.7928460
 AtZNuc=  16.0000000   8.0000000   8.0000000   6.0000000   6.0000000   6.0000000   6.0000000   1.0000000   6.0000000   1.0000000

  Atom        61          62          63          64          65          66          67          68          69          70
 IAtWgt=          12           1          12           1           1           1          12           1           1           1
 AtmWgt=  12.0000000   1.0078250  12.0000000   1.0078250   1.0078250   1.0078250  12.0000000   1.0078250   1.0078250   1.0078250
 NucSpn=           0           1           0           1           1           1           0           1           1           1
 AtZEff=   0.0000000   0.0000000   0.0000000   0.0000000   0.0000000   0.0000000   0.0000000   0.0000000   0.0000000   0.0000000
 NQMom=    0.0000000   0.0000000   0.0000000   0.0000000   0.0000000   0.0000000   0.0000000   0.0000000   0.0000000   0.0000000
 NMagM=    0.0000000   2.7928460   0.0000000   2.7928460   2.7928460   2.7928460   0.0000000   2.7928460   2.7928460   2.7928460
 AtZNuc=   6.0000000   1.0000000   6.0000000   1.0000000   1.0000000   1.0000000   6.0000000   1.0000000   1.0000000   1.0000000

  Atom        71          72          73          74          75          76          77          78          79          80
 IAtWgt=          12           1           1           1          12           1           1           1          12           1
 AtmWgt=  12.0000000   1.0078250   1.0078250   1.0078250  12.0000000   1.0078250   1.0078250   1.0078250  12.0000000   1.0078250
 NucSpn=           0           1           1           1           0           1           1           1           0           1
 AtZEff=   0.0000000   0.0000000   0.0000000   0.0000000   0.0000000   0.0000000   0.0000000   0.0000000   0.0000000   0.0000000
 NQMom=    0.0000000   0.0000000   0.0000000   0.0000000   0.0000000   0.0000000   0.0000000   0.0000000   0.0000000   0.0000000
 NMagM=    0.0000000   2.7928460   2.7928460   2.7928460   0.0000000   2.7928460   2.7928460   2.7928460   0.0000000   2.7928460
 AtZNuc=   6.0000000   1.0000000   1.0000000   1.0000000   6.0000000   1.0000000   1.0000000   1.0000000   6.0000000   1.0000000

  Atom        81          82          83          84          85          86          87          88          89          90
 IAtWgt=           1           1          23          16          12           1           1           1          12           1
 AtmWgt=   1.0078250   1.0078250  22.9897697  15.9949146  12.0000000   1.0078250   1.0078250   1.0078250  12.0000000   1.0078250
 NucSpn=           1           1           3           0           0           1           1           1           0           1
 AtZEff=   0.0000000   0.0000000   0.0000000   0.0000000   0.0000000   0.0000000   0.0000000   0.0000000   0.0000000   0.0000000
 NQMom=    0.0000000   0.0000000  10.4000000   0.0000000   0.0000000   0.0000000   0.0000000   0.0000000   0.0000000   0.0000000
 NMagM=    2.7928460   2.7928460   2.2175200   0.0000000   0.0000000   2.7928460   2.7928460   2.7928460   0.0000000   2.7928460
 AtZNuc=   1.0000000   1.0000000  11.0000000   8.0000000   6.0000000   1.0000000   1.0000000   1.0000000   6.0000000   1.0000000

  Atom        91          92          93          94          95          96          97          98          99         100
 IAtWgt=           1           1          12          19          19          19          12          19          19          19
 AtmWgt=   1.0078250   1.0078250  12.0000000  18.9984033  18.9984033  18.9984033  12.0000000  18.9984033  18.9984033  18.9984033
 NucSpn=           1           1           0           1           1           1           0           1           1           1
 AtZEff=   0.0000000   0.0000000   0.0000000   0.0000000   0.0000000   0.0000000   0.0000000   0.0000000   0.0000000   0.0000000
 NQMom=    0.0000000   0.0000000   0.0000000   0.0000000   0.0000000   0.0000000   0.0000000   0.0000000   0.0000000   0.0000000
 NMagM=    2.7928460   2.7928460   0.0000000   2.6288670   2.6288670   2.6288670   0.0000000   2.6288670   2.6288670   2.6288670
 AtZNuc=   1.0000000   1.0000000   6.0000000   9.0000000   9.0000000   9.0000000   6.0000000   9.0000000   9.0000000   9.0000000
 Leave Link  101 at Sun Jun 16 11:41:05 2019, MaxMem=  6442450944 cpu:              15.6 elap:               0.7
 (Enter /home/ekwan/sw/g16/l103.exe)

 GradGradGradGradGradGradGradGradGradGradGradGradGradGradGradGradGradGrad
 Berny optimization.
 Initialization pass.
                           ----------------------------
                           !    Initial Parameters    !
                           ! (Angstroms and Degrees)  !
 --------------------------                            --------------------------
 ! Name  Definition              Value          Derivative Info.                !
 --------------------------------------------------------------------------------
 ! R1    R(1,2)                  1.5278         calculate D2E/DX2 analytically  !
 ! R2    R(1,5)                  1.5297         calculate D2E/DX2 analytically  !
 ! R3    R(1,8)                  1.0953         calculate D2E/DX2 analytically  !
 ! R4    R(1,14)                 1.4213         calculate D2E/DX2 analytically  !
 ! R5    R(2,3)                  1.5309         calculate D2E/DX2 analytically  !
 ! R6    R(2,7)                  1.0965         calculate D2E/DX2 analytically  !
 ! R7    R(2,13)                 1.4146         calculate D2E/DX2 analytically  !
 ! R8    R(3,6)                  1.0979         calculate D2E/DX2 analytically  !
 ! R9    R(3,11)                 1.4154         calculate D2E/DX2 analytically  !
 ! R10   R(3,12)                 1.3926         calculate D2E/DX2 analytically  !
 ! R11   R(4,5)                  1.5331         calculate D2E/DX2 analytically  !
 ! R12   R(4,9)                  1.0971         calculate D2E/DX2 analytically  !
 ! R13   R(4,11)                 1.4429         calculate D2E/DX2 analytically  !
 ! R14   R(4,16)                 1.5398         calculate D2E/DX2 analytically  !
 ! R15   R(5,10)                 1.0964         calculate D2E/DX2 analytically  !
 ! R16   R(5,15)                 1.42           calculate D2E/DX2 analytically  !
 ! R17   R(12,79)                1.417          calculate D2E/DX2 analytically  !
 ! R18   R(13,20)                1.4141         calculate D2E/DX2 analytically  !
 ! R19   R(14,24)                1.4128         calculate D2E/DX2 analytically  !
 ! R20   R(15,28)                1.4128         calculate D2E/DX2 analytically  !
 ! R21   R(16,17)                1.1076         calculate D2E/DX2 analytically  !
 ! R22   R(16,18)                1.1125         calculate D2E/DX2 analytically  !
 ! R23   R(16,19)                1.373          calculate D2E/DX2 analytically  !
 ! R24   R(19,37)                1.9897         calculate D2E/DX2 analytically  !
 ! R25   R(19,83)                2.2703         calculate D2E/DX2 analytically  !
 ! R26   R(20,21)                1.0977         calculate D2E/DX2 analytically  !
 ! R27   R(20,22)                1.0941         calculate D2E/DX2 analytically  !
 ! R28   R(20,23)                1.0914         calculate D2E/DX2 analytically  !
 ! R29   R(24,25)                1.0971         calculate D2E/DX2 analytically  !
 ! R30   R(24,26)                1.0956         calculate D2E/DX2 analytically  !
 ! R31   R(24,27)                1.091          calculate D2E/DX2 analytically  !
 ! R32   R(28,29)                1.0945         calculate D2E/DX2 analytically  !
 ! R33   R(28,30)                1.0965         calculate D2E/DX2 analytically  !
 ! R34   R(28,31)                1.0922         calculate D2E/DX2 analytically  !
 ! R35   R(32,33)                1.5328         calculate D2E/DX2 analytically  !
 ! R36   R(32,36)                1.5301         calculate D2E/DX2 analytically  !
 ! R37   R(32,39)                1.0953         calculate D2E/DX2 analytically  !
 ! R38   R(32,45)                1.4082         calculate D2E/DX2 analytically  !
 ! R39   R(33,34)                1.4948         calculate D2E/DX2 analytically  !
 ! R40   R(33,38)                1.102          calculate D2E/DX2 analytically  !
 ! R41   R(33,44)                1.3984         calculate D2E/DX2 analytically  !
 ! R42   R(34,37)                1.0785         calculate D2E/DX2 analytically  !
 ! R43   R(34,42)                1.2734         calculate D2E/DX2 analytically  !
 ! R44   R(34,53)                2.4473         calculate D2E/DX2 analytically  !
 ! R45   R(35,36)                1.5301         calculate D2E/DX2 analytically  !
 ! R46   R(35,40)                1.092          calculate D2E/DX2 analytically  !
 ! R47   R(35,42)                1.474          calculate D2E/DX2 analytically  !
 ! R48   R(35,47)                1.5119         calculate D2E/DX2 analytically  !
 ! R49   R(36,41)                1.0946         calculate D2E/DX2 analytically  !
 ! R50   R(36,46)                1.41           calculate D2E/DX2 analytically  !
 ! R51   R(37,52)                2.4891         calculate D2E/DX2 analytically  !
 ! R52   R(43,51)                1.4745         calculate D2E/DX2 analytically  !
 ! R53   R(44,63)                1.4249         calculate D2E/DX2 analytically  !
 ! R54   R(45,67)                1.4192         calculate D2E/DX2 analytically  !
 ! R55   R(46,71)                1.42           calculate D2E/DX2 analytically  !
 ! R56   R(47,48)                1.0985         calculate D2E/DX2 analytically  !
 ! R57   R(47,49)                1.0989         calculate D2E/DX2 analytically  !
 ! R58   R(47,50)                1.4032         calculate D2E/DX2 analytically  !
 ! R59   R(50,75)                1.4132         calculate D2E/DX2 analytically  !
 ! R60   R(51,52)                1.4901         calculate D2E/DX2 analytically  !
 ! R61   R(51,53)                1.4912         calculate D2E/DX2 analytically  !
 ! R62   R(51,54)                1.8014         calculate D2E/DX2 analytically  !
 ! R63   R(52,83)                2.3434         calculate D2E/DX2 analytically  !
 ! R64   R(54,55)                1.3909         calculate D2E/DX2 analytically  !
 ! R65   R(54,56)                1.3917         calculate D2E/DX2 analytically  !
 ! R66   R(55,57)                1.3944         calculate D2E/DX2 analytically  !
 ! R67   R(55,58)                1.0826         calculate D2E/DX2 analytically  !
 ! R68   R(56,59)                1.3921         calculate D2E/DX2 analytically  !
 ! R69   R(56,60)                1.0815         calculate D2E/DX2 analytically  !
 ! R70   R(57,61)                1.3924         calculate D2E/DX2 analytically  !
 ! R71   R(57,93)                1.5056         calculate D2E/DX2 analytically  !
 ! R72   R(59,61)                1.3934         calculate D2E/DX2 analytically  !
 ! R73   R(59,97)                1.5054         calculate D2E/DX2 analytically  !
 ! R74   R(61,62)                1.0823         calculate D2E/DX2 analytically  !
 ! R75   R(63,64)                1.0947         calculate D2E/DX2 analytically  !
 ! R76   R(63,65)                1.0922         calculate D2E/DX2 analytically  !
 ! R77   R(63,66)                1.0898         calculate D2E/DX2 analytically  !
 ! R78   R(67,68)                1.094          calculate D2E/DX2 analytically  !
 ! R79   R(67,69)                1.0956         calculate D2E/DX2 analytically  !
 ! R80   R(67,70)                1.0904         calculate D2E/DX2 analytically  !
 ! R81   R(71,72)                1.0937         calculate D2E/DX2 analytically  !
 ! R82   R(71,73)                1.0959         calculate D2E/DX2 analytically  !
 ! R83   R(71,74)                1.0902         calculate D2E/DX2 analytically  !
 ! R84   R(75,76)                1.0898         calculate D2E/DX2 analytically  !
 ! R85   R(75,77)                1.0972         calculate D2E/DX2 analytically  !
 ! R86   R(75,78)                1.0975         calculate D2E/DX2 analytically  !
 ! R87   R(79,80)                1.0899         calculate D2E/DX2 analytically  !
 ! R88   R(79,81)                1.0943         calculate D2E/DX2 analytically  !
 ! R89   R(79,82)                1.0973         calculate D2E/DX2 analytically  !
 ! R90   R(83,84)                2.3748         calculate D2E/DX2 analytically  !
 ! R91   R(84,85)                1.416          calculate D2E/DX2 analytically  !
 ! R92   R(84,89)                1.415          calculate D2E/DX2 analytically  !
 ! R93   R(85,86)                1.0968         calculate D2E/DX2 analytically  !
 ! R94   R(85,87)                1.09           calculate D2E/DX2 analytically  !
 ! R95   R(85,88)                1.0966         calculate D2E/DX2 analytically  !
 ! R96   R(89,90)                1.0967         calculate D2E/DX2 analytically  !
 ! R97   R(89,91)                1.0903         calculate D2E/DX2 analytically  !
 ! R98   R(89,92)                1.0969         calculate D2E/DX2 analytically  !
 ! R99   R(93,94)                1.35           calculate D2E/DX2 analytically  !
 ! R100  R(93,95)                1.3438         calculate D2E/DX2 analytically  !
 ! R101  R(93,96)                1.3432         calculate D2E/DX2 analytically  !
 ! R102  R(97,98)                1.3461         calculate D2E/DX2 analytically  !
 ! R103  R(97,99)                1.347          calculate D2E/DX2 analytically  !
 ! R104  R(97,100)               1.3458         calculate D2E/DX2 analytically  !
 ! A1    A(2,1,5)              110.8153         calculate D2E/DX2 analytically  !
 ! A2    A(2,1,8)              108.7303         calculate D2E/DX2 analytically  !
 ! A3    A(2,1,14)             110.1372         calculate D2E/DX2 analytically  !
 ! A4    A(5,1,8)              108.2803         calculate D2E/DX2 analytically  !
 ! A5    A(5,1,14)             108.8486         calculate D2E/DX2 analytically  !
 ! A6    A(8,1,14)             110.0052         calculate D2E/DX2 analytically  !
 ! A7    A(1,2,3)              110.199          calculate D2E/DX2 analytically  !
 ! A8    A(1,2,7)              108.4119         calculate D2E/DX2 analytically  !
 ! A9    A(1,2,13)             111.7216         calculate D2E/DX2 analytically  !
 ! A10   A(3,2,7)              106.5577         calculate D2E/DX2 analytically  !
 ! A11   A(3,2,13)             109.6323         calculate D2E/DX2 analytically  !
 ! A12   A(7,2,13)             110.1797         calculate D2E/DX2 analytically  !
 ! A13   A(2,3,6)              110.3505         calculate D2E/DX2 analytically  !
 ! A14   A(2,3,11)             109.627          calculate D2E/DX2 analytically  !
 ! A15   A(2,3,12)             108.8957         calculate D2E/DX2 analytically  !
 ! A16   A(6,3,11)             104.7767         calculate D2E/DX2 analytically  !
 ! A17   A(6,3,12)             110.2984         calculate D2E/DX2 analytically  !
 ! A18   A(11,3,12)            112.8424         calculate D2E/DX2 analytically  !
 ! A19   A(5,4,9)              108.0387         calculate D2E/DX2 analytically  !
 ! A20   A(5,4,11)             110.5404         calculate D2E/DX2 analytically  !
 ! A21   A(5,4,16)             113.5205         calculate D2E/DX2 analytically  !
 ! A22   A(9,4,11)             108.769          calculate D2E/DX2 analytically  !
 ! A23   A(9,4,16)             108.9827         calculate D2E/DX2 analytically  !
 ! A24   A(11,4,16)            106.8984         calculate D2E/DX2 analytically  !
 ! A25   A(1,5,4)              112.3352         calculate D2E/DX2 analytically  !
 ! A26   A(1,5,10)             108.5638         calculate D2E/DX2 analytically  !
 ! A27   A(1,5,15)             109.0751         calculate D2E/DX2 analytically  !
 ! A28   A(4,5,10)             108.6156         calculate D2E/DX2 analytically  !
 ! A29   A(4,5,15)             107.7553         calculate D2E/DX2 analytically  !
 ! A30   A(10,5,15)            110.4997         calculate D2E/DX2 analytically  !
 ! A31   A(3,11,4)             115.1009         calculate D2E/DX2 analytically  !
 ! A32   A(3,12,79)            113.922          calculate D2E/DX2 analytically  !
 ! A33   A(2,13,20)            114.2881         calculate D2E/DX2 analytically  !
 ! A34   A(1,14,24)            114.7094         calculate D2E/DX2 analytically  !
 ! A35   A(5,15,28)            114.9112         calculate D2E/DX2 analytically  !
 ! A36   A(4,16,17)            105.2274         calculate D2E/DX2 analytically  !
 ! A37   A(4,16,18)            105.331          calculate D2E/DX2 analytically  !
 ! A38   A(4,16,19)            114.9894         calculate D2E/DX2 analytically  !
 ! A39   A(17,16,18)           105.1138         calculate D2E/DX2 analytically  !
 ! A40   A(17,16,19)           113.5137         calculate D2E/DX2 analytically  !
 ! A41   A(18,16,19)           111.8034         calculate D2E/DX2 analytically  !
 ! A42   A(16,19,37)           137.3278         calculate D2E/DX2 analytically  !
 ! A43   A(16,19,83)           111.0336         calculate D2E/DX2 analytically  !
 ! A44   A(37,19,83)            75.2325         calculate D2E/DX2 analytically  !
 ! A45   A(13,20,21)           111.69           calculate D2E/DX2 analytically  !
 ! A46   A(13,20,22)           111.8014         calculate D2E/DX2 analytically  !
 ! A47   A(13,20,23)           106.6842         calculate D2E/DX2 analytically  !
 ! A48   A(21,20,22)           108.7774         calculate D2E/DX2 analytically  !
 ! A49   A(21,20,23)           108.6693         calculate D2E/DX2 analytically  !
 ! A50   A(22,20,23)           109.1324         calculate D2E/DX2 analytically  !
 ! A51   A(14,24,25)           111.4888         calculate D2E/DX2 analytically  !
 ! A52   A(14,24,26)           111.8564         calculate D2E/DX2 analytically  !
 ! A53   A(14,24,27)           106.4526         calculate D2E/DX2 analytically  !
 ! A54   A(25,24,26)           108.8729         calculate D2E/DX2 analytically  !
 ! A55   A(25,24,27)           108.9051         calculate D2E/DX2 analytically  !
 ! A56   A(26,24,27)           109.185          calculate D2E/DX2 analytically  !
 ! A57   A(15,28,29)           111.6559         calculate D2E/DX2 analytically  !
 ! A58   A(15,28,30)           111.8213         calculate D2E/DX2 analytically  !
 ! A59   A(15,28,31)           106.5432         calculate D2E/DX2 analytically  !
 ! A60   A(29,28,30)           109.0698         calculate D2E/DX2 analytically  !
 ! A61   A(29,28,31)           108.9908         calculate D2E/DX2 analytically  !
 ! A62   A(30,28,31)           108.6579         calculate D2E/DX2 analytically  !
 ! A63   A(33,32,36)           108.2851         calculate D2E/DX2 analytically  !
 ! A64   A(33,32,39)           108.8495         calculate D2E/DX2 analytically  !
 ! A65   A(33,32,45)           108.9084         calculate D2E/DX2 analytically  !
 ! A66   A(36,32,39)           109.7857         calculate D2E/DX2 analytically  !
 ! A67   A(36,32,45)           110.1001         calculate D2E/DX2 analytically  !
 ! A68   A(39,32,45)           110.8565         calculate D2E/DX2 analytically  !
 ! A69   A(32,33,34)           111.5319         calculate D2E/DX2 analytically  !
 ! A70   A(32,33,38)           108.2159         calculate D2E/DX2 analytically  !
 ! A71   A(32,33,44)           113.7311         calculate D2E/DX2 analytically  !
 ! A72   A(34,33,38)           102.5268         calculate D2E/DX2 analytically  !
 ! A73   A(34,33,44)           110.0215         calculate D2E/DX2 analytically  !
 ! A74   A(38,33,44)           110.2135         calculate D2E/DX2 analytically  !
 ! A75   A(33,34,37)           120.9039         calculate D2E/DX2 analytically  !
 ! A76   A(33,34,42)           123.145          calculate D2E/DX2 analytically  !
 ! A77   A(33,34,53)            99.6125         calculate D2E/DX2 analytically  !
 ! A78   A(37,34,42)           115.236          calculate D2E/DX2 analytically  !
 ! A79   A(37,34,53)            83.09           calculate D2E/DX2 analytically  !
 ! A80   A(42,34,53)            95.0092         calculate D2E/DX2 analytically  !
 ! A81   A(36,35,40)           109.1399         calculate D2E/DX2 analytically  !
 ! A82   A(36,35,42)           112.5911         calculate D2E/DX2 analytically  !
 ! A83   A(36,35,47)           115.0673         calculate D2E/DX2 analytically  !
 ! A84   A(40,35,42)           103.8803         calculate D2E/DX2 analytically  !
 ! A85   A(40,35,47)           108.9491         calculate D2E/DX2 analytically  !
 ! A86   A(42,35,47)           106.576          calculate D2E/DX2 analytically  !
 ! A87   A(32,36,35)           110.8433         calculate D2E/DX2 analytically  !
 ! A88   A(32,36,41)           108.9138         calculate D2E/DX2 analytically  !
 ! A89   A(32,36,46)           110.9885         calculate D2E/DX2 analytically  !
 ! A90   A(35,36,41)           109.3542         calculate D2E/DX2 analytically  !
 ! A91   A(35,36,46)           105.9173         calculate D2E/DX2 analytically  !
 ! A92   A(41,36,46)           110.7961         calculate D2E/DX2 analytically  !
 ! A93   A(19,37,34)           110.7972         calculate D2E/DX2 analytically  !
 ! A94   A(19,37,52)           110.816          calculate D2E/DX2 analytically  !
 ! A95   A(34,37,52)           129.2632         calculate D2E/DX2 analytically  !
 ! A96   A(34,42,35)           123.456          calculate D2E/DX2 analytically  !
 ! A97   A(33,44,63)           114.2406         calculate D2E/DX2 analytically  !
 ! A98   A(32,45,67)           114.4771         calculate D2E/DX2 analytically  !
 ! A99   A(36,46,71)           114.4931         calculate D2E/DX2 analytically  !
 ! A100  A(35,47,48)           107.4719         calculate D2E/DX2 analytically  !
 ! A101  A(35,47,49)           109.0866         calculate D2E/DX2 analytically  !
 ! A102  A(35,47,50)           109.2995         calculate D2E/DX2 analytically  !
 ! A103  A(48,47,49)           107.8138         calculate D2E/DX2 analytically  !
 ! A104  A(48,47,50)           111.6797         calculate D2E/DX2 analytically  !
 ! A105  A(49,47,50)           111.3775         calculate D2E/DX2 analytically  !
 ! A106  A(47,50,75)           112.555          calculate D2E/DX2 analytically  !
 ! A107  A(43,51,52)           113.6475         calculate D2E/DX2 analytically  !
 ! A108  A(43,51,53)           114.1289         calculate D2E/DX2 analytically  !
 ! A109  A(43,51,54)           106.266          calculate D2E/DX2 analytically  !
 ! A110  A(52,51,53)           112.3556         calculate D2E/DX2 analytically  !
 ! A111  A(52,51,54)           104.0763         calculate D2E/DX2 analytically  !
 ! A112  A(53,51,54)           105.249          calculate D2E/DX2 analytically  !
 ! A113  A(37,52,51)            94.3733         calculate D2E/DX2 analytically  !
 ! A114  A(37,52,83)            65.2891         calculate D2E/DX2 analytically  !
 ! A115  A(51,52,83)           150.5333         calculate D2E/DX2 analytically  !
 ! A116  A(34,53,51)           116.5484         calculate D2E/DX2 analytically  !
 ! A117  A(51,54,55)           119.5369         calculate D2E/DX2 analytically  !
 ! A118  A(51,54,56)           119.6167         calculate D2E/DX2 analytically  !
 ! A119  A(55,54,56)           120.756          calculate D2E/DX2 analytically  !
 ! A120  A(54,55,57)           119.2761         calculate D2E/DX2 analytically  !
 ! A121  A(54,55,58)           119.9933         calculate D2E/DX2 analytically  !
 ! A122  A(57,55,58)           120.7291         calculate D2E/DX2 analytically  !
 ! A123  A(54,56,59)           119.4229         calculate D2E/DX2 analytically  !
 ! A124  A(54,56,60)           119.9639         calculate D2E/DX2 analytically  !
 ! A125  A(59,56,60)           120.6129         calculate D2E/DX2 analytically  !
 ! A126  A(55,57,61)           120.5955         calculate D2E/DX2 analytically  !
 ! A127  A(55,57,93)           119.4972         calculate D2E/DX2 analytically  !
 ! A128  A(61,57,93)           119.8241         calculate D2E/DX2 analytically  !
 ! A129  A(56,59,61)           120.5128         calculate D2E/DX2 analytically  !
 ! A130  A(56,59,97)           120.1207         calculate D2E/DX2 analytically  !
 ! A131  A(61,59,97)           119.3272         calculate D2E/DX2 analytically  !
 ! A132  A(57,61,59)           119.4355         calculate D2E/DX2 analytically  !
 ! A133  A(57,61,62)           120.2328         calculate D2E/DX2 analytically  !
 ! A134  A(59,61,62)           120.3318         calculate D2E/DX2 analytically  !
 ! A135  A(44,63,64)           110.589          calculate D2E/DX2 analytically  !
 ! A136  A(44,63,65)           111.1232         calculate D2E/DX2 analytically  !
 ! A137  A(44,63,66)           105.9952         calculate D2E/DX2 analytically  !
 ! A138  A(64,63,65)           109.9921         calculate D2E/DX2 analytically  !
 ! A139  A(64,63,66)           109.5093         calculate D2E/DX2 analytically  !
 ! A140  A(65,63,66)           109.5457         calculate D2E/DX2 analytically  !
 ! A141  A(45,67,68)           111.472          calculate D2E/DX2 analytically  !
 ! A142  A(45,67,69)           111.2172         calculate D2E/DX2 analytically  !
 ! A143  A(45,67,70)           106.388          calculate D2E/DX2 analytically  !
 ! A144  A(68,67,69)           109.2944         calculate D2E/DX2 analytically  !
 ! A145  A(68,67,70)           109.2848         calculate D2E/DX2 analytically  !
 ! A146  A(69,67,70)           109.1094         calculate D2E/DX2 analytically  !
 ! A147  A(46,71,72)           111.3288         calculate D2E/DX2 analytically  !
 ! A148  A(46,71,73)           111.292          calculate D2E/DX2 analytically  !
 ! A149  A(46,71,74)           106.334          calculate D2E/DX2 analytically  !
 ! A150  A(72,71,73)           109.2748         calculate D2E/DX2 analytically  !
 ! A151  A(72,71,74)           109.3957         calculate D2E/DX2 analytically  !
 ! A152  A(73,71,74)           109.1454         calculate D2E/DX2 analytically  !
 ! A153  A(50,75,76)           106.9062         calculate D2E/DX2 analytically  !
 ! A154  A(50,75,77)           111.4229         calculate D2E/DX2 analytically  !
 ! A155  A(50,75,78)           111.3318         calculate D2E/DX2 analytically  !
 ! A156  A(76,75,77)           109.1727         calculate D2E/DX2 analytically  !
 ! A157  A(76,75,78)           109.2475         calculate D2E/DX2 analytically  !
 ! A158  A(77,75,78)           108.7108         calculate D2E/DX2 analytically  !
 ! A159  A(12,79,80)           106.7004         calculate D2E/DX2 analytically  !
 ! A160  A(12,79,81)           111.7221         calculate D2E/DX2 analytically  !
 ! A161  A(12,79,82)           110.9386         calculate D2E/DX2 analytically  !
 ! A162  A(80,79,81)           109.2736         calculate D2E/DX2 analytically  !
 ! A163  A(80,79,82)           109.1474         calculate D2E/DX2 analytically  !
 ! A164  A(81,79,82)           108.999          calculate D2E/DX2 analytically  !
 ! A165  A(19,83,52)           106.5396         calculate D2E/DX2 analytically  !
 ! A166  A(19,83,84)           130.1001         calculate D2E/DX2 analytically  !
 ! A167  A(52,83,84)           117.0078         calculate D2E/DX2 analytically  !
 ! A168  A(83,84,85)           123.3197         calculate D2E/DX2 analytically  !
 ! A169  A(83,84,89)           123.6837         calculate D2E/DX2 analytically  !
 ! A170  A(85,84,89)           112.4595         calculate D2E/DX2 analytically  !
 ! A171  A(84,85,86)           111.0067         calculate D2E/DX2 analytically  !
 ! A172  A(84,85,87)           107.3441         calculate D2E/DX2 analytically  !
 ! A173  A(84,85,88)           110.9739         calculate D2E/DX2 analytically  !
 ! A174  A(86,85,87)           109.2339         calculate D2E/DX2 analytically  !
 ! A175  A(86,85,88)           108.9351         calculate D2E/DX2 analytically  !
 ! A176  A(87,85,88)           109.3096         calculate D2E/DX2 analytically  !
 ! A177  A(84,89,90)           111.0208         calculate D2E/DX2 analytically  !
 ! A178  A(84,89,91)           107.3513         calculate D2E/DX2 analytically  !
 ! A179  A(84,89,92)           111.0541         calculate D2E/DX2 analytically  !
 ! A180  A(90,89,91)           109.2543         calculate D2E/DX2 analytically  !
 ! A181  A(90,89,92)           108.8893         calculate D2E/DX2 analytically  !
 ! A182  A(91,89,92)           109.2321         calculate D2E/DX2 analytically  !
 ! A183  A(57,93,94)           111.1988         calculate D2E/DX2 analytically  !
 ! A184  A(57,93,95)           112.0271         calculate D2E/DX2 analytically  !
 ! A185  A(57,93,96)           111.891          calculate D2E/DX2 analytically  !
 ! A186  A(94,93,95)           106.9165         calculate D2E/DX2 analytically  !
 ! A187  A(94,93,96)           106.8939         calculate D2E/DX2 analytically  !
 ! A188  A(95,93,96)           107.6238         calculate D2E/DX2 analytically  !
 ! A189  A(59,97,98)           112.144          calculate D2E/DX2 analytically  !
 ! A190  A(59,97,99)           111.4775         calculate D2E/DX2 analytically  !
 ! A191  A(59,97,100)          111.742          calculate D2E/DX2 analytically  !
 ! A192  A(98,97,99)           106.9176         calculate D2E/DX2 analytically  !
 ! A193  A(98,97,100)          107.4712         calculate D2E/DX2 analytically  !
 ! A194  A(99,97,100)          106.782          calculate D2E/DX2 analytically  !
 ! D1    D(5,1,2,3)            -52.6118         calculate D2E/DX2 analytically  !
 ! D2    D(5,1,2,7)             63.6523         calculate D2E/DX2 analytically  !
 ! D3    D(5,1,2,13)          -174.7479         calculate D2E/DX2 analytically  !
 ! D4    D(8,1,2,3)             66.2853         calculate D2E/DX2 analytically  !
 ! D5    D(8,1,2,7)           -177.4506         calculate D2E/DX2 analytically  !
 ! D6    D(8,1,2,13)           -55.8508         calculate D2E/DX2 analytically  !
 ! D7    D(14,1,2,3)          -173.1115         calculate D2E/DX2 analytically  !
 ! D8    D(14,1,2,7)           -56.8474         calculate D2E/DX2 analytically  !
 ! D9    D(14,1,2,13)           64.7524         calculate D2E/DX2 analytically  !
 ! D10   D(2,1,5,4)             49.1512         calculate D2E/DX2 analytically  !
 ! D11   D(2,1,5,10)           -70.983          calculate D2E/DX2 analytically  !
 ! D12   D(2,1,5,15)           168.5516         calculate D2E/DX2 analytically  !
 ! D13   D(8,1,5,4)            -70.0173         calculate D2E/DX2 analytically  !
 ! D14   D(8,1,5,10)           169.8485         calculate D2E/DX2 analytically  !
 ! D15   D(8,1,5,15)            49.3832         calculate D2E/DX2 analytically  !
 ! D16   D(14,1,5,4)           170.4136         calculate D2E/DX2 analytically  !
 ! D17   D(14,1,5,10)           50.2794         calculate D2E/DX2 analytically  !
 ! D18   D(14,1,5,15)          -70.1859         calculate D2E/DX2 analytically  !
 ! D19   D(2,1,14,24)         -109.8432         calculate D2E/DX2 analytically  !
 ! D20   D(5,1,14,24)          128.4807         calculate D2E/DX2 analytically  !
 ! D21   D(8,1,14,24)            9.9905         calculate D2E/DX2 analytically  !
 ! D22   D(1,2,3,6)            172.6609         calculate D2E/DX2 analytically  !
 ! D23   D(1,2,3,11)            57.7577         calculate D2E/DX2 analytically  !
 ! D24   D(1,2,3,12)           -66.1382         calculate D2E/DX2 analytically  !
 ! D25   D(7,2,3,6)             55.2425         calculate D2E/DX2 analytically  !
 ! D26   D(7,2,3,11)           -59.6607         calculate D2E/DX2 analytically  !
 ! D27   D(7,2,3,12)           176.4434         calculate D2E/DX2 analytically  !
 ! D28   D(13,2,3,6)           -63.977          calculate D2E/DX2 analytically  !
 ! D29   D(13,2,3,11)         -178.8801         calculate D2E/DX2 analytically  !
 ! D30   D(13,2,3,12)           57.2239         calculate D2E/DX2 analytically  !
 ! D31   D(1,2,13,20)         -107.9082         calculate D2E/DX2 analytically  !
 ! D32   D(3,2,13,20)          129.631          calculate D2E/DX2 analytically  !
 ! D33   D(7,2,13,20)           12.665          calculate D2E/DX2 analytically  !
 ! D34   D(2,3,11,4)           -61.5408         calculate D2E/DX2 analytically  !
 ! D35   D(6,3,11,4)          -179.9594         calculate D2E/DX2 analytically  !
 ! D36   D(12,3,11,4)           60.013          calculate D2E/DX2 analytically  !
 ! D37   D(2,3,12,79)         -169.5681         calculate D2E/DX2 analytically  !
 ! D38   D(6,3,12,79)          -48.3353         calculate D2E/DX2 analytically  !
 ! D39   D(11,3,12,79)          68.4653         calculate D2E/DX2 analytically  !
 ! D40   D(9,4,5,1)             69.3655         calculate D2E/DX2 analytically  !
 ! D41   D(9,4,5,10)          -170.5304         calculate D2E/DX2 analytically  !
 ! D42   D(9,4,5,15)           -50.8027         calculate D2E/DX2 analytically  !
 ! D43   D(11,4,5,1)           -49.541          calculate D2E/DX2 analytically  !
 ! D44   D(11,4,5,10)           70.5631         calculate D2E/DX2 analytically  !
 ! D45   D(11,4,5,15)         -169.7093         calculate D2E/DX2 analytically  !
 ! D46   D(16,4,5,1)          -169.6479         calculate D2E/DX2 analytically  !
 ! D47   D(16,4,5,10)          -49.5437         calculate D2E/DX2 analytically  !
 ! D48   D(16,4,5,15)           70.1839         calculate D2E/DX2 analytically  !
 ! D49   D(5,4,11,3)            57.2172         calculate D2E/DX2 analytically  !
 ! D50   D(9,4,11,3)           -61.2452         calculate D2E/DX2 analytically  !
 ! D51   D(16,4,11,3)         -178.7802         calculate D2E/DX2 analytically  !
 ! D52   D(5,4,16,17)          -58.6247         calculate D2E/DX2 analytically  !
 ! D53   D(5,4,16,18)         -169.4072         calculate D2E/DX2 analytically  !
 ! D54   D(5,4,16,19)           67.0416         calculate D2E/DX2 analytically  !
 ! D55   D(9,4,16,17)           61.8301         calculate D2E/DX2 analytically  !
 ! D56   D(9,4,16,18)          -48.9524         calculate D2E/DX2 analytically  !
 ! D57   D(9,4,16,19)         -172.5037         calculate D2E/DX2 analytically  !
 ! D58   D(11,4,16,17)         179.2245         calculate D2E/DX2 analytically  !
 ! D59   D(11,4,16,18)          68.442          calculate D2E/DX2 analytically  !
 ! D60   D(11,4,16,19)         -55.1092         calculate D2E/DX2 analytically  !
 ! D61   D(1,5,15,28)          109.3655         calculate D2E/DX2 analytically  !
 ! D62   D(4,5,15,28)         -128.4302         calculate D2E/DX2 analytically  !
 ! D63   D(10,5,15,28)          -9.9039         calculate D2E/DX2 analytically  !
 ! D64   D(3,12,79,80)         175.2439         calculate D2E/DX2 analytically  !
 ! D65   D(3,12,79,81)         -65.3837         calculate D2E/DX2 analytically  !
 ! D66   D(3,12,79,82)          56.4634         calculate D2E/DX2 analytically  !
 ! D67   D(2,13,20,21)         -60.3727         calculate D2E/DX2 analytically  !
 ! D68   D(2,13,20,22)          61.7817         calculate D2E/DX2 analytically  !
 ! D69   D(2,13,20,23)        -178.9828         calculate D2E/DX2 analytically  !
 ! D70   D(1,14,24,25)         -60.9274         calculate D2E/DX2 analytically  !
 ! D71   D(1,14,24,26)          61.245          calculate D2E/DX2 analytically  !
 ! D72   D(1,14,24,27)        -179.5693         calculate D2E/DX2 analytically  !
 ! D73   D(5,15,28,29)         -57.114          calculate D2E/DX2 analytically  !
 ! D74   D(5,15,28,30)          65.4097         calculate D2E/DX2 analytically  !
 ! D75   D(5,15,28,31)        -176.0079         calculate D2E/DX2 analytically  !
 ! D76   D(4,16,19,37)         -43.6265         calculate D2E/DX2 analytically  !
 ! D77   D(4,16,19,83)          47.188          calculate D2E/DX2 analytically  !
 ! D78   D(17,16,19,37)         77.626          calculate D2E/DX2 analytically  !
 ! D79   D(17,16,19,83)        168.4405         calculate D2E/DX2 analytically  !
 ! D80   D(18,16,19,37)       -163.6682         calculate D2E/DX2 analytically  !
 ! D81   D(18,16,19,83)        -72.8537         calculate D2E/DX2 analytically  !
 ! D82   D(16,19,37,34)       -116.01           calculate D2E/DX2 analytically  !
 ! D83   D(16,19,37,52)         93.6857         calculate D2E/DX2 analytically  !
 ! D84   D(83,19,37,34)        138.8206         calculate D2E/DX2 analytically  !
 ! D85   D(83,19,37,52)        -11.4837         calculate D2E/DX2 analytically  !
 ! D86   D(16,19,83,52)       -123.6024         calculate D2E/DX2 analytically  !
 ! D87   D(16,19,83,84)         86.0124         calculate D2E/DX2 analytically  !
 ! D88   D(37,19,83,52)         11.8994         calculate D2E/DX2 analytically  !
 ! D89   D(37,19,83,84)       -138.4857         calculate D2E/DX2 analytically  !
 ! D90   D(36,32,33,34)        -49.9324         calculate D2E/DX2 analytically  !
 ! D91   D(36,32,33,38)         62.1114         calculate D2E/DX2 analytically  !
 ! D92   D(36,32,33,44)       -175.0674         calculate D2E/DX2 analytically  !
 ! D93   D(39,32,33,34)         69.3762         calculate D2E/DX2 analytically  !
 ! D94   D(39,32,33,38)       -178.58           calculate D2E/DX2 analytically  !
 ! D95   D(39,32,33,44)        -55.7588         calculate D2E/DX2 analytically  !
 ! D96   D(45,32,33,34)       -169.6527         calculate D2E/DX2 analytically  !
 ! D97   D(45,32,33,38)        -57.609          calculate D2E/DX2 analytically  !
 ! D98   D(45,32,33,44)         65.2122         calculate D2E/DX2 analytically  !
 ! D99   D(33,32,36,35)         58.9951         calculate D2E/DX2 analytically  !
 ! D100  D(33,32,36,41)        -61.3567         calculate D2E/DX2 analytically  !
 ! D101  D(33,32,36,46)        176.406          calculate D2E/DX2 analytically  !
 ! D102  D(39,32,36,35)        -59.7217         calculate D2E/DX2 analytically  !
 ! D103  D(39,32,36,41)        179.9265         calculate D2E/DX2 analytically  !
 ! D104  D(39,32,36,46)         57.6891         calculate D2E/DX2 analytically  !
 ! D105  D(45,32,36,35)        177.9647         calculate D2E/DX2 analytically  !
 ! D106  D(45,32,36,41)         57.6129         calculate D2E/DX2 analytically  !
 ! D107  D(45,32,36,46)        -64.6244         calculate D2E/DX2 analytically  !
 ! D108  D(33,32,45,67)       -130.7701         calculate D2E/DX2 analytically  !
 ! D109  D(36,32,45,67)        110.6422         calculate D2E/DX2 analytically  !
 ! D110  D(39,32,45,67)        -11.0366         calculate D2E/DX2 analytically  !
 ! D111  D(32,33,34,37)       -160.3411         calculate D2E/DX2 analytically  !
 ! D112  D(32,33,34,42)         29.814          calculate D2E/DX2 analytically  !
 ! D113  D(32,33,34,53)        -72.6815         calculate D2E/DX2 analytically  !
 ! D114  D(38,33,34,37)         84.0701         calculate D2E/DX2 analytically  !
 ! D115  D(38,33,34,42)        -85.7748         calculate D2E/DX2 analytically  !
 ! D116  D(38,33,34,53)        171.7297         calculate D2E/DX2 analytically  !
 ! D117  D(44,33,34,37)        -33.1671         calculate D2E/DX2 analytically  !
 ! D118  D(44,33,34,42)        156.9881         calculate D2E/DX2 analytically  !
 ! D119  D(44,33,34,53)         54.4925         calculate D2E/DX2 analytically  !
 ! D120  D(32,33,44,63)        -99.7212         calculate D2E/DX2 analytically  !
 ! D121  D(34,33,44,63)        134.3414         calculate D2E/DX2 analytically  !
 ! D122  D(38,33,44,63)         21.9974         calculate D2E/DX2 analytically  !
 ! D123  D(33,34,37,19)        -61.0826         calculate D2E/DX2 analytically  !
 ! D124  D(33,34,37,52)         82.1853         calculate D2E/DX2 analytically  !
 ! D125  D(42,34,37,19)        109.5246         calculate D2E/DX2 analytically  !
 ! D126  D(42,34,37,52)       -107.2075         calculate D2E/DX2 analytically  !
 ! D127  D(53,34,37,19)       -158.1764         calculate D2E/DX2 analytically  !
 ! D128  D(53,34,37,52)        -14.9086         calculate D2E/DX2 analytically  !
 ! D129  D(33,34,42,35)        -16.0151         calculate D2E/DX2 analytically  !
 ! D130  D(37,34,42,35)        173.6126         calculate D2E/DX2 analytically  !
 ! D131  D(53,34,42,35)         88.9028         calculate D2E/DX2 analytically  !
 ! D132  D(33,34,53,51)       -116.1245         calculate D2E/DX2 analytically  !
 ! D133  D(37,34,53,51)          4.1538         calculate D2E/DX2 analytically  !
 ! D134  D(42,34,53,51)        119.0194         calculate D2E/DX2 analytically  !
 ! D135  D(40,35,36,32)         69.8942         calculate D2E/DX2 analytically  !
 ! D136  D(40,35,36,41)       -170.0163         calculate D2E/DX2 analytically  !
 ! D137  D(40,35,36,46)        -50.5781         calculate D2E/DX2 analytically  !
 ! D138  D(42,35,36,32)        -44.905          calculate D2E/DX2 analytically  !
 ! D139  D(42,35,36,41)         75.1845         calculate D2E/DX2 analytically  !
 ! D140  D(42,35,36,46)       -165.3773         calculate D2E/DX2 analytically  !
 ! D141  D(47,35,36,32)       -167.2992         calculate D2E/DX2 analytically  !
 ! D142  D(47,35,36,41)        -47.2097         calculate D2E/DX2 analytically  !
 ! D143  D(47,35,36,46)         72.2285         calculate D2E/DX2 analytically  !
 ! D144  D(36,35,42,34)         23.2109         calculate D2E/DX2 analytically  !
 ! D145  D(40,35,42,34)        -94.7341         calculate D2E/DX2 analytically  !
 ! D146  D(47,35,42,34)        150.27           calculate D2E/DX2 analytically  !
 ! D147  D(36,35,47,48)        -65.5601         calculate D2E/DX2 analytically  !
 ! D148  D(36,35,47,49)        177.8058         calculate D2E/DX2 analytically  !
 ! D149  D(36,35,47,50)         55.8103         calculate D2E/DX2 analytically  !
 ! D150  D(40,35,47,48)         57.3485         calculate D2E/DX2 analytically  !
 ! D151  D(40,35,47,49)        -59.2856         calculate D2E/DX2 analytically  !
 ! D152  D(40,35,47,50)        178.7189         calculate D2E/DX2 analytically  !
 ! D153  D(42,35,47,48)        168.8689         calculate D2E/DX2 analytically  !
 ! D154  D(42,35,47,49)         52.2348         calculate D2E/DX2 analytically  !
 ! D155  D(42,35,47,50)        -69.7607         calculate D2E/DX2 analytically  !
 ! D156  D(32,36,46,71)        111.0494         calculate D2E/DX2 analytically  !
 ! D157  D(35,36,46,71)       -128.5729         calculate D2E/DX2 analytically  !
 ! D158  D(41,36,46,71)        -10.0868         calculate D2E/DX2 analytically  !
 ! D159  D(19,37,52,51)        169.6684         calculate D2E/DX2 analytically  !
 ! D160  D(19,37,52,83)         11.8473         calculate D2E/DX2 analytically  !
 ! D161  D(34,37,52,51)         26.4059         calculate D2E/DX2 analytically  !
 ! D162  D(34,37,52,83)       -131.4152         calculate D2E/DX2 analytically  !
 ! D163  D(33,44,63,64)        -63.4944         calculate D2E/DX2 analytically  !
 ! D164  D(33,44,63,65)         58.9618         calculate D2E/DX2 analytically  !
 ! D165  D(33,44,63,66)        177.8986         calculate D2E/DX2 analytically  !
 ! D166  D(32,45,67,68)        -60.303          calculate D2E/DX2 analytically  !
 ! D167  D(32,45,67,69)         61.9452         calculate D2E/DX2 analytically  !
 ! D168  D(32,45,67,70)       -179.355          calculate D2E/DX2 analytically  !
 ! D169  D(36,46,71,72)        -61.235          calculate D2E/DX2 analytically  !
 ! D170  D(36,46,71,73)         60.9398         calculate D2E/DX2 analytically  !
 ! D171  D(36,46,71,74)        179.6913         calculate D2E/DX2 analytically  !
 ! D172  D(35,47,50,75)       -178.3601         calculate D2E/DX2 analytically  !
 ! D173  D(48,47,50,75)        -59.5739         calculate D2E/DX2 analytically  !
 ! D174  D(49,47,50,75)         61.0332         calculate D2E/DX2 analytically  !
 ! D175  D(47,50,75,76)       -179.8635         calculate D2E/DX2 analytically  !
 ! D176  D(47,50,75,77)        -60.6556         calculate D2E/DX2 analytically  !
 ! D177  D(47,50,75,78)         60.8895         calculate D2E/DX2 analytically  !
 ! D178  D(43,51,52,37)       -147.1017         calculate D2E/DX2 analytically  !
 ! D179  D(43,51,52,83)       -102.9044         calculate D2E/DX2 analytically  !
 ! D180  D(53,51,52,37)        -15.6024         calculate D2E/DX2 analytically  !
 ! D181  D(53,51,52,83)         28.5949         calculate D2E/DX2 analytically  !
 ! D182  D(54,51,52,37)         97.7455         calculate D2E/DX2 analytically  !
 ! D183  D(54,51,52,83)        141.9428         calculate D2E/DX2 analytically  !
 ! D184  D(43,51,53,34)        144.6807         calculate D2E/DX2 analytically  !
 ! D185  D(52,51,53,34)         13.4234         calculate D2E/DX2 analytically  !
 ! D186  D(54,51,53,34)        -99.2011         calculate D2E/DX2 analytically  !
 ! D187  D(43,51,54,55)        -33.6189         calculate D2E/DX2 analytically  !
 ! D188  D(43,51,54,56)        149.8105         calculate D2E/DX2 analytically  !
 ! D189  D(52,51,54,55)         86.6413         calculate D2E/DX2 analytically  !
 ! D190  D(52,51,54,56)        -89.9293         calculate D2E/DX2 analytically  !
 ! D191  D(53,51,54,55)       -155.0128         calculate D2E/DX2 analytically  !
 ! D192  D(53,51,54,56)         28.4166         calculate D2E/DX2 analytically  !
 ! D193  D(37,52,83,19)        -10.1049         calculate D2E/DX2 analytically  !
 ! D194  D(37,52,83,84)        144.7909         calculate D2E/DX2 analytically  !
 ! D195  D(51,52,83,19)        -60.0269         calculate D2E/DX2 analytically  !
 ! D196  D(51,52,83,84)         94.8688         calculate D2E/DX2 analytically  !
 ! D197  D(51,54,55,57)       -176.1083         calculate D2E/DX2 analytically  !
 ! D198  D(51,54,55,58)          4.3351         calculate D2E/DX2 analytically  !
 ! D199  D(56,54,55,57)          0.4223         calculate D2E/DX2 analytically  !
 ! D200  D(56,54,55,58)       -179.1342         calculate D2E/DX2 analytically  !
 ! D201  D(51,54,56,59)        176.1466         calculate D2E/DX2 analytically  !
 ! D202  D(51,54,56,60)         -3.6571         calculate D2E/DX2 analytically  !
 ! D203  D(55,54,56,59)         -0.3813         calculate D2E/DX2 analytically  !
 ! D204  D(55,54,56,60)        179.815          calculate D2E/DX2 analytically  !
 ! D205  D(54,55,57,61)         -0.1908         calculate D2E/DX2 analytically  !
 ! D206  D(54,55,57,93)        176.4866         calculate D2E/DX2 analytically  !
 ! D207  D(58,55,57,61)        179.3623         calculate D2E/DX2 analytically  !
 ! D208  D(58,55,57,93)         -3.9602         calculate D2E/DX2 analytically  !
 ! D209  D(54,56,59,61)          0.1072         calculate D2E/DX2 analytically  !
 ! D210  D(54,56,59,97)        177.8104         calculate D2E/DX2 analytically  !
 ! D211  D(60,56,59,61)        179.9096         calculate D2E/DX2 analytically  !
 ! D212  D(60,56,59,97)         -2.3872         calculate D2E/DX2 analytically  !
 ! D213  D(55,57,61,59)         -0.0772         calculate D2E/DX2 analytically  !
 ! D214  D(55,57,61,62)        179.9255         calculate D2E/DX2 analytically  !
 ! D215  D(93,57,61,59)       -176.7438         calculate D2E/DX2 analytically  !
 ! D216  D(93,57,61,62)          3.2589         calculate D2E/DX2 analytically  !
 ! D217  D(55,57,93,94)        -85.5601         calculate D2E/DX2 analytically  !
 ! D218  D(55,57,93,95)        154.8633         calculate D2E/DX2 analytically  !
 ! D219  D(55,57,93,96)         33.8959         calculate D2E/DX2 analytically  !
 ! D220  D(61,57,93,94)         91.1433         calculate D2E/DX2 analytically  !
 ! D221  D(61,57,93,95)        -28.4334         calculate D2E/DX2 analytically  !
 ! D222  D(61,57,93,96)       -149.4007         calculate D2E/DX2 analytically  !
 ! D223  D(56,59,61,57)          0.1194         calculate D2E/DX2 analytically  !
 ! D224  D(56,59,61,62)       -179.8832         calculate D2E/DX2 analytically  !
 ! D225  D(97,59,61,57)       -177.6019         calculate D2E/DX2 analytically  !
 ! D226  D(97,59,61,62)          2.3954         calculate D2E/DX2 analytically  !
 ! D227  D(56,59,97,98)         22.454          calculate D2E/DX2 analytically  !
 ! D228  D(56,59,97,99)        -97.3959         calculate D2E/DX2 analytically  !
 ! D229  D(56,59,97,100)       143.2012         calculate D2E/DX2 analytically  !
 ! D230  D(61,59,97,98)       -159.8156         calculate D2E/DX2 analytically  !
 ! D231  D(61,59,97,99)         80.3345         calculate D2E/DX2 analytically  !
 ! D232  D(61,59,97,100)       -39.0684         calculate D2E/DX2 analytically  !
 ! D233  D(19,83,84,85)        139.5642         calculate D2E/DX2 analytically  !
 ! D234  D(19,83,84,89)        -31.3913         calculate D2E/DX2 analytically  !
 ! D235  D(52,83,84,85)         -8.3151         calculate D2E/DX2 analytically  !
 ! D236  D(52,83,84,89)       -179.2705         calculate D2E/DX2 analytically  !
 ! D237  D(83,84,85,86)       -111.498          calculate D2E/DX2 analytically  !
 ! D238  D(83,84,85,87)          7.8171         calculate D2E/DX2 analytically  !
 ! D239  D(83,84,85,88)        127.2055         calculate D2E/DX2 analytically  !
 ! D240  D(89,84,85,86)         60.3646         calculate D2E/DX2 analytically  !
 ! D241  D(89,84,85,87)        179.6798         calculate D2E/DX2 analytically  !
 ! D242  D(89,84,85,88)        -60.9319         calculate D2E/DX2 analytically  !
 ! D243  D(83,84,89,90)       -127.0956         calculate D2E/DX2 analytically  !
 ! D244  D(83,84,89,91)         -7.7431         calculate D2E/DX2 analytically  !
 ! D245  D(83,84,89,92)        111.6016         calculate D2E/DX2 analytically  !
 ! D246  D(85,84,89,90)         61.0762         calculate D2E/DX2 analytically  !
 ! D247  D(85,84,89,91)       -179.5712         calculate D2E/DX2 analytically  !
 ! D248  D(85,84,89,92)        -60.2265         calculate D2E/DX2 analytically  !
 --------------------------------------------------------------------------------
 Trust Radius=5.00D-02 FncErr=1.00D-07 GrdErr=1.00D-06 EigMax=2.50D+02 EigMin=1.00D-04
 Number of steps in this run=    556 maximum allowed number of steps=    600.
 Search for a saddle point of order  1.
 GradGradGradGradGradGradGradGradGradGradGradGradGradGradGradGradGradGrad

 Leave Link  103 at Sun Jun 16 11:41:06 2019, MaxMem=  6442450944 cpu:               3.7 elap:               0.2
 (Enter /home/ekwan/sw/g16/l202.exe)
 Stoichiometry    C30H47F6NaO15S
 Framework group  C1[X(C30H47F6NaO15S)]
 Deg. of freedom   294
 Full point group                 C1      NOp   1
 Largest Abelian subgroup         C1      NOp   1
 Largest concise Abelian subgroup C1      NOp   1
                         Standard orientation:                         
 ---------------------------------------------------------------------
 Center     Atomic      Atomic             Coordinates (Angstroms)
 Number     Number       Type             X           Y           Z
 ---------------------------------------------------------------------
      1          6           0       -2.251136    1.138485    2.538517
      2          6           0       -2.781628    1.914353    1.334021
      3          6           0       -2.207094    3.333355    1.324532
      4          6           0       -0.189442    2.625923    2.441023
      5          6           0       -0.723559    1.196945    2.592870
      6          1           0       -2.480556    3.849795    0.395043
      7          1           0       -2.421472    1.425290    0.421076
      8          1           0       -2.645178    1.595526    3.452588
      9          1           0       -0.454303    3.185621    3.346647
     10          1           0       -0.321573    0.584527    1.777132
     11          8           0       -0.793127    3.273638    1.301777
     12          8           0       -2.701210    4.027341    2.426144
     13          8           0       -4.194981    1.973805    1.330723
     14          8           0       -2.656129   -0.221659    2.461391
     15          8           0       -0.284622    0.701817    3.849263
     16          6           0        1.335410    2.693679    2.238375
     17          1           0        1.769669    2.203476    3.131661
     18          1           0        1.598300    3.769739    2.341410
     19          8           0        1.786746    2.169762    1.052235
     20          6           0       -4.808696    1.169397    0.342770
     21          1           0       -4.500958    1.463924   -0.668899
     22          1           0       -4.582741    0.108310    0.484725
     23          1           0       -5.885113    1.321869    0.438792
     24          6           0       -3.623360   -0.604968    3.417199
     25          1           0       -3.248838   -0.479200    4.440662
     26          1           0       -4.553006   -0.035764    3.307577
     27          1           0       -3.827767   -1.662447    3.243022
     28          6           0        0.361961   -0.553392    3.801268
     29          1           0       -0.275604   -1.319101    3.348366
     30          1           0        1.308576   -0.503459    3.250055
     31          1           0        0.574142   -0.833674    4.835383
     32          6           0        4.520756   -0.671002   -1.156699
     33          6           0        3.585222    0.465647   -0.729813
     34          6           0        2.323554   -0.060205   -0.124752
     35          6           0        3.304831   -2.202914    0.431814
     36          6           0        4.666298   -1.639944    0.018515
     37          1           0        1.441173    0.556604   -0.060136
     38          1           0        4.052108    0.997128    0.115141
     39          1           0        4.078144   -1.190840   -2.013215
     40          1           0        2.945657   -2.879069   -0.346814
     41          1           0        5.110528   -1.106777    0.865049
     42          8           0        2.261700   -1.164177    0.506891
     43          8           0       -0.256736   -0.132961   -3.986195
     44          8           0        3.284719    1.363643   -1.758757
     45          8           0        5.775230   -0.127253   -1.493821
     46          8           0        5.452795   -2.754037   -0.339878
     47          6           0        3.287497   -2.928274    1.758264
     48          1           0        3.910673   -3.826485    1.651141
     49          1           0        2.261142   -3.255165    1.975666
     50          8           0        3.775555   -2.075164    2.759780
     51         16           0       -0.054707   -0.245881   -2.529929
     52          8           0       -0.280211    1.030282   -1.794514
     53          8           0        1.224777   -0.905973   -2.141363
     54          6           0       -1.353821   -1.336559   -1.923361
     55          6           0       -2.603484   -1.320053   -2.533755
     56          6           0       -1.117882   -2.132291   -0.806183
     57          6           0       -3.629029   -2.105847   -2.009188
     58          1           0       -2.769445   -0.707146   -3.410609
     59          6           0       -2.149611   -2.913022   -0.292437
     60          1           0       -0.140418   -2.137561   -0.343483
     61          6           0       -3.408773   -2.903206   -0.889148
     62          1           0       -4.209330   -3.509910   -0.486159
     63          6           0        4.046936    2.567051   -1.726142
     64          1           0        3.831012    3.134923   -0.815553
     65          1           0        5.116803    2.357171   -1.790438
     66          1           0        3.735482    3.143491   -2.597005
     67          6           0        6.291083   -0.567476   -2.740486
     68          1           0        6.428180   -1.652785   -2.756404
     69          1           0        5.635054   -0.273287   -3.567206
     70          1           0        7.259002   -0.080412   -2.862175
     71          6           0        6.720918   -2.808689    0.296736
     72          1           0        7.332353   -1.938777    0.040746
     73          1           0        6.617066   -2.869971    1.385982
     74          1           0        7.208061   -3.713413   -0.067441
     75          6           0        3.824008   -2.698916    4.026991
     76          1           0        4.210407   -1.960460    4.729138
     77          1           0        2.827092   -3.019989    4.354003
     78          1           0        4.489392   -3.571703    4.017199
     79          6           0       -2.427599    5.417421    2.399510
     80          1           0       -2.934432    5.852955    3.260544
     81          1           0       -1.354718    5.620456    2.471127
     82          1           0       -2.817565    5.876337    1.482237
     83         11           0        0.550485    2.925885   -0.695351
     84          8           0        0.775480    4.907826   -1.984200
     85          6           0        0.599373    4.946512   -3.388712
     86          1           0        1.550496    5.141183   -3.899006
     87          1           0        0.220162    3.971804   -3.695609
     88          1           0       -0.122064    5.722102   -3.672649
     89          6           0        1.275381    6.126904   -1.468296
     90          1           0        0.581859    6.952592   -1.668391
     91          1           0        1.385601    6.003082   -0.390703
     92          1           0        2.251597    6.369153   -1.905870
     93          6           0       -5.004537   -2.031751   -2.616799
     94          9           0       -5.719777   -1.018446   -2.083686
     95          9           0       -5.708044   -3.157902   -2.410314
     96          9           0       -4.955756   -1.819991   -3.942323
     97          6           0       -1.898702   -3.816774    0.885014
     98          9           0       -0.834936   -3.422606    1.609563
     99          9           0       -1.658342   -5.082788    0.492620
    100          9           0       -2.958012   -3.861352    1.713883
 ---------------------------------------------------------------------
 Rotational constants (GHZ):           0.0528564           0.0403792           0.0350428
 Leave Link  202 at Sun Jun 16 11:41:06 2019, MaxMem=  6442450944 cpu:               5.1 elap:               0.2
 (Enter /home/ekwan/sw/g16/l301.exe)
 Standard basis: 6-31G(d) (6D, 7F)
 Centers:      19     53     43     52
 SP 1 1.00
     Exponent=  8.4500000000D-02 Coefficients=  1.0000000000D+00  1.0000000000D+00
 ****
 Ernie: Thresh=  0.10000D-02 Tol=  0.10000D-05 Strict=F.
 There are   913 symmetry adapted cartesian basis functions of A   symmetry.
 There are   913 symmetry adapted basis functions of A   symmetry.
   913 basis functions,  1736 primitive gaussians,   913 cartesian basis functions
   214 alpha electrons      214 beta electrons
       nuclear repulsion energy      9421.0644643853 Hartrees.
 IExCor= 1715 DFT=T Ex+Corr=B972 ExCW=0 ScaHFX=  0.210000
 ScaDFX=  1.000000  1.000000  1.000000  1.000000 ScalE2=  1.000000  1.000000
 IRadAn=      5 IRanWt=     -1 IRanGd=            0 ICorTp=0 IEmpDi=  4
 NAtoms=  100 NActive=  100 NUniq=  100 SFac= 1.00D+00 NAtFMM=   60 NAOKFM=T Big=T
 Integral buffers will be    131072 words long.
 Raffenetti 2 integral format.
 Two-electron integral symmetry is turned on.
 Force inversion solution in PCM.
 ------------------------------------------------------------------------------
 Polarizable Continuum Model (PCM)
 =================================
 Model                : PCM.
 Atomic radii         : UFF (Universal Force Field).
 Polarization charges : Total charges.
 Charge compensation  : None.
 Solution method      : Matrix inversion.
 Cavity type          : Scaled VdW (van der Waals Surface) (Alpha=1.100).
 Cavity algorithm     : GePol (No added spheres)
                        Default sphere list used, NSphG=  100.
                        Lebedev-Laikov grids with approx.  5.0 points / Ang**2.
                        Smoothing algorithm: York/Karplus (Gamma=1.0000).
                        Polarization charges: spherical gaussians, with
                                              point-specific exponents (IZeta= 3).
                        Self-potential: point-specific (ISelfS= 7).
                        Self-field    : sphere-specific E.n sum rule (ISelfD= 2).
 1st derivatives      : Analytical E(r).r(x)/FMM algorithm (CHGder, D1EAlg=3).
                        Cavity 1st derivative terms included.
 2nd derivatives      : Analytical E(r).r(xy)/FMM algorithm (CHGder, D2EAlg=3).
                        Cavity 2nd derivative terms included.
 Solvent              : TetraHydroFuran, Eps=   7.425700 Eps(inf)=   1.974025
 ------------------------------------------------------------------------------
 GePol: Number of generator spheres                  =     100
 GePol: Total number of spheres                      =     100
 GePol: Number of exposed spheres                    =     100 (100.00%)
 GePol: Number of points                             =    6937
 GePol: Average weight of points                     =       0.12
 GePol: Minimum weight of points                     =   0.28D-11
 GePol: Maximum weight of points                     =    0.21371
 GePol: Number of points with low weight             =     488
 GePol: Fraction of low-weight points (<1% of avg)   =       7.03%
 GePol: Cavity surface area                          =    863.270 Ang**2
 GePol: Cavity volume                                =   1010.447 Ang**3
 Leave Link  301 at Sun Jun 16 11:41:06 2019, MaxMem=  6442450944 cpu:               6.9 elap:               0.3
 (Enter /home/ekwan/sw/g16/l302.exe)
 NPDir=0 NMtPBC=     1 NCelOv=     1 NCel=       1 NClECP=     1 NCelD=      1
         NCelK=      1 NCelE2=     1 NClLst=     1 CellRange=     0.0.
 One-electron integrals computed using PRISM.
 One-electron integral symmetry used in STVInt
 NBasis=   913 RedAO= T EigKep=  3.81D-04  NBF=   913
 NBsUse=   913 1.00D-06 EigRej= -1.00D+00 NBFU=   913
 Precomputing XC quadrature grid using
 IXCGrd= 4 IRadAn=           5 IRanWt=          -1 IRanGd=           0 AccXCQ= 0.00D+00.
 Generated NRdTot=       0 NPtTot=           0 NUsed=           0 NTot=          32
 NSgBfM=   855   848   849   849   855 MxSgAt=   100 MxSgA2=   100.
 Leave Link  302 at Sun Jun 16 11:41:30 2019, MaxMem=  6442450944 cpu:             582.5 elap:              24.2
[...]
 0067895,-0.00123965,-0.00002393,-0.00155590,-0.00009522,0.00004639,-0.
 00055168,0.00073750,0.00220162,0.00036040,-0.00077797,0.00045341,0.003
 74623,-0.00025577,0.00081023,-0.00008070,0.00051238,0.00241049,0.00012
 611,-0.00017431,-0.00016739,0.01025387,-0.04323829,-0.00207843,0.00037
 903,-0.00066140,-0.00098604,-0.00343526,-0.00149163,0.00006135,0.00064
 976,-0.00072444,-0.00083799,0.00004912,0.00008937,-0.00000806,-0.00000
 597,-0.00000790,-0.00000466,-0.00002030,-0.00001404,0.00000030,0.00000
 092,-0.00000656,0.00000265,0.00003161,-0.00003732,-0.00006292,-0.00000
 555,0.00001452,0.00000619,0.00000010,0.00000133,0.00000445,-0.00000803
 ,0.00000104,0.00000820,0.00005079,-0.00001100,0.00003148,-0.00000336,0
 .00000216,-0.00000483,-0.00000267,-0.00000636,-0.00000793,-0.00002013,
 0.00000736,0.00000203,0.00004841,-0.00005045,0.00006221,0.00000090,0.0
 0000518,-0.00000446,0.00000325,-0.00001500,0.00000080,-0.00003091,0.00
 001900,-0.00000203,0.00001589,0.00011173,-0.00000448,0.00000462,-0.000
 01826,-0.00001116,-0.00001160,-0.00000957,0.00000369,-0.00000159,-0.00
 001416,0.00000922,0.00009117,0.00024359,0.00003916,-0.00002885,-0.0000
 6888,0.00000763,0.00001455,0.00002349,-0.00001954,-0.00001106,-0.00000
 658,0.00000326,0.00000088,-0.00001055,-0.00000675,0.00000312,-0.000004
 93,-0.00000055,0.00002530,0.00004741,0.00001944,0.00000180,-0.00000829
 ,-0.00000028,0.00000299,0.00000110,-0.00000106,-0.00001089,-0.00000741
 ,0.00000389,-0.00287907,-0.00022525,-0.00095624,0.00088932,-0.00036281
 ,0.00005151,0.00084185,0.00047276,0.00019659,0.00073606,-0.00010292,0.
 00090472,0.03694897,-0.25403721,-0.03181485,-0.02566490,-0.04085073,-0
 .03541642,-0.05238103,0.35289497,0.00006305,0.00018697,-0.00002165,-0.
 00002403,-0.00001255,-0.00008762,-0.00000260,0.00001339,-0.00000475,-0
 .00002248,0.00006241,-0.00004184,-0.00003477,0.00004923,-0.00010269,0.
 00000244,-0.00002170,0.00000790,-0.00000492,-0.00000353,0.00001117,-0.
 00000542,-0.00002306,0.00000423,-0.00000516,-0.00000682,0.00000685,0.0
 0000490,0.00001978,-0.00000846,0.00001765,-0.00003923,0.00006066,0.000
 00406,-0.00001669,0.00001998,0.00004404,0.00001264,0.00009644,-0.00001
 533,-0.00030064,0.00000925,0.00004120,-0.00027397,0.00005409,0.0000463
 3,-0.00000188,-0.00007188,0.00000851,-0.00000050,0.00002169,-0.0000167
 2,-0.00000090,0.00001638,-0.00003381,0.00001702,0.00010425,-0.00001985
 ,-0.00002869,-0.00007948,-0.00000006,-0.00003149,0.00003022,0.00001020
 ,-0.00000061,-0.00003615,-0.00000283,0.00000970,0.00000775,0.00011875,
 0.00028031,-0.00003947,-0.00001665,-0.00003947,-0.00000480,0.00001181,
 -0.00007290,-0.00000895,-0.00022631,0.00002290,0.00019450,0.00015914,0
 .00036024,0.00008706,-0.00011031,0.00002272,0.00011899,-0.00002842,-0.
 00003012,-0.00000792,-0.00001853,-0.00003206,-0.00002900,-0.00002607,-
 0.00000172,-0.00002643,-0.00000616,0.00000305,-0.00001719,-0.00011573,
 -0.00000335,-0.00025293,-0.00004081,0.00001577,-0.00007475,0.00001621,
 -0.00000838,0.00000085,0.00000837,-0.00000798,-0.00001651,0.00000451,0
 .00000298,-0.00000035,-0.00000710,0.00000613,0.00001393,0.00000460,0.0
 0000458,-0.00000136,0.00000789,0.00000459,0.00000092,0.00002127,-0.000
 08888,0.00013102,0.00026791,0.00027614,-0.00031461,0.00002626,0.000010
 92,0.00002495,0.00000755,0.00000094,0.00002646,0.00000932,-0.00000537,
 0.00002261,0.00015046,0.00006326,-0.00005277,-0.00003029,-0.00000030,0
 .00000936,0.00003608,-0.00003552,0.00003880,-0.00006736,-0.00002672,0.
 00003553,-0.00104988,-0.00083746,0.00020290,0.00020186,0.00047993,0.00
 010662,0.00054713,0.00010542,0.00009051,-0.00002293,-0.00064894,-0.000
 99996,0.00004935,0.00049392,-0.00039542,-0.00164690,-0.00004537,0.0002
 6065,0.00051170,-0.00051192,-0.00044867,-0.00002384,0.00004445,0.00008
 890,-0.00402864,0.02151497,0.00873470,0.00007528,0.00044987,0.00012313
 ,0.00092431,0.00063555,0.00027680,-0.00021828,0.00018170,0.00005251,-0
 .00000930,-0.00002296,-0.00000122,0.00000070,0.00000516,0.00000342,0.0
 0000411,0.00000298,-0.00000055,-0.00000033,-0.00000237,0.00000172,-0.0
 0000261,-0.00000534,-0.00001474,-0.00000193,0.00000182,-0.00000133,0.0
 0000172,-0.00000321,0.00000479,0.00000219,0.00000195,0.00000126,-0.000
 00821,0.00000041,-0.00001393,0.00000031,0.00000021,0.00000068,0.000002
 89,0.00000025,0.00000616,-0.00000093,0.00000116,-0.00000028,0.00006027
 ,0.00001612,-0.00002452,-0.00000640,-0.00000562,0.00000118,-0.00001893
 ,-0.00000761,0.00001334,-0.00001206,0.00000359,0.00000355,-0.00000119,
 0.00001654,-0.00000505,-0.00000082,0.00000032,0.00000012,-0.00000071,-
 0.00000051,-0.00000094,0.00000197,-0.00000379,0.00000444,-0.00001859,-
 0.00006206,-0.00006875,0.00000897,0.00002274,0.00001737,-0.00000588,-0
 .00001110,-0.00001072,0.00000115,0.00000050,0.00000138,0.00000213,0.00
 000571,0.00000162,-0.00000059,0.00000152,0.00000198,-0.00000785,-0.000
 01711,-0.00001197,0.00000009,0.00000334,0.00000012,0.00000064,0.000000
 71,0.00000348,0.00000221,0.00000270,-0.00000038,0.00100064,-0.00014733
 ,0.00025290,-0.00031544,0.00017725,0.00001510,-0.00028673,-0.00008545,
 -0.00005015,-0.00024536,0.00005997,-0.00021350,0.00553579,-0.03060288,
 -0.08019003,-0.01478497,-0.04481698,-0.01226696,-0.01822550,0.09326165
 ,0.10152408,-0.00015293,-0.00035344,0.00002211,-0.00007058,0.00004587,
 0.00006955,-0.00013193,-0.00000209,0.00000066,0.00004690,-0.00000236,-
 0.00003227,-0.00015316,0.00017253,-0.00000038,0.00001153,0.00002029,-0
 .00000212,-0.00000124,0.00000252,-0.00002066,0.00001912,0.00002144,-0.
 00001051,0.00000438,-0.00001948,-0.00000748,0.00003513,0.00001324,-0.0
 0002140,0.00009843,-0.00003507,0.00000596,0.00004200,0.00000258,-0.000
 03081,0.00012672,0.00007788,-0.00003995,0.00038806,0.00049420,-0.00011
 480,0.00016608,-0.00030491,-0.00002824,-0.00007708,0.00004214,0.000131
 00,0.00001109,0.00000696,-0.00002118,0.00002463,-0.00004083,-0.0000356
 4,0.00005683,-0.00013749,-0.00014859,-0.00001241,-0.00013741,0.0000235
 5,0.00000404,0.00006294,-0.00003800,-0.00002706,0.00002780,0.00005615,
 0.00001135,-0.00000637,0.00000012,-0.00064227,-0.00103834,0.00032105,0
 .00006430,0.00021927,0.00005617,0.00004951,0.00017982,0.00000828,0.000
 58123,0.00021909,-0.00060877,0.00009931,0.00039631,0.00011039,-0.00016
 868,0.00006213,0.00018942,0.00003946,0.00001244,-0.00000150,-0.0000333
 1,-0.00005152,-0.00006022,0.00006116,0.00002562,-0.00003972,-0.0000351
 1,0.00004801,-0.00002152,0.00014294,0.00046983,-0.00003489,0.00009240,
 0.00003665,-0.00001598,0.00010095,-0.00003168,-0.00000729,-0.00001363,
 0.00004273,-0.00001352,-0.00000177,0.00000002,0.00001425,0.00000574,-0
 .00000227,-0.00001542,0.00003952,-0.00000289,-0.00004300,-0.00001629,-
 0.00000192,0.00000068,-0.00018887,-0.00034902,0.00012028,-0.00017455,-
 0.00025654,0.00049821,-0.00004588,-0.00010894,0.00003627,-0.00010236,-
 0.00003705,0.00006275,-0.00012154,0.00001947,-0.00000359,0.00039189,0.
 00023009,0.00005711,-0.00005975,-0.00001212,0.00000894,0.00009421,-0.0
 0008869,0.00015891,-0.00018267,-0.00010391,-0.00021819,0.00080261,0.00
 089406,-0.00042212,-0.00012856,-0.00055645,-0.00009495,-0.00035792,-0.
 00020624,0.00010582,-0.00032068,-0.00042054,-0.00033935,0.00041475,0.0
 0018732,0.00012343,0.00144761,-0.00058295,0.00182344,0.00112727,-0.000
 91099,0.00058839,0.00011333,0.00013479,0.00004066,-0.00595126,-0.00141
 821,0.01247410,0.00039357,0.00068522,-0.00036492,-0.00272618,-0.000742
 77,-0.00267484,0.00171403,0.00122909,0.00043663,0.00004006,0.00007843,
 0.00000363,-0.00000581,-0.00000809,-0.00000782,-0.00001068,-0.00000634
 ,-0.00000095,-0.00000221,-0.00000849,0.00000484,0.00002382,-0.00001193
 ,-0.00004769,0.00000345,0.00000287,0.00000490,0.00000119,0.00000528,0.
 00000680,-0.00001131,-0.00000318,0.00000618,0.00008756,-0.00000307,0.0
 0004152,-0.00001364,-0.00000997,-0.00000160,0.00000039,0.00000030,-0.0
 0000856,-0.00000676,0.00000738,-0.00000168,0.00005828,-0.00005697,0.00
 012367,-0.00001742,-0.00001131,-0.00002168,-0.00000533,0.00001515,0.00
 000904,-0.00001118,0.00002140,-0.00000798,-0.00000980,-0.00000673,0.00
 000160,0.00000106,-0.00000178,-0.00000209,0.00000497,0.00000429,0.0000
 0172,-0.00000088,0.00000167,-0.00000024,-0.00001537,0.00012902,0.00002
 959,0.00000084,-0.00003107,-0.00000657,0.00000010,0.00001198,-0.000000
 72,0.00000038,0.00000019,-0.00000012,-0.00000494,-0.00000429,-0.000001
 53,0.00000255,-0.00000589,-0.00000019,0.00000420,0.00002132,0.00000926
 ,0.00000221,-0.00000601,0.00000151,-0.00000122,0.00000102,-0.00000084,
 -0.00000146,-0.00000212,-0.00000048,-0.00102476,-0.00018133,0.00012685
 ,0.00035998,-0.00014851,-0.00008315,0.00031058,0.00019240,-0.00004786,
 0.00023521,-0.00001615,0.00011222,-0.17456603,-0.01462301,0.09763432,-
 0.07788819,-0.01845069,0.01231094,-0.02110609,0.02957480,0.03179859,0.
 27664187,0.00008681,0.00018044,-0.00001528,-0.00005098,0.00002080,0.00
 004288,0.00001290,0.00009272,0.00003862,-0.00000249,0.00004040,0.00000
 280,0.00001111,0.00001731,0.00009941,-0.00000332,-0.00001349,0.0000009
 3,0.00000740,0.00002029,-0.00001274,-0.00000835,-0.00003476,-0.0000109
 1,0.00000118,-0.00001691,-0.00000932,0.00002471,0.00000756,-0.00001454
 ,-0.00001116,-0.00004709,-0.00002515,0.00000716,-0.00009390,-0.0000405
 5,0.00002419,-0.00007313,-0.00003280,0.00001500,-0.00041476,-0.0002716
 5,-0.00004104,-0.00001538,-0.00007916,0.00000865,-0.00000034,0.0000513
 9,-0.00000046,0.00000602,-0.00001764,-0.00000642,-0.00002877,-0.000013
 22,-0.00003306,-0.00005724,-0.00006657,-0.00001836,0.00008897,0.000020
 40,-0.00000128,0.00001302,-0.00000505,-0.00002400,-0.00003495,0.000013
 04,0.00002411,-0.00002398,-0.00000556,0.00008334,0.00025406,0.00006130
 ,-0.00000843,-0.00012522,-0.00006284,-0.00000677,-0.00012412,-0.000047
 49,0.00005706,-0.00117294,-0.00042809,0.00006331,0.00004233,0.00004602
 ,-0.00002226,0.00000099,0.00003531,-0.00000567,-0.00000037,0.00000626,
 -0.00001691,-0.00001168,-0.00003195,0.00004777,-0.00001200,-0.00001036
 ,-0.00000570,0.00001077,-0.00001000,0.00016144,0.00011160,0.00016325,0
 .00010240,-0.00010933,0.00002084,0.00003253,-0.00001078,0.00000161,0.0
 0001087,0.00002052,-0.00001181,-0.00000549,-0.00000231,0.00001019,0.00
 000647,-0.00000584,-0.00000854,-0.00000331,-0.00000445,0.00000153,-0.0
 0000302,0.00000167,0.00000100,-0.00013016,0.00002920,-0.00006666,-0.00
 031535,-0.00024550,0.00057991,-0.00004823,-0.00003826,0.00000476,-0.00
 005185,0.00000307,0.00002176,-0.00005453,0.00003851,-0.00000413,0.0000
 4588,0.00001322,0.00000904,-0.00002600,0.00000260,-0.00000633,0.000037
 27,-0.00002294,0.00002957,-0.00002270,0.00002689,-0.00004921,0.0016246
 6,0.00078574,-0.00058349,-0.00038250,-0.00065827,-0.00007491,-0.000690
 00,-0.00005950,-0.00000215,0.00022284,-0.00160581,0.00022512,-0.000509
 00,-0.00040446,0.00041234,0.00194258,0.00059268,0.00204956,0.00010953,
 -0.00020914,-0.00027587,0.00000062,0.00006944,0.00003342,-0.01760886,0
 .00442138,0.01946653,-0.00005583,0.00054636,0.00001119,-0.00069872,-0.
 00058274,0.00053770,0.00025219,-0.00002211,0.00067049,0.00002284,0.000
 04275,-0.00000283,-0.00000290,-0.00000454,-0.00000291,-0.00000902,-0.0
 0000617,0.00000021,0.00000024,-0.00000246,0.00000091,0.00001350,-0.000
 01257,-0.00002242,-0.00000118,0.00000486,0.00000290,-0.00000021,0.0000
 0158,0.00000099,-0.00000420,-0.00000039,0.00000305,0.00002676,-0.00000
 419,0.00001783,-0.00000233,-0.00000017,-0.00000201,-0.00000167,-0.0000
 0223,-0.00000501,-0.00000712,0.00000290,0.00000060,0.00000261,-0.00002
 800,0.00004065,0.00000120,0.00000236,-0.00000360,0.00000650,-0.0000012
 0,-0.00000304,-0.00000758,0.00000755,-0.00000237,0.00000723,0.00004973
 ,-0.00000061,0.00000215,-0.00000879,-0.00000532,-0.00000526,-0.0000046
 5,0.00000186,-0.00000118,-0.00000664,0.00000367,0.00004334,0.00011903,
 0.00002541,-0.00001259,-0.00003260,0.00000010,0.00000628,0.00001141,-0
 .00000623,-0.00000437,-0.00000254,0.00000117,-0.00000043,-0.00000526,-
 0.00000280,0.00000156,-0.00000268,-0.00000053,0.00001131,0.00002272,0.
 00001008,0.00000082,-0.00000417,-0.00000007,0.00000110,0.00000044,-0.0
 0000097,-0.00000475,-0.00000345,0.00000157,-0.00117569,-0.00008387,-0.
 00045034,0.00037817,-0.00013883,0.00002369,0.00036455,0.00019150,0.000
 07540,0.00025255,-0.00002525,0.00029671,-0.01342182,-0.07581329,0.0170
 4357,-0.01858731,0.00815795,0.00364148,0.04254550,-0.01202771,-0.03998
 510,0.00540956,0.07843076,0.00017251,0.00044133,-0.00003793,0.00000476
 ,-0.00005817,-0.00016976,0.00008415,-0.00001443,-0.00001241,-0.0000649
 0,0.00006628,-0.00003260,0.00006612,-0.00007392,-0.00014191,-0.0000043
 8,-0.00003790,0.00001071,-0.00000671,-0.00001192,0.00003345,-0.0000210
 9,-0.00003403,0.00001937,-0.00000914,0.00001016,0.00001668,-0.00002528
 ,0.00001392,0.00001119,-0.00003745,-0.00000533,0.00007777,-0.00002331,
 0.00000825,0.00005743,-0.00000979,0.00000657,0.00017054,-0.00030277,-0
 .00067650,0.00017357,-0.00005900,-0.00007916,0.00011584,0.00010497,-0.
 00003339,-0.00018989,0.00000235,-0.00000721,0.00004640,-0.00003510,0.0
 0003607,0.00004795,-0.00006114,0.00013218,0.00025081,-0.00002234,-0.00
 001671,-0.00012662,-0.00000178,-0.00007010,0.00005786,0.00002862,-0.00
 000359,-0.00008071,-0.00001495,0.00002190,0.00001133,0.00074581,0.0010
 7379,-0.00023244,-0.00006965,-0.00019083,-0.00002410,-0.00003998,-0.00
 026918,-0.00003486,-0.00072249,-0.00054996,0.00029913,0.00003804,0.000
 08284,0.00001288,0.00005893,-0.00002614,-0.00008224,-0.00005683,-0.000
 04492,-0.00000949,0.00001580,0.00001205,0.00002746,-0.00008856,-0.0000
 0592,0.00000230,0.00001396,-0.00002732,-0.00000255,-0.00030863,-0.0003
 3330,-0.00037379,-0.00015294,0.00007344,-0.00008038,-0.00005581,0.0000
 1326,0.00000126,0.00001287,-0.00004466,-0.00000983,0.00000958,0.000004
 59,-0.00001449,-0.00001445,0.00001202,0.00002795,-0.00001312,0.0000076
 5,0.00002001,0.00001791,0.00000464,0.00000022,0.00020347,0.00006878,0.
 00012070,0.00064167,0.00061073,-0.00118198,0.00008587,0.00009416,0.000
 00602,0.00009434,0.00001790,-0.00002061,0.00010552,-0.00003823,0.00002
 633,-0.00004877,-0.00005209,-0.00010352,0.00000999,0.00000407,0.000010
 90,0.00000802,0.00001518,-0.00001756,0.00003523,0.00001484,0.00017512,
 -0.00299845,-0.00192148,0.00082465,0.00060302,0.00143121,0.00030525,0.
 00131791,0.00023981,0.00004536,0.00142255,0.00226848,-0.00034366,0.000
 25396,0.00044184,-0.00058841,-0.00476243,0.00110924,-0.00581863,-0.000
 01647,0.00051034,-0.00001090,-0.00002945,-0.00006548,-0.00004250,0.036
 55878,0.00893319,-0.02464513,0.00004001,-0.00049491,0.00003122,0.00177
 547,0.00052561,-0.00003023,-0.00011846,0.00013280,-0.00158479,-0.00004
 518,-0.00009426,-0.00000113,0.00000548,0.00001285,0.00000970,0.0000159
 6,0.00001090,-0.00000001,0.00000034,0.00000372,-0.00000132,-0.00002368
 ,0.00000907,0.00002514,-0.00000265,-0.00000286,-0.00000553,0.00000115,
 -0.00000665,0.00000049,0.00001072,0.00000363,-0.00000402,-0.00006877,0
 .00000371,-0.00004559,0.00000871,0.00000579,0.00000239,0.00000372,0.00
 000092,0.00001314,0.00000667,-0.00000436,0.00000077,0.00003028,0.00005
 841,-0.00010886,0.00000330,0.00000014,0.00001438,-0.00001857,-0.000016
 44,0.00000970,-0.00000452,-0.00001085,0.00000945,0.00000200,0.00000774
 ,-0.00000639,-0.00000255,0.00000413,0.00000290,-0.00000188,-0.00000199
 ,-0.00000285,0.00000311,-0.00000376,0.00000443,-0.00003257,-0.00021563
 ,-0.00012004,0.00001524,0.00006026,0.00002291,-0.00000989,-0.00002518,
 -0.00000781,0.00000331,0.00000172,0.00000106,0.00000601,0.00001141,0.0
 0000456,-0.00000287,0.00000685,0.00000251,-0.00001712,-0.00004284,-0.0
 0002440,-0.00000137,0.00000956,-0.00000070,0.00000098,-0.00000014,0.00
 000496,0.00000560,0.00000615,-0.00000089,0.00229456,-0.00013424,0.0006
 3400,-0.00079446,0.00039952,0.00004100,-0.00069068,-0.00027112,-0.0001
 1369,-0.00050178,0.00010051,-0.00053245,0.09042514,0.01805895,-0.16928
 035,-0.00305124,0.00028019,0.02223411,0.03208876,-0.02840823,-0.016930
 61,-0.15399784,-0.00306986,0.19715532\\-0.00000046,0.00000105,-0.00000
 012,0.00000038,0.00000065,-0.00000035,0.,0.00000066,-0.00000164,-0.000
 00041,0.00000134,-0.00000086,0.00000009,0.00000083,-0.00000004,-0.0000
 0017,0.,-0.00000176,0.00000001,-0.00000024,-0.00000091,-0.00000002,0.0
 0000126,-0.00000096,0.,0.00000127,-0.00000150,0.00000002,0.00000064,-0
 .00000027,0.00000005,0.00000035,-0.00000148,-0.00000009,0.00000120,-0.
 00000177,-0.00000046,0.00000014,-0.00000106,0.00000003,0.00000133,-0.0
 0000003,-0.00000015,0.00000161,-0.00000049,-0.00000031,0.00000135,-0.0
 0000113,-0.00000006,0.00000146,-0.00000084,-0.00000015,0.00000079,-0.0
 0000152,0.00000017,0.00000020,-0.00000097,-0.00000035,-0.00000016,-0.0
 0000056,-0.00000008,-0.00000050,-0.00000054,-0.00000001,-0.00000007,0.
 ,0.00000036,-0.00000013,-0.00000068,-0.00000039,0.00000179,-0.00000002
 ,0.00000005,0.00000194,0.00000071,0.00000023,0.00000118,0.00000011,-0.
 00000008,0.00000107,0.00000087,0.00000032,0.00000206,0.00000120,-0.000
 00043,0.00000110,0.00000057,0.00000006,0.00000142,0.00000029,-0.000000
 08,0.00000218,0.00000026,-0.00000004,-0.00000058,0.00000086,-0.0000000
 2,0.00000019,-0.00000037,0.00000038,0.00000017,0.00000007,0.00000042,0
 .00000014,0.00000185,-0.00000004,0.00000010,0.00000064,-0.00000040,-0.
 00000025,0.00000011,-0.00000010,-0.00000017,-0.00000029,0.00000003,-0.
 00000128,0.00000072,0.,-0.00000040,0.00000139,0.,0.00000039,0.00000092
 ,0.00000003,-0.00000038,0.00000084,0.00000024,-0.00000196,0.00000007,-
 0.00000003,-0.00000136,0.00000018,0.00000034,-0.00000051,0.00000042,-0
 .00000008,-0.00000020,0.00000156,0.00000024,0.00000115,0.00000187,0.00
 000005,0.00000085,0.00000205,-0.00000009,0.00000086,0.00000181,-0.0000
 0017,0.00000114,0.00000073,-0.00000020,-0.00000145,0.00000049,0.000000
 42,-0.00000172,-0.00000020,0.00000006,-0.00000092,0.00000065,0.0000003
 4,-0.00000144,0.00000122,0.00000026,-0.00000081,0.00000018,0.00000058,
 0.00000012,0.00000037,0.00000002,-0.00000130,0.00000142,0.00000005,-0.
 00000202,0.00000072,-0.00000052,-0.00000100,0.00000224,0.00000008,-0.0
 0000027,0.00000116,-0.00000034,-0.00000104,0.00000165,0.00000049,-0.00
 000013,0.00000156,-0.00000012,-0.00000068,-0.00000129,0.,-0.00000041,-
 0.00000110,0.00000010,-0.00000087,-0.00000086,-0.00000012,-0.00000097,
 -0.00000154,-0.00000023,-0.00000184,0.00000072,0.00000015,-0.00000108,
 0.00000103,0.00000009,-0.00000169,0.00000029,0.00000028,-0.00000122,0.
 00000035,0.00000006,-0.00000030,0.00000199,0.00000019,0.00000035,0.000
 00120,0.00000012,0.00000069,0.00000147,0.00000004,0.00000004,0.0000021
 4,-0.00000029,0.00000121,0.00000129,0.00000006,0.00000246,0.00000147,0
 .,0.00000222,0.00000175,0.00000004,0.00000201,0.00000200,-0.00000087,0
 .00000097,-0.00000206,0.00000012,0.00000118,-0.00000321,-0.00000007,0.
 00000104,-0.00000263,0.00000001,0.00000041,-0.00000255,0.00000073,0.00
 000084,-0.00000083,-0.00000063,-0.00000203,-0.00000210,-0.00000017,-0.
 00000190,-0.00000208,0.00000037,-0.00000236,-0.00000222,0.00000005,-0.
 00000124,-0.00000234,-0.00000010,-0.00000201,-0.00000264,0.00000063,-0
 .00000123,-0.00000295,-0.00000043,-0.00000072,-0.00000324,-0.00000049,
 -0.00000043,-0.00000277,-0.00000056,-0.00000110,-0.00000252,-0.0000004
 4,-0.00000170,0.00000101,0.00000039,-0.00000162,0.00000035,0.00000048,
 -0.00000102,0.00000159,0.00000009,-0.00000216,0.00000077,0.00000038,-0
 .00000028,0.00000186,-0.00000017,0.00000053,0.00000174,-0.00000003,0.0
 0000052,0.00000274,0.00000031,0.00000069,0.00000172\\\@


 PENOTUS DIED A HUNDRED YEARS OLD WANTING BUT TWO...
 AND HE USED TO SAY BEFORE HE DIED, HAVING SPENT HIS
 WHOLE LIFE IN VAINLY SEARCHING AFTER THE PHILOSOPHER'S
 STONE, THAT IF HE HAD A MORTAL ENEMY HE DID NOT DARE
 TO ENCOUNTER OPENLY, HE WOULD ADVISE HIM ABOVE ALL
 THINGS TO GIVE HIMSELF UP TO THE STUDY AND PRACTICE
 OF ALCHEMY.  --  NICOLAS LEMERY, M.D.
 "A COURSE OF CHYMISTRY", WALTER KETTILBY, LONDON, 1686
 Job cpu time:       4 days 15 hours 17 minutes  3.1 seconds.
 Elapsed time:       0 days  4 hours  4 minutes 50.1 seconds.
 File lengths (MBytes):  RWF=  10176 Int=      0 D2E=      0 Chk=     90 Scr=      1
 Normal termination of Gaussian 16 at Sun Jun 16 19:53:26 2019.
