 Entering Gaussian System, Link 0=g16
 Input=clay_new-glu_gluC6-bisCF3-sm-b3lyp_d3bj-custom-pcm_thf.gjf
 Output=clay_new-glu_gluC6-bisCF3-sm-b3lyp_d3bj-custom-pcm_thf.out
 Initial command:
 /home/ekwan/sw/g16/l1.exe "/scratch/users/ekwan/clay_new-glu_gluC6-bisCF3-sm-b3lyp_d3bj-custom-pcm_thf/Gau-6884.inp" -scrdir="/scratch/users/ekwan/clay_new-glu_gluC6-bisCF3-sm-b3lyp_d3bj-custom-pcm_thf/"
 Entering Link 1 = /home/ekwan/sw/g16/l1.exe PID=      6885.
  
 Copyright (c) 1988,1990,1992,1993,1995,1998,2003,2009,2016,
            Gaussian, Inc.  All Rights Reserved.
  
 This is part of the Gaussian(R) 16 program.  It is based on
 the Gaussian(R) 09 system (copyright 2009, Gaussian, Inc.),
 the Gaussian(R) 03 system (copyright 2003, Gaussian, Inc.),
 the Gaussian(R) 98 system (copyright 1998, Gaussian, Inc.),
 the Gaussian(R) 94 system (copyright 1995, Gaussian, Inc.),
 the Gaussian 92(TM) system (copyright 1992, Gaussian, Inc.),
 the Gaussian 90(TM) system (copyright 1990, Gaussian, Inc.),
 the Gaussian 88(TM) system (copyright 1988, Gaussian, Inc.),
 the Gaussian 86(TM) system (copyright 1986, Carnegie Mellon
 University), and the Gaussian 82(TM) system (copyright 1983,
 Carnegie Mellon University). Gaussian is a federally registered
 trademark of Gaussian, Inc.
  
 This software contains proprietary and confidential information,
 including trade secrets, belonging to Gaussian, Inc.
  
 This software is provided under written license and may be
 used, copied, transmitted, or stored only in accord with that
 written license.
  
 The following legend is applicable only to US Government
 contracts under FAR:
  
                    RESTRICTED RIGHTS LEGEND
  
 Use, reproduction and disclosure by the US Government is
 subject to restrictions as set forth in subparagraphs (a)
 and (c) of the Commercial Computer Software - Restricted
 Rights clause in FAR 52.227-19.
  
 Gaussian, Inc.
 340 Quinnipiac St., Bldg. 40, Wallingford CT 06492
  
  
 ---------------------------------------------------------------
 Warning -- This program may not be used in any manner that
 competes with the business of Gaussian, Inc. or will provide
 assistance to any competitor of Gaussian, Inc.  The licensee
 of this program is prohibited from giving any competitor of
 Gaussian, Inc. access to this program.  By using this program,
 the user acknowledges that Gaussian, Inc. is engaged in the
 business of creating and licensing software in the field of
 computational chemistry and represents and warrants to the
 licensee that it is not a competitor of Gaussian, Inc. and that
 it will not use this program in any manner prohibited above.
 ---------------------------------------------------------------
  

 Cite this work as:
 Gaussian 16, Revision A.03,
 M. J. Frisch, G. W. Trucks, H. B. Schlegel, G. E. Scuseria, 
 M. A. Robb, J. R. Cheeseman, G. Scalmani, V. Barone, 
 G. A. Petersson, H. Nakatsuji, X. Li, M. Caricato, A. V. Marenich, 
 J. Bloino, B. G. Janesko, R. Gomperts, B. Mennucci, H. P. Hratchian, 
 J. V. Ortiz, A. F. Izmaylov, J. L. Sonnenberg, D. Williams-Young, 
 F. Ding, F. Lipparini, F. Egidi, J. Goings, B. Peng, A. Petrone, 
 T. Henderson, D. Ranasinghe, V. G. Zakrzewski, J. Gao, N. Rega, 
 G. Zheng, W. Liang, M. Hada, M. Ehara, K. Toyota, R. Fukuda, 
 J. Hasegawa, M. Ishida, T. Nakajima, Y. Honda, O. Kitao, H. Nakai, 
 T. Vreven, K. Throssell, J. A. Montgomery, Jr., J. E. Peralta, 
 F. Ogliaro, M. J. Bearpark, J. J. Heyd, E. N. Brothers, K. N. Kudin, 
 V. N. Staroverov, T. A. Keith, R. Kobayashi, J. Normand, 
 K. Raghavachari, A. P. Rendell, J. C. Burant, S. S. Iyengar, 
 J. Tomasi, M. Cossi, J. M. Millam, M. Klene, C. Adamo, R. Cammi, 
 J. W. Ochterski, R. L. Martin, K. Morokuma, O. Farkas, 
 J. B. Foresman, and D. J. Fox, Gaussian, Inc., Wallingford CT, 2016.
 
 ******************************************
 Gaussian 16:  AS64L-G16RevA.03 25-Dec-2016
                15-Jun-2019 
 ******************************************
 %nprocshared=32
 Will use up to   32 processors via shared memory.
 %mem=48GB
 ----------------------------------------------------------------------
 #p opt freq=noraman b3lyp/6-31g(d) scrf=(solvent=tetrahydrofuran,pcm) 
 pop=none empiricaldispersion=gd3bj extrabasis
 ----------------------------------------------------------------------
 1/18=20,19=15,26=3,38=1/1,3;
 2/9=110,12=2,17=6,18=5,40=1/2;
 3/5=1,6=6,7=1,10=1,11=2,25=1,30=1,70=2201,71=1,72=20,74=-5,124=41/1,2,3;
 4//1;
 5/5=2,38=5,53=20/2;
 7//1,2,3,16;
 1/18=20,19=15,26=3/3(2);
 2/9=110/2;
 99//99;
 2/9=110/2;
 3/5=7,6=1,7=1,11=2,25=1,30=1,70=2205,71=1,72=20,74=-5,82=7,124=41/1,2,3;
 4/5=5,16=3,69=1/1;
 5/5=2,38=5,53=20/2;
 7//1,2,3,16;
 1/18=20,19=15,26=3/3(-5);
 2/9=110/2;
 99/9=1/99;
 Leave Link    1 at Sat Jun 15 06:58:55 2019, MaxMem=  6442450944 cpu:               4.8 elap:               0.2
 (Enter /home/ekwan/sw/g16/l101.exe)
 -----
 title
 -----
 Symbolic Z-matrix:
 Charge =  0 Multiplicity = 1
 6                     3.37444   0.38345   0.61478 
 6                     3.31815  -0.47948  -0.64861 
 6                     1.86652  -0.81798  -1.0261 
 6                     1.00663   1.11712   0.09196 
 6                     2.41366   1.56616   0.4925 
 1                     1.79698  -1.31831  -1.99118 
 1                     3.71482   0.11732  -1.48515 
 1                     3.07867  -0.21996   1.48343 
 1                     0.57437   0.5237    0.90756 
 1                     2.79107   2.24916  -0.27741 
 8                     1.0516    0.30149  -1.10261 
 8                     1.39491  -1.75069   0.00042 
 8                     4.10927  -1.62829  -0.45038 
 8                     4.67764   0.91162   0.8014 
 8                     2.29821   2.23339   1.73965 
 6                     0.07504   2.29642  -0.17031 
 1                    -0.12546   2.7696    0.7941 
 1                    -0.87173   1.92613  -0.58268 
 8                     0.6189    3.30702  -0.9994 
 16                    0.09917  -2.68281  -0.33346 
 8                     0.09101  -3.68072   0.73209 
 8                     0.14965  -3.07813  -1.74301 
 6                    -1.28036  -1.57224  -0.09934 
 6                    -1.73835  -1.33585   1.1935 
 6                    -1.82586  -0.93301  -1.20942 
 6                    -2.78246  -0.42789   1.3718 
 1                    -1.29167  -1.8443    2.03954 
 6                    -2.86685  -0.03095  -1.0071 
 1                    -1.4447   -1.13167  -2.20251 
 6                    -3.34748   0.2257    0.27811 
 1                    -4.15362   0.93453   0.42613 
 6                     4.43415  -2.33513  -1.64274 
 1                     3.56004  -2.84363  -2.06935 
 1                     4.86197  -1.66017  -2.39676 
 1                     5.17663  -3.08596  -1.36642 
 6                     5.50085   0.16247   1.68821 
 1                     6.44404   0.70834   1.77054 
 1                     5.04178   0.08977   2.68429 
 1                     5.69111  -0.84518   1.30537 
 6                     2.98445   3.47941   1.79526 
 1                     2.80439   3.89037   2.79182 
 1                     4.061     3.34408   1.64392 
 1                     2.59376   4.17573   1.04117 
 6                     0.57286   3.01683  -2.39279 
 1                     0.82124   3.94514  -2.91346 
 1                    -0.43292   2.69216  -2.69183 
 1                     1.2906    2.23848  -2.67447 
 6                    -3.33505  -0.19191   2.75398 
 9                    -2.38609  -0.35035   3.69886 
 9                    -4.33164  -1.0581    3.03848 
 9                    -3.83982   1.05252   2.87891 
 6                    -3.42658   0.74442  -2.17015 
 9                    -2.8846    1.98801  -2.22819 
 9                    -4.76011   0.90614  -2.064 
 9                    -3.17121   0.1439   -3.34715 
 
 ITRead=  0  0  0  0  0  0  0  0  0  0  0  0  0  0  0  0  0  0  0  0
 ITRead=  0  0  0  0  0  0  0  0  0  0  0  0  0  0  0  0  0  0  0  0
 ITRead=  0  0  0  0  0  0  0  0  0  0  0  0  0  0  0
 MicOpt= -1 -1 -1 -1 -1 -1 -1 -1 -1 -1 -1 -1 -1 -1 -1 -1 -1 -1 -1 -1
 MicOpt= -1 -1 -1 -1 -1 -1 -1 -1 -1 -1 -1 -1 -1 -1 -1 -1 -1 -1 -1 -1
 MicOpt= -1 -1 -1 -1 -1 -1 -1 -1 -1 -1 -1 -1 -1 -1 -1
 NAtoms=     55 NQM=       55 NQMF=       0 NMMI=      0 NMMIF=      0
                NMic=       0 NMicF=      0.
                    Isotopes and Nuclear Properties:
 (Nuclear quadrupole moments (NQMom) in fm**2, nuclear magnetic moments (NMagM)
  in nuclear magnetons)

  Atom         1           2           3           4           5           6           7           8           9          10
 IAtWgt=          12          12          12          12          12           1           1           1           1           1
 AtmWgt=  12.0000000  12.0000000  12.0000000  12.0000000  12.0000000   1.0078250   1.0078250   1.0078250   1.0078250   1.0078250
 NucSpn=           0           0           0           0           0           1           1           1           1           1
 AtZEff=   0.0000000   0.0000000   0.0000000   0.0000000   0.0000000   0.0000000   0.0000000   0.0000000   0.0000000   0.0000000
 NQMom=    0.0000000   0.0000000   0.0000000   0.0000000   0.0000000   0.0000000   0.0000000   0.0000000   0.0000000   0.0000000
 NMagM=    0.0000000   0.0000000   0.0000000   0.0000000   0.0000000   2.7928460   2.7928460   2.7928460   2.7928460   2.7928460
 AtZNuc=   6.0000000   6.0000000   6.0000000   6.0000000   6.0000000   1.0000000   1.0000000   1.0000000   1.0000000   1.0000000

  Atom        11          12          13          14          15          16          17          18          19          20
 IAtWgt=          16          16          16          16          16          12           1           1          16          32
 AtmWgt=  15.9949146  15.9949146  15.9949146  15.9949146  15.9949146  12.0000000   1.0078250   1.0078250  15.9949146  31.9720718
 NucSpn=           0           0           0           0           0           0           1           1           0           0
 AtZEff=   0.0000000   0.0000000   0.0000000   0.0000000   0.0000000   0.0000000   0.0000000   0.0000000   0.0000000   0.0000000
 NQMom=    0.0000000   0.0000000   0.0000000   0.0000000   0.0000000   0.0000000   0.0000000   0.0000000   0.0000000   0.0000000
 NMagM=    0.0000000   0.0000000   0.0000000   0.0000000   0.0000000   0.0000000   2.7928460   2.7928460   0.0000000   0.0000000
 AtZNuc=   8.0000000   8.0000000   8.0000000   8.0000000   8.0000000   6.0000000   1.0000000   1.0000000   8.0000000  16.0000000

  Atom        21          22          23          24          25          26          27          28          29          30
 IAtWgt=          16          16          12          12          12          12           1          12           1          12
 AtmWgt=  15.9949146  15.9949146  12.0000000  12.0000000  12.0000000  12.0000000   1.0078250  12.0000000   1.0078250  12.0000000
 NucSpn=           0           0           0           0           0           0           1           0           1           0
 AtZEff=   0.0000000   0.0000000   0.0000000   0.0000000   0.0000000   0.0000000   0.0000000   0.0000000   0.0000000   0.0000000
 NQMom=    0.0000000   0.0000000   0.0000000   0.0000000   0.0000000   0.0000000   0.0000000   0.0000000   0.0000000   0.0000000
 NMagM=    0.0000000   0.0000000   0.0000000   0.0000000   0.0000000   0.0000000   2.7928460   0.0000000   2.7928460   0.0000000
 AtZNuc=   8.0000000   8.0000000   6.0000000   6.0000000   6.0000000   6.0000000   1.0000000   6.0000000   1.0000000   6.0000000

  Atom        31          32          33          34          35          36          37          38          39          40
 IAtWgt=           1          12           1           1           1          12           1           1           1          12
 AtmWgt=   1.0078250  12.0000000   1.0078250   1.0078250   1.0078250  12.0000000   1.0078250   1.0078250   1.0078250  12.0000000
 NucSpn=           1           0           1           1           1           0           1           1           1           0
 AtZEff=   0.0000000   0.0000000   0.0000000   0.0000000   0.0000000   0.0000000   0.0000000   0.0000000   0.0000000   0.0000000
 NQMom=    0.0000000   0.0000000   0.0000000   0.0000000   0.0000000   0.0000000   0.0000000   0.0000000   0.0000000   0.0000000
 NMagM=    2.7928460   0.0000000   2.7928460   2.7928460   2.7928460   0.0000000   2.7928460   2.7928460   2.7928460   0.0000000
 AtZNuc=   1.0000000   6.0000000   1.0000000   1.0000000   1.0000000   6.0000000   1.0000000   1.0000000   1.0000000   6.0000000

  Atom        41          42          43          44          45          46          47          48          49          50
 IAtWgt=           1           1           1          12           1           1           1          12          19          19
 AtmWgt=   1.0078250   1.0078250   1.0078250  12.0000000   1.0078250   1.0078250   1.0078250  12.0000000  18.9984033  18.9984033
 NucSpn=           1           1           1           0           1           1           1           0           1           1
 AtZEff=   0.0000000   0.0000000   0.0000000   0.0000000   0.0000000   0.0000000   0.0000000   0.0000000   0.0000000   0.0000000
 NQMom=    0.0000000   0.0000000   0.0000000   0.0000000   0.0000000   0.0000000   0.0000000   0.0000000   0.0000000   0.0000000
 NMagM=    2.7928460   2.7928460   2.7928460   0.0000000   2.7928460   2.7928460   2.7928460   0.0000000   2.6288670   2.6288670
 AtZNuc=   1.0000000   1.0000000   1.0000000   6.0000000   1.0000000   1.0000000   1.0000000   6.0000000   9.0000000   9.0000000

  Atom        51          52          53          54          55
 IAtWgt=          19          12          19          19          19
 AtmWgt=  18.9984033  12.0000000  18.9984033  18.9984033  18.9984033
 NucSpn=           1           0           1           1           1
 AtZEff=   0.0000000   0.0000000   0.0000000   0.0000000   0.0000000
 NQMom=    0.0000000   0.0000000   0.0000000   0.0000000   0.0000000
 NMagM=    2.6288670   0.0000000   2.6288670   2.6288670   2.6288670
 AtZNuc=   9.0000000   6.0000000   9.0000000   9.0000000   9.0000000
 Leave Link  101 at Sat Jun 15 06:58:55 2019, MaxMem=  6442450944 cpu:              17.1 elap:               0.6
 (Enter /home/ekwan/sw/g16/l103.exe)

 GradGradGradGradGradGradGradGradGradGradGradGradGradGradGradGradGradGrad
 Berny optimization.
 Initialization pass.
                           ----------------------------
                           !    Initial Parameters    !
                           ! (Angstroms and Degrees)  !
 --------------------------                            --------------------------
 ! Name  Definition              Value          Derivative Info.                !
 --------------------------------------------------------------------------------
 ! R1    R(1,2)                  1.531          estimate D2E/DX2                !
 ! R2    R(1,5)                  1.5287         estimate D2E/DX2                !
 ! R3    R(1,8)                  1.0982         estimate D2E/DX2                !
 ! R4    R(1,14)                 1.4185         estimate D2E/DX2                !
 ! R5    R(2,3)                  1.5376         estimate D2E/DX2                !
 ! R6    R(2,7)                  1.1015         estimate D2E/DX2                !
 ! R7    R(2,13)                 1.4089         estimate D2E/DX2                !
 ! R8    R(3,6)                  1.0893         estimate D2E/DX2                !
 ! R9    R(3,11)                 1.3868         estimate D2E/DX2                !
 ! R10   R(3,12)                 1.465          estimate D2E/DX2                !
 ! R11   R(4,5)                  1.5303         estimate D2E/DX2                !
 ! R12   R(4,9)                  1.0974         estimate D2E/DX2                !
 ! R13   R(4,11)                 1.4472         estimate D2E/DX2                !
 ! R14   R(4,16)                 1.5256         estimate D2E/DX2                !
 ! R15   R(5,10)                 1.0962         estimate D2E/DX2                !
 ! R16   R(5,15)                 1.4191         estimate D2E/DX2                !
 ! R17   R(12,20)                1.6307         estimate D2E/DX2                !
 ! R18   R(13,32)                1.4237         estimate D2E/DX2                !
 ! R19   R(14,36)                1.4231         estimate D2E/DX2                !
 ! R20   R(15,40)                1.4236         estimate D2E/DX2                !
 ! R21   R(16,17)                1.0928         estimate D2E/DX2                !
 ! R22   R(16,18)                1.0971         estimate D2E/DX2                !
 ! R23   R(16,19)                1.4158         estimate D2E/DX2                !
 ! R24   R(19,44)                1.424          estimate D2E/DX2                !
 ! R25   R(20,21)                1.4599         estimate D2E/DX2                !
 ! R26   R(20,22)                1.4648         estimate D2E/DX2                !
 ! R27   R(20,23)                1.7864         estimate D2E/DX2                !
 ! R28   R(23,24)                1.3918         estimate D2E/DX2                !
 ! R29   R(23,25)                1.3923         estimate D2E/DX2                !
 ! R30   R(24,26)                1.3951         estimate D2E/DX2                !
 ! R31   R(24,27)                1.0834         estimate D2E/DX2                !
 ! R32   R(25,28)                1.3922         estimate D2E/DX2                !
 ! R33   R(25,29)                1.0821         estimate D2E/DX2                !
 ! R34   R(26,30)                1.3938         estimate D2E/DX2                !
 ! R35   R(26,48)                1.5071         estimate D2E/DX2                !
 ! R36   R(28,30)                1.3959         estimate D2E/DX2                !
 ! R37   R(28,52)                1.5057         estimate D2E/DX2                !
 ! R38   R(30,31)                1.0836         estimate D2E/DX2                !
 ! R39   R(32,33)                1.0976         estimate D2E/DX2                !
 ! R40   R(32,34)                1.0987         estimate D2E/DX2                !
 ! R41   R(32,35)                1.0915         estimate D2E/DX2                !
 ! R42   R(36,37)                1.0929         estimate D2E/DX2                !
 ! R43   R(36,38)                1.0992         estimate D2E/DX2                !
 ! R44   R(36,39)                1.0946         estimate D2E/DX2                !
 ! R45   R(40,41)                1.0929         estimate D2E/DX2                !
 ! R46   R(40,42)                1.0955         estimate D2E/DX2                !
 ! R47   R(40,43)                1.0983         estimate D2E/DX2                !
 ! R48   R(44,45)                1.093          estimate D2E/DX2                !
 ! R49   R(44,46)                1.0984         estimate D2E/DX2                !
 ! R50   R(44,47)                1.0956         estimate D2E/DX2                !
 ! R51   R(48,49)                1.3485         estimate D2E/DX2                !
 ! R52   R(48,50)                1.3507         estimate D2E/DX2                !
 ! R53   R(48,51)                1.3487         estimate D2E/DX2                !
 ! R54   R(52,53)                1.3578         estimate D2E/DX2                !
 ! R55   R(52,54)                1.3475         estimate D2E/DX2                !
 ! R56   R(52,55)                1.3458         estimate D2E/DX2                !
 ! A1    A(2,1,5)              110.3011         estimate D2E/DX2                !
 ! A2    A(2,1,8)              109.4578         estimate D2E/DX2                !
 ! A3    A(2,1,14)             110.6225         estimate D2E/DX2                !
 ! A4    A(5,1,8)              108.6078         estimate D2E/DX2                !
 ! A5    A(5,1,14)             107.45           estimate D2E/DX2                !
 ! A6    A(8,1,14)             110.3617         estimate D2E/DX2                !
 ! A7    A(1,2,3)              111.1851         estimate D2E/DX2                !
 ! A8    A(1,2,7)              107.9435         estimate D2E/DX2                !
 ! A9    A(1,2,13)             108.835          estimate D2E/DX2                !
 ! A10   A(3,2,7)              105.8313         estimate D2E/DX2                !
 ! A11   A(3,2,13)             112.6532         estimate D2E/DX2                !
 ! A12   A(7,2,13)             110.2691         estimate D2E/DX2                !
 ! A13   A(2,3,6)              112.2653         estimate D2E/DX2                !
 ! A14   A(2,3,11)             112.9921         estimate D2E/DX2                !
 ! A15   A(2,3,12)             105.7866         estimate D2E/DX2                !
 ! A16   A(6,3,11)             106.5221         estimate D2E/DX2                !
 ! A17   A(6,3,12)             107.9281         estimate D2E/DX2                !
 ! A18   A(11,3,12)            111.3114         estimate D2E/DX2                !
 ! A19   A(5,4,9)              109.0461         estimate D2E/DX2                !
 ! A20   A(5,4,11)             110.6629         estimate D2E/DX2                !
 ! A21   A(5,4,16)             112.3102         estimate D2E/DX2                !
 ! A22   A(9,4,11)             108.7219         estimate D2E/DX2                !
 ! A23   A(9,4,16)             107.7733         estimate D2E/DX2                !
 ! A24   A(11,4,16)            108.2248         estimate D2E/DX2                !
 ! A25   A(1,5,4)              111.826          estimate D2E/DX2                !
 ! A26   A(1,5,10)             108.774          estimate D2E/DX2                !
 ! A27   A(1,5,15)             110.1568         estimate D2E/DX2                !
 ! A28   A(4,5,10)             108.3944         estimate D2E/DX2                !
 ! A29   A(4,5,15)             107.0489         estimate D2E/DX2                !
 ! A30   A(10,5,15)            110.6277         estimate D2E/DX2                !
 ! A31   A(3,11,4)             115.3208         estimate D2E/DX2                !
 ! A32   A(3,12,20)            118.4411         estimate D2E/DX2                !
 ! A33   A(2,13,32)            114.5283         estimate D2E/DX2                !
 ! A34   A(1,14,36)            114.671          estimate D2E/DX2                !
 ! A35   A(5,15,40)            113.9939         estimate D2E/DX2                !
 ! A36   A(4,16,17)            107.1603         estimate D2E/DX2                !
 ! A37   A(4,16,18)            109.3113         estimate D2E/DX2                !
 ! A38   A(4,16,19)            114.701          estimate D2E/DX2                !
 ! A39   A(17,16,18)           108.6349         estimate D2E/DX2                !
 ! A40   A(17,16,19)           106.1533         estimate D2E/DX2                !
 ! A41   A(18,16,19)           110.6289         estimate D2E/DX2                !
 ! A42   A(16,19,44)           114.5273         estimate D2E/DX2                !
 ! A43   A(12,20,21)           104.2244         estimate D2E/DX2                !
 ! A44   A(12,20,22)           108.8989         estimate D2E/DX2                !
 ! A45   A(12,20,23)           103.3806         estimate D2E/DX2                !
 ! A46   A(21,20,22)           121.2025         estimate D2E/DX2                !
 ! A47   A(21,20,23)           108.9645         estimate D2E/DX2                !
 ! A48   A(22,20,23)           108.6929         estimate D2E/DX2                !
 ! A49   A(20,23,24)           118.7793         estimate D2E/DX2                !
 ! A50   A(20,23,25)           118.914          estimate D2E/DX2                !
 ! A51   A(24,23,25)           122.2572         estimate D2E/DX2                !
 ! A52   A(23,24,26)           118.3937         estimate D2E/DX2                !
 ! A53   A(23,24,27)           120.6639         estimate D2E/DX2                !
 ! A54   A(26,24,27)           120.9422         estimate D2E/DX2                !
 ! A55   A(23,25,28)           118.331          estimate D2E/DX2                !
 ! A56   A(23,25,29)           120.6254         estimate D2E/DX2                !
 ! A57   A(28,25,29)           121.0431         estimate D2E/DX2                !
 ! A58   A(24,26,30)           120.5507         estimate D2E/DX2                !
 ! A59   A(24,26,48)           119.5716         estimate D2E/DX2                !
 ! A60   A(30,26,48)           119.8399         estimate D2E/DX2                !
 ! A61   A(25,28,30)           120.6874         estimate D2E/DX2                !
 ! A62   A(25,28,52)           119.9572         estimate D2E/DX2                !
 ! A63   A(30,28,52)           119.2415         estimate D2E/DX2                !
 ! A64   A(26,30,28)           119.7798         estimate D2E/DX2                !
 ! A65   A(26,30,31)           120.076          estimate D2E/DX2                !
 ! A66   A(28,30,31)           120.1434         estimate D2E/DX2                !
 ! A67   A(13,32,33)           111.9513         estimate D2E/DX2                !
 ! A68   A(13,32,34)           111.0159         estimate D2E/DX2                !
 ! A69   A(13,32,35)           106.5432         estimate D2E/DX2                !
 ! A70   A(33,32,34)           109.1458         estimate D2E/DX2                !
 ! A71   A(33,32,35)           108.751          estimate D2E/DX2                !
 ! A72   A(34,32,35)           109.3561         estimate D2E/DX2                !
 ! A73   A(14,36,37)           106.4533         estimate D2E/DX2                !
 ! A74   A(14,36,38)           110.9726         estimate D2E/DX2                !
 ! A75   A(14,36,39)           111.5427         estimate D2E/DX2                !
 ! A76   A(37,36,38)           108.9782         estimate D2E/DX2                !
 ! A77   A(37,36,39)           109.6426         estimate D2E/DX2                !
 ! A78   A(38,36,39)           109.1871         estimate D2E/DX2                !
 ! A79   A(15,40,41)           106.5785         estimate D2E/DX2                !
 ! A80   A(15,40,42)           111.1119         estimate D2E/DX2                !
 ! A81   A(15,40,43)           110.8934         estimate D2E/DX2                !
 ! A82   A(41,40,42)           109.531          estimate D2E/DX2                !
 ! A83   A(41,40,43)           109.2129         estimate D2E/DX2                !
 ! A84   A(42,40,43)           109.4535         estimate D2E/DX2                !
 ! A85   A(19,44,45)           106.6014         estimate D2E/DX2                !
 ! A86   A(19,44,46)           110.8697         estimate D2E/DX2                !
 ! A87   A(19,44,47)           112.0349         estimate D2E/DX2                !
 ! A88   A(45,44,46)           109.2358         estimate D2E/DX2                !
 ! A89   A(45,44,47)           109.3931         estimate D2E/DX2                !
 ! A90   A(46,44,47)           108.6562         estimate D2E/DX2                !
 ! A91   A(26,48,49)           111.4803         estimate D2E/DX2                !
 ! A92   A(26,48,50)           111.3024         estimate D2E/DX2                !
 ! A93   A(26,48,51)           111.5088         estimate D2E/DX2                !
 ! A94   A(49,48,50)           107.2349         estimate D2E/DX2                !
 ! A95   A(49,48,51)           107.871          estimate D2E/DX2                !
 ! A96   A(50,48,51)           107.2204         estimate D2E/DX2                !
 ! A97   A(28,52,53)           110.8714         estimate D2E/DX2                !
 ! A98   A(28,52,54)           111.6444         estimate D2E/DX2                !
 ! A99   A(28,52,55)           112.0383         estimate D2E/DX2                !
 ! A100  A(53,52,54)           106.7663         estimate D2E/DX2                !
 ! A101  A(53,52,55)           107.1909         estimate D2E/DX2                !
 ! A102  A(54,52,55)           108.0733         estimate D2E/DX2                !
 ! D1    D(5,1,2,3)            -49.4904         estimate D2E/DX2                !
 ! D2    D(5,1,2,7)             66.1707         estimate D2E/DX2                !
 ! D3    D(5,1,2,13)          -174.146          estimate D2E/DX2                !
 ! D4    D(8,1,2,3)             69.9504         estimate D2E/DX2                !
 ! D5    D(8,1,2,7)           -174.3885         estimate D2E/DX2                !
 ! D6    D(8,1,2,13)           -54.7053         estimate D2E/DX2                !
 ! D7    D(14,1,2,3)          -168.2306         estimate D2E/DX2                !
 ! D8    D(14,1,2,7)           -52.5696         estimate D2E/DX2                !
 ! D9    D(14,1,2,13)           67.1137         estimate D2E/DX2                !
 ! D10   D(2,1,5,4)             51.3157         estimate D2E/DX2                !
 ! D11   D(2,1,5,10)           -68.3647         estimate D2E/DX2                !
 ! D12   D(2,1,5,15)           170.2263         estimate D2E/DX2                !
 ! D13   D(8,1,5,4)            -68.6392         estimate D2E/DX2                !
 ! D14   D(8,1,5,10)           171.6803         estimate D2E/DX2                !
 ! D15   D(8,1,5,15)            50.2714         estimate D2E/DX2                !
 ! D16   D(14,1,5,4)           171.9754         estimate D2E/DX2                !
 ! D17   D(14,1,5,10)           52.2949         estimate D2E/DX2                !
 ! D18   D(14,1,5,15)          -69.1141         estimate D2E/DX2                !
 ! D19   D(2,1,14,36)          -96.1943         estimate D2E/DX2                !
 ! D20   D(5,1,14,36)          143.3491         estimate D2E/DX2                !
 ! D21   D(8,1,14,36)           25.0915         estimate D2E/DX2                !
 ! D22   D(1,2,3,6)            172.4523         estimate D2E/DX2                !
 ! D23   D(1,2,3,11)            51.9522         estimate D2E/DX2                !
 ! D24   D(1,2,3,12)           -70.0693         estimate D2E/DX2                !
 ! D25   D(7,2,3,6)             55.4943         estimate D2E/DX2                !
 ! D26   D(7,2,3,11)           -65.0058         estimate D2E/DX2                !
 ! D27   D(7,2,3,12)           172.9727         estimate D2E/DX2                !
 ! D28   D(13,2,3,6)           -65.072          estimate D2E/DX2                !
 ! D29   D(13,2,3,11)          174.4279         estimate D2E/DX2                !
 ! D30   D(13,2,3,12)           52.4064         estimate D2E/DX2                !
 ! D31   D(1,2,13,32)         -164.2075         estimate D2E/DX2                !
 ! D32   D(3,2,13,32)           72.0054         estimate D2E/DX2                !
 ! D33   D(7,2,13,32)          -45.9804         estimate D2E/DX2                !
 ! D34   D(2,3,11,4)           -56.0721         estimate D2E/DX2                !
 ! D35   D(6,3,11,4)          -179.7957         estimate D2E/DX2                !
 ! D36   D(12,3,11,4)           62.7934         estimate D2E/DX2                !
 ! D37   D(2,3,12,20)         -160.3101         estimate D2E/DX2                !
 ! D38   D(6,3,12,20)          -39.9581         estimate D2E/DX2                !
 ! D39   D(11,3,12,20)          76.5967         estimate D2E/DX2                !
 ! D40   D(9,4,5,1)             66.3803         estimate D2E/DX2                !
 ! D41   D(9,4,5,10)          -173.7163         estimate D2E/DX2                !
 ! D42   D(9,4,5,15)           -54.3554         estimate D2E/DX2                !
 ! D43   D(11,4,5,1)           -53.1646         estimate D2E/DX2                !
 ! D44   D(11,4,5,10)           66.7388         estimate D2E/DX2                !
 ! D45   D(11,4,5,15)         -173.9003         estimate D2E/DX2                !
 ! D46   D(16,4,5,1)          -174.2318         estimate D2E/DX2                !
 ! D47   D(16,4,5,10)          -54.3284         estimate D2E/DX2                !
 ! D48   D(16,4,5,15)           65.0325         estimate D2E/DX2                !
 ! D49   D(5,4,11,3)            56.3402         estimate D2E/DX2                !
 ! D50   D(9,4,11,3)           -63.3995         estimate D2E/DX2                !
 ! D51   D(16,4,11,3)          179.7979         estimate D2E/DX2                !
 ! D52   D(5,4,16,17)          -70.0673         estimate D2E/DX2                !
 ! D53   D(5,4,16,18)          172.3798         estimate D2E/DX2                !
 ! D54   D(5,4,16,19)           47.4832         estimate D2E/DX2                !
 ! D55   D(9,4,16,17)           50.0616         estimate D2E/DX2                !
 ! D56   D(9,4,16,18)          -67.4913         estimate D2E/DX2                !
 ! D57   D(9,4,16,19)          167.6121         estimate D2E/DX2                !
 ! D58   D(11,4,16,17)         167.4751         estimate D2E/DX2                !
 ! D59   D(11,4,16,18)          49.9222         estimate D2E/DX2                !
 ! D60   D(11,4,16,19)         -74.9744         estimate D2E/DX2                !
 ! D61   D(1,5,15,40)          105.6222         estimate D2E/DX2                !
 ! D62   D(4,5,15,40)         -132.5871         estimate D2E/DX2                !
 ! D63   D(10,5,15,40)         -14.6756         estimate D2E/DX2                !
 ! D64   D(3,12,20,21)         167.2756         estimate D2E/DX2                !
 ! D65   D(3,12,20,22)          36.6066         estimate D2E/DX2                !
 ! D66   D(3,12,20,23)         -78.8386         estimate D2E/DX2                !
 ! D67   D(2,13,32,33)         -70.67           estimate D2E/DX2                !
 ! D68   D(2,13,32,34)          51.5821         estimate D2E/DX2                !
 ! D69   D(2,13,32,35)         170.562          estimate D2E/DX2                !
 ! D70   D(1,14,36,37)        -177.3304         estimate D2E/DX2                !
 ! D71   D(1,14,36,38)         -58.8827         estimate D2E/DX2                !
 ! D72   D(1,14,36,39)          63.1042         estimate D2E/DX2                !
 ! D73   D(5,15,40,41)         179.1752         estimate D2E/DX2                !
 ! D74   D(5,15,40,42)         -61.5591         estimate D2E/DX2                !
 ! D75   D(5,15,40,43)          60.4139         estimate D2E/DX2                !
 ! D76   D(4,16,19,44)          80.0338         estimate D2E/DX2                !
 ! D77   D(17,16,19,44)       -161.8451         estimate D2E/DX2                !
 ! D78   D(18,16,19,44)        -44.1675         estimate D2E/DX2                !
 ! D79   D(16,19,44,45)        168.3685         estimate D2E/DX2                !
 ! D80   D(16,19,44,46)         49.579          estimate D2E/DX2                !
 ! D81   D(16,19,44,47)        -71.9973         estimate D2E/DX2                !
 ! D82   D(12,20,23,24)        -80.7397         estimate D2E/DX2                !
 ! D83   D(12,20,23,25)         96.7594         estimate D2E/DX2                !
 ! D84   D(21,20,23,24)         29.6753         estimate D2E/DX2                !
 ! D85   D(21,20,23,25)       -152.8256         estimate D2E/DX2                !
 ! D86   D(22,20,23,24)        163.6682         estimate D2E/DX2                !
 ! D87   D(22,20,23,25)        -18.8327         estimate D2E/DX2                !
 ! D88   D(20,23,24,26)        177.5737         estimate D2E/DX2                !
 ! D89   D(20,23,24,27)         -2.293          estimate D2E/DX2                !
 ! D90   D(25,23,24,26)          0.1625         estimate D2E/DX2                !
 ! D91   D(25,23,24,27)       -179.7042         estimate D2E/DX2                !
 ! D92   D(20,23,25,28)       -177.566          estimate D2E/DX2                !
 ! D93   D(20,23,25,29)          2.1705         estimate D2E/DX2                !
 ! D94   D(24,23,25,28)         -0.1581         estimate D2E/DX2                !
 ! D95   D(24,23,25,29)        179.5784         estimate D2E/DX2                !
 ! D96   D(23,24,26,30)         -0.1282         estimate D2E/DX2                !
 ! D97   D(23,24,26,48)        177.6326         estimate D2E/DX2                !
 ! D98   D(27,24,26,30)        179.7381         estimate D2E/DX2                !
 ! D99   D(27,24,26,48)         -2.5011         estimate D2E/DX2                !
 ! D100  D(23,25,28,30)          0.1196         estimate D2E/DX2                !
 ! D101  D(23,25,28,52)        176.2115         estimate D2E/DX2                !
 ! D102  D(29,25,28,30)       -179.6158         estimate D2E/DX2                !
 ! D103  D(29,25,28,52)         -3.5239         estimate D2E/DX2                !
 ! D104  D(24,26,30,28)          0.0947         estimate D2E/DX2                !
 ! D105  D(24,26,30,31)       -179.5823         estimate D2E/DX2                !
 ! D106  D(48,26,30,28)       -177.6601         estimate D2E/DX2                !
 ! D107  D(48,26,30,31)          2.6629         estimate D2E/DX2                !
 ! D108  D(24,26,48,49)         30.9228         estimate D2E/DX2                !
 ! D109  D(24,26,48,50)        -88.7602         estimate D2E/DX2                !
 ! D110  D(24,26,48,51)        151.5562         estimate D2E/DX2                !
 ! D111  D(30,26,48,49)       -151.3003         estimate D2E/DX2                !
 ! D112  D(30,26,48,50)         89.0168         estimate D2E/DX2                !
 ! D113  D(30,26,48,51)        -30.6669         estimate D2E/DX2                !
 ! D114  D(25,28,30,26)         -0.0905         estimate D2E/DX2                !
 ! D115  D(25,28,30,31)        179.5863         estimate D2E/DX2                !
 ! D116  D(52,28,30,26)       -176.2101         estimate D2E/DX2                !
 ! D117  D(52,28,30,31)          3.4667         estimate D2E/DX2                !
 ! D118  D(25,28,52,53)        -97.8701         estimate D2E/DX2                !
 ! D119  D(25,28,52,54)        143.2189         estimate D2E/DX2                !
 ! D120  D(25,28,52,55)         21.8388         estimate D2E/DX2                !
 ! D121  D(30,28,52,53)         78.2783         estimate D2E/DX2                !
 ! D122  D(30,28,52,54)        -40.6327         estimate D2E/DX2                !
 ! D123  D(30,28,52,55)       -162.0127         estimate D2E/DX2                !
 --------------------------------------------------------------------------------
 Trust Radius=3.00D-01 FncErr=1.00D-07 GrdErr=1.00D-06 EigMax=2.50D+02 EigMin=1.00D-04
 Number of steps in this run=    291 maximum allowed number of steps=    330.
 GradGradGradGradGradGradGradGradGradGradGradGradGradGradGradGradGradGrad

 Leave Link  103 at Sat Jun 15 06:58:57 2019, MaxMem=  6442450944 cpu:               2.4 elap:               0.1
 (Enter /home/ekwan/sw/g16/l202.exe)
 Stoichiometry    C18H22F6O8S
 Framework group  C1[X(C18H22F6O8S)]
 Deg. of freedom   159
 Full point group                 C1      NOp   1
 Largest Abelian subgroup         C1      NOp   1
 Largest concise Abelian subgroup C1      NOp   1
                         Standard orientation:                         
 ---------------------------------------------------------------------
 Center     Atomic      Atomic             Coordinates (Angstroms)
 Number     Number       Type             X           Y           Z
 ---------------------------------------------------------------------
      1          6           0        3.374440    0.383451    0.614781
      2          6           0        3.318147   -0.479479   -0.648610
      3          6           0        1.866523   -0.817978   -1.026098
      4          6           0        1.006632    1.117116    0.091958
      5          6           0        2.413655    1.566162    0.492496
      6          1           0        1.796979   -1.318309   -1.991176
      7          1           0        3.714821    0.117322   -1.485150
      8          1           0        3.078668   -0.219955    1.483433
      9          1           0        0.574367    0.523702    0.907560
     10          1           0        2.791072    2.249161   -0.277412
     11          8           0        1.051600    0.301490   -1.102608
     12          8           0        1.394913   -1.750687    0.000423
     13          8           0        4.109266   -1.628291   -0.450383
     14          8           0        4.677644    0.911616    0.801396
     15          8           0        2.298205    2.233387    1.739649
     16          6           0        0.075042    2.296416   -0.170308
     17          1           0       -0.125464    2.769598    0.794100
     18          1           0       -0.871731    1.926130   -0.582684
     19          8           0        0.618898    3.307015   -0.999403
     20         16           0        0.099169   -2.682812   -0.333456
     21          8           0        0.091012   -3.680724    0.732089
     22          8           0        0.149646   -3.078133   -1.743014
     23          6           0       -1.280364   -1.572239   -0.099344
     24          6           0       -1.738351   -1.335853    1.193496
     25          6           0       -1.825857   -0.933011   -1.209424
     26          6           0       -2.782456   -0.427889    1.371798
     27          1           0       -1.291666   -1.844300    2.039545
     28          6           0       -2.866852   -0.030947   -1.007105
     29          1           0       -1.444704   -1.131672   -2.202511
     30          6           0       -3.347476    0.225699    0.278112
     31          1           0       -4.153619    0.934530    0.426131
     32          6           0        4.434148   -2.335131   -1.642735
     33          1           0        3.560037   -2.843627   -2.069352
     34          1           0        4.861973   -1.660174   -2.396757
     35          1           0        5.176629   -3.085958   -1.366420
     36          6           0        5.500850    0.162469    1.688206
     37          1           0        6.444037    0.708341    1.770541
     38          1           0        5.041779    0.089766    2.684294
     39          1           0        5.691109   -0.845177    1.305370
     40          6           0        2.984452    3.479407    1.795264
     41          1           0        2.804391    3.890370    2.791822
     42          1           0        4.061005    3.344081    1.643921
     43          1           0        2.593757    4.175728    1.041166
     44          6           0        0.572862    3.016830   -2.392785
     45          1           0        0.821244    3.945138   -2.913457
     46          1           0       -0.432915    2.692162   -2.691833
     47          1           0        1.290604    2.238482   -2.674474
     48          6           0       -3.335051   -0.191912    2.753975
     49          9           0       -2.386087   -0.350346    3.698857
     50          9           0       -4.331642   -1.058097    3.038482
     51          9           0       -3.839820    1.052515    2.878910
     52          6           0       -3.426576    0.744416   -2.170145
     53          9           0       -2.884596    1.988010   -2.228186
     54          9           0       -4.760109    0.906140   -2.064001
     55          9           0       -3.171208    0.143901   -3.347146
 ---------------------------------------------------------------------
 Rotational constants (GHZ):           0.1504430           0.0848004           0.0834151
 Leave Link  202 at Sat Jun 15 06:58:57 2019, MaxMem=  6442450944 cpu:               4.9 elap:               0.2
 (Enter /home/ekwan/sw/g16/l301.exe)
 Standard basis: 6-31G(d) (6D, 7F)
 Centers:      12     22     21
 SP 1 1.00
     Exponent=  8.4500000000D-02 Coefficients=  1.0000000000D+00  1.0000000000D+00
 ****
 Ernie: Thresh=  0.10000D-02 Tol=  0.10000D-05 Strict=F.
 There are   555 symmetry adapted cartesian basis functions of A   symmetry.
 There are   555 symmetry adapted basis functions of A   symmetry.
   555 basis functions,  1048 primitive gaussians,   555 cartesian basis functions
   132 alpha electrons      132 beta electrons
       nuclear repulsion energy      4342.1095418428 Hartrees.
 IExCor=  402 DFT=T Ex+Corr=B3LYP ExCW=0 ScaHFX=  0.200000
 ScaDFX=  0.800000  0.720000  1.000000  0.810000 ScalE2=  1.000000  1.000000
 IRadAn=      5 IRanWt=     -1 IRanGd=            0 ICorTp=0 IEmpDi=141
 NAtoms=   55 NActive=   55 NUniq=   55 SFac= 1.00D+00 NAtFMM=   60 NAOKFM=F Big=F
 Integral buffers will be    131072 words long.
 Raffenetti 2 integral format.
 Two-electron integral symmetry is turned on.
 R6Disp:  Grimme-D3(BJ) Dispersion energy=       -0.1212941430 Hartrees.
 Nuclear repulsion after empirical dispersion term =     4341.9882476998 Hartrees.
 ------------------------------------------------------------------------------
 Polarizable Continuum Model (PCM)
 =================================
 Model                : PCM.
 Atomic radii         : UFF (Universal Force Field).
 Polarization charges : Total charges.
 Charge compensation  : None.
 Solution method      : On-the-fly selection.
 Cavity type          : Scaled VdW (van der Waals Surface) (Alpha=1.100).
 Cavity algorithm     : GePol (No added spheres)
                        Default sphere list used, NSphG=   55.
                        Lebedev-Laikov grids with approx.  5.0 points / Ang**2.
                        Smoothing algorithm: York/Karplus (Gamma=1.0000).
                        Polarization charges: spherical gaussians, with
                                              point-specific exponents (IZeta= 3).
                        Self-potential: point-specific (ISelfS= 7).
                        Self-field    : sphere-specific E.n sum rule (ISelfD= 2).
 1st derivatives      : Analytical E(r).r(x)/FMM algorithm (CHGder, D1EAlg=3).
                        Cavity 1st derivative terms included.
 Solvent              : TetraHydroFuran, Eps=   7.425700 Eps(inf)=   1.974025
 ------------------------------------------------------------------------------
 GePol: Number of generator spheres                  =      55
 GePol: Total number of spheres                      =      55
 GePol: Number of exposed spheres                    =      55 (100.00%)
 GePol: Number of points                             =    3930
 GePol: Average weight of points                     =       0.13
 GePol: Minimum weight of points                     =   0.15D-11
 GePol: Maximum weight of points                     =    0.20577
 GePol: Number of points with low weight             =     232
 GePol: Fraction of low-weight points (<1% of avg)   =       5.90%
 GePol: Cavity surface area                          =    495.243 Ang**2
 GePol: Cavity volume                                =    576.263 Ang**3
 Leave Link  301 at Sat Jun 15 06:58:58 2019, MaxMem=  6442450944 cpu:              10.3 elap:               0.4
 (Enter /home/ekwan/sw/g16/l302.exe)
 NPDir=0 NMtPBC=     1 NCelOv=     1 NCel=       1 NClECP=     1 NCelD=      1
         NCelK=      1 NCelE2=     1 NClLst=     1 CellRange=     0.0.
 One-electron integrals computed using PRISM.
 One-electron integral symmetry used in STVInt
 NBasis=   555 RedAO= T EigKep=  4.05D-04  NBF=   555
 NBsUse=   555 1.00D-06 EigRej= -1.00D+00 NBFU=   555
 Precomputing XC quadrature grid using
 IXCGrd= 4 IRadAn=           5 IRanWt=          -1 IRanGd=           0 AccXCQ= 0.00D+00.
 Generated NRdTot=       0 NPtTot=           0 NUsed=           0 NTot=          32
 NSgBfM=   544   544   544   544   544 MxSgAt=    55 MxSgA2=    55.
 Leave Link  302 at Sat Jun 15 06:59:05 2019, MaxMem=  6442450944 cpu:             211.0 elap:               7.2
 (Enter /home/ekwan/sw/g16/l303.exe)
 DipDrv:  MaxL=1.
 Leave Link  303 at Sat Jun 15 06:59:05 2019, MaxMem=  6442450944 cpu:               8.8 elap:               0.4
 (Enter /home/ekwan/sw/g16/l401.exe)
 ExpMin= 8.45D-02 ExpMax= 2.19D+04 ExpMxC= 3.30D+03 IAcc=3 IRadAn=         5 AccDes= 0.00D+00
 Harris functional with IExCor=  402 and IRadAn=       5 diagonalized for initial guess.
 HarFok:  IExCor=  402 AccDes= 0.00D+00 IRadAn=         5 IDoV= 1 UseB2=F ITyADJ=14
 ICtDFT=  3500011 ScaDFX=  1.000000  1.000000  1.000000  1.000000
 FoFCou: FMM=F IPFlag=           0 FMFlag=      100000 FMFlg1=           0
         NFxFlg=           0 DoJE=T BraDBF=F KetDBF=T FulRan=T
         wScrn=  0.000000 ICntrl=       500 IOpCl=  0 I1Cent=   200000004 NGrid=           0
         NMat0=    1 NMatS0=      1 NMatT0=    0 NMatD0=    1 NMtDS0=    0 NMtDT0=    0
 Petite list used in FoFCou.
 Harris En= -2298.14156348728    
 JPrj=0 DoOrth=F DoCkMO=F.
 Leave Link  401 at Sat Jun 15 06:59:12 2019, MaxMem=  6442450944 cpu:             197.7 elap:               6.4
 (Enter /home/ekwan/sw/g16/l502.exe)
 Integral symmetry usage will be decided dynamically.
 Closed shell SCF:
 Using DIIS extrapolation, IDIIS=  1040.
 NGot=  6442450944 LenX=  6441811192 LenY=  6441502612
 Requested convergence on RMS density matrix=1.00D-08 within 128 cycles.
 Requested convergence on MAX density matrix=1.00D-06.
 Requested convergence on             energy=1.00D-06.
 No special actions if energy rises.
 Fock matrices will be formed incrementally for  20 cycles.

 Cycle   1  Pass 1  IDiag  1:
 FoFJK:  IHMeth= 1 ICntrl=       0 DoSepK=F KAlg= 0 I1Cent=           0 FoldK=F
 IRaf= 710000000 NMat=       1 IRICut=       1 DoRegI=T DoRafI=F ISym2E= 0 IDoP0=0 IntGTp=1.
 FoFCou: FMM=F IPFlag=           0 FMFlag=      100000 FMFlg1=           0
         NFxFlg=           0 DoJE=F BraDBF=F KetDBF=F FulRan=T
         wScrn=  0.000000 ICntrl=         0 IOpCl=  0 I1Cent=           0 NGrid=           0
         NMat0=    1 NMatS0=      1 NMatT0=    0 NMatD0=    1 NMtDS0=    0 NMtDT0=    0
 Symmetry not used in FoFCou.
 Inv3:  Mode=1 IEnd=    46334700.
 Iteration    1 A*A^-1 deviation from unit magnitude is 7.66D-15 for   3911.
 Iteration    1 A*A^-1 deviation from orthogonality  is 5.41D-15 for   3923   2624.
 Iteration    1 A^-1*A deviation from unit magnitude is 7.66D-15 for   3911.
 Iteration    1 A^-1*A deviation from orthogonality  is 1.02D-14 for   3623   3585.
 E= -2297.47967972383    
 DIIS: error= 2.88D-02 at cycle   1 NSaved=   1.
 NSaved= 1 IEnMin= 1 EnMin= -2297.47967972383     IErMin= 1 ErrMin= 2.88D-02
 ErrMax= 2.88D-02  0.00D+00 EMaxC= 1.00D-01 BMatC= 9.05D-01 BMatP= 9.05D-01
 IDIUse=3 WtCom= 7.12D-01 WtEn= 2.88D-01
 Coeff-Com:  0.100D+01
 Coeff-En:   0.100D+01
 Coeff:      0.100D+01
 Gap=     0.156 Goal=   None    Shift=    0.000
 GapD=    0.156 DampG=1.000 DampE=0.500 DampFc=0.5000 IDamp=-1.
 Damping current iteration by 5.00D-01
 RMSDP=4.28D-03 MaxDP=5.78D-01              OVMax= 2.08D-01

 Cycle   2  Pass 1  IDiag  1:
 RMSU=  2.14D-03    CP:  9.98D-01
 E= -2297.68166539013     Delta-E=       -0.201985666296 Rises=F Damp=T
 DIIS: error= 8.87D-03 at cycle   2 NSaved=   2.
 NSaved= 2 IEnMin= 2 EnMin= -2297.68166539013     IErMin= 2 ErrMin= 8.87D-03
 ErrMax= 8.87D-03  0.00D+00 EMaxC= 1.00D-01 BMatC= 1.21D-01 BMatP= 9.05D-01
 IDIUse=3 WtCom= 9.11D-01 WtEn= 8.87D-02
 Coeff-Com:  0.206D+00 0.794D+00
 Coeff-En:   0.341D+00 0.659D+00
 Coeff:      0.218D+00 0.782D+00
 Gap=     0.203 Goal=   None    Shift=    0.000
 RMSDP=1.31D-03 MaxDP=1.43D-01 DE=-2.02D-01 OVMax= 1.55D-01

 Cycle   3  Pass 1  IDiag  1:
 RMSU=  1.04D-03    CP:  9.90D-01  6.29D-01
 E= -2298.14477421796     Delta-E=       -0.463108827833 Rises=F Damp=F
 DIIS: error= 7.36D-03 at cycle   3 NSaved=   3.
 NSaved= 3 IEnMin= 3 EnMin= -2298.14477421796     IErMin= 3 ErrMin= 7.36D-03
 ErrMax= 7.36D-03  0.00D+00 EMaxC= 1.00D-01 BMatC= 7.47D-02 BMatP= 1.21D-01
 IDIUse=3 WtCom= 9.26D-01 WtEn= 7.36D-02
 Coeff-Com:  0.579D-01 0.441D+00 0.501D+00
 Coeff-En:   0.000D+00 0.000D+00 0.100D+01
 Coeff:      0.536D-01 0.409D+00 0.538D+00
 Gap=     0.171 Goal=   None    Shift=    0.000
 RMSDP=7.41D-04 MaxDP=4.53D-02 DE=-4.63D-01 OVMax= 5.96D-02

 Cycle   4  Pass 1  IDiag  1:
 RMSU=  4.53D-04    CP:  9.93D-01  7.53D-01  4.99D-01
 E= -2298.19450023559     Delta-E=       -0.049726017629 Rises=F Damp=F
 DIIS: error= 3.52D-03 at cycle   4 NSaved=   4.
 NSaved= 4 IEnMin= 4 EnMin= -2298.19450023559     IErMin= 4 ErrMin= 3.52D-03
 ErrMax= 3.52D-03  0.00D+00 EMaxC= 1.00D-01 BMatC= 1.64D-02 BMatP= 7.47D-02
 IDIUse=3 WtCom= 9.65D-01 WtEn= 3.52D-02
 Coeff-Com: -0.184D-02 0.115D+00 0.333D+00 0.553D+00
 Coeff-En:   0.000D+00 0.000D+00 0.195D+00 0.805D+00
 Coeff:     -0.177D-02 0.111D+00 0.328D+00 0.562D+00
 Gap=     0.172 Goal=   None    Shift=    0.000
 RMSDP=2.66D-04 MaxDP=1.76D-02 DE=-4.97D-02 OVMax= 2.47D-02

 Cycle   5  Pass 1  IDiag  1:
 RMSU=  1.18D-04    CP:  9.93D-01  7.27D-01  6.36D-01  5.97D-01
 E= -2298.20679448953     Delta-E=       -0.012294253943 Rises=F Damp=F
 DIIS: error= 1.04D-03 at cycle   5 NSaved=   5.
 NSaved= 5 IEnMin= 5 EnMin= -2298.20679448953     IErMin= 5 ErrMin= 1.04D-03
 ErrMax= 1.04D-03  0.00D+00 EMaxC= 1.00D-01 BMatC= 1.22D-03 BMatP= 1.64D-02
 IDIUse=3 WtCom= 9.90D-01 WtEn= 1.04D-02
 Coeff-Com: -0.476D-02 0.285D-01 0.133D+00 0.310D+00 0.533D+00
 Coeff-En:   0.000D+00 0.000D+00 0.000D+00 0.337D-02 0.997D+00
 Coeff:     -0.471D-02 0.282D-01 0.132D+00 0.307D+00 0.537D+00
 Gap=     0.172 Goal=   None    Shift=    0.000
 RMSDP=6.86D-05 MaxDP=5.42D-03 DE=-1.23D-02 OVMax= 6.95D-03

 Cycle   6  Pass 1  IDiag  1:
 RMSU=  3.94D-05    CP:  9.93D-01  7.32D-01  6.37D-01  6.45D-01  5.79D-01
 E= -2298.20777329513     Delta-E=       -0.000978805593 Rises=F Damp=F
 DIIS: error= 2.70D-04 at cycle   6 NSaved=   6.
 NSaved= 6 IEnMin= 6 EnMin= -2298.20777329513     IErMin= 6 ErrMin= 2.70D-04
 ErrMax= 2.70D-04  0.00D+00 EMaxC= 1.00D-01 BMatC= 8.04D-05 BMatP= 1.22D-03
 IDIUse=3 WtCom= 9.97D-01 WtEn= 2.70D-03
 Coeff-Com: -0.231D-02 0.429D-02 0.353D-01 0.101D+00 0.272D+00 0.590D+00
 Coeff-En:   0.000D+00 0.000D+00 0.000D+00 0.000D+00 0.000D+00 0.100D+01
 Coeff:     -0.230D-02 0.428D-02 0.352D-01 0.101D+00 0.271D+00 0.591D+00
 Gap=     0.172 Goal=   None    Shift=    0.000
 RMSDP=1.90D-05 MaxDP=1.30D-03 DE=-9.79D-04 OVMax= 1.62D-03

 Cycle   7  Pass 1  IDiag  1:
 RMSU=  9.99D-06    CP:  9.93D-01  7.31D-01  6.37D-01  6.50D-01  6.30D-01
                    CP:  6.31D-01
 E= -2298.20783710176     Delta-E=       -0.000063806631 Rises=F Damp=F
 DIIS: error= 5.63D-05 at cycle   7 NSaved=   7.
 NSaved= 7 IEnMin= 7 EnMin= -2298.20783710176     IErMin= 7 ErrMin= 5.63D-05
 ErrMax= 5.63D-05  0.00D+00 EMaxC= 1.00D-01 BMatC= 5.69D-06 BMatP= 8.04D-05
 IDIUse=1 WtCom= 1.00D+00 WtEn= 0.00D+00
 Coeff-Com: -0.991D-03 0.473D-03 0.106D-01 0.349D-01 0.113D+00 0.311D+00
 Coeff-Com:  0.531D+00
 Coeff:     -0.991D-03 0.473D-03 0.106D-01 0.349D-01 0.113D+00 0.311D+00
 Coeff:      0.531D+00
 Gap=     0.172 Goal=   None    Shift=    0.000
 RMSDP=5.06D-06 MaxDP=2.86D-04 DE=-6.38D-05 OVMax= 4.06D-04

 Cycle   8  Pass 1  IDiag  1:
 RMSU=  3.24D-06    CP:  9.93D-01  7.31D-01  6.37D-01  6.51D-01  6.32D-01
                    CP:  6.73D-01  6.52D-01
 E= -2298.20784132579     Delta-E=       -0.000004224029 Rises=F Damp=F
 DIIS: error= 2.12D-05 at cycle   8 NSaved=   8.
 NSaved= 8 IEnMin= 8 EnMin= -2298.20784132579     IErMin= 8 ErrMin= 2.12D-05
 ErrMax= 2.12D-05  0.00D+00 EMaxC= 1.00D-01 BMatC= 6.14D-07 BMatP= 5.69D-06
 IDIUse=1 WtCom= 1.00D+00 WtEn= 0.00D+00
 Coeff-Com: -0.266D-03-0.226D-03 0.145D-02 0.662D-02 0.298D-01 0.101D+00
 Coeff-Com:  0.287D+00 0.575D+00
 Coeff:     -0.266D-03-0.226D-03 0.145D-02 0.662D-02 0.298D-01 0.101D+00
 Coeff:      0.287D+00 0.575D+00
 Gap=     0.172 Goal=   None    Shift=    0.000
 RMSDP=1.78D-06 MaxDP=1.13D-04 DE=-4.22D-06 OVMax= 1.46D-04

 Cycle   9  Pass 1  IDiag  1:
 RMSU=  1.24D-06    CP:  9.93D-01  7.31D-01  6.37D-01  6.51D-01  6.34D-01
                    CP:  6.77D-01  6.86D-01  6.42D-01
 E= -2298.20784170286     Delta-E=       -0.000000377076 Rises=F Damp=F
 DIIS: error= 1.25D-05 at cycle   9 NSaved=   9.
 NSaved= 9 IEnMin= 9 EnMin= -2298.20784170286     IErMin= 9 ErrMin= 1.25D-05
 ErrMax= 1.25D-05  0.00D+00 EMaxC= 1.00D-01 BMatC= 1.12D-07 BMatP= 6.14D-07
 IDIUse=1 WtCom= 1.00D+00 WtEn= 0.00D+00
 Coeff-Com: -0.373D-04-0.144D-03-0.368D-03-0.404D-03 0.371D-02 0.209D-01
 Coeff-Com:  0.104D+00 0.348D+00 0.524D+00
 Coeff:     -0.373D-04-0.144D-03-0.368D-03-0.404D-03 0.371D-02 0.209D-01
 Coeff:      0.104D+00 0.348D+00 0.524D+00
 Gap=     0.172 Goal=   None    Shift=    0.000
 RMSDP=7.45D-07 MaxDP=5.94D-05 DE=-3.77D-07 OVMax= 7.18D-05

 Cycle  10  Pass 1  IDiag  1:
 RMSU=  3.77D-07    CP:  9.93D-01  7.31D-01  6.37D-01  6.51D-01  6.35D-01
                    CP:  6.77D-01  6.97D-01  7.23D-01  5.54D-01
 E= -2298.20784179210     Delta-E=       -0.000000089240 Rises=F Damp=F
 DIIS: error= 3.93D-06 at cycle  10 NSaved=  10.
 NSaved=10 IEnMin=10 EnMin= -2298.20784179210     IErMin=10 ErrMin= 3.93D-06
 ErrMax= 3.93D-06  0.00D+00 EMaxC= 1.00D-01 BMatC= 1.08D-08 BMatP= 1.12D-07
 IDIUse=1 WtCom= 1.00D+00 WtEn= 0.00D+00
 Coeff-Com:  0.938D-07-0.517D-04-0.320D-03-0.794D-03-0.603D-03 0.282D-02
 Coeff-Com:  0.324D-01 0.144D+00 0.305D+00 0.518D+00
 Coeff:      0.938D-07-0.517D-04-0.320D-03-0.794D-03-0.603D-03 0.282D-02
 Coeff:      0.324D-01 0.144D+00 0.305D+00 0.518D+00
 Gap=     0.172 Goal=   None    Shift=    0.000
 RMSDP=2.18D-07 MaxDP=1.58D-05 DE=-8.92D-08 OVMax= 2.30D-05

 Cycle  11  Pass 1  IDiag  1:
 RMSU=  1.40D-07    CP:  9.93D-01  7.31D-01  6.37D-01  6.51D-01  6.34D-01
                    CP:  6.77D-01  7.02D-01  7.25D-01  6.20D-01  6.52D-01
 E= -2298.20784180005     Delta-E=       -0.000000007945 Rises=F Damp=F
 DIIS: error= 9.29D-07 at cycle  11 NSaved=  11.
 NSaved=11 IEnMin=11 EnMin= -2298.20784180005     IErMin=11 ErrMin= 9.29D-07
 ErrMax= 9.29D-07  0.00D+00 EMaxC= 1.00D-01 BMatC= 1.01D-09 BMatP= 1.08D-08
 IDIUse=1 WtCom= 1.00D+00 WtEn= 0.00D+00
 Coeff-Com:  0.480D-05-0.124D-04-0.150D-03-0.427D-03-0.937D-03-0.129D-02
 Coeff-Com:  0.417D-02 0.338D-01 0.102D+00 0.286D+00 0.576D+00
 Coeff:      0.480D-05-0.124D-04-0.150D-03-0.427D-03-0.937D-03-0.129D-02
 Coeff:      0.417D-02 0.338D-01 0.102D+00 0.286D+00 0.576D+00
 Gap=     0.172 Goal=   None    Shift=    0.000
 RMSDP=6.93D-08 MaxDP=6.11D-06 DE=-7.95D-09 OVMax= 7.00D-06

 Cycle  12  Pass 1  IDiag  1:
 RMSU=  4.21D-08    CP:  9.93D-01  7.31D-01  6.37D-01  6.51D-01  6.34D-01
                    CP:  6.78D-01  7.02D-01  7.28D-01  6.32D-01  7.17D-01
                    CP:  7.00D-01
 E= -2298.20784180080     Delta-E=       -0.000000000751 Rises=F Damp=F
 DIIS: error= 4.12D-07 at cycle  12 NSaved=  12.
 NSaved=12 IEnMin=12 EnMin= -2298.20784180080     IErMin=12 ErrMin= 4.12D-07
 ErrMax= 4.12D-07  0.00D+00 EMaxC= 1.00D-01 BMatC= 8.87D-11 BMatP= 1.01D-09
 IDIUse=1 WtCom= 1.00D+00 WtEn= 0.00D+00
 Coeff-Com:  0.229D-05-0.148D-05-0.487D-04-0.143D-03-0.442D-03-0.964D-03
 Coeff-Com: -0.108D-02 0.286D-02 0.223D-01 0.974D-01 0.295D+00 0.585D+00
 Coeff:      0.229D-05-0.148D-05-0.487D-04-0.143D-03-0.442D-03-0.964D-03
 Coeff:     -0.108D-02 0.286D-02 0.223D-01 0.974D-01 0.295D+00 0.585D+00
 Gap=     0.172 Goal=   None    Shift=    0.000
 RMSDP=2.35D-08 MaxDP=1.30D-06 DE=-7.51D-10 OVMax= 3.29D-06

 Cycle  13  Pass 1  IDiag  1:
 RMSU=  1.66D-08    CP:  9.93D-01  7.31D-01  6.37D-01  6.51D-01  6.34D-01
                    CP:  6.78D-01  7.02D-01  7.29D-01  6.33D-01  7.21D-01
                    CP:  7.32D-01  6.50D-01
 E= -2298.20784180089     Delta-E=       -0.000000000088 Rises=F Damp=F
 DIIS: error= 1.56D-07 at cycle  13 NSaved=  13.
 NSaved=13 IEnMin=13 EnMin= -2298.20784180089     IErMin=13 ErrMin= 1.56D-07
 ErrMax= 1.56D-07  0.00D+00 EMaxC= 1.00D-01 BMatC= 1.66D-11 BMatP= 8.87D-11
 IDIUse=1 WtCom= 1.00D+00 WtEn= 0.00D+00
 Coeff-Com:  0.684D-06 0.924D-06-0.847D-05-0.258D-04-0.134D-03-0.372D-03
 Coeff-Com: -0.102D-02-0.259D-02-0.346D-03 0.176D-01 0.855D-01 0.339D+00
 Coeff-Com:  0.563D+00
 Coeff:      0.684D-06 0.924D-06-0.847D-05-0.258D-04-0.134D-03-0.372D-03
 Coeff:     -0.102D-02-0.259D-02-0.346D-03 0.176D-01 0.855D-01 0.339D+00
 Coeff:      0.563D+00
 Gap=     0.172 Goal=   None    Shift=    0.000
 RMSDP=9.66D-09 MaxDP=7.41D-07 DE=-8.82D-11 OVMax= 2.07D-06

 Error on total polarization charges =  0.01067
 SCF Done:  E(RB3LYP) =  -2298.20784180     A.U. after   13 cycles
            NFock= 13  Conv=0.97D-08     -V/T= 2.0075
 KE= 2.281098365473D+03 PE=-1.409066181417D+04 EE= 5.169367359198D+03
 Leave Link  502 at Sat Jun 15 07:03:07 2019, MaxMem=  6442450944 cpu:            7235.8 elap:             234.9
 (Enter /home/ekwan/sw/g16/l701.exe)
 ... and contract with generalized density number  0.
 Compute integral first derivatives.
 R6Disp: Adding Grimme-D3(BJ) dispersion energy 1st derivatives to the gradient.
 D1PCM: PCM CHGder 1st derivatives, ID1Alg=3 FixD1E=F DoIter=F DoCFld=F I1PDM=0.
 GePol: Maximum number of non-zero 1st derivatives   =     221
 Leave Link  701 at Sat Jun 15 07:03:17 2019, MaxMem=  6442450944 cpu:             299.1 elap:              10.4
 (Enter /home/ekwan/sw/g16/l702.exe)
 L702 exits ... SP integral derivatives will be done elsewhere.
 Leave Link  702 at Sat Jun 15 07:03:17 2019, MaxMem=  6442450944 cpu:               2.6 elap:               0.1
 (Enter /home/ekwan/sw/g16/l703.exe)
 Integral derivatives from FoFJK, PRISM(SPDF).
 Compute integral first derivatives, UseDBF=F ICtDFT=           0.
 Calling FoFJK, ICntrl=      2127 FMM=F ISym2X=0 I1Cent= 0 IOpClX= 0 NMat=1 NMatS=1 NMatT=0.
 FoFJK:  IHMeth= 1 ICntrl=    2127 DoSepK=F KAlg= 0 I1Cent=           0 FoldK=F
 IRaf=         0 NMat=       1 IRICut=       1 DoRegI=T DoRafI=F ISym2E= 0 IDoP0=0 IntGTp=1.
 FoFCou: FMM=F IPFlag=           0 FMFlag=      100000 FMFlg1=         800
         NFxFlg=           0 DoJE=F BraDBF=F KetDBF=F FulRan=T
         wScrn=  0.000000 ICntrl=      2127 IOpCl=  0 I1Cent=           0 NGrid=           0
         NMat0=    1 NMatS0=      1 NMatT0=    0 NMatD0=    1 NMtDS0=    0 NMtDT0=    0
 Symmetry not used in FoFCou.
 Leave Link  703 at Sat Jun 15 07:04:04 2019, MaxMem=  6442450944 cpu:            1377.4 elap:              46.9
 (Enter /home/ekwan/sw/g16/l716.exe)
 Dipole        = 3.02186812D-01 1.34920191D+00-7.20402450D-01
 ***** Axes restored to original set *****
 -------------------------------------------------------------------
 Center     Atomic                   Forces (Hartrees/Bohr)
 Number     Number              X              Y              Z
 -------------------------------------------------------------------
      1        6           0.000001246   -0.000001528    0.000000358
      2        6           0.000000848   -0.000001770   -0.000001019
      3        6          -0.000000174   -0.000000698    0.000000163
      4        6           0.000001163   -0.000000024   -0.000000393
      5        6          -0.000000030   -0.000001476    0.000000282
      6        1          -0.000000840   -0.000000678   -0.000000965
      7        1           0.000000479   -0.000001023   -0.000000193
      8        1          -0.000000518   -0.000001078   -0.000000200
      9        1           0.000000719    0.000000377    0.000000117
     10        1           0.000001234   -0.000000811   -0.000000301
     11        8          -0.000000593    0.000000352    0.000000115
     12        8          -0.000001209    0.000000117   -0.000000025
     13        8          -0.000001095   -0.000000838    0.000000065
     14        8           0.000000475   -0.000001861    0.000000303
     15        8           0.000001310   -0.000000541   -0.000000187
     16        6           0.000001119    0.000000587   -0.000000043
     17        1           0.000001447    0.000000415   -0.000000258
     18        1           0.000000128    0.000001186    0.000000652
     19        8           0.000001489   -0.000000151   -0.000000004
     20       16          -0.000000609    0.000000141   -0.000000229
     21        8          -0.000002079   -0.000000019    0.000000687
     22        8          -0.000002408   -0.000000092    0.000000094
     23        6          -0.000000941    0.000001241   -0.000000999
     24        6          -0.000000563    0.000000657    0.000000660
     25        6          -0.000000261    0.000000284    0.000000904
     26        6          -0.000001360    0.000002497    0.000000156
     27        1          -0.000001427    0.000001258    0.000000011
     28        6          -0.000000171    0.000001936    0.000000883
     29        1          -0.000000946    0.000001074    0.000000222
     30        6          -0.000000061    0.000001419    0.000000399
     31        1           0.000000182    0.000002135    0.000000756
     32        6          -0.000003639   -0.000002177    0.000000591
     33        1          -0.000001121   -0.000001348    0.000000166
     34        1          -0.000001841   -0.000001745   -0.000000445
     35        1          -0.000001816   -0.000002359    0.000000006
     36        6          -0.000000727   -0.000001893   -0.000000527
     37        1           0.000000293   -0.000002798   -0.000000258
     38        1           0.000000191   -0.000002093   -0.000000341
     39        1          -0.000000139   -0.000002131    0.000000346
     40        6           0.000001094   -0.000001058   -0.000000323
     41        1           0.000001956   -0.000001003   -0.000000245
     42        1           0.000001455   -0.000001500   -0.000000216
     43        1           0.000002113   -0.000000665   -0.000000420
     44        6           0.000001748   -0.000000167    0.000000288
     45        1           0.000001611   -0.000000097   -0.000000088
     46        1           0.000001025    0.000000512   -0.000000089
     47        1           0.000000368   -0.000000081   -0.000000333
     48        6           0.000000904    0.000002253    0.000000403
     49        9          -0.000000246    0.000001738   -0.000000006
     50        9          -0.000000780    0.000002152    0.000000281
     51        9           0.000000368    0.000002607    0.000000303
     52        6           0.000000314    0.000001776   -0.000000337
     53        9           0.000001161    0.000002122   -0.000001147
     54        9          -0.000000227    0.000003060    0.000000262
     55        9          -0.000000620    0.000001804    0.000000123
 -------------------------------------------------------------------
 Cartesian Forces:  Max     0.000003639 RMS     0.000001125
 Leave Link  716 at Sat Jun 15 07:04:05 2019, MaxMem=  6442450944 cpu:               2.6 elap:               0.2
 (Enter /home/ekwan/sw/g16/l103.exe)

 GradGradGradGradGradGradGradGradGradGradGradGradGradGradGradGradGradGrad
 Berny optimization.
 FormGI is forming the generalized inverse of G from B-inverse, IUseBI=4.
 GSVD:  received Info=                   1 from GESDD.
 Internal  Forces:  Max     0.000004964 RMS     0.000000815
 Search for a local minimum.
 Step number   1 out of a maximum of  291
 All quantities printed in internal units (Hartrees-Bohrs-Radians)
 RMS Force = .81498D-06 SwitMx=.10000D-02 MixMth= 2
 Mixed Optimization -- En-DIIS/RFO-DIIS
 Second derivative matrix not updated -- first step.
 ITU=  0
     Eigenvalues ---    0.00428   0.00550   0.00557   0.00630   0.00672
     Eigenvalues ---    0.00691   0.00832   0.01357   0.01374   0.01378
     Eigenvalues ---    0.01380   0.01386   0.01439   0.01447   0.01483
     Eigenvalues ---    0.01533   0.01574   0.01592   0.01609   0.02155
     Eigenvalues ---    0.02160   0.02172   0.02176   0.02191   0.02193
     Eigenvalues ---    0.02212   0.02886   0.03276   0.04404   0.04545
     Eigenvalues ---    0.04665   0.04805   0.04878   0.05203   0.05240
     Eigenvalues ---    0.05746   0.06022   0.06562   0.06998   0.07048
     Eigenvalues ---    0.07186   0.07787   0.09271   0.10012   0.10033
     Eigenvalues ---    0.10064   0.10107   0.10551   0.10569   0.10591
     Eigenvalues ---    0.10595   0.10695   0.10712   0.10759   0.10821
     Eigenvalues ---    0.10917   0.11005   0.11498   0.11823   0.11863
     Eigenvalues ---    0.14120   0.14907   0.16000   0.16000   0.16000
     Eigenvalues ---    0.16000   0.16000   0.16000   0.16000   0.16000
     Eigenvalues ---    0.16000   0.16000   0.16000   0.16000   0.16000
     Eigenvalues ---    0.16000   0.16000   0.16450   0.16857   0.17492
     Eigenvalues ---    0.18661   0.19661   0.19749   0.20756   0.22145
     Eigenvalues ---    0.23472   0.23486   0.23494   0.24942   0.24976
     Eigenvalues ---    0.24981   0.25000   0.25000   0.25000   0.25000
     Eigenvalues ---    0.25000   0.25000   0.25000   0.25000   0.25000
     Eigenvalues ---    0.25000   0.25000   0.25000   0.27140   0.27216
     Eigenvalues ---    0.28531   0.28806   0.29120   0.29835   0.31640
     Eigenvalues ---    0.31786   0.33516   0.33772   0.33826   0.33863
     Eigenvalues ---    0.33876   0.33877   0.33953   0.33976   0.34009
     Eigenvalues ---    0.34104   0.34174   0.34181   0.34288   0.34473
     Eigenvalues ---    0.34479   0.34483   0.34492   0.34640   0.34895
     Eigenvalues ---    0.35561   0.35582   0.35740   0.36350   0.37323
     Eigenvalues ---    0.41860   0.41910   0.41925   0.41991   0.42510
     Eigenvalues ---    0.42593   0.42654   0.42688   0.43099   0.44181
     Eigenvalues ---    0.45707   0.45966   0.46438   0.46692   0.46789
     Eigenvalues ---    0.46959   0.53393   0.54871   0.55298   0.55343
     Eigenvalues ---    0.55559   0.55926   0.89618   0.91655
 RFO step:  Lambda= 0.00000000D+00 EMin= 4.27583846D-03
 Linear search not attempted -- first point.
 Iteration  1 RMS(Cart)=  0.00060714 RMS(Int)=  0.00000003
 Iteration  2 RMS(Cart)=  0.00000008 RMS(Int)=  0.00000000
 ITry= 1 IFail=0 DXMaxC= 2.30D-03 DCOld= 1.00D+10 DXMaxT= 3.00D-01 DXLimC= 3.00D+00 Rises=F
 Variable       Old X    -DE/DX   Delta X   Delta X   Delta X     New X
                                 (Linear)    (Quad)   (Total)
    R1        2.89318   0.00000   0.00000   0.00000   0.00000   2.89318
    R2        2.88879   0.00000   0.00000   0.00000   0.00000   2.88879
    R3        2.07538   0.00000   0.00000   0.00000   0.00000   2.07538
    R4        2.68056   0.00000   0.00000   0.00000   0.00000   2.68056
    R5        2.90569   0.00000   0.00000   0.00000   0.00000   2.90569
    R6        2.08155   0.00000   0.00000   0.00000   0.00000   2.08155
    R7        2.66239   0.00000   0.00000   0.00000   0.00000   2.66239
    R8        2.05845   0.00000   0.00000   0.00000   0.00000   2.05845
    R9        2.62064   0.00000   0.00000   0.00000   0.00000   2.62064
   R10        2.76837   0.00000   0.00000   0.00000   0.00000   2.76838
   R11        2.89183   0.00000   0.00000   0.00000   0.00000   2.89182
   R12        2.07371   0.00000   0.00000   0.00000   0.00000   2.07371
   R13        2.73473   0.00000   0.00000   0.00000   0.00000   2.73473
   R14        2.88293   0.00000   0.00000   0.00000   0.00000   2.88293
   R15        2.07155   0.00000   0.00000   0.00000   0.00000   2.07155
   R16        2.68175   0.00000   0.00000   0.00000   0.00000   2.68175
   R17        3.08164   0.00000   0.00000   0.00000   0.00000   3.08164
   R18        2.69037   0.00000   0.00000   0.00000   0.00000   2.69037
   R19        2.68934   0.00000   0.00000   0.00000   0.00000   2.68934
   R20        2.69019   0.00000   0.00000   0.00000   0.00000   2.69019
   R21        2.06507   0.00000   0.00000   0.00000   0.00000   2.06507
   R22        2.07315   0.00000   0.00000   0.00000   0.00000   2.07315
   R23        2.67547   0.00000   0.00000   0.00000   0.00000   2.67547
   R24        2.69101   0.00000   0.00000   0.00000   0.00000   2.69101
   R25        2.75879   0.00000   0.00000   0.00000   0.00000   2.75879
   R26        2.76810   0.00000   0.00000   0.00000   0.00000   2.76810
   R27        3.37584   0.00000   0.00000   0.00000   0.00000   3.37584
   R28        2.63009   0.00000   0.00000   0.00000   0.00000   2.63009
   R29        2.63103   0.00000   0.00000   0.00000   0.00000   2.63103
   R30        2.63639   0.00000   0.00000   0.00000   0.00000   2.63639
   R31        2.04741   0.00000   0.00000   0.00000   0.00000   2.04741
   R32        2.63095   0.00000   0.00000   0.00000   0.00000   2.63095
   R33        2.04489   0.00000   0.00000   0.00000   0.00000   2.04489
   R34        2.63383   0.00000   0.00000   0.00000   0.00000   2.63383
   R35        2.84807   0.00000   0.00000   0.00000   0.00000   2.84807
   R36        2.63794   0.00000   0.00000   0.00000   0.00000   2.63795
   R37        2.84537   0.00000   0.00000   0.00001   0.00001   2.84537
   R38        2.04773   0.00000   0.00000   0.00000   0.00000   2.04773
   R39        2.07409   0.00000   0.00000   0.00000   0.00000   2.07409
   R40        2.07625   0.00000   0.00000   0.00000   0.00000   2.07625
   R41        2.06263   0.00000   0.00000   0.00000   0.00000   2.06263
   R42        2.06522   0.00000   0.00000   0.00000   0.00000   2.06522
   R43        2.07717   0.00000   0.00000   0.00000   0.00000   2.07717
   R44        2.06846   0.00000   0.00000   0.00000   0.00000   2.06846
   R45        2.06529   0.00000   0.00000   0.00000   0.00000   2.06529
   R46        2.07025   0.00000   0.00000   0.00000   0.00000   2.07025
   R47        2.07541   0.00000   0.00000   0.00000   0.00000   2.07541
   R48        2.06538   0.00000   0.00000   0.00000   0.00000   2.06538
   R49        2.07563   0.00000   0.00000   0.00000   0.00000   2.07563
   R50        2.07037   0.00000   0.00000   0.00000   0.00000   2.07037
   R51        2.54828   0.00000   0.00000   0.00000   0.00000   2.54828
   R52        2.55247   0.00000   0.00000   0.00000   0.00000   2.55247
   R53        2.54868   0.00000   0.00000   0.00000   0.00000   2.54868
   R54        2.56588   0.00000   0.00000   0.00000   0.00000   2.56588
   R55        2.54639   0.00000   0.00000   0.00000   0.00000   2.54639
   R56        2.54318   0.00000   0.00000   0.00000   0.00000   2.54318
    A1        1.92512   0.00000   0.00000  -0.00001  -0.00001   1.92511
    A2        1.91040   0.00000   0.00000   0.00000   0.00000   1.91040
    A3        1.93073   0.00000   0.00000   0.00001   0.00001   1.93074
    A4        1.89556   0.00000   0.00000  -0.00001  -0.00001   1.89556
    A5        1.87536   0.00000   0.00000   0.00000   0.00000   1.87535
    A6        1.92617   0.00000   0.00000   0.00000   0.00000   1.92618
    A7        1.94055   0.00000   0.00000   0.00001   0.00001   1.94056
    A8        1.88397   0.00000   0.00000   0.00001   0.00001   1.88398
    A9        1.89953   0.00000   0.00000   0.00000   0.00000   1.89953
   A10        1.84711   0.00000   0.00000   0.00000   0.00000   1.84711
   A11        1.96617   0.00000   0.00000  -0.00002  -0.00002   1.96615
   A12        1.92456   0.00000   0.00000   0.00000   0.00000   1.92456
   A13        1.95940   0.00000   0.00000  -0.00001  -0.00001   1.95939
   A14        1.97208   0.00000   0.00000   0.00001   0.00001   1.97209
   A15        1.84633   0.00000   0.00000  -0.00001  -0.00001   1.84632
   A16        1.85916   0.00000   0.00000   0.00001   0.00001   1.85917
   A17        1.88370   0.00000   0.00000   0.00000   0.00000   1.88370
   A18        1.94275   0.00000   0.00000   0.00001   0.00001   1.94276
   A19        1.90321   0.00000   0.00000  -0.00001  -0.00001   1.90321
   A20        1.93143   0.00000   0.00000   0.00000   0.00000   1.93143
   A21        1.96018   0.00000   0.00000  -0.00001  -0.00001   1.96018
   A22        1.89756   0.00000   0.00000   0.00000   0.00000   1.89756
   A23        1.88100   0.00000   0.00000   0.00000   0.00000   1.88100
   A24        1.88888   0.00000   0.00000   0.00001   0.00001   1.88889
   A25        1.95173   0.00000   0.00000   0.00000   0.00000   1.95173
   A26        1.89846   0.00000   0.00000   0.00000   0.00000   1.89847
   A27        1.92260   0.00000   0.00000   0.00000   0.00000   1.92260
   A28        1.89184   0.00000   0.00000   0.00000   0.00000   1.89184
   A29        1.86836   0.00000   0.00000   0.00000   0.00000   1.86835
   A30        1.93082   0.00000   0.00000   0.00000   0.00000   1.93082
   A31        2.01273   0.00000   0.00000   0.00000   0.00000   2.01272
   A32        2.06719   0.00000   0.00000   0.00002   0.00002   2.06721
   A33        1.99890   0.00000   0.00000  -0.00001  -0.00001   1.99888
   A34        2.00139   0.00000   0.00000   0.00000   0.00000   2.00139
   A35        1.98957   0.00000   0.00000   0.00000   0.00000   1.98957
   A36        1.87030   0.00000   0.00000  -0.00001  -0.00001   1.87029
   A37        1.90784   0.00000   0.00000   0.00001   0.00001   1.90785
   A38        2.00191   0.00000   0.00000   0.00000   0.00000   2.00191
   A39        1.89604   0.00000   0.00000   0.00000   0.00000   1.89603
   A40        1.85272   0.00000   0.00000   0.00000   0.00000   1.85272
   A41        1.93084   0.00000   0.00000   0.00000   0.00000   1.93084
   A42        1.99888   0.00000   0.00000   0.00000   0.00000   1.99888
   A43        1.81906   0.00000   0.00000  -0.00001  -0.00001   1.81905
   A44        1.90064   0.00000   0.00000   0.00000   0.00000   1.90065
   A45        1.80433   0.00000   0.00000   0.00002   0.00002   1.80435
   A46        2.11538   0.00000   0.00000   0.00000   0.00000   2.11538
   A47        1.90179   0.00000   0.00000   0.00000   0.00000   1.90179
   A48        1.89705   0.00000   0.00000  -0.00001  -0.00001   1.89704
   A49        2.07309   0.00000   0.00000   0.00001   0.00001   2.07309
   A50        2.07544   0.00000   0.00000   0.00000   0.00000   2.07544
   A51        2.13379   0.00000   0.00000   0.00000   0.00000   2.13379
   A52        2.06636   0.00000   0.00000   0.00000   0.00000   2.06636
   A53        2.10598   0.00000   0.00000   0.00000   0.00000   2.10598
   A54        2.11084   0.00000   0.00000   0.00000   0.00000   2.11084
   A55        2.06527   0.00000   0.00000   0.00000   0.00000   2.06527
   A56        2.10531   0.00000   0.00000   0.00000   0.00000   2.10531
   A57        2.11260   0.00000   0.00000   0.00000   0.00000   2.11260
   A58        2.10401   0.00000   0.00000   0.00000   0.00000   2.10401
   A59        2.08692   0.00000   0.00000   0.00000   0.00000   2.08691
   A60        2.09160   0.00000   0.00000   0.00000   0.00000   2.09160
   A61        2.10639   0.00000   0.00000   0.00000   0.00000   2.10639
   A62        2.09365   0.00000   0.00000  -0.00001  -0.00001   2.09364
   A63        2.08116   0.00000   0.00000   0.00001   0.00001   2.08117
   A64        2.09055   0.00000   0.00000   0.00000   0.00000   2.09055
   A65        2.09572   0.00000   0.00000   0.00000   0.00000   2.09572
   A66        2.09690   0.00000   0.00000   0.00000   0.00000   2.09690
   A67        1.95392   0.00000   0.00000   0.00000   0.00000   1.95392
   A68        1.93759   0.00000   0.00000   0.00000   0.00000   1.93759
   A69        1.85953   0.00000   0.00000   0.00000   0.00000   1.85953
   A70        1.90495   0.00000   0.00000   0.00000   0.00000   1.90495
   A71        1.89806   0.00000   0.00000   0.00000   0.00000   1.89806
   A72        1.90862   0.00000   0.00000   0.00001   0.00001   1.90863
   A73        1.85796   0.00000   0.00000   0.00000   0.00000   1.85796
   A74        1.93684   0.00000   0.00000   0.00000   0.00000   1.93684
   A75        1.94679   0.00000   0.00000   0.00001   0.00001   1.94679
   A76        1.90203   0.00000   0.00000   0.00000   0.00000   1.90203
   A77        1.91362   0.00000   0.00000   0.00000   0.00000   1.91362
   A78        1.90567   0.00000   0.00000   0.00000   0.00000   1.90567
   A79        1.86014   0.00000   0.00000   0.00000   0.00000   1.86014
   A80        1.93927   0.00000   0.00000   0.00000   0.00000   1.93927
   A81        1.93545   0.00000   0.00000   0.00000   0.00000   1.93546
   A82        1.91168   0.00000   0.00000   0.00000   0.00000   1.91168
   A83        1.90613   0.00000   0.00000   0.00000   0.00000   1.90613
   A84        1.91032   0.00000   0.00000   0.00000   0.00000   1.91032
   A85        1.86055   0.00000   0.00000   0.00000   0.00000   1.86054
   A86        1.93504   0.00000   0.00000   0.00000   0.00000   1.93504
   A87        1.95538   0.00000   0.00000   0.00000   0.00000   1.95538
   A88        1.90652   0.00000   0.00000   0.00000   0.00000   1.90652
   A89        1.90927   0.00000   0.00000   0.00000   0.00000   1.90927
   A90        1.89641   0.00000   0.00000   0.00000   0.00000   1.89641
   A91        1.94570   0.00000   0.00000   0.00000   0.00000   1.94570
   A92        1.94259   0.00000   0.00000   0.00000   0.00000   1.94259
   A93        1.94620   0.00000   0.00000   0.00000   0.00000   1.94620
[...]
 0001925,0.00000905,-0.00000284,-0.00002711,0.00001187,-0.00015221,-0.0
 0029484,0.00000759,0.00000444,0.00003297,0.00001866,0.00005188,0.00002
 588,-0.00000660,-0.00000052,0.00003321,-0.00001764,0.00019528,0.000164
 57,0.00080775,-0.00000451,0.00004030,-0.00010117,-0.00024880,0.0001235
 1,0.00002045,0.00003996,-0.00006815,-0.00002140,0.00192566,-0.00013991
 ,-0.00535548,0.00011653,-0.00001324,0.00172503,-0.00131633,-0.00057008
 ,0.00144413,-0.00066743,0.00068999,0.00140567,0.01416606,-0.02178038,0
 .57697683,0.00007351,-0.00013922,0.00000927,0.00007843,-0.00003935,-0.
 00004609,0.00015150,-0.00051870,0.00017321,-0.00016379,-0.00066928,-0.
 00018967,0.00005951,0.00028586,0.00012429,-0.00001431,0.00003152,-0.00
 000547,0.00001187,0.00000600,0.00000190,-0.00000947,0.00001136,-0.0000
 1002,-0.00000629,0.00004991,-0.00003113,0.00005076,-0.00001099,0.00000
 471,-0.00023326,0.00043810,0.00002207,0.00022888,0.00033786,-0.0001182
 6,-0.00010029,0.00011003,0.00002371,-0.00018897,0.00006242,-0.00008376
 ,-0.00014174,-0.00006191,-0.00010118,0.00180827,0.00124372,0.00027322,
 -0.00023012,-0.00004383,-0.00017987,-0.00148896,-0.00056313,-0.0006210
 8,-0.00082751,-0.00067615,-0.00056217,-0.00028911,-0.00025877,0.000076
 72,0.00007131,0.00001821,-0.00001168,0.00006154,0.00006115,0.00001157,
 0.00043020,-0.00065006,0.00024114,0.00016306,-0.00010932,-0.00041318,-
 0.00025428,-0.00066278,0.00098052,-0.00052745,-0.00005085,-0.00022086,
 0.00002783,0.00000131,0.00001988,0.01053043,0.00112736,-0.00266554,-0.
 00004192,0.00002376,0.00000362,0.00001181,0.00101404,0.00037857,0.0000
 0157,0.00009107,-0.00034006,0.00001337,-0.00002908,-0.00005421,0.00000
 400,-0.00000171,0.00001229,0.00000261,0.00000053,0.00000723,-0.0000095
 7,0.00000964,0.00000379,0.00004114,-0.00005385,0.00007782,-0.00001701,
 0.00000357,-0.00001085,0.00000064,0.00000688,-0.00001375,-0.00000694,0
 .00001529,-0.00000682,0.00008674,0.00010673,0.00004392,-0.00000575,-0.
 00001660,-0.00002287,-0.00002691,-0.00001318,-0.00000148,0.00000754,0.
 00001730,0.00000473,0.00168983,0.00041369,0.00125676,-0.00037582,-0.00
 016111,-0.00004266,-0.00236297,-0.00021560,-0.00015759,-0.00038770,-0.
 00008273,-0.00002767,-0.00025327,-0.00007738,0.00007465,0.00006676,0.0
 0001763,-0.00003175,0.00006653,0.00003440,-0.00001547,0.00004772,-0.00
 000587,-0.00000974,-0.08749487,-0.04995481,0.00740743,0.12457824,-0.00
 001383,-0.00020583,-0.00005708,-0.00010426,0.00001172,-0.00009510,-0.0
 0021403,-0.00090100,0.00063605,-0.00024226,-0.00095990,-0.00022632,0.0
 0000031,0.00021762,0.00002984,-0.00003912,0.00006151,-0.00002726,0.000
 07434,0.00002360,0.00000245,-0.00001748,0.00002040,-0.00002886,-0.0000
 7296,0.00006288,-0.00012615,0.00009900,0.00000841,0.00001090,0.0001306
 4,0.00087967,-0.00000018,0.00142463,0.00063467,-0.00033225,0.00005460,
 0.00006860,-0.00001064,-0.00004910,0.00011128,-0.00002091,-0.00008395,
 0.00011601,-0.00000961,0.00137671,0.00078086,0.00063691,-0.00013899,-0
 .00000277,-0.00015931,0.00014431,-0.00114784,0.00037198,-0.00066948,-0
 .00010503,-0.00084978,-0.00301817,0.00161867,0.00054249,0.00073335,-0.
 00088059,0.00029218,0.00076404,-0.00054110,-0.00048405,0.00162278,0.00
 055291,0.00090487,0.00007785,-0.00054770,0.00077032,-0.00186833,0.0000
 9677,0.00256751,0.00169770,0.00059597,0.00150228,-0.00018466,-0.000112
 14,-0.00004641,-0.01161960,-0.03771647,0.01289397,-0.00098115,-0.00056
 717,-0.00032315,0.00199050,-0.00237420,-0.00159102,-0.00101978,-0.0007
 5817,0.00008526,-0.00005062,-0.00000711,0.00002187,0.00000380,0.000007
 72,0.00000991,0.00001097,0.00001159,-0.00001062,0.00000237,0.00000071,
 0.00000215,0.00000173,-0.00002643,0.00003938,-0.00000056,0.00000574,-0
 .00000416,0.00000268,-0.00000148,-0.00000769,-0.00001224,0.00000999,-0
 .00000336,0.00004329,-0.00002670,0.00005975,0.00000183,-0.00000241,-0.
 00001042,-0.00001745,0.00000047,-0.00000654,0.00001232,0.00003882,-0.0
 0001498,0.00181903,0.00079426,0.00148482,-0.00035175,-0.00016111,-0.00
 004750,-0.00001988,-0.00031588,-0.00090500,-0.00056673,-0.00011620,-0.
 00004097,0.00115358,-0.00075914,-0.00211885,0.00005334,0.00008789,0.00
 094593,-0.00052017,-0.00013486,0.00057681,-0.00033671,0.00055184,0.000
 51722,-0.05352236,-0.22230973,0.02582365,0.10999787,0.32122692,0.00006
 298,-0.00002423,0.00002600,0.00012560,-0.00004145,0.00001191,0.0002484
 2,0.00016012,-0.00032636,-0.00002020,-0.00016881,-0.00012126,0.0000482
 7,0.00015930,0.00007246,-0.00000928,0.00000629,0.00001603,-0.00004558,
 -0.00001192,0.00000039,0.00000456,-0.00000276,0.00001307,0.00004174,0.
 00000008,0.00006653,-0.00002595,-0.00002016,-0.00000113,-0.00027852,-0
 .00011066,0.00011904,-0.00081628,-0.00011054,0.00020463,-0.00011846,0.
 00005854,0.00005394,-0.00013753,-0.00000049,-0.00004842,-0.00008215,-0
 .00009839,-0.00005039,0.00073728,0.00095186,-0.00017079,-0.00009271,-0
 .00005718,-0.00002566,-0.00107764,-0.00028258,-0.00076214,-0.00023721,
 -0.00039139,0.00063302,0.00165912,-0.00143833,-0.00068753,-0.00040934,
 0.00062273,-0.00014810,-0.00039495,0.00040639,0.00047177,-0.00142577,-
 0.00011283,-0.00126550,-0.00075106,0.00084195,-0.00003953,0.00248646,0
 .00000217,-0.00209673,-0.00041505,-0.00073854,0.00044967,0.00007372,0.
 00004375,0.00006301,0.00498632,0.03068452,0.00173179,0.00014500,0.0005
 5798,-0.00000391,-0.00081093,0.00028310,0.00087366,0.00025533,0.000205
 85,0.00007547,0.00004224,-0.00002898,-0.00008004,0.00000507,-0.0000006
 0,0.00000310,-0.00000883,-0.00000895,0.00001502,-0.00000789,0.00000725
 ,0.00000515,0.00003217,-0.00003062,0.00003709,-0.00001419,-0.00000029,
 -0.00000757,-0.00000206,0.00000592,-0.00000418,-0.00000010,0.00000865,
 -0.00000432,0.00005202,0.00010235,0.00000031,-0.00000254,-0.00001189,-
 0.00000756,-0.00001652,-0.00000947,0.00000216,0.00000070,-0.00001070,0
 .00000680,-0.00027488,-0.00013421,-0.00049709,0.00005014,0.00000776,0.
 00005404,0.00025675,-0.00006346,0.00008908,0.00008303,0.00004030,0.000
 02836,-0.00057813,0.00018142,0.00129888,-0.00001178,-0.00001619,-0.000
 45453,0.00032920,0.00014090,-0.00035569,0.00018368,-0.00021243,-0.0003
 1915,0.00785624,0.02653597,-0.07602859,-0.00609533,-0.00863788,0.07101
 792,0.00012834,-0.00001706,0.00007617,0.00021643,-0.00008794,0.0000292
 8,0.00038799,-0.00002867,-0.00028088,0.00004526,-0.00000144,0.00004626
 ,0.00009455,0.00018088,0.00017443,0.00001590,-0.00000995,0.00001512,-0
 .00004592,-0.00001119,-0.00000203,-0.00000113,0.00000094,0.00000491,0.
 00004284,0.00002054,0.00004939,-0.00000056,-0.00001804,-0.00000654,-0.
 00047077,-0.00004792,-0.00003434,-0.00088811,-0.00003754,0.00008058,-0
 .00020767,0.00012499,0.00003798,-0.00024404,0.00000230,-0.00011957,-0.
 00014065,-0.00017305,-0.00015530,0.00074779,0.00049946,0.00017950,-0.0
 0009268,-0.00004931,-0.00009204,-0.00001214,-0.00011570,0.00008622,-0.
 00042401,-0.00035116,-0.00016084,0.00224064,-0.00167436,-0.00053249,-0
 .00068864,0.00111838,-0.00046946,-0.00055200,0.00061312,0.00047738,-0.
 00058237,0.00172511,0.00057215,-0.00022787,-0.00000427,-0.00054327,-0.
 00062092,0.00033474,-0.00632990,0.00023520,0.00076292,-0.00100132,0.00
 003389,-0.00014376,-0.00004215,-0.03676294,0.01067234,-0.00121564,0.00
 027230,-0.00088304,0.00018332,-0.00086728,0.00149829,0.00324132,-0.000
 11031,-0.00110475,-0.00173939,0.00006219,-0.00004371,-0.00009958,0.000
 00377,-0.00001136,0.00001272,-0.00000261,-0.00000638,0.00001900,-0.000
 01953,0.00001548,0.00000278,0.00006792,-0.00006631,0.00009235,-0.00002
 464,0.00000048,-0.00001290,-0.00000096,0.00001167,-0.00001727,-0.00000
 055,0.00001600,-0.00000643,0.00009228,0.00015698,0.00002395,-0.0000068
 3,-0.00002272,-0.00002425,-0.00002738,-0.00001704,0.00000303,-0.000001
 29,-0.00000190,0.00001060,0.00069959,0.00025491,0.00043754,-0.00015834
 ,-0.00010686,0.00000464,0.00000499,0.00001990,-0.00032271,-0.00013494,
 -0.00002278,-0.00001728,-0.00124456,0.00040665,0.00159316,0.00006140,-
 0.00003427,-0.00060169,0.00059554,0.00020332,-0.00048232,0.00036041,-0
 .00038967,-0.00039724,-0.26124013,0.03691609,-0.01108946,-0.05679819,-
 0.03690600,0.00575643,0.38812910,-0.00003726,-0.00005034,-0.00003475,-
 0.00008644,0.00001977,-0.00003157,-0.00016200,-0.00023477,0.00024945,-
 0.00007854,-0.00025886,-0.00006605,-0.00002458,0.00000835,-0.00004113,
 -0.00001471,0.00001738,-0.00001224,0.00003168,0.00001008,0.00000054,-0
 .00000461,0.00000542,-0.00000984,-0.00003402,0.00001470,-0.00005236,0.
 00002952,0.00000758,0.00000516,0.00015939,0.00024766,0.00001065,0.0005
 6880,0.00017381,-0.00009922,0.00006910,-0.00001204,-0.00001265,0.00005
 014,0.00003060,0.00002438,0.00001324,0.00008080,0.00003846,0.00018611,
 0.00004276,0.00010079,-0.00001516,0.00001542,-0.00001918,0.00003258,-0
 .00023047,0.00016567,-0.00009741,0.00006672,-0.00020630,-0.00153709,0.
 00071648,0.00029234,0.00047140,-0.00052595,0.00021712,0.00036121,-0.00
 027910,-0.00027439,-0.00026880,-0.00138894,0.00043737,0.00053885,-0.00
 032136,0.00011789,0.00009414,0.00074400,0.00246622,-0.00030545,-0.0002
 8996,0.00012934,0.00000913,0.00007827,-0.00000100,0.02550065,0.0035060
 5,0.00279427,0.00003876,0.00066308,-0.00014711,0.00056586,-0.00088088,
 -0.00045092,0.00018621,0.00023955,0.00070680,-0.00003090,0.00000833,0.
 00003208,0.00000063,0.00000489,-0.00000026,0.00000416,0.00000542,-0.00
 000811,0.00000527,-0.00000371,-0.00000029,-0.00001657,0.00000902,-0.00
 001235,0.00000641,0.00000154,0.00000222,0.00000101,-0.00000352,0.00000
 206,-0.00000339,-0.00000124,0.00000089,-0.00001241,-0.00005139,0.00001
 103,0.00000263,0.00000546,0.00000360,0.00000219,0.00000483,-0.00000265
 ,0.00000365,0.00001191,-0.00000773,0.00035355,0.00012064,0.00030669,-0
 .00005444,-0.00001399,-0.00001528,0.00007306,-0.00000388,-0.00019349,-
 0.00011581,-0.00002366,-0.00000592,0.00053335,-0.00033839,-0.00098707,
 0.00000390,0.00004145,0.00035281,-0.00025353,-0.00005457,0.00026924,-0
 .00017664,0.00025247,0.00024395,0.03477036,-0.07717401,0.00375954,-0.0
 5304644,-0.00480174,0.00253598,-0.03518356,0.07906906,0.00004259,0.000
 02291,0.00002234,0.00008652,-0.00003006,0.00002738,0.00016868,0.000204
 15,-0.00029488,0.00007699,0.00012389,0.00000110,0.00003005,0.00001986,
 0.00004284,-0.00000188,-0.00000194,0.00001333,-0.00003658,-0.00001155,
 -0.00000103,0.00000402,-0.00000339,0.00001104,0.00003140,-0.00000445,0
 .00005417,-0.00002127,-0.00001057,-0.00000304,-0.00016426,-0.00016409,
 0.00005646,-0.00064103,-0.00014247,0.00015650,-0.00007737,0.00003209,0
 .00003635,-0.00006656,-0.00001473,-0.00002241,-0.00003354,-0.00006119,
 -0.00002729,0.00001582,0.00008413,-0.00006756,0.00000928,-0.00001248,0
 .00001486,0.00002803,0.00008083,-0.00004490,-0.00002041,-0.00007913,0.
 00019169,0.00159983,-0.00089912,-0.00062515,-0.00049381,0.00062583,-0.
 00019585,-0.00035088,0.00032237,0.00044273,-0.00069510,0.00167161,-0.0
 0004247,-0.00056772,0.00046912,-0.00013831,-0.00035081,-0.00032521,-0.
 00415136,-0.00031490,-0.00001139,0.00081463,-0.00003878,0.00003113,0.0
 0004394,-0.02641089,0.00818324,0.00710744,-0.00038728,0.00002957,-0.00
 002908,-0.00079002,-0.00031932,-0.00164115,-0.00119150,0.00093641,-0.0
 0016921,0.00002992,-0.00002051,-0.00005412,0.00000386,-0.00000039,0.00
 000095,-0.00000675,-0.00000670,0.00001027,-0.00000499,0.00000434,0.000
 00299,0.00001962,-0.00001473,0.00001449,-0.00000739,-0.00000116,-0.000
 00354,-0.00000187,0.00000339,-0.00000115,0.00000135,0.00000401,-0.0000
 0175,0.00002264,0.00004954,-0.00000479,-0.00000063,-0.00000520,-0.0000
 0232,-0.00000766,-0.00000404,0.00000150,-0.00000058,-0.00000767,0.0000
 0354,-0.00010612,-0.00005347,-0.00016837,0.00001231,-0.00000245,0.0000
 1532,0.00003541,0.00000894,0.00001905,0.00001796,0.00001478,0.00000280
 ,-0.00040115,0.00002972,0.00117860,-0.00005209,0.00000132,-0.00039122,
 0.00026719,0.00012207,-0.00029996,0.00013731,-0.00015066,-0.00029101,-
 0.00441596,0.00259928,-0.07781240,0.00803844,0.00235347,0.01234024,-0.
 02470432,0.00349439,0.07791845,0.00003031,0.00000802,0.00002688,0.0000
 5577,-0.00002427,0.00000636,0.00011178,-0.00001329,-0.00002341,0.00001
 333,0.00006245,0.00007569,0.00002366,0.00003294,0.00003655,0.00001910,
 -0.00000968,0.00000056,-0.00000701,-0.00000073,-0.00000071,-0.00000044
 ,-0.00000026,-0.00000068,0.00000801,0.00000395,-0.00000011,0.00000094,
 -0.00000202,-0.00000188,-0.00009474,-0.00004176,-0.00005143,-0.0001878
 9,0.00000514,-0.00002555,-0.00005120,0.00002771,-0.00000092,-0.0000568
 2,-0.00000463,-0.00003370,-0.00002972,-0.00004850,-0.00004478,0.000085
 52,0.00005710,0.00003546,-0.00001593,-0.00001194,-0.00002009,0.0000139
 3,0.00000052,0.00003882,-0.00005435,-0.00006591,-0.00007317,0.00050165
 ,-0.00048332,0.00023580,-0.00008887,0.00018832,-0.00013564,-0.00015052
 ,0.00016632,-0.00000164,0.00066624,-0.00052359,-0.00023744,0.00001006,
 0.00005223,-0.00031083,-0.00229969,0.00091932,-0.00086001,0.00020604,-
 0.00029047,-0.00081130,0.00005261,-0.00003209,-0.00007843,0.01027537,-
 0.00117865,-0.00769194,0.00044296,-0.00027319,-0.00188612,-0.00085487,
 0.00155510,-0.00064553,0.00010582,-0.00003739,-0.00041486,0.00001541,-
 0.00000741,-0.00001567,-0.00000036,-0.00000558,0.00000384,0.00000151,-
 0.00000035,0.00000371,-0.00000593,0.00000400,-0.00000092,0.00001746,-0
 .00001627,0.00002445,-0.00000584,0.00000007,-0.00000286,0.00000013,0.0
 0000297,-0.00000530,0.00000048,0.00000334,-0.00000110,0.00001967,0.000
 03740,0.00000457,-0.00000202,-0.00000580,-0.00000646,-0.00000521,-0.00
 000426,0.00000121,-0.00000141,-0.00000108,0.00000335,0.00013259,0.0000
 5007,0.00009078,-0.00002763,-0.00002609,-0.00000314,-0.00004238,0.0000
 7396,0.00001785,0.00001875,0.00000248,-0.00000206,-0.00044508,0.000117
 74,0.00038772,0.00001023,-0.00001266,-0.00024050,0.00016390,0.00005644
 ,-0.00012762,0.00010470,-0.00011124,-0.00009018,-0.07728372,0.01258238
 ,0.02393443,0.01189088,-0.01065198,-0.01136161,-0.03193836,0.02689284,
 0.05168487,0.08865116,0.00000424,-0.00006203,-0.00002005,-0.00001919,-
 0.00000148,-0.00002293,-0.00003780,-0.00025166,0.00010608,-0.00004780,
 -0.00027826,-0.00010237,0.00000792,0.00006103,0.00001396,-0.00002352,0
 .00002004,-0.00000206,0.00001244,0.00000452,0.00000017,-0.00000381,0.0
 0000513,-0.00000512,-0.00001441,0.00001559,-0.00001630,0.00002142,-0.0
 0000103,0.00000293,-0.00002019,0.00025107,0.00004785,0.00025394,0.0001
 7732,-0.00001134,-0.00000009,0.00003305,0.00001501,-0.00002521,0.00003
 449,-0.00000417,-0.00003441,0.00003300,0.00000286,0.00044138,0.0002537
 5,0.00014278,-0.00003850,-0.00000262,-0.00003371,0.00009247,-0.0002857
 2,0.00014444,-0.00023465,-0.00003755,-0.00010951,-0.00062415,0.0002127
 2,-0.00034972,0.00011004,-0.00010110,0.00011044,0.00020053,-0.00008068
 ,0.00007914,-0.00065762,0.00074164,-0.00002712,-0.00021744,0.00016966,
 0.00063819,0.00262784,-0.00181441,0.00096925,-0.00002256,-0.00072229,0
 .00075254,-0.00007130,0.00002803,0.00007604,0.00037274,0.00932417,0.00
 719487,-0.00065076,0.00026264,0.00159749,0.00117835,0.00019864,0.00003
 332,-0.00002712,0.00018737,0.00025633,-0.00001192,-0.00001259,-0.00001
 421,0.00000423,0.00000479,0.00000323,0.00000073,0.00000169,-0.00000039
 ,0.00000050,0.00000096,0.00000253,0.00000363,-0.00001045,0.00001080,-0
 .00000116,0.00000145,-0.00000187,-0.00000001,-0.00000019,-0.00000108,-
 0.00000409,0.00000430,-0.00000141,0.00001738,-0.00000271,0.00001641,0.
 00000155,-0.00000093,-0.00000170,-0.00000776,-0.00000001,-0.00000194,0
 .00000417,0.00001011,-0.00000570,0.00045185,0.00012368,0.00022783,-0.0
 0007027,-0.00003220,-0.00000366,0.00009232,0.00002385,-0.00016575,-0.0
 0013878,-0.00001604,-0.00000469,0.00021078,-0.00039090,-0.00040647,0.0
 0000030,0.00003996,0.00010984,-0.00014142,0.00001585,0.00015316,-0.000
 09436,0.00015915,0.00007950,0.01155622,-0.09816721,-0.06642104,-0.0074
 2450,-0.05311476,-0.05177521,0.02201623,0.00071929,-0.01916435,-0.0290
 1840,0.14226786,0.00009035,-0.00001803,0.00001940,0.00015526,-0.000051
 43,0.00001693,0.00034773,0.00016408,-0.00048195,0.00010299,-0.00004002
 ,-0.00014506,0.00007034,0.00010634,0.00010271,-0.00002673,0.00002175,0
 .00002182,-0.00006119,-0.00001877,0.00000030,0.00000533,-0.00000254,0.
 00001968,0.00006033,0.00000183,0.00010596,-0.00002719,-0.00002483,-0.0
 0000291,-0.00039491,-0.00010218,0.00021032,-0.00103722,-0.00006327,0.0
 0026279,-0.00015507,0.00009291,0.00009309,-0.00016011,0.00000318,-0.00
 004403,-0.00010506,-0.00009698,-0.00004792,0.00053628,0.00046067,-0.00
 001825,-0.00002599,-0.00002797,-0.00000255,0.00003839,-0.00003753,-0.0
 0003267,-0.00030441,-0.00024384,0.00036251,0.00241292,-0.00195681,-0.0
 0092940,-0.00061852,0.00081812,-0.00016918,-0.00055912,0.00062079,0.00
 081813,-0.00000774,0.00101927,-0.00015778,-0.00023378,0.00008683,-0.00
 064544,0.00241460,-0.00152971,-0.00105506,0.00169428,-0.00015354,-0.00
 241390,-0.00008684,-0.00002143,0.00008089,0.00844141,-0.02033160,-0.04
 616641,-0.00202965,0.00095806,-0.00108002,-0.00675613,0.00542172,-0.00
 309052,-0.00012471,-0.00029252,0.00077360,0.00005097,-0.00005208,-0.00
 012608,0.00001204,0.00000532,0.00000402,-0.00001473,-0.00001321,0.0000
 2114,-0.00000857,0.00000919,0.00000943,0.00004217,-0.00003804,0.000036
 43,-0.00001645,-0.00000113,-0.00000896,-0.00000411,0.00000667,-0.00000
 193,-0.00000119,0.00001219,-0.00000524,0.00006485,0.00010573,0.0000046
 1,-0.00000010,-0.00001130,-0.00000622,-0.00002373,-0.00000901,0.000001
 16,0.00000319,-0.00000751,0.00000314,0.00018108,0.00000025,-0.00017435
 ,-0.00004361,-0.00003332,0.00003334,0.00013892,-0.00002886,-0.00013976
 ,-0.00011026,0.00001434,0.00000238,-0.00151669,0.00077998,0.00225357,-
 0.00018306,-0.00006563,-0.00121372,0.00079273,0.00029213,-0.00069360,0
 .00030530,-0.00035132,-0.00055494,0.01797155,-0.05829882,-0.24679015,-
 0.00718128,-0.03688594,-0.00627440,0.03729043,-0.01607904,-0.01406066,
 -0.05140526,0.12588689,0.32127570\\0.00000034,0.00000066,-0.00000048,0
 .00000085,0.00000207,-0.00000036,0.00000190,-0.00000093,0.00000003,0.0
 0000015,-0.00000025,0.00000066,0.00000028,-0.00000007,0.00000066,0.000
 00070,0.00000003,0.00000016,-0.00000057,0.00000113,-0.00000023,0.00000
 017,0.00000151,0.00000038,0.00000010,0.00000013,-0.00000022,-0.0000010
 3,0.00000104,0.00000035,-0.00000052,0.00000014,-0.00000008,0.00000123,
 0.00000121,0.00000007,-0.00000146,0.00000033,-0.00000022,-0.00000048,0
 .00000306,0.00000073,-0.00000233,0.00000094,-0.00000028,-0.00000056,-0
 .00000054,-0.00000019,-0.00000128,-0.00000017,-0.00000010,-0.00000118,
 -0.00000061,-0.00000041,-0.00000205,0.00000054,-0.00000053,0.00000234,
 -0.00000080,-0.00000085,0.00000139,-0.00000061,-0.00000003,0.00000133,
 0.00000001,-0.00000018,0.00000124,-0.00000101,0.,0.00000076,-0.0000010
 7,0.00000013,-0.00000057,-0.00000249,-0.00000035,0.00000044,-0.0000020
 4,0.00000009,0.00000095,-0.00000104,-0.00000016,0.00000169,-0.00000208
 ,-0.00000066,0.00000124,-0.00000074,0.00000007,0.00000028,-0.00000133,
 0.00000035,-0.00000024,-0.00000239,-0.00000030,0.00000206,0.00000282,-
 0.00000017,0.00000145,0.00000170,-0.00000029,0.00000124,0.00000205,0.0
 0000035,0.00000160,0.00000212,0.00000031,0.00000088,0.00000139,0.00000
 023,-0.00000035,0.00000286,0.00000034,-0.00000005,0.00000210,0.0000003
 0,0.00000041,0.00000285,0.00000053,-0.00000112,0.00000100,0.00000024,-
 0.00000195,0.00000086,0.00000024,-0.00000173,0.00000161,0.00000028,-0.
 00000200,0.00000090,0.00000023,0.00000004,0.00000031,0.00000139,-0.000
 00186,0.,0.00000014,-0.00000370,-0.00000112,0.00000002,-0.00000108,0.0
 0000023,-0.00000011,-0.00000030,-0.00000223,-0.00000007,0.00000026,-0.
 00000187,-0.00000015,0.00000063,-0.00000248,-0.00000042,-0.00000057,-0
 .00000230,-0.00000032,0.00000043,-0.00000028,-0.00000016,0.00000113,-0
 .00000222,-0.00000006,-0.00000081,-0.00000335,-0.00000059,0.00000031,-
 0.00000157,-0.00000032\\\@


 My opinions may have changed, but not the fact that I am right.
                       -- Ashleigh Brilliant
 Job cpu time:       1 days  0 hours 14 minutes  5.4 seconds.
 Elapsed time:       0 days  0 hours 47 minutes 57.4 seconds.
 File lengths (MBytes):  RWF=   2318 Int=      0 D2E=      0 Chk=     41 Scr=      1
 Normal termination of Gaussian 16 at Sat Jun 15 07:59:54 2019.
