 Entering Gaussian System, Link 0=g16
 Input=clay_new-glu_gluC6-bisCF3-sm-n12sx-custom-pcm_thf.gjf
 Output=clay_new-glu_gluC6-bisCF3-sm-n12sx-custom-pcm_thf.out
 Initial command:
 /home/ekwan/sw/g16/l1.exe "/scratch/users/ekwan/clay_new-glu_gluC6-bisCF3-sm-n12sx-custom-pcm_thf/Gau-36511.inp" -scrdir="/scratch/users/ekwan/clay_new-glu_gluC6-bisCF3-sm-n12sx-custom-pcm_thf/"
 Entering Link 1 = /home/ekwan/sw/g16/l1.exe PID=     36512.
  
 Copyright (c) 1988,1990,1992,1993,1995,1998,2003,2009,2016,
            Gaussian, Inc.  All Rights Reserved.
  
 This is part of the Gaussian(R) 16 program.  It is based on
 the Gaussian(R) 09 system (copyright 2009, Gaussian, Inc.),
 the Gaussian(R) 03 system (copyright 2003, Gaussian, Inc.),
 the Gaussian(R) 98 system (copyright 1998, Gaussian, Inc.),
 the Gaussian(R) 94 system (copyright 1995, Gaussian, Inc.),
 the Gaussian 92(TM) system (copyright 1992, Gaussian, Inc.),
 the Gaussian 90(TM) system (copyright 1990, Gaussian, Inc.),
 the Gaussian 88(TM) system (copyright 1988, Gaussian, Inc.),
 the Gaussian 86(TM) system (copyright 1986, Carnegie Mellon
 University), and the Gaussian 82(TM) system (copyright 1983,
 Carnegie Mellon University). Gaussian is a federally registered
 trademark of Gaussian, Inc.
  
 This software contains proprietary and confidential information,
 including trade secrets, belonging to Gaussian, Inc.
  
 This software is provided under written license and may be
 used, copied, transmitted, or stored only in accord with that
 written license.
  
 The following legend is applicable only to US Government
 contracts under FAR:
  
                    RESTRICTED RIGHTS LEGEND
  
 Use, reproduction and disclosure by the US Government is
 subject to restrictions as set forth in subparagraphs (a)
 and (c) of the Commercial Computer Software - Restricted
 Rights clause in FAR 52.227-19.
  
 Gaussian, Inc.
 340 Quinnipiac St., Bldg. 40, Wallingford CT 06492
  
  
 ---------------------------------------------------------------
 Warning -- This program may not be used in any manner that
 competes with the business of Gaussian, Inc. or will provide
 assistance to any competitor of Gaussian, Inc.  The licensee
 of this program is prohibited from giving any competitor of
 Gaussian, Inc. access to this program.  By using this program,
 the user acknowledges that Gaussian, Inc. is engaged in the
 business of creating and licensing software in the field of
 computational chemistry and represents and warrants to the
 licensee that it is not a competitor of Gaussian, Inc. and that
 it will not use this program in any manner prohibited above.
 ---------------------------------------------------------------
  

 Cite this work as:
 Gaussian 16, Revision A.03,
 M. J. Frisch, G. W. Trucks, H. B. Schlegel, G. E. Scuseria, 
 M. A. Robb, J. R. Cheeseman, G. Scalmani, V. Barone, 
 G. A. Petersson, H. Nakatsuji, X. Li, M. Caricato, A. V. Marenich, 
 J. Bloino, B. G. Janesko, R. Gomperts, B. Mennucci, H. P. Hratchian, 
 J. V. Ortiz, A. F. Izmaylov, J. L. Sonnenberg, D. Williams-Young, 
 F. Ding, F. Lipparini, F. Egidi, J. Goings, B. Peng, A. Petrone, 
 T. Henderson, D. Ranasinghe, V. G. Zakrzewski, J. Gao, N. Rega, 
 G. Zheng, W. Liang, M. Hada, M. Ehara, K. Toyota, R. Fukuda, 
 J. Hasegawa, M. Ishida, T. Nakajima, Y. Honda, O. Kitao, H. Nakai, 
 T. Vreven, K. Throssell, J. A. Montgomery, Jr., J. E. Peralta, 
 F. Ogliaro, M. J. Bearpark, J. J. Heyd, E. N. Brothers, K. N. Kudin, 
 V. N. Staroverov, T. A. Keith, R. Kobayashi, J. Normand, 
 K. Raghavachari, A. P. Rendell, J. C. Burant, S. S. Iyengar, 
 J. Tomasi, M. Cossi, J. M. Millam, M. Klene, C. Adamo, R. Cammi, 
 J. W. Ochterski, R. L. Martin, K. Morokuma, O. Farkas, 
 J. B. Foresman, and D. J. Fox, Gaussian, Inc., Wallingford CT, 2016.
 
 ******************************************
 Gaussian 16:  AS64L-G16RevA.03 25-Dec-2016
                15-Jun-2019 
 ******************************************
 %nprocshared=32
 Will use up to   32 processors via shared memory.
 %mem=48GB
 ----------------------------------------------------------------------
 #p opt freq=noraman pop=none 6-31g* scrf=(pcm,solvent=tetrahydrofuran)
  n12sx extrabasis
 ----------------------------------------------------------------------
 1/18=20,19=15,26=3,38=1/1,3;
 2/9=110,12=2,17=6,18=5,40=1/2;
 3/5=1,6=6,7=1,10=1,11=2,25=1,30=1,70=2201,71=1,72=20,74=-69/1,2,3;
 4//1;
 5/5=2,38=5,53=20/2;
 7//1,2,3,16;
 1/18=20,19=15,26=3/3(2);
 2/9=110/2;
 99//99;
 2/9=110/2;
 3/5=7,6=1,7=1,11=2,25=1,30=1,70=2205,71=1,72=20,74=-69,82=7/1,2,3;
 4/5=5,16=3,69=1/1;
 5/5=2,38=5,53=20/2;
 7//1,2,3,16;
 1/18=20,19=15,26=3/3(-5);
 2/9=110/2;
 99/9=1/99;
 Leave Link    1 at Sat Jun 15 08:57:11 2019, MaxMem=  6442450944 cpu:               3.1 elap:               0.1
 (Enter /home/ekwan/sw/g16/l101.exe)
 -----
 title
 -----
 Symbolic Z-matrix:
 Charge =  0 Multiplicity = 1
 6                     3.46194  -0.18954   0.76252 
 6                     3.35197  -0.45361  -0.73512 
 6                     1.89499  -0.37851  -1.20213 
 6                     1.28288   1.06454   0.58986 
 6                     2.71255   1.08768   1.12187 
 1                     1.8154   -0.43473  -2.28389 
 1                     3.87345   0.35984  -1.2548 
 1                     3.01112  -1.02184   1.31245 
 1                     0.72593   0.28197   1.11425 
 1                     3.23054   1.93762   0.67019 
 8                     1.26893   0.78297  -0.81313 
 8                     1.22599  -1.53965  -0.64934 
 8                     3.94628  -1.67955  -1.03786 
 8                     4.80377  -0.02565   1.14285 
 8                     2.64155   1.23712   2.51676 
 6                     0.5593    2.37776   0.82749 
 1                     0.43591   2.48012   1.90475 
 1                    -0.43352   2.33039   0.37044 
 8                     1.25399   3.51403   0.38896 
 16                   -0.06692  -2.15598  -1.37673 
 8                    -0.16187  -3.51298  -0.87853 
 8                     0.03245  -1.88588  -2.80201 
 6                    -1.42237  -1.22056  -0.71992 
 6                    -2.08567  -1.69495   0.40243 
 6                    -1.79044  -0.0374   -1.34455 
 6                    -3.14823  -0.95713   0.90686 
 1                    -1.78299  -2.62184   0.86612 
 6                    -2.84738   0.68981  -0.81619 
 1                    -1.26958   0.30593  -2.22508 
 6                    -3.52913   0.2349    0.30537 
 1                    -4.35427   0.8046    0.70572 
 6                     4.34293  -1.84266  -2.38072 
 1                     3.4877   -1.90219  -3.05897 
 1                     4.9936   -1.02367  -2.70076 
 1                     4.89387  -2.77794  -2.43684 
 6                     5.43539  -1.17702   1.65382 
 1                     6.44471  -0.8846    1.93651 
 1                     4.91569  -1.55068   2.54158 
 1                     5.48408  -1.97226   0.90979 
 6                     3.50951   2.20814   3.05525 
 1                     3.34882   2.21673   4.13152 
 1                     4.5526    1.96443   2.84825 
 1                     3.28505   3.20124   2.65491 
 6                     1.06944   3.85153  -0.96627 
 1                     1.48979   4.8454   -1.10813 
 1                     0.00546   3.87689  -1.2217 
 1                     1.57055   3.15125  -1.63651 
 6                    -3.92561  -1.48298   2.07842 
 9                    -3.15706  -2.22655   2.88159 
 9                    -4.9458   -2.25425   1.67874 
 9                    -4.44339  -0.48826   2.80802 
 6                    -3.21412   2.00754  -1.43205 
 9                    -2.49537   3.01064  -0.8933 
 9                    -4.50229   2.30318  -1.23876 
 9                    -2.97715   2.01973  -2.74688 
 
 ITRead=  0  0  0  0  0  0  0  0  0  0  0  0  0  0  0  0  0  0  0  0
 ITRead=  0  0  0  0  0  0  0  0  0  0  0  0  0  0  0  0  0  0  0  0
 ITRead=  0  0  0  0  0  0  0  0  0  0  0  0  0  0  0
 MicOpt= -1 -1 -1 -1 -1 -1 -1 -1 -1 -1 -1 -1 -1 -1 -1 -1 -1 -1 -1 -1
 MicOpt= -1 -1 -1 -1 -1 -1 -1 -1 -1 -1 -1 -1 -1 -1 -1 -1 -1 -1 -1 -1
 MicOpt= -1 -1 -1 -1 -1 -1 -1 -1 -1 -1 -1 -1 -1 -1 -1
 NAtoms=     55 NQM=       55 NQMF=       0 NMMI=      0 NMMIF=      0
                NMic=       0 NMicF=      0.
                    Isotopes and Nuclear Properties:
 (Nuclear quadrupole moments (NQMom) in fm**2, nuclear magnetic moments (NMagM)
  in nuclear magnetons)

  Atom         1           2           3           4           5           6           7           8           9          10
 IAtWgt=          12          12          12          12          12           1           1           1           1           1
 AtmWgt=  12.0000000  12.0000000  12.0000000  12.0000000  12.0000000   1.0078250   1.0078250   1.0078250   1.0078250   1.0078250
 NucSpn=           0           0           0           0           0           1           1           1           1           1
 AtZEff=   0.0000000   0.0000000   0.0000000   0.0000000   0.0000000   0.0000000   0.0000000   0.0000000   0.0000000   0.0000000
 NQMom=    0.0000000   0.0000000   0.0000000   0.0000000   0.0000000   0.0000000   0.0000000   0.0000000   0.0000000   0.0000000
 NMagM=    0.0000000   0.0000000   0.0000000   0.0000000   0.0000000   2.7928460   2.7928460   2.7928460   2.7928460   2.7928460
 AtZNuc=   6.0000000   6.0000000   6.0000000   6.0000000   6.0000000   1.0000000   1.0000000   1.0000000   1.0000000   1.0000000

  Atom        11          12          13          14          15          16          17          18          19          20
 IAtWgt=          16          16          16          16          16          12           1           1          16          32
 AtmWgt=  15.9949146  15.9949146  15.9949146  15.9949146  15.9949146  12.0000000   1.0078250   1.0078250  15.9949146  31.9720718
 NucSpn=           0           0           0           0           0           0           1           1           0           0
 AtZEff=   0.0000000   0.0000000   0.0000000   0.0000000   0.0000000   0.0000000   0.0000000   0.0000000   0.0000000   0.0000000
 NQMom=    0.0000000   0.0000000   0.0000000   0.0000000   0.0000000   0.0000000   0.0000000   0.0000000   0.0000000   0.0000000
 NMagM=    0.0000000   0.0000000   0.0000000   0.0000000   0.0000000   0.0000000   2.7928460   2.7928460   0.0000000   0.0000000
 AtZNuc=   8.0000000   8.0000000   8.0000000   8.0000000   8.0000000   6.0000000   1.0000000   1.0000000   8.0000000  16.0000000

  Atom        21          22          23          24          25          26          27          28          29          30
 IAtWgt=          16          16          12          12          12          12           1          12           1          12
 AtmWgt=  15.9949146  15.9949146  12.0000000  12.0000000  12.0000000  12.0000000   1.0078250  12.0000000   1.0078250  12.0000000
 NucSpn=           0           0           0           0           0           0           1           0           1           0
 AtZEff=   0.0000000   0.0000000   0.0000000   0.0000000   0.0000000   0.0000000   0.0000000   0.0000000   0.0000000   0.0000000
 NQMom=    0.0000000   0.0000000   0.0000000   0.0000000   0.0000000   0.0000000   0.0000000   0.0000000   0.0000000   0.0000000
 NMagM=    0.0000000   0.0000000   0.0000000   0.0000000   0.0000000   0.0000000   2.7928460   0.0000000   2.7928460   0.0000000
 AtZNuc=   8.0000000   8.0000000   6.0000000   6.0000000   6.0000000   6.0000000   1.0000000   6.0000000   1.0000000   6.0000000

  Atom        31          32          33          34          35          36          37          38          39          40
 IAtWgt=           1          12           1           1           1          12           1           1           1          12
 AtmWgt=   1.0078250  12.0000000   1.0078250   1.0078250   1.0078250  12.0000000   1.0078250   1.0078250   1.0078250  12.0000000
 NucSpn=           1           0           1           1           1           0           1           1           1           0
 AtZEff=   0.0000000   0.0000000   0.0000000   0.0000000   0.0000000   0.0000000   0.0000000   0.0000000   0.0000000   0.0000000
 NQMom=    0.0000000   0.0000000   0.0000000   0.0000000   0.0000000   0.0000000   0.0000000   0.0000000   0.0000000   0.0000000
 NMagM=    2.7928460   0.0000000   2.7928460   2.7928460   2.7928460   0.0000000   2.7928460   2.7928460   2.7928460   0.0000000
 AtZNuc=   1.0000000   6.0000000   1.0000000   1.0000000   1.0000000   6.0000000   1.0000000   1.0000000   1.0000000   6.0000000

  Atom        41          42          43          44          45          46          47          48          49          50
 IAtWgt=           1           1           1          12           1           1           1          12          19          19
 AtmWgt=   1.0078250   1.0078250   1.0078250  12.0000000   1.0078250   1.0078250   1.0078250  12.0000000  18.9984033  18.9984033
 NucSpn=           1           1           1           0           1           1           1           0           1           1
 AtZEff=   0.0000000   0.0000000   0.0000000   0.0000000   0.0000000   0.0000000   0.0000000   0.0000000   0.0000000   0.0000000
 NQMom=    0.0000000   0.0000000   0.0000000   0.0000000   0.0000000   0.0000000   0.0000000   0.0000000   0.0000000   0.0000000
 NMagM=    2.7928460   2.7928460   2.7928460   0.0000000   2.7928460   2.7928460   2.7928460   0.0000000   2.6288670   2.6288670
 AtZNuc=   1.0000000   1.0000000   1.0000000   6.0000000   1.0000000   1.0000000   1.0000000   6.0000000   9.0000000   9.0000000

  Atom        51          52          53          54          55
 IAtWgt=          19          12          19          19          19
 AtmWgt=  18.9984033  12.0000000  18.9984033  18.9984033  18.9984033
 NucSpn=           1           0           1           1           1
 AtZEff=   0.0000000   0.0000000   0.0000000   0.0000000   0.0000000
 NQMom=    0.0000000   0.0000000   0.0000000   0.0000000   0.0000000
 NMagM=    2.6288670   0.0000000   2.6288670   2.6288670   2.6288670
 AtZNuc=   9.0000000   6.0000000   9.0000000   9.0000000   9.0000000
 Leave Link  101 at Sat Jun 15 08:57:12 2019, MaxMem=  6442450944 cpu:              16.2 elap:               0.6
 (Enter /home/ekwan/sw/g16/l103.exe)

 GradGradGradGradGradGradGradGradGradGradGradGradGradGradGradGradGradGrad
 Berny optimization.
 Initialization pass.
                           ----------------------------
                           !    Initial Parameters    !
                           ! (Angstroms and Degrees)  !
 --------------------------                            --------------------------
 ! Name  Definition              Value          Derivative Info.                !
 --------------------------------------------------------------------------------
 ! R1    R(1,2)                  1.5247         estimate D2E/DX2                !
 ! R2    R(1,5)                  1.5238         estimate D2E/DX2                !
 ! R3    R(1,8)                  1.0947         estimate D2E/DX2                !
 ! R4    R(1,14)                 1.4043         estimate D2E/DX2                !
 ! R5    R(2,3)                  1.5318         estimate D2E/DX2                !
 ! R6    R(2,7)                  1.0971         estimate D2E/DX2                !
 ! R7    R(2,13)                 1.3956         estimate D2E/DX2                !
 ! R8    R(3,6)                  1.0861         estimate D2E/DX2                !
 ! R9    R(3,11)                 1.3756         estimate D2E/DX2                !
 ! R10   R(3,12)                 1.4496         estimate D2E/DX2                !
 ! R11   R(4,5)                  1.5256         estimate D2E/DX2                !
 ! R12   R(4,9)                  1.0943         estimate D2E/DX2                !
 ! R13   R(4,11)                 1.431          estimate D2E/DX2                !
 ! R14   R(4,16)                 1.5181         estimate D2E/DX2                !
 ! R15   R(5,10)                 1.093          estimate D2E/DX2                !
 ! R16   R(5,15)                 1.4047         estimate D2E/DX2                !
 ! R17   R(12,20)                1.6064         estimate D2E/DX2                !
 ! R18   R(13,32)                1.4097         estimate D2E/DX2                !
 ! R19   R(14,36)                1.4091         estimate D2E/DX2                !
 ! R20   R(15,40)                1.4093         estimate D2E/DX2                !
 ! R21   R(16,17)                1.0891         estimate D2E/DX2                !
 ! R22   R(16,18)                1.094          estimate D2E/DX2                !
 ! R23   R(16,19)                1.4021         estimate D2E/DX2                !
 ! R24   R(19,44)                1.4088         estimate D2E/DX2                !
 ! R25   R(20,21)                1.4487         estimate D2E/DX2                !
 ! R26   R(20,22)                1.454          estimate D2E/DX2                !
 ! R27   R(20,23)                1.773          estimate D2E/DX2                !
 ! R28   R(23,24)                1.3873         estimate D2E/DX2                !
 ! R29   R(23,25)                1.3876         estimate D2E/DX2                !
 ! R30   R(24,26)                1.3885         estimate D2E/DX2                !
 ! R31   R(24,27)                1.0797         estimate D2E/DX2                !
 ! R32   R(25,28)                1.3875         estimate D2E/DX2                !
 ! R33   R(25,29)                1.0791         estimate D2E/DX2                !
 ! R34   R(26,30)                1.3885         estimate D2E/DX2                !
 ! R35   R(26,48)                1.5011         estimate D2E/DX2                !
 ! R36   R(28,30)                1.3891         estimate D2E/DX2                !
 ! R37   R(28,52)                1.5001         estimate D2E/DX2                !
 ! R38   R(30,31)                1.0797         estimate D2E/DX2                !
 ! R39   R(32,33)                1.0932         estimate D2E/DX2                !
 ! R40   R(32,34)                1.0939         estimate D2E/DX2                !
 ! R41   R(32,35)                1.0869         estimate D2E/DX2                !
 ! R42   R(36,37)                1.0882         estimate D2E/DX2                !
 ! R43   R(36,38)                1.0945         estimate D2E/DX2                !
 ! R44   R(36,39)                1.0901         estimate D2E/DX2                !
 ! R45   R(40,41)                1.0882         estimate D2E/DX2                !
 ! R46   R(40,42)                1.091          estimate D2E/DX2                !
 ! R47   R(40,43)                1.094          estimate D2E/DX2                !
 ! R48   R(44,45)                1.0884         estimate D2E/DX2                !
 ! R49   R(44,46)                1.0945         estimate D2E/DX2                !
 ! R50   R(44,47)                1.0912         estimate D2E/DX2                !
 ! R51   R(48,49)                1.3374         estimate D2E/DX2                !
 ! R52   R(48,50)                1.3399         estimate D2E/DX2                !
 ! R53   R(48,51)                1.3379         estimate D2E/DX2                !
 ! R54   R(52,53)                1.3465         estimate D2E/DX2                !
 ! R55   R(52,54)                1.3357         estimate D2E/DX2                !
 ! R56   R(52,55)                1.3361         estimate D2E/DX2                !
 ! A1    A(2,1,5)              109.958          estimate D2E/DX2                !
 ! A2    A(2,1,8)              109.3931         estimate D2E/DX2                !
 ! A3    A(2,1,14)             110.803          estimate D2E/DX2                !
 ! A4    A(5,1,8)              108.4374         estimate D2E/DX2                !
 ! A5    A(5,1,14)             107.9525         estimate D2E/DX2                !
 ! A6    A(8,1,14)             110.2537         estimate D2E/DX2                !
 ! A7    A(1,2,3)              111.0737         estimate D2E/DX2                !
 ! A8    A(1,2,7)              107.6116         estimate D2E/DX2                !
 ! A9    A(1,2,13)             109.5416         estimate D2E/DX2                !
 ! A10   A(3,2,7)              105.7428         estimate D2E/DX2                !
 ! A11   A(3,2,13)             112.4554         estimate D2E/DX2                !
 ! A12   A(7,2,13)             110.2507         estimate D2E/DX2                !
 ! A13   A(2,3,6)              111.7651         estimate D2E/DX2                !
 ! A14   A(2,3,11)             112.8337         estimate D2E/DX2                !
 ! A15   A(2,3,12)             106.4644         estimate D2E/DX2                !
 ! A16   A(6,3,11)             106.9778         estimate D2E/DX2                !
 ! A17   A(6,3,12)             107.729          estimate D2E/DX2                !
 ! A18   A(11,3,12)            111.0044         estimate D2E/DX2                !
 ! A19   A(5,4,9)              108.7037         estimate D2E/DX2                !
 ! A20   A(5,4,11)             110.7324         estimate D2E/DX2                !
 ! A21   A(5,4,16)             112.2691         estimate D2E/DX2                !
 ! A22   A(9,4,11)             108.9126         estimate D2E/DX2                !
 ! A23   A(9,4,16)             107.5185         estimate D2E/DX2                !
 ! A24   A(11,4,16)            108.6039         estimate D2E/DX2                !
 ! A25   A(1,5,4)              111.4636         estimate D2E/DX2                !
 ! A26   A(1,5,10)             108.7389         estimate D2E/DX2                !
 ! A27   A(1,5,15)             110.3777         estimate D2E/DX2                !
 ! A28   A(4,5,10)             108.167          estimate D2E/DX2                !
 ! A29   A(4,5,15)             107.4897         estimate D2E/DX2                !
 ! A30   A(10,5,15)            110.5841         estimate D2E/DX2                !
 ! A31   A(3,11,4)             116.0361         estimate D2E/DX2                !
 ! A32   A(3,12,20)            120.4036         estimate D2E/DX2                !
 ! A33   A(2,13,32)            115.3468         estimate D2E/DX2                !
 ! A34   A(1,14,36)            115.5399         estimate D2E/DX2                !
 ! A35   A(5,15,40)            114.9358         estimate D2E/DX2                !
 ! A36   A(4,16,17)            106.8655         estimate D2E/DX2                !
 ! A37   A(4,16,18)            109.2505         estimate D2E/DX2                !
 ! A38   A(4,16,19)            114.5771         estimate D2E/DX2                !
 ! A39   A(17,16,18)           108.3297         estimate D2E/DX2                !
 ! A40   A(17,16,19)           106.817          estimate D2E/DX2                !
 ! A41   A(18,16,19)           110.7356         estimate D2E/DX2                !
 ! A42   A(16,19,44)           115.4744         estimate D2E/DX2                !
 ! A43   A(12,20,21)           104.8578         estimate D2E/DX2                !
 ! A44   A(12,20,22)           108.5159         estimate D2E/DX2                !
 ! A45   A(12,20,23)           104.1893         estimate D2E/DX2                !
 ! A46   A(21,20,22)           121.0363         estimate D2E/DX2                !
 ! A47   A(21,20,23)           108.4631         estimate D2E/DX2                !
 ! A48   A(22,20,23)           108.5033         estimate D2E/DX2                !
 ! A49   A(20,23,24)           118.999          estimate D2E/DX2                !
 ! A50   A(20,23,25)           119.0692         estimate D2E/DX2                !
 ! A51   A(24,23,25)           121.9317         estimate D2E/DX2                !
 ! A52   A(23,24,26)           118.5606         estimate D2E/DX2                !
 ! A53   A(23,24,27)           120.4613         estimate D2E/DX2                !
 ! A54   A(26,24,27)           120.9767         estimate D2E/DX2                !
 ! A55   A(23,25,28)           118.5243         estimate D2E/DX2                !
 ! A56   A(23,25,29)           120.7005         estimate D2E/DX2                !
 ! A57   A(28,25,29)           120.7742         estimate D2E/DX2                !
 ! A58   A(24,26,30)           120.5818         estimate D2E/DX2                !
 ! A59   A(24,26,48)           119.5839         estimate D2E/DX2                !
 ! A60   A(30,26,48)           119.7868         estimate D2E/DX2                !
 ! A61   A(25,28,30)           120.6428         estimate D2E/DX2                !
 ! A62   A(25,28,52)           119.3609         estimate D2E/DX2                !
 ! A63   A(30,28,52)           119.9449         estimate D2E/DX2                !
 ! A64   A(26,30,28)           119.7544         estimate D2E/DX2                !
 ! A65   A(26,30,31)           120.1345         estimate D2E/DX2                !
 ! A66   A(28,30,31)           120.1108         estimate D2E/DX2                !
 ! A67   A(13,32,33)           112.1605         estimate D2E/DX2                !
 ! A68   A(13,32,34)           111.0665         estimate D2E/DX2                !
 ! A69   A(13,32,35)           106.9399         estimate D2E/DX2                !
 ! A70   A(33,32,34)           108.9418         estimate D2E/DX2                !
 ! A71   A(33,32,35)           108.5217         estimate D2E/DX2                !
 ! A72   A(34,32,35)           109.1254         estimate D2E/DX2                !
 ! A73   A(14,36,37)           106.8801         estimate D2E/DX2                !
 ! A74   A(14,36,38)           111.1155         estimate D2E/DX2                !
 ! A75   A(14,36,39)           111.6281         estimate D2E/DX2                !
 ! A76   A(37,36,38)           108.7506         estimate D2E/DX2                !
 ! A77   A(37,36,39)           109.3852         estimate D2E/DX2                !
 ! A78   A(38,36,39)           109.0131         estimate D2E/DX2                !
 ! A79   A(15,40,41)           107.0006         estimate D2E/DX2                !
 ! A80   A(15,40,42)           111.2482         estimate D2E/DX2                !
 ! A81   A(15,40,43)           111.0543         estimate D2E/DX2                !
 ! A82   A(41,40,42)           109.3052         estimate D2E/DX2                !
 ! A83   A(41,40,43)           108.9328         estimate D2E/DX2                !
 ! A84   A(42,40,43)           109.2386         estimate D2E/DX2                !
 ! A85   A(19,44,45)           107.0712         estimate D2E/DX2                !
 ! A86   A(19,44,46)           110.9413         estimate D2E/DX2                !
 ! A87   A(19,44,47)           112.1469         estimate D2E/DX2                !
 ! A88   A(45,44,46)           108.8962         estimate D2E/DX2                !
 ! A89   A(45,44,47)           109.1836         estimate D2E/DX2                !
 ! A90   A(46,44,47)           108.5386         estimate D2E/DX2                !
 ! A91   A(26,48,49)           111.4603         estimate D2E/DX2                !
 ! A92   A(26,48,50)           111.2927         estimate D2E/DX2                !
 ! A93   A(26,48,51)           111.4433         estimate D2E/DX2                !
 ! A94   A(49,48,50)           107.2557         estimate D2E/DX2                !
 ! A95   A(49,48,51)           107.9557         estimate D2E/DX2                !
 ! A96   A(50,48,51)           107.2165         estimate D2E/DX2                !
 ! A97   A(28,52,53)           111.0783         estimate D2E/DX2                !
 ! A98   A(28,52,54)           111.7646         estimate D2E/DX2                !
 ! A99   A(28,52,55)           111.6339         estimate D2E/DX2                !
 ! A100  A(53,52,54)           106.9785         estimate D2E/DX2                !
 ! A101  A(53,52,55)           106.9947         estimate D2E/DX2                !
 ! A102  A(54,52,55)           108.146          estimate D2E/DX2                !
 ! D1    D(5,1,2,3)            -50.3478         estimate D2E/DX2                !
 ! D2    D(5,1,2,7)             64.9541         estimate D2E/DX2                !
 ! D3    D(5,1,2,13)          -175.177          estimate D2E/DX2                !
 ! D4    D(8,1,2,3)             68.6351         estimate D2E/DX2                !
 ! D5    D(8,1,2,7)           -176.063          estimate D2E/DX2                !
 ! D6    D(8,1,2,13)           -56.1941         estimate D2E/DX2                !
 ! D7    D(14,1,2,3)          -169.6066         estimate D2E/DX2                !
 ! D8    D(14,1,2,7)           -54.3047         estimate D2E/DX2                !
 ! D9    D(14,1,2,13)           65.5642         estimate D2E/DX2                !
 ! D10   D(2,1,5,4)             52.0762         estimate D2E/DX2                !
 ! D11   D(2,1,5,10)           -67.0775         estimate D2E/DX2                !
 ! D12   D(2,1,5,15)           171.4521         estimate D2E/DX2                !
 ! D13   D(8,1,5,4)            -67.4908         estimate D2E/DX2                !
 ! D14   D(8,1,5,10)           173.3555         estimate D2E/DX2                !
 ! D15   D(8,1,5,15)            51.885          estimate D2E/DX2                !
 ! D16   D(14,1,5,4)           173.0633         estimate D2E/DX2                !
 ! D17   D(14,1,5,10)           53.9095         estimate D2E/DX2                !
 ! D18   D(14,1,5,15)          -67.5609         estimate D2E/DX2                !
 ! D19   D(2,1,14,36)          -96.3892         estimate D2E/DX2                !
 ! D20   D(5,1,14,36)          143.152          estimate D2E/DX2                !
 ! D21   D(8,1,14,36)           24.8628         estimate D2E/DX2                !
 ! D22   D(1,2,3,6)            172.5096         estimate D2E/DX2                !
 ! D23   D(1,2,3,11)            51.895          estimate D2E/DX2                !
 ! D24   D(1,2,3,12)           -70.1094         estimate D2E/DX2                !
 ! D25   D(7,2,3,6)             56.0535         estimate D2E/DX2                !
 ! D26   D(7,2,3,11)           -64.5611         estimate D2E/DX2                !
 ! D27   D(7,2,3,12)           173.4346         estimate D2E/DX2                !
 ! D28   D(13,2,3,6)           -64.3195         estimate D2E/DX2                !
 ! D29   D(13,2,3,11)          175.0658         estimate D2E/DX2                !
 ! D30   D(13,2,3,12)           53.0615         estimate D2E/DX2                !
 ! D31   D(1,2,13,32)         -158.4661         estimate D2E/DX2                !
 ! D32   D(3,2,13,32)           77.5096         estimate D2E/DX2                !
 ! D33   D(7,2,13,32)          -40.2267         estimate D2E/DX2                !
 ! D34   D(2,3,11,4)           -55.5157         estimate D2E/DX2                !
 ! D35   D(6,3,11,4)          -178.8289         estimate D2E/DX2                !
 ! D36   D(12,3,11,4)           63.8952         estimate D2E/DX2                !
 ! D37   D(2,3,12,20)         -153.67           estimate D2E/DX2                !
 ! D38   D(6,3,12,20)          -33.6424         estimate D2E/DX2                !
 ! D39   D(11,3,12,20)          83.1738         estimate D2E/DX2                !
 ! D40   D(9,4,5,1)             66.3631         estimate D2E/DX2                !
 ! D41   D(9,4,5,10)          -174.1434         estimate D2E/DX2                !
 ! D42   D(9,4,5,15)           -54.7133         estimate D2E/DX2                !
 ! D43   D(11,4,5,1)           -53.2432         estimate D2E/DX2                !
 ! D44   D(11,4,5,10)           66.2503         estimate D2E/DX2                !
 ! D45   D(11,4,5,15)         -174.3196         estimate D2E/DX2                !
 ! D46   D(16,4,5,1)          -174.8177         estimate D2E/DX2                !
 ! D47   D(16,4,5,10)          -55.3242         estimate D2E/DX2                !
 ! D48   D(16,4,5,15)           64.1059         estimate D2E/DX2                !
 ! D49   D(5,4,11,3)            55.9548         estimate D2E/DX2                !
 ! D50   D(9,4,11,3)           -63.5259         estimate D2E/DX2                !
 ! D51   D(16,4,11,3)          179.662          estimate D2E/DX2                !
 ! D52   D(5,4,16,17)          -66.7127         estimate D2E/DX2                !
 ! D53   D(5,4,16,18)          176.2896         estimate D2E/DX2                !
 ! D54   D(5,4,16,19)           51.3924         estimate D2E/DX2                !
 ! D55   D(9,4,16,17)           52.801          estimate D2E/DX2                !
 ! D56   D(9,4,16,18)          -64.1966         estimate D2E/DX2                !
 ! D57   D(9,4,16,19)          170.9061         estimate D2E/DX2                !
 ! D58   D(11,4,16,17)         170.5036         estimate D2E/DX2                !
 ! D59   D(11,4,16,18)          53.506          estimate D2E/DX2                !
 ! D60   D(11,4,16,19)         -71.3913         estimate D2E/DX2                !
 ! D61   D(1,5,15,40)          104.8549         estimate D2E/DX2                !
 ! D62   D(4,5,15,40)         -133.3891         estimate D2E/DX2                !
 ! D63   D(10,5,15,40)         -15.5148         estimate D2E/DX2                !
 ! D64   D(3,12,20,21)         159.7114         estimate D2E/DX2                !
 ! D65   D(3,12,20,22)          29.0656         estimate D2E/DX2                !
 ! D66   D(3,12,20,23)         -86.3953         estimate D2E/DX2                !
 ! D67   D(2,13,32,33)         -68.0977         estimate D2E/DX2                !
 ! D68   D(2,13,32,34)          54.076          estimate D2E/DX2                !
 ! D69   D(2,13,32,35)         173.0461         estimate D2E/DX2                !
 ! D70   D(1,14,36,37)        -177.8497         estimate D2E/DX2                !
 ! D71   D(1,14,36,38)         -59.3415         estimate D2E/DX2                !
 ! D72   D(1,14,36,39)          62.583          estimate D2E/DX2                !
 ! D73   D(5,15,40,41)         179.9494         estimate D2E/DX2                !
 ! D74   D(5,15,40,42)         -60.7228         estimate D2E/DX2                !
 ! D75   D(5,15,40,43)          61.1823         estimate D2E/DX2                !
 ! D76   D(4,16,19,44)          85.8233         estimate D2E/DX2                !
 ! D77   D(17,16,19,44)       -156.0442         estimate D2E/DX2                !
 ! D78   D(18,16,19,44)        -38.2879         estimate D2E/DX2                !
 ! D79   D(16,19,44,45)        168.5589         estimate D2E/DX2                !
 ! D80   D(16,19,44,46)         49.8564         estimate D2E/DX2                !
 ! D81   D(16,19,44,47)        -71.6979         estimate D2E/DX2                !
 ! D82   D(12,20,23,24)        -92.0848         estimate D2E/DX2                !
 ! D83   D(12,20,23,25)         88.0436         estimate D2E/DX2                !
 ! D84   D(21,20,23,24)         19.2158         estimate D2E/DX2                !
 ! D85   D(21,20,23,25)       -160.6558         estimate D2E/DX2                !
 ! D86   D(22,20,23,24)        152.4455         estimate D2E/DX2                !
 ! D87   D(22,20,23,25)        -27.426          estimate D2E/DX2                !
 ! D88   D(20,23,24,26)       -179.819          estimate D2E/DX2                !
 ! D89   D(20,23,24,27)         -0.2376         estimate D2E/DX2                !
 ! D90   D(25,23,24,26)          0.0487         estimate D2E/DX2                !
 ! D91   D(25,23,24,27)        179.6301         estimate D2E/DX2                !
 ! D92   D(20,23,25,28)       -179.6069         estimate D2E/DX2                !
 ! D93   D(20,23,25,29)          0.7513         estimate D2E/DX2                !
 ! D94   D(24,23,25,28)          0.5255         estimate D2E/DX2                !
 ! D95   D(24,23,25,29)       -179.1163         estimate D2E/DX2                !
 ! D96   D(23,24,26,30)         -0.5266         estimate D2E/DX2                !
 ! D97   D(23,24,26,48)        176.9623         estimate D2E/DX2                !
 ! D98   D(27,24,26,30)        179.8942         estimate D2E/DX2                !
 ! D99   D(27,24,26,48)         -2.6169         estimate D2E/DX2                !
 ! D100  D(23,25,28,30)         -0.632          estimate D2E/DX2                !
 ! D101  D(23,25,28,52)        176.758          estimate D2E/DX2                !
 ! D102  D(29,25,28,30)        179.0095         estimate D2E/DX2                !
 ! D103  D(29,25,28,52)         -3.6005         estimate D2E/DX2                !
 ! D104  D(24,26,30,28)          0.4216         estimate D2E/DX2                !
 ! D105  D(24,26,30,31)       -179.7859         estimate D2E/DX2                !
 ! D106  D(48,26,30,28)       -177.0622         estimate D2E/DX2                !
 ! D107  D(48,26,30,31)          2.7302         estimate D2E/DX2                !
 ! D108  D(24,26,48,49)         30.4574         estimate D2E/DX2                !
 ! D109  D(24,26,48,50)        -89.2318         estimate D2E/DX2                !
 ! D110  D(24,26,48,51)        151.14           estimate D2E/DX2                !
 ! D111  D(30,26,48,49)       -152.0335         estimate D2E/DX2                !
 ! D112  D(30,26,48,50)         88.2772         estimate D2E/DX2                !
 ! D113  D(30,26,48,51)        -31.3509         estimate D2E/DX2                !
 ! D114  D(25,28,30,26)          0.1703         estimate D2E/DX2                !
 ! D115  D(25,28,30,31)       -179.6222         estimate D2E/DX2                !
 ! D116  D(52,28,30,26)       -177.2045         estimate D2E/DX2                !
 ! D117  D(52,28,30,31)          3.003          estimate D2E/DX2                !
 ! D118  D(25,28,52,53)        -87.17           estimate D2E/DX2                !
 ! D119  D(25,28,52,54)        153.4329         estimate D2E/DX2                !
 ! D120  D(25,28,52,55)         32.1606         estimate D2E/DX2                !
 ! D121  D(30,28,52,53)         90.2385         estimate D2E/DX2                !
 ! D122  D(30,28,52,54)        -29.1586         estimate D2E/DX2                !
 ! D123  D(30,28,52,55)       -150.4309         estimate D2E/DX2                !
 --------------------------------------------------------------------------------
 Trust Radius=3.00D-01 FncErr=1.00D-07 GrdErr=1.00D-06 EigMax=2.50D+02 EigMin=1.00D-04
 Number of steps in this run=    291 maximum allowed number of steps=    330.
 GradGradGradGradGradGradGradGradGradGradGradGradGradGradGradGradGradGrad

 Leave Link  103 at Sat Jun 15 08:57:12 2019, MaxMem=  6442450944 cpu:               1.6 elap:               0.1
 (Enter /home/ekwan/sw/g16/l202.exe)
 Stoichiometry    C18H22F6O8S
 Framework group  C1[X(C18H22F6O8S)]
 Deg. of freedom   159
 Full point group                 C1      NOp   1
 Largest Abelian subgroup         C1      NOp   1
 Largest concise Abelian subgroup C1      NOp   1
                         Standard orientation:                         
 ---------------------------------------------------------------------
 Center     Atomic      Atomic             Coordinates (Angstroms)
 Number     Number       Type             X           Y           Z
 ---------------------------------------------------------------------
      1          6           0        3.461943   -0.189536    0.762522
      2          6           0        3.351969   -0.453613   -0.735118
      3          6           0        1.894988   -0.378506   -1.202132
      4          6           0        1.282884    1.064540    0.589859
      5          6           0        2.712554    1.087679    1.121867
      6          1           0        1.815397   -0.434730   -2.283887
      7          1           0        3.873448    0.359837   -1.254801
      8          1           0        3.011124   -1.021840    1.312453
      9          1           0        0.725932    0.281969    1.114251
     10          1           0        3.230541    1.937618    0.670192
     11          8           0        1.268930    0.782970   -0.813131
     12          8           0        1.225985   -1.539645   -0.649343
     13          8           0        3.946279   -1.679548   -1.037856
     14          8           0        4.803770   -0.025648    1.142846
     15          8           0        2.641554    1.237119    2.516762
     16          6           0        0.559303    2.377764    0.827488
     17          1           0        0.435912    2.480122    1.904749
     18          1           0       -0.433521    2.330387    0.370435
     19          8           0        1.253986    3.514033    0.388964
     20         16           0       -0.066924   -2.155983   -1.376731
     21          8           0       -0.161867   -3.512975   -0.878532
     22          8           0        0.032447   -1.885880   -2.802008
     23          6           0       -1.422373   -1.220562   -0.719915
     24          6           0       -2.085667   -1.694950    0.402426
     25          6           0       -1.790441   -0.037398   -1.344548
     26          6           0       -3.148226   -0.957126    0.906862
     27          1           0       -1.782988   -2.621844    0.866122
     28          6           0       -2.847383    0.689807   -0.816189
     29          1           0       -1.269578    0.305932   -2.225079
     30          6           0       -3.529130    0.234904    0.305369
     31          1           0       -4.354272    0.804603    0.705724
     32          6           0        4.342934   -1.842660   -2.380720
     33          1           0        3.487700   -1.902189   -3.058970
     34          1           0        4.993596   -1.023669   -2.700763
     35          1           0        4.893874   -2.777935   -2.436837
     36          6           0        5.435386   -1.177024    1.653815
     37          1           0        6.444709   -0.884598    1.936510
     38          1           0        4.915694   -1.550678    2.541579
     39          1           0        5.484075   -1.972255    0.909785
     40          6           0        3.509512    2.208144    3.055254
     41          1           0        3.348815    2.216729    4.131517
     42          1           0        4.552601    1.964429    2.848248
     43          1           0        3.285051    3.201237    2.654906
     44          6           0        1.069439    3.851527   -0.966267
     45          1           0        1.489786    4.845403   -1.108132
     46          1           0        0.005464    3.876891   -1.221704
     47          1           0        1.570551    3.151252   -1.636509
     48          6           0       -3.925614   -1.482979    2.078420
     49          9           0       -3.157061   -2.226553    2.881586
     50          9           0       -4.945800   -2.254254    1.678737
     51          9           0       -4.443386   -0.488258    2.808017
     52          6           0       -3.214123    2.007545   -1.432048
     53          9           0       -2.495366    3.010642   -0.893295
     54          9           0       -4.502293    2.303176   -1.238758
     55          9           0       -2.977152    2.019728   -2.746884
 ---------------------------------------------------------------------
 Rotational constants (GHZ):           0.1522270           0.0824015           0.0760148
 Leave Link  202 at Sat Jun 15 08:57:12 2019, MaxMem=  6442450944 cpu:               2.8 elap:               0.1
 (Enter /home/ekwan/sw/g16/l301.exe)
 Standard basis: 6-31G(d) (6D, 7F)
 Centers:      12     22     21
 SP 1 1.00
     Exponent=  8.4500000000D-02 Coefficients=  1.0000000000D+00  1.0000000000D+00
 ****
 Ernie: Thresh=  0.10000D-02 Tol=  0.10000D-05 Strict=F.
 There are   555 symmetry adapted cartesian basis functions of A   symmetry.
 There are   555 symmetry adapted basis functions of A   symmetry.
   555 basis functions,  1048 primitive gaussians,   555 cartesian basis functions
   132 alpha electrons      132 beta electrons
       nuclear repulsion energy      4309.4433101641 Hartrees.
 IExCor= 5547 DFT=T Ex+Corr=N12SX ExCW=0 ScaHFX=  0.250000
 ScaDFX=  1.000000  1.000000  1.000000  1.000000 ScalE2=  1.000000  1.000000
 IRadAn=      5 IRanWt=     -1 IRanGd=            0 ICorTp=0 IEmpDi=  4
 HFx  wShort=  0.110000 wLong=  0.000000 cFull=  0.000000 cShort=  1.000000 cLong=  0.000000
 DFx  wShort=  0.110000 wLong=  0.000000 cFull=  0.000000 cShort=  1.000000 cLong=  0.000000
 NAtoms=   55 NActive=   55 NUniq=   55 SFac= 1.00D+00 NAtFMM=   60 NAOKFM=F Big=F
 Integral buffers will be    131072 words long.
 Raffenetti 2 integral format.
 Two-electron integral symmetry is turned on.
 ------------------------------------------------------------------------------
 Polarizable Continuum Model (PCM)
 =================================
 Model                : PCM.
 Atomic radii         : UFF (Universal Force Field).
 Polarization charges : Total charges.
 Charge compensation  : None.
 Solution method      : On-the-fly selection.
 Cavity type          : Scaled VdW (van der Waals Surface) (Alpha=1.100).
 Cavity algorithm     : GePol (No added spheres)
                        Default sphere list used, NSphG=   55.
                        Lebedev-Laikov grids with approx.  5.0 points / Ang**2.
                        Smoothing algorithm: York/Karplus (Gamma=1.0000).
                        Polarization charges: spherical gaussians, with
                                              point-specific exponents (IZeta= 3).
                        Self-potential: point-specific (ISelfS= 7).
                        Self-field    : sphere-specific E.n sum rule (ISelfD= 2).
 1st derivatives      : Analytical E(r).r(x)/FMM algorithm (CHGder, D1EAlg=3).
                        Cavity 1st derivative terms included.
 Solvent              : TetraHydroFuran, Eps=   7.425700 Eps(inf)=   1.974025
 ------------------------------------------------------------------------------
 GePol: Number of generator spheres                  =      55
 GePol: Total number of spheres                      =      55
 GePol: Number of exposed spheres                    =      55 (100.00%)
 GePol: Number of points                             =    3947
 GePol: Average weight of points                     =       0.13
 GePol: Minimum weight of points                     =   0.15D-10
 GePol: Maximum weight of points                     =    0.20577
 GePol: Number of points with low weight             =     251
 GePol: Fraction of low-weight points (<1% of avg)   =       6.36%
 GePol: Cavity surface area                          =    500.181 Ang**2
 GePol: Cavity volume                                =    575.248 Ang**3
 Leave Link  301 at Sat Jun 15 08:57:13 2019, MaxMem=  6442450944 cpu:               5.8 elap:               0.2
 (Enter /home/ekwan/sw/g16/l302.exe)
 NPDir=0 NMtPBC=     1 NCelOv=     1 NCel=       1 NClECP=     1 NCelD=      1
         NCelK=      1 NCelE2=     1 NClLst=     1 CellRange=     0.0.
 One-electron integrals computed using PRISM.
 One-electron integral symmetry used in STVInt
 NBasis=   555 RedAO= T EigKep=  3.88D-04  NBF=   555
 NBsUse=   555 1.00D-06 EigRej= -1.00D+00 NBFU=   555
 Precomputing XC quadrature grid using
 IXCGrd= 4 IRadAn=           5 IRanWt=          -1 IRanGd=           0 AccXCQ= 0.00D+00.
 Generated NRdTot=       0 NPtTot=           0 NUsed=           0 NTot=          32
 NSgBfM=   544   543   544   544   544 MxSgAt=    55 MxSgA2=    55.
 Leave Link  302 at Sat Jun 15 08:57:15 2019, MaxMem=  6442450944 cpu:              58.5 elap:               1.9
 (Enter /home/ekwan/sw/g16/l303.exe)
 DipDrv:  MaxL=1.
 Leave Link  303 at Sat Jun 15 08:57:16 2019, MaxMem=  6442450944 cpu:              33.2 elap:               1.3
 (Enter /home/ekwan/sw/g16/l401.exe)
 ExpMin= 8.45D-02 ExpMax= 2.19D+04 ExpMxC= 3.30D+03 IAcc=3 IRadAn=         5 AccDes= 0.00D+00
 Harris functional with IExCor= 5547 and IRadAn=       5 diagonalized for initial guess.
 HarFok:  IExCor= 5547 AccDes= 0.00D+00 IRadAn=         5 IDoV= 1 UseB2=F ITyADJ=14
 ICtDFT=  3500011 ScaDFX=  1.000000  1.000000  1.000000  1.000000
 FoFCou: FMM=F IPFlag=           0 FMFlag=      100000 FMFlg1=           0
         NFxFlg=           0 DoJE=T BraDBF=F KetDBF=T FulRan=T
         wScrn=  0.000000 ICntrl=       500 IOpCl=  0 I1Cent=   200000004 NGrid=           0
         NMat0=    1 NMatS0=      1 NMatT0=    0 NMatD0=    1 NMtDS0=    0 NMtDT0=    0
 Petite list used in FoFCou.
 Harris En= -2239.06405721157    
 JPrj=0 DoOrth=F DoCkMO=F.
 Leave Link  401 at Sat Jun 15 08:57:22 2019, MaxMem=  6442450944 cpu:             189.0 elap:               6.0
 (Enter /home/ekwan/sw/g16/l502.exe)
 Integral symmetry usage will be decided dynamically.
 Closed shell SCF:
 Using DIIS extrapolation, IDIIS=  1040.
 NGot=  6442450944 LenX=  6441811192 LenY=  6441502612
 Requested convergence on RMS density matrix=1.00D-08 within 128 cycles.
 Requested convergence on MAX density matrix=1.00D-06.
 Requested convergence on             energy=1.00D-06.
 No special actions if energy rises.
 Fock matrices will be formed incrementally for  20 cycles.

 Cycle   1  Pass 1  IDiag  1:
 FoFJK:  IHMeth= 1 ICntrl=       0 DoSepK=T KAlg= 0 I1Cent=           0 FoldK=F
 IRaf=         1 NMat=       1 IRICut=       1 DoRegI=T DoRafI=F ISym2E= 0 IDoP0=0 IntGTp=1.
 FoFCou: FMM=F IPFlag=           0 FMFlag=      100000 FMFlg1=           0
         NFxFlg=           0 DoJE=T BraDBF=F KetDBF=F FulRan=T
         wScrn=  0.000000 ICntrl=       500 IOpCl=  0 I1Cent=           0 NGrid=           0
         NMat0=    1 NMatS0=      1 NMatT0=    0 NMatD0=    1 NMtDS0=    0 NMtDT0=    0
 Symmetry not used in FoFCou.
 Inv3:  Mode=1 IEnd=    46736427.
 Iteration    1 A*A^-1 deviation from unit magnitude is 6.66D-15 for   3937.
 Iteration    1 A*A^-1 deviation from orthogonality  is 3.79D-15 for   3936   2738.
 Iteration    1 A^-1*A deviation from unit magnitude is 6.44D-15 for   3937.
 Iteration    1 A^-1*A deviation from orthogonality  is 2.44D-15 for   3937   2829.
 E= -2296.37563977570    
 DIIS: error= 6.20D-02 at cycle   1 NSaved=   1.
 NSaved= 1 IEnMin= 1 EnMin= -2296.37563977570     IErMin= 1 ErrMin= 6.20D-02
 ErrMax= 6.20D-02  0.00D+00 EMaxC= 1.00D-01 BMatC= 2.43D+00 BMatP= 2.43D+00
 IDIUse=3 WtCom= 3.80D-01 WtEn= 6.20D-01
 Coeff-Com:  0.100D+01
 Coeff-En:   0.100D+01
 Coeff:      0.100D+01
 Gap=     0.260 Goal=   None    Shift=    0.000
 GapD=    0.260 DampG=1.000 DampE=0.500 DampFc=0.5000 IDamp=-1.
 Damping current iteration by 5.00D-01
 RMSDP=4.57D-03 MaxDP=5.88D-01              OVMax= 2.89D-01

 Cycle   2  Pass 1  IDiag  1:
 RMSU=  2.28D-03    CP:  9.94D-01
 E= -2296.71540516964     Delta-E=       -0.339765393946 Rises=F Damp=T
 DIIS: error= 3.23D-02 at cycle   2 NSaved=   2.
 NSaved= 2 IEnMin= 2 EnMin= -2296.71540516964     IErMin= 2 ErrMin= 3.23D-02
 ErrMax= 3.23D-02  0.00D+00 EMaxC= 1.00D-01 BMatC= 3.89D-01 BMatP= 2.43D+00
 IDIUse=3 WtCom= 6.77D-01 WtEn= 3.23D-01
 Coeff-Com: -0.166D+00 0.117D+01
 Coeff-En:   0.133D+00 0.867D+00
 Coeff:     -0.695D-01 0.107D+01
 Gap=     0.371 Goal=   None    Shift=    0.000
 RMSDP=1.55D-03 MaxDP=1.30D-01 DE=-3.40D-01 OVMax= 1.95D-01

 Cycle   3  Pass 1  IDiag  1:
 RMSU=  1.51D-03    CP:  9.96D-01  8.49D-01
 E= -2297.01932314834     Delta-E=       -0.303917978691 Rises=F Damp=F
 DIIS: error= 1.20D-02 at cycle   3 NSaved=   3.
 NSaved= 3 IEnMin= 3 EnMin= -2297.01932314834     IErMin= 3 ErrMin= 1.20D-02
 ErrMax= 1.20D-02  0.00D+00 EMaxC= 1.00D-01 BMatC= 2.53D-01 BMatP= 3.89D-01
 IDIUse=3 WtCom= 8.80D-01 WtEn= 1.20D-01
 Coeff-Com: -0.211D+00 0.605D+00 0.605D+00
 Coeff-En:   0.000D+00 0.000D+00 0.100D+01
 Coeff:     -0.185D+00 0.532D+00 0.653D+00
 Gap=     0.164 Goal=   None    Shift=    0.000
 RMSDP=1.37D-03 MaxDP=7.77D-02 DE=-3.04D-01 OVMax= 1.22D-01

 Cycle   4  Pass 1  IDiag  1:
 RMSU=  7.79D-04    CP:  9.95D-01  1.12D+00  3.84D-01
 E= -2297.14688819850     Delta-E=       -0.127565050168 Rises=F Damp=F
 DIIS: error= 9.05D-03 at cycle   4 NSaved=   4.
 NSaved= 4 IEnMin= 4 EnMin= -2297.14688819850     IErMin= 4 ErrMin= 9.05D-03
 ErrMax= 9.05D-03  0.00D+00 EMaxC= 1.00D-01 BMatC= 9.35D-02 BMatP= 2.53D-01
 IDIUse=3 WtCom= 9.09D-01 WtEn= 9.05D-02
 Coeff-Com: -0.109D+00 0.256D+00 0.434D+00 0.419D+00
 Coeff-En:   0.000D+00 0.000D+00 0.290D+00 0.710D+00
 Coeff:     -0.992D-01 0.233D+00 0.421D+00 0.446D+00
 Gap=     0.168 Goal=   None    Shift=    0.000
 RMSDP=6.63D-04 MaxDP=4.16D-02 DE=-1.28D-01 OVMax= 5.26D-02

 Cycle   5  Pass 1  IDiag  1:
 RMSU=  2.59D-04    CP:  9.92D-01  1.09D+00  6.19D-01  3.73D-01
 E= -2297.21513891430     Delta-E=       -0.068250715794 Rises=F Damp=F
 DIIS: error= 1.47D-03 at cycle   5 NSaved=   5.
 NSaved= 5 IEnMin= 5 EnMin= -2297.21513891430     IErMin= 5 ErrMin= 1.47D-03
 ErrMax= 1.47D-03  0.00D+00 EMaxC= 1.00D-01 BMatC= 4.39D-03 BMatP= 9.35D-02
 IDIUse=3 WtCom= 9.85D-01 WtEn= 1.47D-02
 Coeff-Com: -0.377D-01 0.793D-01 0.185D+00 0.261D+00 0.512D+00
 Coeff-En:   0.000D+00 0.000D+00 0.000D+00 0.000D+00 0.100D+01
 Coeff:     -0.372D-01 0.781D-01 0.182D+00 0.257D+00 0.520D+00
 Gap=     0.158 Goal=   None    Shift=    0.000
 RMSDP=1.46D-04 MaxDP=7.28D-03 DE=-6.83D-02 OVMax= 1.07D-02

 Cycle   6  Pass 1  IDiag  1:
 RMSU=  6.31D-05    CP:  9.93D-01  1.09D+00  6.07D-01  4.77D-01  6.10D-01
 E= -2297.21865071751     Delta-E=       -0.003511803210 Rises=F Damp=F
 DIIS: error= 3.12D-04 at cycle   6 NSaved=   6.
 NSaved= 6 IEnMin= 6 EnMin= -2297.21865071751     IErMin= 6 ErrMin= 3.12D-04
 ErrMax= 3.12D-04  0.00D+00 EMaxC= 1.00D-01 BMatC= 1.71D-04 BMatP= 4.39D-03
 IDIUse=3 WtCom= 9.97D-01 WtEn= 3.12D-03
 Coeff-Com: -0.719D-02 0.137D-01 0.426D-01 0.743D-01 0.238D+00 0.638D+00
 Coeff-En:   0.000D+00 0.000D+00 0.000D+00 0.000D+00 0.000D+00 0.100D+01
 Coeff:     -0.716D-02 0.136D-01 0.425D-01 0.740D-01 0.237D+00 0.640D+00
 Gap=     0.159 Goal=   None    Shift=    0.000
 RMSDP=3.52D-05 MaxDP=2.64D-03 DE=-3.51D-03 OVMax= 3.07D-03

 Cycle   7  Pass 1  IDiag  1:
 RMSU=  2.32D-05    CP:  9.93D-01  1.09D+00  6.12D-01  4.76D-01  6.53D-01
                    CP:  6.73D-01
 E= -2297.21876792407     Delta-E=       -0.000117206566 Rises=F Damp=F
 DIIS: error= 1.22D-04 at cycle   7 NSaved=   7.
 NSaved= 7 IEnMin= 7 EnMin= -2297.21876792407     IErMin= 7 ErrMin= 1.22D-04
 ErrMax= 1.22D-04  0.00D+00 EMaxC= 1.00D-01 BMatC= 3.05D-05 BMatP= 1.71D-04
 IDIUse=3 WtCom= 9.99D-01 WtEn= 1.22D-03
 Coeff-Com:  0.688D-03-0.188D-02 0.461D-03 0.821D-02 0.681D-01 0.363D+00
 Coeff-Com:  0.562D+00
 Coeff-En:   0.000D+00 0.000D+00 0.000D+00 0.000D+00 0.000D+00 0.130D+00
 Coeff-En:   0.870D+00
 Coeff:      0.687D-03-0.188D-02 0.461D-03 0.820D-02 0.680D-01 0.362D+00
 Coeff:      0.562D+00
 Gap=     0.159 Goal=   None    Shift=    0.000
 RMSDP=1.17D-05 MaxDP=6.22D-04 DE=-1.17D-04 OVMax= 1.44D-03

 Cycle   8  Pass 1  IDiag  1:
 RMSU=  4.90D-06    CP:  9.93D-01  1.09D+00  6.10D-01  4.75D-01  6.58D-01
                    CP:  7.44D-01  6.07D-01
 E= -2297.21879417635     Delta-E=       -0.000026252279 Rises=F Damp=F
 DIIS: error= 4.03D-05 at cycle   8 NSaved=   8.
 NSaved= 8 IEnMin= 8 EnMin= -2297.21879417635     IErMin= 8 ErrMin= 4.03D-05
 ErrMax= 4.03D-05  0.00D+00 EMaxC= 1.00D-01 BMatC= 1.18D-06 BMatP= 3.05D-05
 IDIUse=1 WtCom= 1.00D+00 WtEn= 0.00D+00
 Coeff-Com:  0.659D-03-0.156D-02-0.150D-02 0.144D-02 0.272D-01 0.170D+00
 Coeff-Com:  0.293D+00 0.510D+00
 Coeff:      0.659D-03-0.156D-02-0.150D-02 0.144D-02 0.272D-01 0.170D+00
 Coeff:      0.293D+00 0.510D+00
 Gap=     0.159 Goal=   None    Shift=    0.000
 RMSDP=2.47D-06 MaxDP=1.45D-04 DE=-2.63D-05 OVMax= 2.89D-04

 Cycle   9  Pass 1  IDiag  1:
 RMSU=  1.97D-06    CP:  9.93D-01  1.09D+00  6.10D-01  4.75D-01  6.59D-01
                    CP:  7.46D-01  6.16D-01  7.20D-01
 E= -2297.21879498780     Delta-E=       -0.000000811448 Rises=F Damp=F
 DIIS: error= 1.17D-05 at cycle   9 NSaved=   9.
 NSaved= 9 IEnMin= 9 EnMin= -2297.21879498780     IErMin= 9 ErrMin= 1.17D-05
 ErrMax= 1.17D-05  0.00D+00 EMaxC= 1.00D-01 BMatC= 1.69D-07 BMatP= 1.18D-06
 IDIUse=1 WtCom= 1.00D+00 WtEn= 0.00D+00
 Coeff-Com:  0.236D-03-0.522D-03-0.869D-03-0.427D-03 0.494D-02 0.422D-01
 Coeff-Com:  0.809D-01 0.290D+00 0.583D+00
 Coeff:      0.236D-03-0.522D-03-0.869D-03-0.427D-03 0.494D-02 0.422D-01
 Coeff:      0.809D-01 0.290D+00 0.583D+00
 Gap=     0.159 Goal=   None    Shift=    0.000
 RMSDP=9.76D-07 MaxDP=6.56D-05 DE=-8.11D-07 OVMax= 1.02D-04

 Cycle  10  Pass 1  IDiag  1:
 RMSU=  5.86D-07    CP:  9.93D-01  1.09D+00  6.10D-01  4.75D-01  6.59D-01
                    CP:  7.48D-01  6.17D-01  7.71D-01  6.42D-01
 E= -2297.21879510986     Delta-E=       -0.000000122063 Rises=F Damp=F
 DIIS: error= 5.34D-06 at cycle  10 NSaved=  10.
 NSaved=10 IEnMin=10 EnMin= -2297.21879510986     IErMin=10 ErrMin= 5.34D-06
 ErrMax= 5.34D-06  0.00D+00 EMaxC= 1.00D-01 BMatC= 2.67D-08 BMatP= 1.69D-07
 IDIUse=1 WtCom= 1.00D+00 WtEn= 0.00D+00
 Coeff-Com:  0.807D-04-0.166D-03-0.381D-03-0.387D-03 0.599D-03 0.108D-01
 Coeff-Com:  0.237D-01 0.125D+00 0.352D+00 0.489D+00
 Coeff:      0.807D-04-0.166D-03-0.381D-03-0.387D-03 0.599D-03 0.108D-01
 Coeff:      0.237D-01 0.125D+00 0.352D+00 0.489D+00
 Gap=     0.159 Goal=   None    Shift=    0.000
 RMSDP=3.24D-07 MaxDP=2.35D-05 DE=-1.22D-07 OVMax= 3.42D-05

 Cycle  11  Pass 1  IDiag  1:
 RMSU=  1.87D-07    CP:  9.93D-01  1.09D+00  6.10D-01  4.75D-01  6.59D-01
                    CP:  7.48D-01  6.18D-01  7.68D-01  7.00D-01  6.10D-01
 E= -2297.21879512926     Delta-E=       -0.000000019397 Rises=F Damp=F
 DIIS: error= 1.09D-06 at cycle  11 NSaved=  11.
 NSaved=11 IEnMin=11 EnMin= -2297.21879512926     IErMin=11 ErrMin= 1.09D-06
 ErrMax= 1.09D-06  0.00D+00 EMaxC= 1.00D-01 BMatC= 1.63D-09 BMatP= 2.67D-08
 IDIUse=1 WtCom= 1.00D+00 WtEn= 0.00D+00
 Coeff-Com:  0.169D-04-0.312D-04-0.102D-03-0.156D-03-0.273D-03 0.722D-03
 Coeff-Com:  0.282D-02 0.272D-01 0.106D+00 0.247D+00 0.617D+00
 Coeff:      0.169D-04-0.312D-04-0.102D-03-0.156D-03-0.273D-03 0.722D-03
 Coeff:      0.282D-02 0.272D-01 0.106D+00 0.247D+00 0.617D+00
 Gap=     0.159 Goal=   None    Shift=    0.000
 RMSDP=9.86D-08 MaxDP=6.83D-06 DE=-1.94D-08 OVMax= 8.94D-06

 Cycle  12  Pass 1  IDiag  1:
 RMSU=  7.07D-08    CP:  9.93D-01  1.09D+00  6.10D-01  4.75D-01  6.59D-01
                    CP:  7.48D-01  6.19D-01  7.72D-01  7.03D-01  6.51D-01
                    CP:  6.94D-01
 E= -2297.21879513014     Delta-E=       -0.000000000879 Rises=F Damp=F
 DIIS: error= 7.62D-07 at cycle  12 NSaved=  12.
 NSaved=12 IEnMin=12 EnMin= -2297.21879513014     IErMin=12 ErrMin= 7.62D-07
 ErrMax= 7.62D-07  0.00D+00 EMaxC= 1.00D-01 BMatC= 3.83D-10 BMatP= 1.63D-09
 IDIUse=1 WtCom= 1.00D+00 WtEn= 0.00D+00
 Coeff-Com: -0.285D-07 0.216D-05-0.143D-04-0.486D-04-0.271D-03-0.104D-02
 Coeff-Com: -0.143D-02 0.761D-03 0.225D-01 0.974D-01 0.393D+00 0.489D+00
 Coeff:     -0.285D-07 0.216D-05-0.143D-04-0.486D-04-0.271D-03-0.104D-02
 Coeff:     -0.143D-02 0.761D-03 0.225D-01 0.974D-01 0.393D+00 0.489D+00
 Gap=     0.159 Goal=   None    Shift=    0.000
 RMSDP=4.37D-08 MaxDP=2.13D-06 DE=-8.79D-10 OVMax= 5.76D-06

 Cycle  13  Pass 1  IDiag  1:
 RMSU=  2.20D-08    CP:  9.93D-01  1.09D+00  6.10D-01  4.75D-01  6.59D-01
                    CP:  7.48D-01  6.18D-01  7.72D-01  7.03D-01  6.58D-01
                    CP:  7.80D-01  5.44D-01
 E= -2297.21879513052     Delta-E=       -0.000000000382 Rises=F Damp=F
 DIIS: error= 1.37D-07 at cycle  13 NSaved=  13.
 NSaved=13 IEnMin=13 EnMin= -2297.21879513052     IErMin=13 ErrMin= 1.37D-07
 ErrMax= 1.37D-07  0.00D+00 EMaxC= 1.00D-01 BMatC= 2.54D-11 BMatP= 3.83D-10
 IDIUse=1 WtCom= 1.00D+00 WtEn= 0.00D+00
 Coeff-Com: -0.195D-05 0.455D-05 0.526D-05-0.519D-05-0.108D-03-0.607D-03
 Coeff-Com: -0.102D-02-0.264D-02 0.320D-03 0.243D-01 0.137D+00 0.259D+00
 Coeff-Com:  0.583D+00
 Coeff:     -0.195D-05 0.455D-05 0.526D-05-0.519D-05-0.108D-03-0.607D-03
 Coeff:     -0.102D-02-0.264D-02 0.320D-03 0.243D-01 0.137D+00 0.259D+00
 Coeff:      0.583D+00
 Gap=     0.159 Goal=   None    Shift=    0.000
 RMSDP=1.15D-08 MaxDP=7.21D-07 DE=-3.82D-10 OVMax= 1.27D-06

 Cycle  14  Pass 1  IDiag  1:
 RMSU=  7.94D-09    CP:  9.93D-01  1.09D+00  6.10D-01  4.75D-01  6.59D-01
                    CP:  7.48D-01  6.18D-01  7.72D-01  7.04D-01  6.62D-01
                    CP:  7.77D-01  5.98D-01  7.29D-01
 E= -2297.21879513049     Delta-E=        0.000000000029 Rises=F Damp=F
 DIIS: error= 2.78D-08 at cycle  14 NSaved=  14.
 NSaved=14 IEnMin=13 EnMin= -2297.21879513052     IErMin=14 ErrMin= 2.78D-08
 ErrMax= 2.78D-08  0.00D+00 EMaxC= 1.00D-01 BMatC= 2.44D-12 BMatP= 2.54D-11
 IDIUse=1 WtCom= 1.00D+00 WtEn= 0.00D+00
 Coeff-Com: -0.462D-06 0.942D-06 0.274D-05 0.201D-05-0.188D-04-0.143D-03
 Coeff-Com: -0.257D-03-0.122D-02-0.206D-02 0.731D-03 0.182D-01 0.647D-01
 Coeff-Com:  0.290D+00 0.631D+00
 Coeff:     -0.462D-06 0.942D-06 0.274D-05 0.201D-05-0.188D-04-0.143D-03
 Coeff:     -0.257D-03-0.122D-02-0.206D-02 0.731D-03 0.182D-01 0.647D-01
 Coeff:      0.290D+00 0.631D+00
 Gap=     0.159 Goal=   None    Shift=    0.000
 RMSDP=3.36D-09 MaxDP=2.38D-07 DE= 2.91D-11 OVMax= 2.79D-07

 Error on total polarization charges =  0.01006
 SCF Done:  E(RN12SX) =  -2297.21879513     A.U. after   14 cycles
            NFock= 14  Conv=0.34D-08     -V/T= 2.0076
 KE= 2.279816818101D+03 PE=-1.402652355314D+04 EE= 5.140044629749D+03
 Leave Link  502 at Sat Jun 15 09:02:23 2019, MaxMem=  6442450944 cpu:            9315.4 elap:             301.2
 (Enter /home/ekwan/sw/g16/l701.exe)
 ... and contract with generalized density number  0.
 Compute integral first derivatives.
 D1PCM: PCM CHGder 1st derivatives, ID1Alg=3 FixD1E=F DoIter=F DoCFld=F I1PDM=0.
 GePol: Maximum number of non-zero 1st derivatives   =     230
 Leave Link  701 at Sat Jun 15 09:02:34 2019, MaxMem=  6442450944 cpu:             335.8 elap:              11.3
 (Enter /home/ekwan/sw/g16/l702.exe)
 L702 exits ... SP integral derivatives will be done elsewhere.
 Leave Link  702 at Sat Jun 15 09:02:35 2019, MaxMem=  6442450944 cpu:               1.8 elap:               0.1
 (Enter /home/ekwan/sw/g16/l703.exe)
 Integral derivatives from FoFJK, PRISM(SPDF).
 Compute integral first derivatives, UseDBF=F ICtDFT=           0.
 Calling FoFJK, ICntrl=      2127 FMM=F ISym2X=0 I1Cent= 0 IOpClX= 0 NMat=1 NMatS=1 NMatT=0.
 FoFJK:  IHMeth= 1 ICntrl=    2127 DoSepK=T KAlg= 0 I1Cent=           0 FoldK=F
 IRaf=         1 NMat=       1 IRICut=       1 DoRegI=T DoRafI=F ISym2E= 0 IDoP0=0 IntGTp=1.
 FoFCou: FMM=F IPFlag=           0 FMFlag=      100000 FMFlg1=         800
         NFxFlg=           0 DoJE=F BraDBF=F KetDBF=F FulRan=T
         wScrn=  0.000000 ICntrl=      2527 IOpCl=  0 I1Cent=           0 NGrid=           0
         NMat0=    1 NMatS0=      1 NMatT0=    0 NMatD0=    1 NMtDS0=    0 NMtDT0=    0
 Symmetry not used in FoFCou.
 Leave Link  703 at Sat Jun 15 09:03:48 2019, MaxMem=  6442450944 cpu:            2192.6 elap:              73.2
 (Enter /home/ekwan/sw/g16/l716.exe)
 Dipole        = 4.53704775D-01 1.43944145D+00 1.15188955D-02
 ***** Axes restored to original set *****
 -------------------------------------------------------------------
 Center     Atomic                   Forces (Hartrees/Bohr)
 Number     Number              X              Y              Z
 -------------------------------------------------------------------
      1        6           0.000001539    0.000003985    0.000002161
      2        6           0.000003959    0.000003785    0.000002134
      3        6           0.000007987    0.000013492   -0.000003795
      4        6           0.000000593   -0.000003755   -0.000001511
      5        6           0.000005474   -0.000006421    0.000001255
      6        1          -0.000000138   -0.000002917    0.000000864
      7        1          -0.000001286   -0.000002906   -0.000001892
      8        1           0.000000809    0.000000897    0.000001388
      9        1           0.000000322    0.000001525    0.000001544
     10        1          -0.000002184    0.000003136   -0.000001245
     11        8          -0.000004599   -0.000003414    0.000002393
     12        8          -0.000007003   -0.000006755    0.000002813
     13        8          -0.000002212   -0.000002812   -0.000004016
     14        8           0.000000062    0.000000599   -0.000001252
     15        8          -0.000010068    0.000010684   -0.000005362
     16        6          -0.000001139    0.000002521   -0.000001308
     17        1          -0.000000869    0.000001577   -0.000003028
     18        1           0.000000611   -0.000000991   -0.000001788
     19        8           0.000000569    0.000000295   -0.000003259
     20       16           0.000002211   -0.000014479   -0.000003502
     21        8           0.000001011    0.000013971   -0.000003904
     22        8          -0.000001589   -0.000006607    0.000015509
     23        6          -0.000000165   -0.000003015   -0.000003048
     24        6          -0.000000522    0.000004047    0.000004352
     25        6           0.000001236    0.000001737    0.000005194
     26        6           0.000001092   -0.000003587    0.000002471
     27        1          -0.000000094   -0.000001506    0.000003342
     28        6          -0.000001864   -0.000001121   -0.000000425
     29        1           0.000000486   -0.000002375   -0.000002469
     30        6           0.000000964    0.000000581   -0.000001038
     31        1           0.000000855   -0.000000680   -0.000000959
     32        6           0.000002001   -0.000002280    0.000007535
     33        1           0.000000047   -0.000003249    0.000002003
     34        1          -0.000000063   -0.000001055    0.000000215
     35        1           0.000001439   -0.000000675    0.000002815
     36        6          -0.000001231    0.000002174    0.000004418
     37        1           0.000000753    0.000002036    0.000000242
     38        1           0.000000858    0.000003553    0.000001462
     39        1           0.000000267    0.000000957    0.000001418
     40        6           0.000006630   -0.000003455    0.000001181
     41        1          -0.000000866    0.000004370   -0.000002026
     42        1          -0.000002161    0.000004212   -0.000001902
     43        1          -0.000000650    0.000003641   -0.000002343
     44        6           0.000000073   -0.000000425   -0.000002663
     45        1          -0.000001245   -0.000000726   -0.000004059
     46        1          -0.000001325   -0.000001885   -0.000003449
     47        1          -0.000000699   -0.000000986   -0.000002492
     48        6           0.000000454    0.000000193   -0.000001843
     49        9           0.000001057    0.000001302    0.000003042
     50        9           0.000000114   -0.000000418    0.000002375
     51        9          -0.000000350    0.000002581    0.000001124
     52        6          -0.000001850   -0.000005419   -0.000001781
     53        9           0.000000548   -0.000000068   -0.000002760
     54        9           0.000000069   -0.000001043   -0.000000886
     55        9           0.000000086   -0.000002828   -0.000003247
 -------------------------------------------------------------------
 Cartesian Forces:  Max     0.000015509 RMS     0.000003640
 Leave Link  716 at Sat Jun 15 09:03:48 2019, MaxMem=  6442450944 cpu:               2.0 elap:               0.1
 (Enter /home/ekwan/sw/g16/l103.exe)

 GradGradGradGradGradGradGradGradGradGradGradGradGradGradGradGradGradGrad
 Berny optimization.
 FormGI is forming the generalized inverse of G from B-inverse, IUseBI=4.
 Internal  Forces:  Max     0.000016546 RMS     0.000001899
 Search for a local minimum.
 Step number   1 out of a maximum of  291
 All quantities printed in internal units (Hartrees-Bohrs-Radians)
 RMS Force = .18992D-05 SwitMx=.10000D-02 MixMth= 2
 Mixed Optimization -- En-DIIS/RFO-DIIS
 Second derivative matrix not updated -- first step.
 ITU=  0
     Eigenvalues ---    0.00527   0.00644   0.00704   0.00727   0.00751
     Eigenvalues ---    0.00765   0.01035   0.01461   0.01564   0.01568
     Eigenvalues ---    0.01571   0.01576   0.01619   0.01630   0.01635
     Eigenvalues ---    0.01663   0.01680   0.01684   0.01750   0.02237
     Eigenvalues ---    0.02240   0.02246   0.02249   0.02253   0.02254
     Eigenvalues ---    0.02534   0.02953   0.03371   0.04455   0.04622
     Eigenvalues ---    0.04760   0.04882   0.04960   0.05268   0.05320
     Eigenvalues ---    0.05838   0.06122   0.06589   0.07024   0.07073
     Eigenvalues ---    0.07207   0.07818   0.09362   0.10061   0.10091
     Eigenvalues ---    0.10115   0.10153   0.10576   0.10590   0.10610
     Eigenvalues ---    0.10613   0.10769   0.10788   0.10877   0.10973
     Eigenvalues ---    0.10988   0.11018   0.11522   0.11836   0.11839
     Eigenvalues ---    0.14133   0.15011   0.16000   0.16000   0.16000
     Eigenvalues ---    0.16000   0.16000   0.16000   0.16000   0.16000
     Eigenvalues ---    0.16000   0.16000   0.16000   0.16000   0.16000
     Eigenvalues ---    0.16000   0.16000   0.16463   0.16990   0.17539
     Eigenvalues ---    0.18740   0.19692   0.19848   0.20908   0.22135
     Eigenvalues ---    0.23483   0.23485   0.23502   0.24972   0.24977
     Eigenvalues ---    0.25000   0.25000   0.25000   0.25000   0.25000
     Eigenvalues ---    0.25000   0.25000   0.25000   0.25000   0.25000
     Eigenvalues ---    0.25000   0.25000   0.25000   0.27547   0.28361
     Eigenvalues ---    0.29057   0.29231   0.29584   0.30551   0.32259
     Eigenvalues ---    0.32370   0.34001   0.34274   0.34298   0.34303
     Eigenvalues ---    0.34315   0.34351   0.34354   0.34370   0.34450
     Eigenvalues ---    0.34465   0.34674   0.34697   0.34800   0.34914
     Eigenvalues ---    0.34999   0.35018   0.35022   0.35169   0.35263
     Eigenvalues ---    0.36030   0.36033   0.36100   0.38295   0.39386
     Eigenvalues ---    0.43277   0.43409   0.44052   0.44108   0.44138
     Eigenvalues ---    0.44199   0.44855   0.44918   0.45268   0.46353
     Eigenvalues ---    0.47538   0.47654   0.47669   0.47763   0.47868
     Eigenvalues ---    0.49996   0.55772   0.57222   0.57687   0.57790
     Eigenvalues ---    0.58094   0.58175   0.94156   0.96536
 RFO step:  Lambda=-1.00039286D-08 EMin= 5.26664441D-03
 Linear search not attempted -- first point.
 Iteration  1 RMS(Cart)=  0.00018305 RMS(Int)=  0.00000001
 Iteration  2 RMS(Cart)=  0.00000002 RMS(Int)=  0.00000000
 ITry= 1 IFail=0 DXMaxC= 8.12D-04 DCOld= 1.00D+10 DXMaxT= 3.00D-01 DXLimC= 3.00D+00 Rises=F
 Variable       Old X    -DE/DX   Delta X   Delta X   Delta X     New X
                                 (Linear)    (Quad)   (Total)
    R1        2.88129   0.00000   0.00000   0.00001   0.00001   2.88130
    R2        2.87958   0.00000   0.00000   0.00000   0.00000   2.87958
    R3        2.06870   0.00000   0.00000   0.00000   0.00000   2.06870
    R4        2.65371   0.00000   0.00000   0.00000   0.00000   2.65371
    R5        2.89476   0.00000   0.00000   0.00001   0.00001   2.89477
    R6        2.07329   0.00000   0.00000   0.00000   0.00000   2.07329
    R7        2.63735   0.00000   0.00000   0.00000   0.00000   2.63735
    R8        2.05250   0.00000   0.00000   0.00000   0.00000   2.05250
    R9        2.59952   0.00000   0.00000   0.00000   0.00000   2.59952
   R10        2.73938   0.00001   0.00000   0.00003   0.00003   2.73940
   R11        2.88301   0.00000   0.00000   0.00000   0.00000   2.88301
   R12        2.06802   0.00000   0.00000   0.00000   0.00000   2.06802
   R13        2.70426   0.00000   0.00000  -0.00001  -0.00001   2.70426
   R14        2.86877   0.00000   0.00000   0.00000   0.00000   2.86878
   R15        2.06553   0.00000   0.00000   0.00000   0.00000   2.06553
   R16        2.65445   0.00000   0.00000   0.00000   0.00000   2.65444
   R17        3.03569   0.00000   0.00000   0.00000   0.00000   3.03569
   R18        2.66393   0.00000   0.00000  -0.00001  -0.00001   2.66392
   R19        2.66290   0.00000   0.00000   0.00000   0.00000   2.66290
   R20        2.66325   0.00000   0.00000   0.00000   0.00000   2.66325
   R21        2.05815   0.00000   0.00000   0.00000   0.00000   2.05815
   R22        2.06737   0.00000   0.00000   0.00000   0.00000   2.06736
   R23        2.64966   0.00000   0.00000   0.00000   0.00000   2.64966
   R24        2.66217   0.00000   0.00000   0.00000   0.00000   2.66217
   R25        2.73759  -0.00002   0.00000  -0.00002  -0.00002   2.73757
   R26        2.74775  -0.00001   0.00000  -0.00002  -0.00002   2.74773
   R27        3.35056   0.00000   0.00000   0.00000   0.00000   3.35055
   R28        2.62165   0.00000   0.00000   0.00000   0.00000   2.62166
   R29        2.62224   0.00000   0.00000   0.00000   0.00000   2.62224
   R30        2.62384   0.00000   0.00000  -0.00001  -0.00001   2.62384
   R31        2.04035   0.00000   0.00000   0.00000   0.00000   2.04035
   R32        2.62197   0.00000   0.00000   0.00000   0.00000   2.62197
   R33        2.03925   0.00000   0.00000   0.00001   0.00001   2.03925
   R34        2.62381   0.00000   0.00000   0.00000   0.00000   2.62381
   R35        2.83673   0.00000   0.00000   0.00000   0.00000   2.83673
   R36        2.62502   0.00000   0.00000   0.00000   0.00000   2.62502
   R37        2.83472   0.00000   0.00000   0.00000   0.00000   2.83472
   R38        2.04029   0.00000   0.00000   0.00000   0.00000   2.04029
   R39        2.06577   0.00000   0.00000   0.00000   0.00000   2.06577
   R40        2.06710   0.00000   0.00000   0.00000   0.00000   2.06710
   R41        2.05401   0.00000   0.00000   0.00000   0.00000   2.05400
   R42        2.05639   0.00000   0.00000   0.00000   0.00000   2.05639
   R43        2.06821   0.00000   0.00000   0.00000   0.00000   2.06821
   R44        2.06001   0.00000   0.00000   0.00000   0.00000   2.06002
   R45        2.05645   0.00000   0.00000   0.00000   0.00000   2.05645
   R46        2.06169   0.00000   0.00000  -0.00001  -0.00001   2.06169
   R47        2.06741   0.00000   0.00000   0.00000   0.00000   2.06741
   R48        2.05677   0.00000   0.00000   0.00000   0.00000   2.05677
   R49        2.06831   0.00000   0.00000   0.00000   0.00000   2.06831
   R50        2.06207   0.00000   0.00000   0.00000   0.00000   2.06207
   R51        2.52733   0.00000   0.00000   0.00000   0.00000   2.52733
   R52        2.53209   0.00000   0.00000   0.00000   0.00000   2.53209
   R53        2.52819   0.00000   0.00000   0.00000   0.00000   2.52819
   R54        2.54452   0.00000   0.00000   0.00000   0.00000   2.54452
   R55        2.52414   0.00000   0.00000   0.00000   0.00000   2.52414
   R56        2.52482   0.00000   0.00000   0.00000   0.00000   2.52482
    A1        1.91913   0.00000   0.00000   0.00001   0.00001   1.91913
    A2        1.90927   0.00000   0.00000   0.00000   0.00000   1.90927
    A3        1.93388   0.00000   0.00000  -0.00001  -0.00001   1.93387
    A4        1.89259   0.00000   0.00000  -0.00001  -0.00001   1.89258
    A5        1.88413   0.00000   0.00000   0.00002   0.00002   1.88414
    A6        1.92429   0.00000   0.00000  -0.00001  -0.00001   1.92428
    A7        1.93860   0.00000   0.00000   0.00001   0.00001   1.93861
    A8        1.87818   0.00000   0.00000   0.00002   0.00002   1.87820
    A9        1.91186   0.00000   0.00000  -0.00002  -0.00002   1.91184
   A10        1.84556   0.00000   0.00000  -0.00001  -0.00001   1.84555
   A11        1.96272   0.00000   0.00000   0.00000   0.00000   1.96272
   A12        1.92424   0.00000   0.00000  -0.00001  -0.00001   1.92423
   A13        1.95067   0.00000   0.00000   0.00001   0.00001   1.95068
   A14        1.96932   0.00000   0.00000   0.00002   0.00002   1.96934
   A15        1.85815   0.00000   0.00000   0.00000   0.00000   1.85815
   A16        1.86711   0.00000   0.00000   0.00000   0.00000   1.86712
   A17        1.88023   0.00000   0.00000  -0.00001  -0.00001   1.88021
   A18        1.93739   0.00000   0.00000  -0.00002  -0.00002   1.93737
   A19        1.89724   0.00000   0.00000  -0.00001  -0.00001   1.89723
   A20        1.93264   0.00000   0.00000   0.00001   0.00001   1.93265
   A21        1.95946   0.00000   0.00000   0.00000   0.00000   1.95947
   A22        1.90088   0.00000   0.00000   0.00001   0.00001   1.90090
   A23        1.87655   0.00000   0.00000  -0.00001  -0.00001   1.87655
   A24        1.89550   0.00000   0.00000  -0.00001  -0.00001   1.89549
   A25        1.94541   0.00000   0.00000  -0.00001  -0.00001   1.94540
   A26        1.89785   0.00000   0.00000   0.00001   0.00001   1.89786
   A27        1.92646   0.00000   0.00000   0.00002   0.00002   1.92647
   A28        1.88787   0.00000   0.00000   0.00001   0.00001   1.88788
   A29        1.87605   0.00000   0.00000  -0.00003  -0.00003   1.87602
   A30        1.93006   0.00000   0.00000   0.00000   0.00000   1.93006
   A31        2.02521   0.00000   0.00000   0.00001   0.00001   2.02522
   A32        2.10144   0.00000   0.00000   0.00002   0.00002   2.10146
   A33        2.01318   0.00000   0.00000   0.00002   0.00002   2.01320
   A34        2.01655   0.00000   0.00000  -0.00001  -0.00001   2.01655
   A35        2.00601   0.00000   0.00000   0.00001   0.00001   2.00602
   A36        1.86515   0.00000   0.00000   0.00000   0.00000   1.86516
   A37        1.90678   0.00000   0.00000  -0.00001  -0.00001   1.90677
   A38        1.99975   0.00000   0.00000   0.00001   0.00001   1.99976
   A39        1.89071   0.00000   0.00000   0.00000   0.00000   1.89071
   A40        1.86431   0.00000   0.00000   0.00000   0.00000   1.86431
   A41        1.93270   0.00000   0.00000   0.00000   0.00000   1.93270
   A42        2.01541   0.00000   0.00000   0.00000   0.00000   2.01541
   A43        1.83011   0.00000   0.00000   0.00001   0.00001   1.83013
   A44        1.89396   0.00000   0.00000   0.00001   0.00001   1.89397
   A45        1.81845  -0.00001   0.00000  -0.00002  -0.00002   1.81842
   A46        2.11248   0.00000   0.00000  -0.00001  -0.00001   2.11247
   A47        1.89304   0.00000   0.00000   0.00000   0.00000   1.89304
   A48        1.89374   0.00000   0.00000   0.00000   0.00000   1.89374
   A49        2.07692   0.00000   0.00000   0.00000   0.00000   2.07692
   A50        2.07815   0.00000   0.00000   0.00000   0.00000   2.07815
   A51        2.12811   0.00000   0.00000   0.00000   0.00000   2.12811
   A52        2.06927   0.00000   0.00000   0.00000   0.00000   2.06927
   A53        2.10245   0.00000   0.00000   0.00000   0.00000   2.10245
   A54        2.11144   0.00000   0.00000  -0.00001  -0.00001   2.11144
   A55        2.06864   0.00000   0.00000   0.00000   0.00000   2.06864
   A56        2.10662   0.00000   0.00000   0.00000   0.00000   2.10662
   A57        2.10791   0.00000   0.00000   0.00000   0.00000   2.10791
   A58        2.10455   0.00000   0.00000   0.00000   0.00000   2.10455
   A59        2.08713   0.00000   0.00000   0.00000   0.00000   2.08713
   A60        2.09067   0.00000   0.00000   0.00000   0.00000   2.09068
   A61        2.10561   0.00000   0.00000   0.00000   0.00000   2.10561
   A62        2.08324   0.00000   0.00000   0.00000   0.00000   2.08324
   A63        2.09343   0.00000   0.00000   0.00001   0.00001   2.09344
   A64        2.09011   0.00000   0.00000   0.00000   0.00000   2.09011
   A65        2.09674   0.00000   0.00000   0.00000   0.00000   2.09674
   A66        2.09633   0.00000   0.00000   0.00000   0.00000   2.09633
   A67        1.95757   0.00000   0.00000   0.00000   0.00000   1.95757
   A68        1.93848   0.00000   0.00000   0.00001   0.00001   1.93848
   A69        1.86645   0.00000   0.00000   0.00000   0.00000   1.86645
   A70        1.90139   0.00000   0.00000   0.00000   0.00000   1.90139
   A71        1.89406   0.00000   0.00000   0.00000   0.00000   1.89406
   A72        1.90460   0.00000   0.00000   0.00000   0.00000   1.90460
   A73        1.86541   0.00000   0.00000   0.00000   0.00000   1.86541
   A74        1.93933   0.00000   0.00000   0.00000   0.00000   1.93933
   A75        1.94828   0.00000   0.00000   0.00000   0.00000   1.94827
   A76        1.89806   0.00000   0.00000   0.00000   0.00000   1.89806
   A77        1.90913   0.00000   0.00000  -0.00001  -0.00001   1.90913
   A78        1.90264   0.00000   0.00000   0.00000   0.00000   1.90264
   A79        1.86751   0.00000   0.00000   0.00000   0.00000   1.86751
   A80        1.94165   0.00000   0.00000   0.00000   0.00000   1.94165
[...]
 7,-0.00001062,0.00001708,0.00000156,-0.00001551,0.00000054,0.00000081,
 -0.00002856,-0.00000006,-0.00016992,-0.00015259,-0.00010580,0.00000073
 ,0.00001544,0.00001931,0.00005110,0.00000807,0.00000259,-0.00001227,0.
 00001128,0.00000148,-0.00095183,0.00014881,0.00010657,0.00021360,0.000
 08443,-0.00003166,-0.00039945,-0.00040513,0.00045272,0.00031915,-0.000
 06822,-0.00006449,0.00102481,0.00220341,-0.00155145,-0.00011576,-0.000
 49004,0.00051025,-0.00068623,-0.00066746,0.00021855,-0.00036551,-0.000
 29838,0.00059003,-0.01460593,-0.03585850,0.56952319,0.00003564,-0.0001
 8013,-0.00007716,0.00005764,-0.00000763,-0.00007874,-0.00000721,-0.000
 75550,-0.00001734,-0.00036913,-0.00064740,-0.00061330,0.00009094,0.000
 26647,0.00027203,-0.00001849,0.00004850,0.00001057,0.00002363,0.000006
 08,0.00000412,-0.00000876,0.00001721,-0.00000856,-0.00000123,0.0000464
 0,-0.00001466,0.00005226,-0.00002304,0.00000100,-0.00015339,0.00055932
 ,0.00030942,0.00057717,0.00046124,0.00003006,-0.00007784,0.00011225,0.
 00007405,-0.00018914,0.00014637,-0.00004615,-0.00016519,0.00002399,-0.
 00011224,0.00239208,0.00087962,0.00061039,-0.00029615,0.00005660,-0.00
 020042,-0.00198509,0.00007080,-0.00107470,-0.00135092,-0.00041376,-0.0
 0052108,-0.00100557,0.00003470,0.00024205,0.00022939,-0.00019662,-0.00
 003376,0.00022588,-0.00000761,-0.00012133,0.00081380,-0.00100343,0.000
 56339,0.00046700,-0.00012549,-0.00052894,-0.00106903,-0.00071871,0.000
 81307,-0.00023482,0.00034804,-0.00005910,-0.00001353,-0.00002907,-0.00
 003236,0.00748522,-0.00648857,-0.00387743,-0.00021601,-0.00019438,-0.0
 0026304,0.00028409,0.00036946,0.00072930,-0.00005586,0.00020436,-0.000
 43863,0.00001143,-0.00000385,-0.00005631,0.00000238,-0.00000656,0.0000
 1063,0.00000271,-0.00000208,0.00000736,-0.00000800,0.00000756,0.000007
 30,0.00002686,-0.00009026,0.00005294,-0.00001530,0.00001085,-0.0000086
 3,0.00000364,0.00001107,-0.00001050,-0.00000555,0.00001941,0.00000016,
 0.00011118,0.00007197,0.00008995,-0.00000612,-0.00000689,-0.00002716,-
 0.00003115,-0.00000776,-0.00000396,0.00001232,0.00000981,0.00000834,0.
 00167418,-0.00053528,0.00076558,-0.00037368,-0.00005985,-0.00003508,-0
 .00179204,0.00016883,0.00007234,-0.00029303,0.00002687,0.00003875,0.00
 003263,0.00010069,-0.00041884,0.00005221,-0.00007946,0.00015732,-0.000
 06967,-0.00006414,0.00007319,-0.00002893,0.00000395,0.00012798,-0.1160
 3808,-0.07357940,-0.03075257,0.17339141,-0.00005920,-0.00013051,-0.000
 12673,-0.00012293,0.00010988,-0.00006870,-0.00043818,-0.00107832,0.000
 27385,-0.00028317,-0.00055229,-0.00054038,0.00001797,0.00010237,0.0000
 6718,-0.00002425,0.00005532,-0.00000402,0.00008340,0.00000618,0.000013
 88,-0.00000715,0.00002655,-0.00001530,-0.00004883,0.00005703,-0.000063
 80,0.00006916,-0.00000760,0.00000998,0.00026871,0.00072646,0.00037222,
 0.00169146,0.00063758,-0.00005989,0.00009334,0.00002291,-0.00001459,0.
 00002322,0.00008804,0.00004434,-0.00002654,0.00011854,0.00006831,0.000
 87497,0.00012978,0.00053850,-0.00005015,0.00006325,-0.00007452,0.00102
 722,-0.00105443,0.00048252,-0.00053322,0.00038706,-0.00062882,-0.00362
 986,0.00164072,0.00148125,0.00084256,-0.00113464,-0.00019670,0.0008860
 1,-0.00035232,-0.00087964,0.00150225,-0.00027321,0.00166875,0.00011700
 ,-0.00117563,0.00034570,-0.00262694,-0.00014893,0.00217307,0.00173887,
 -0.00015386,0.00199278,-0.00019885,-0.00002256,-0.00017800,-0.02349582
 ,-0.04437423,-0.01295449,-0.00077284,-0.00052383,-0.00082386,0.0026652
 6,-0.00154269,-0.00271237,-0.00093802,-0.00048855,-0.00068684,-0.00006
 033,-0.00000125,0.00004972,-0.00000120,0.00000007,0.00001359,0.0000155
 3,0.00001563,-0.00000651,0.00000255,-0.00000367,-0.00000120,-0.0000130
 2,-0.00001350,0.00001174,0.00000545,0.00000395,0.00000104,0.00000140,-
 0.00000323,-0.00000572,-0.00000921,0.00000683,0.00000174,0.00000756,-0
 .00006067,0.00002001,0.00000407,0.00000126,-0.00000276,-0.00000869,0.0
 0000531,-0.00000210,0.00001492,0.00002908,-0.00000301,0.00151127,-0.00
 041613,0.00100551,-0.00030104,-0.00003039,-0.00004904,-0.00019318,0.00
 041530,-0.00049128,-0.00036367,0.00001271,0.00001223,0.00185321,0.0007
 5201,-0.00230828,-0.00013401,-0.00060598,0.00100842,-0.00076475,-0.000
 49817,0.00034596,-0.00049508,0.00017604,0.00079022,-0.07652060,-0.2063
 1189,-0.05209982,0.12932334,0.24935846,0.00002188,-0.00010779,-0.00005
 635,0.00004454,-0.00002142,-0.00004690,0.00004867,-0.00025921,-0.00007
 801,-0.00022710,-0.00041146,-0.00045654,0.00006011,0.00017996,0.000162
 99,-0.00002084,0.00003550,0.00001204,-0.00000270,0.00000116,0.00000164
 ,-0.00000334,0.00000455,-0.00000074,0.00001349,0.00000359,0.00001234,0
 .00001542,-0.00001713,-0.00000088,-0.00011841,0.00023846,0.00026379,0.
 00005028,0.00014915,0.00010335,-0.00005618,0.00006278,0.00007154,-0.00
 012277,0.00008587,-0.00001868,-0.00010725,0.00000926,-0.00004283,0.001
 34220,0.00076187,0.00044968,-0.00013501,0.00001297,-0.00008540,-0.0010
 7349,-0.00007120,-0.00082501,-0.00070721,-0.00040972,0.00015155,-0.000
 06263,-0.00015878,-0.00046046,0.00000983,0.00005990,0.00007791,0.00002
 787,-0.00001265,0.00017505,-0.00030549,0.00031289,-0.00056251,-0.00052
 782,0.00027402,0.00034487,0.00116390,0.00044843,-0.00022244,-0.0001058
 5,-0.00083582,0.00052815,0.00000254,-0.00001691,0.00002725,-0.00072920
 ,0.00394572,0.01100143,-0.00021693,0.00030977,-0.00002234,0.00025820,-
 0.00093072,-0.00030908,-0.00003174,-0.00003535,-0.00006279,0.00001298,
 -0.00000204,-0.00006003,0.00000589,-0.00000138,0.00000878,-0.00000360,
 -0.00000396,0.00000517,-0.00000421,0.00000359,0.00000662,0.00001763,-0
 .00005146,0.00002551,-0.00001014,0.00000628,-0.00000607,0.00000079,0.0
 0000558,-0.00000341,-0.00000344,0.00001284,0.,0.00007092,0.00004972,0.
 00005177,-0.00000105,-0.00000576,-0.00001137,-0.00002161,-0.00000313,-
 0.00000198,0.00000770,0.00000260,0.00000037,0.00051121,-0.00001220,0.0
 0005023,-0.00009642,-0.00004154,0.00003311,0.00034620,0.00007432,-0.00
 042075,-0.00014302,0.00001734,0.00004264,0.00006115,-0.00017073,-0.000
 08904,0.00001900,-0.00003462,0.00009374,0.00001835,0.00004138,0.000021
 55,-0.00000358,0.00006722,0.00004161,-0.03092770,-0.04999282,-0.093176
 61,0.07002380,0.09953785,0.13015105,0.00010081,-0.00006739,0.00005127,
 0.00017100,-0.00012399,-0.00001755,0.00033806,0.00003533,-0.00023110,-
 0.00000335,-0.00009259,0.00005298,0.00009555,0.00011062,0.00020165,0.0
 0000943,-0.00000750,0.00001054,-0.00004081,0.00000433,-0.00001138,-0.0
 0000481,-0.00000068,-0.00000033,0.00003635,0.00000559,0.00002805,0.000
 00912,-0.00001275,-0.00000800,-0.00039231,0.00003650,-0.00007988,-0.00
 077957,-0.00003353,0.00004732,-0.00016746,0.00012071,0.00008196,-0.000
 21615,0.00008402,-0.00009863,-0.00014522,-0.00005933,-0.00018952,0.000
 84432,0.00030982,0.00027710,-0.00010982,0.00000486,-0.00009576,0.00000
 248,-0.00021181,0.00010569,-0.00051623,-0.00017388,-0.00022460,0.00190
 973,-0.00113920,-0.00098242,-0.00054673,0.00109047,0.00006243,-0.00045
 875,0.00031396,0.00058870,-0.00082921,0.00068503,0.00126095,0.00003786
 ,0.00020536,-0.00045863,0.00029690,0.00415291,-0.00454800,0.00042295,0
 .00101391,-0.00052450,0.00008187,-0.00009378,-0.00010218,-0.03011711,0
 .01353055,0.00484009,0.00040292,-0.00067906,-0.00018565,-0.00138248,-0
 .00112256,0.00396102,0.00045888,0.00016715,-0.00224020,0.00006288,-0.0
 0000765,-0.00009474,0.00000176,-0.00001097,-0.00000140,-0.00000555,-0.
 00001353,0.00001461,-0.00001363,0.00001391,0.00000739,0.00004581,-0.00
 009552,0.00005186,-0.00002031,0.00000773,-0.00000981,0.00000357,0.0000
 1571,-0.00000955,0.00000206,0.00001492,0.00000034,0.00010315,0.0001031
 7,0.00007522,-0.00000740,-0.00000875,-0.00002612,-0.00002552,-0.000010
 75,-0.00000051,-0.00000007,-0.00000710,0.00000732,0.00070445,-0.000144
 59,0.00033874,-0.00017211,-0.00006152,-0.00002299,-0.00002721,0.000301
 05,-0.00016660,-0.00007964,0.00001495,-0.00000074,-0.00130554,-0.00026
 389,0.00111343,0.00015463,0.00023510,-0.00041270,0.00056693,0.00031364
 ,-0.00016569,0.00037825,-0.00015720,-0.00041448,-0.27187472,0.07055895
 ,0.01551960,-0.07194243,-0.02476290,-0.01265874,0.40468535,-0.00006574
 ,-0.00002869,-0.00007190,-0.00012164,0.00009737,-0.00002515,-0.0003241
 8,-0.00051077,0.00022647,-0.00013457,-0.00020072,-0.00024338,-0.000032
 46,0.00000500,-0.00005015,-0.00001181,0.00002380,-0.00000837,0.0000537
 6,0.00000226,0.00001118,-0.00000099,0.00001168,-0.00000760,-0.00003614
 ,0.00002415,-0.00004320,0.00002424,0.00000276,0.00000774,0.00025041,0.
 00029696,0.00017605,0.00105053,0.00029392,-0.00005422,0.00010693,-0.00
 003701,-0.00004401,0.00009388,0.00000483,0.00005515,0.00004502,0.00007
 209,0.00010028,0.00013956,-0.00005901,0.00007678,-0.00000308,0.0000233
 4,-0.00000092,0.00002904,-0.00019052,0.00005316,-0.00007042,0.00015404
 ,-0.00011746,-0.00263596,0.00093877,0.00106996,0.00075212,-0.00105222,
 -0.00007805,0.00059923,-0.00021517,-0.00069678,0.00055463,-0.00202475,
 -0.00110708,0.00067782,-0.00061571,0.00000938,-0.00014396,-0.00293111,
 0.00515400,0.00009877,-0.00010201,-0.00037456,0.00000243,0.00005116,0.
 00000815,0.04098285,-0.00809653,-0.00275431,0.00008206,0.00056587,0.00
 019386,0.00102854,-0.00084602,-0.00012590,0.00078273,-0.00123746,0.000
 87440,-0.00005064,0.00000272,0.00006417,-0.00000220,0.00000369,0.00000
 556,0.00000984,0.00001247,-0.00000850,0.00000610,-0.00000675,-0.000003
 93,-0.00002352,0.00003106,-0.00001423,0.00001023,-0.00000127,0.0000044
 1,-0.00000053,-0.00000736,0.00000092,-0.00000468,-0.00000315,0.0000006
 4,-0.00003687,-0.00006378,-0.00002066,0.00000427,0.00000386,0.00000851
 ,0.00000662,0.00000589,-0.00000064,0.00000573,0.00001442,-0.00000376,0
 .00024165,-0.00008505,0.00015864,-0.00002751,0.00001292,-0.00000716,0.
 00000339,0.00007583,-0.00006677,-0.00006937,-0.00000367,0.00000826,0.0
 0109018,0.00059613,-0.00145340,-0.00007100,-0.00031016,0.00051624,-0.0
 0050440,-0.00032594,0.00022826,-0.00033800,0.00009256,0.00050449,0.064
 41942,-0.10043329,-0.00049352,-0.04138373,0.00911857,-0.00319013,-0.07
 205861,0.09523977,0.00001829,-0.00000589,0.00000106,0.00002838,-0.0000
 3034,-0.00000001,0.00008000,0.00013173,-0.00009506,0.00002142,-0.00000
 965,-0.00003742,0.00001500,0.00001337,0.00001860,-0.00000611,0.0000047
 0,0.00000563,-0.00001723,-0.00000132,-0.00000255,0.00000022,-0.0000034
 1,0.00000337,0.00001070,-0.00001099,0.00001779,-0.00000502,-0.00000427
 ,-0.00000181,-0.00005730,-0.00004155,0.00004082,-0.00032301,-0.0000721
 1,0.00006943,-0.00003124,0.00001537,0.00003354,-0.00003368,0.00000908,
 -0.00000560,-0.00002521,-0.00000907,-0.00000812,0.00011489,0.00008258,
 0.00000466,0.00000299,-0.00000294,0.00000559,0.00002644,-0.00003595,0.
 00003207,-0.00007142,-0.00006077,0.00007019,0.00067427,-0.00028355,-0.
 00056431,-0.00017706,0.00029280,0.00007634,-0.00014480,0.00002553,0.00
 029688,-0.00084900,0.00050325,0.00046003,-0.00014198,0.00026342,-0.000
 03557,0.00027789,0.00171617,-0.00154029,-0.00061218,-0.00025507,0.0006
 2711,-0.00005566,0.00003107,0.00005764,-0.00951471,0.00541858,0.010708
 33,-0.00030407,0.00030654,0.00005001,-0.00020751,0.00070682,-0.0020516
 3,-0.00155699,0.00099770,0.00059210,0.00001212,-0.00000158,-0.00003514
 ,0.00000410,0.00000031,0.00000233,-0.00000450,-0.00000377,0.00000266,-
 0.00000143,0.00000129,0.00000279,0.00000765,-0.00001075,0.00000183,-0.
 00000325,0.00000073,-0.00000195,-0.00000067,0.00000126,0.00000092,0.00
 000018,0.00000295,0.00000008,0.00001653,0.00001541,0.00000824,0.000000
 84,-0.00000173,-0.00000013,-0.00000549,-0.00000016,-0.00000002,0.00000
 151,-0.00000188,-0.00000115,0.00006833,-0.00001408,-0.00003087,-0.0000
 1523,-0.00000627,0.00000450,0.00003522,0.00004695,-0.00005066,-0.00003
 449,0.00000842,0.00000687,-0.00021319,-0.00046076,0.00038879,-0.000017
 66,0.00013554,-0.00015365,0.00016361,0.00014748,-0.00004649,0.00005997
 ,0.00007880,-0.00011716,0.02045618,-0.00263714,-0.07848266,-0.01890618
 ,-0.00263247,0.01106644,-0.04813227,0.00977725,0.08725781,0.00002298,-
 0.00001497,0.00002026,0.00003916,-0.00002579,-0.00000836,0.00007207,-0
 .00008197,-0.00001055,-0.00000393,-0.00000727,0.00007309,0.00002356,0.
 00001913,0.00004458,0.00001142,-0.00000512,-0.00000153,-0.00000167,0.0
 0000297,-0.00000225,-0.00000169,0.00000193,-0.00000283,0.00000325,0.00
 000874,-0.00000530,0.00000649,-0.00000088,-0.00000125,-0.00008457,0.00
 004435,-0.00006593,-0.00006647,0.00005723,-0.00002624,-0.00003790,0.00
 003335,0.00000785,-0.00004957,0.00002170,-0.00002948,-0.00003229,-0.00
 001241,-0.00005445,0.00012996,0.00001247,0.00006578,-0.00002353,0.0000
 0163,-0.00002692,0.00001998,-0.00004949,0.00004374,-0.00009239,0.00000
 693,-0.00012506,0.00017506,-0.00040921,0.00010215,-0.00000484,0.000142
 00,-0.00004493,-0.00006467,0.00011756,-0.00000871,0.00045643,-0.000519
 95,-0.00043977,0.00005942,0.00013324,-0.00009626,-0.00194665,0.0008411
 7,-0.00033406,0.00028472,-0.00003185,-0.00070900,0.00007513,0.00002735
 ,-0.00004783,0.01072241,0.00162913,-0.00237437,0.00071821,0.00042605,-
 0.00114018,-0.00056254,0.00126848,0.00000304,0.00021396,0.00033821,-0.
 00034235,0.00001325,-0.00000231,-0.00001083,-0.00000155,-0.00000462,-0
 .00000164,0.00000158,-0.00000196,0.00000353,-0.00000422,0.00000425,0.0
 0000047,0.00001139,-0.00002562,0.00001544,-0.00000457,0.00000196,-0.00
 000207,0.00000143,0.00000425,-0.00000375,0.00000057,0.00000320,0.00000
 044,0.00002243,0.00002178,0.00001760,-0.00000213,-0.00000202,-0.000007
 46,-0.00000522,-0.00000294,0.00000020,-0.00000073,-0.00000064,0.000002
 26,0.00017330,-0.00004046,0.00011904,-0.00004235,-0.00001925,-0.000016
 26,-0.00003527,0.00009411,0.00004638,0.00002201,0.00000099,-0.00000487
 ,-0.00028999,-0.00000248,0.00014140,0.00003471,0.00005973,-0.00010621,
 0.00010857,0.00005941,-0.00002289,0.00007220,-0.00004206,-0.00005598,-
 0.07959052,-0.00040555,0.03105621,0.00976566,-0.00775705,-0.02572707,-
 0.03074289,0.00500004,0.05937180,0.09043084,-0.00004517,-0.00003489,-0
 .00005288,-0.00008472,0.00006539,-0.00001823,-0.00026004,-0.00044906,0
 .00016566,-0.00011614,-0.00018773,-0.00018670,-0.00001806,0.00001799,-
 0.00001270,-0.00000942,0.00001581,-0.00000495,0.00004230,0.00000297,0.
 00000716,-0.00000176,0.00001123,-0.00000761,-0.00002962,0.00002565,-0.
 00003589,0.00002440,0.00000168,0.00000561,0.00018205,0.00028136,0.0001
 2787,0.00082887,0.00021887,-0.00003579,0.00007169,-0.00001454,-0.00003
 179,0.00005492,0.00001665,0.00003200,0.00002340,0.00005694,0.00005702,
 0.00021148,-0.00003319,0.00012895,-0.00002089,0.00002019,-0.00001847,0
 .00008058,-0.00020841,0.00002125,-0.00012070,0.00013311,-0.00015957,-0
 .00186608,0.00109061,0.00060873,0.00041898,-0.00057528,-0.00005603,0.0
 0048017,-0.00022556,-0.00047270,-0.00062069,0.00018915,-0.00002492,-0.
 00027213,-0.00043227,0.00089772,0.00080446,-0.00116080,0.00086180,-0.0
 0112198,-0.00174110,0.00078971,-0.00002769,0.00004526,0.00003955,-0.00
 473671,0.00101043,0.03646731,0.00017099,-0.00114701,0.00120951,0.00414
 883,-0.00281297,0.00022184,0.00015884,0.00037851,0.00019068,-0.0000375
 2,0.00000070,0.00004660,-0.00000262,0.00000113,0.00000443,0.00000892,0
 .00000967,-0.00000554,0.00000335,-0.00000379,-0.00000277,-0.00001500,0
 .00001320,-0.00000365,0.00000652,0.00000006,0.00000273,0.00000037,-0.0
 0000399,-0.00000138,-0.00000383,-0.00000100,0.00000063,-0.00002029,-0.
 00004421,-0.00000798,0.00000218,0.00000234,0.00000288,0.00000324,0.000
 00343,-0.00000060,0.00000442,0.00001233,-0.00000187,0.00028747,-0.0000
 8020,0.00017254,-0.00004053,0.00000289,-0.00001052,-0.00001042,0.00008
 220,-0.00002515,-0.00005572,-0.00000355,0.00000495,0.00122513,0.000158
 26,-0.00156662,-0.00003325,-0.00034155,0.00062905,-0.00062547,-0.00033
 240,0.00024936,-0.00031229,0.00010639,0.00045159,0.00100709,-0.0819929
 5,0.02398563,-0.00679516,-0.00310841,-0.04991663,0.00797075,0.01161026
 ,-0.01413761,-0.00091751,0.07935022,0.00006787,-0.00004661,-0.00000831
 ,0.00010955,-0.00008191,-0.00001662,0.00029100,0.00023266,-0.00031649,
 0.00003586,-0.00010089,-0.00018183,0.00006967,0.00007949,0.00011124,-0
 .00002199,0.00002241,0.00002026,-0.00005024,-0.00000375,-0.00000590,-0
 .00000059,-0.00000916,0.00001026,0.00004660,-0.00003392,0.00006197,-0.
 00001359,-0.00001687,-0.00000708,-0.00031267,-0.00005249,0.00017194,-0
 .00086196,-0.00008924,0.00022041,-0.00012041,0.00007008,0.00012139,-0.
 00014140,0.00004943,-0.00002645,-0.00011111,-0.00003451,-0.00005718,0.
 00071304,0.00040290,0.00014784,-0.00004321,-0.00000830,-0.00001575,0.0
 0008921,-0.00020590,-0.00003187,-0.00040366,-0.00028675,0.00023279,0.0
 0201268,-0.00108565,-0.00159552,-0.00050960,0.00069740,0.00022640,-0.0
 0044651,0.00012935,0.00093348,-0.00006837,0.00129725,0.00048835,-0.000
 33917,0.00034446,-0.00021559,0.00341424,-0.00168494,-0.00095169,0.0017
 2994,0.00072981,-0.00115934,-0.00011560,-0.00008314,0.00004638,0.00812
 201,0.00688620,-0.03961967,-0.00200343,0.00064951,-0.00007947,-0.00491
 255,0.00533072,-0.00041843,-0.00034974,-0.00067559,0.00043841,0.000041
 76,-0.00000502,-0.00012613,0.00001363,0.00000005,0.00000946,-0.0000149
 3,-0.00001302,0.00000993,-0.00000571,0.00000507,0.00001067,0.00002883,
 -0.00004809,0.00001428,-0.00001330,0.00000411,-0.00000759,-0.00000145,
 0.00000615,0.00000173,-0.00000010,0.00001247,-0.00000021,0.00007338,0.
 00006947,0.00004338,0.00000012,-0.00000674,-0.00000651,-0.00002245,-0.
 00000315,-0.00000124,0.00000521,-0.00000696,-0.00000135,0.00032232,-0.
 00002565,-0.00012683,-0.00007539,-0.00003346,0.00001724,0.00011303,0.0
 0011573,-0.00015337,-0.00013601,0.00003221,0.00002635,-0.00152750,-0.0
 0049816,0.00161914,0.00001828,0.00052823,-0.00085205,0.00075913,0.0004
 7055,-0.00019688,0.00031278,0.00002216,-0.00047318,0.02685169,0.030463
 93,-0.28847529,-0.01675692,-0.03469951,-0.05796193,0.04341639,-0.00822
 818,-0.02865221,-0.05927864,-0.00058424,0.41675863\\-0.00000158,-0.000
 00402,-0.00000220,-0.00000399,-0.00000376,-0.00000216,-0.00000803,-0.0
 0001352,0.00000383,-0.00000060,0.00000372,0.00000143,-0.00000548,0.000
 00645,-0.00000125,0.00000015,0.00000292,-0.00000086,0.00000129,0.00000
 290,0.00000190,-0.00000079,-0.00000089,-0.00000138,-0.00000032,-0.0000
 0152,-0.00000153,0.00000218,-0.00000314,0.00000125,0.00000462,0.000003
 42,-0.00000237,0.00000706,0.00000677,-0.00000280,0.00000221,0.00000282
 ,0.00000403,-0.00000005,-0.00000058,0.00000125,0.00001007,-0.00001069,
 0.00000539,0.00000116,-0.00000249,0.00000128,0.00000086,-0.00000158,0.
 00000304,-0.00000061,0.00000099,0.00000179,-0.00000057,-0.00000030,0.0
 0000326,-0.00000213,0.00001449,0.00000356,-0.00000104,-0.00001404,0.00
 000392,0.00000158,0.00000663,-0.00001561,0.00000008,0.00000306,0.00000
 307,0.00000061,-0.00000412,-0.00000439,-0.00000117,-0.00000178,-0.0000
 0524,-0.00000110,0.00000356,-0.00000244,0.00000008,0.00000153,-0.00000
 335,0.00000189,0.00000112,0.00000039,-0.00000051,0.00000237,0.00000250
 ,-0.00000105,-0.00000052,0.00000107,-0.00000084,0.00000067,0.00000095,
 -0.00000200,0.00000229,-0.00000755,-0.00000005,0.00000325,-0.00000200,
 0.00000006,0.00000105,-0.00000021,-0.00000143,0.00000067,-0.00000281,0
 .00000126,-0.00000223,-0.00000439,-0.00000075,-0.00000203,-0.00000024,
 -0.00000086,-0.00000354,-0.00000147,-0.00000027,-0.00000094,-0.0000014
 2,-0.00000664,0.00000345,-0.00000120,0.00000087,-0.00000437,0.00000203
 ,0.00000217,-0.00000421,0.00000190,0.00000065,-0.00000364,0.00000234,-
 0.00000007,0.00000040,0.00000270,0.00000125,0.00000073,0.00000405,0.00
 000132,0.00000189,0.00000344,0.00000070,0.00000099,0.00000248,-0.00000
 050,-0.00000023,0.00000190,-0.00000106,-0.00000129,-0.00000306,-0.0000
 0009,0.00000043,-0.00000238,0.00000036,-0.00000259,-0.00000114,0.00000
 188,0.00000550,0.00000179,-0.00000056,0.00000004,0.00000275,-0.0000000
 9,0.00000104,0.00000089,-0.00000009,0.00000282,0.00000324\\\@


 CONFIDENCE IS WHAT YOU FEEL BEFORE YOU FULLY
 COMPREHEND THE SITUATION.
 Job cpu time:       1 days  3 hours  3 minutes  9.1 seconds.
 Elapsed time:       0 days  0 hours 52 minutes 31.7 seconds.
 File lengths (MBytes):  RWF=   2320 Int=      0 D2E=      0 Chk=     40 Scr=      1
 Normal termination of Gaussian 16 at Sat Jun 15 09:56:43 2019.
