 Entering Gaussian System, Link 0=g16
 Input=clay_new-glu_gluC6-bisCF3-sm-mpw1lyp-custom-pcm_thf.gjf
 Output=clay_new-glu_gluC6-bisCF3-sm-mpw1lyp-custom-pcm_thf.out
 Initial command:
 /home/ekwan/sw/g16/l1.exe "/scratch/users/ekwan/clay_new-glu_gluC6-bisCF3-sm-mpw1lyp-custom-pcm_thf/Gau-13488.inp" -scrdir="/scratch/users/ekwan/clay_new-glu_gluC6-bisCF3-sm-mpw1lyp-custom-pcm_thf/"
 Entering Link 1 = /home/ekwan/sw/g16/l1.exe PID=     13489.
  
 Copyright (c) 1988,1990,1992,1993,1995,1998,2003,2009,2016,
            Gaussian, Inc.  All Rights Reserved.
  
 This is part of the Gaussian(R) 16 program.  It is based on
 the Gaussian(R) 09 system (copyright 2009, Gaussian, Inc.),
 the Gaussian(R) 03 system (copyright 2003, Gaussian, Inc.),
 the Gaussian(R) 98 system (copyright 1998, Gaussian, Inc.),
 the Gaussian(R) 94 system (copyright 1995, Gaussian, Inc.),
 the Gaussian 92(TM) system (copyright 1992, Gaussian, Inc.),
 the Gaussian 90(TM) system (copyright 1990, Gaussian, Inc.),
 the Gaussian 88(TM) system (copyright 1988, Gaussian, Inc.),
 the Gaussian 86(TM) system (copyright 1986, Carnegie Mellon
 University), and the Gaussian 82(TM) system (copyright 1983,
 Carnegie Mellon University). Gaussian is a federally registered
 trademark of Gaussian, Inc.
  
 This software contains proprietary and confidential information,
 including trade secrets, belonging to Gaussian, Inc.
  
 This software is provided under written license and may be
 used, copied, transmitted, or stored only in accord with that
 written license.
  
 The following legend is applicable only to US Government
 contracts under FAR:
  
                    RESTRICTED RIGHTS LEGEND
  
 Use, reproduction and disclosure by the US Government is
 subject to restrictions as set forth in subparagraphs (a)
 and (c) of the Commercial Computer Software - Restricted
 Rights clause in FAR 52.227-19.
  
 Gaussian, Inc.
 340 Quinnipiac St., Bldg. 40, Wallingford CT 06492
  
  
 ---------------------------------------------------------------
 Warning -- This program may not be used in any manner that
 competes with the business of Gaussian, Inc. or will provide
 assistance to any competitor of Gaussian, Inc.  The licensee
 of this program is prohibited from giving any competitor of
 Gaussian, Inc. access to this program.  By using this program,
 the user acknowledges that Gaussian, Inc. is engaged in the
 business of creating and licensing software in the field of
 computational chemistry and represents and warrants to the
 licensee that it is not a competitor of Gaussian, Inc. and that
 it will not use this program in any manner prohibited above.
 ---------------------------------------------------------------
  

 Cite this work as:
 Gaussian 16, Revision A.03,
 M. J. Frisch, G. W. Trucks, H. B. Schlegel, G. E. Scuseria, 
 M. A. Robb, J. R. Cheeseman, G. Scalmani, V. Barone, 
 G. A. Petersson, H. Nakatsuji, X. Li, M. Caricato, A. V. Marenich, 
 J. Bloino, B. G. Janesko, R. Gomperts, B. Mennucci, H. P. Hratchian, 
 J. V. Ortiz, A. F. Izmaylov, J. L. Sonnenberg, D. Williams-Young, 
 F. Ding, F. Lipparini, F. Egidi, J. Goings, B. Peng, A. Petrone, 
 T. Henderson, D. Ranasinghe, V. G. Zakrzewski, J. Gao, N. Rega, 
 G. Zheng, W. Liang, M. Hada, M. Ehara, K. Toyota, R. Fukuda, 
 J. Hasegawa, M. Ishida, T. Nakajima, Y. Honda, O. Kitao, H. Nakai, 
 T. Vreven, K. Throssell, J. A. Montgomery, Jr., J. E. Peralta, 
 F. Ogliaro, M. J. Bearpark, J. J. Heyd, E. N. Brothers, K. N. Kudin, 
 V. N. Staroverov, T. A. Keith, R. Kobayashi, J. Normand, 
 K. Raghavachari, A. P. Rendell, J. C. Burant, S. S. Iyengar, 
 J. Tomasi, M. Cossi, J. M. Millam, M. Klene, C. Adamo, R. Cammi, 
 J. W. Ochterski, R. L. Martin, K. Morokuma, O. Farkas, 
 J. B. Foresman, and D. J. Fox, Gaussian, Inc., Wallingford CT, 2016.
 
 ******************************************
 Gaussian 16:  AS64L-G16RevA.03 25-Dec-2016
                15-Jun-2019 
 ******************************************
 %nprocshared=32
 Will use up to   32 processors via shared memory.
 %mem=48GB
 ----------------------------------------------------------------------
 #p opt freq=noraman pop=none 6-31g* scrf=(pcm,solvent=tetrahydrofuran)
  mpw1lyp extrabasis
 ----------------------------------------------------------------------
 1/18=20,19=15,26=3,38=1/1,3;
 2/9=110,12=2,17=6,18=5,40=1/2;
 3/5=1,6=6,7=1,10=1,11=2,25=1,30=1,70=2201,71=1,72=20,74=-10/1,2,3;
 4//1;
 5/5=2,38=5,53=20/2;
 7//1,2,3,16;
 1/18=20,19=15,26=3/3(2);
 2/9=110/2;
 99//99;
 2/9=110/2;
 3/5=7,6=1,7=1,11=2,25=1,30=1,70=2205,71=1,72=20,74=-10,82=7/1,2,3;
 4/5=5,16=3,69=1/1;
 5/5=2,38=5,53=20/2;
 7//1,2,3,16;
 1/18=20,19=15,26=3/3(-5);
 2/9=110/2;
 99/9=1/99;
 Leave Link    1 at Sat Jun 15 08:43:31 2019, MaxMem=  6442450944 cpu:              58.2 elap:               2.2
 (Enter /home/ekwan/sw/g16/l101.exe)
 -----
 title
 -----
 Symbolic Z-matrix:
 Charge =  0 Multiplicity = 1
 6                     3.51222  -0.2165    0.75189 
 6                     3.36059  -0.49907  -0.74748 
 6                     1.88911  -0.39623  -1.19248 
 6                     1.34306   1.08862   0.61742 
 6                     2.79387   1.08706   1.11687 
 1                     1.78762  -0.45347  -2.2744 
 1                     3.89301   0.29505  -1.29179 
 1                     3.06518  -1.03581   1.32933 
 1                     0.77966   0.32238   1.1644 
 1                     3.32282   1.9262    0.65114 
 8                     1.28686   0.7882   -0.79786 
 8                     1.19934  -1.55568  -0.6165 
 8                     3.92619  -1.75486  -1.04409 
 8                     4.88088  -0.0661    1.09233 
 8                     2.74964   1.24479   2.52648 
 6                     0.64232   2.42618   0.84405 
 1                     0.55074   2.55949   1.92457 
 1                    -0.36533   2.38721   0.41236 
 8                     1.35076   3.55233   0.36003 
 16                   -0.1079   -2.17462  -1.36481 
 8                    -0.20936  -3.5377   -0.85788 
 8                     0.00378  -1.91243  -2.79992 
 6                    -1.47802  -1.22256  -0.7153 
 6                    -2.15298  -1.69317   0.40782 
 6                    -1.83132  -0.03085  -1.34338 
 6                    -3.21541  -0.94218   0.90912 
 1                    -1.86005  -2.62425   0.87588 
 6                    -2.88647   0.71063  -0.8165 
 1                    -1.30007   0.31168  -2.22145 
 6                    -3.58183   0.25952   0.30513 
 1                    -4.40381   0.84018   0.70427 
 6                     4.33735  -1.92237  -2.39697 
 1                     3.48641  -1.93825  -3.08845 
 1                     5.0301   -1.12663  -2.69848 
 1                     4.84825  -2.88442  -2.44829 
 6                     5.49882  -1.22955   1.63008 
 1                     6.52626  -0.95025   1.87197 
 1                     4.9931   -1.55649   2.54814 
 1                     5.5035   -2.05232   0.90968 
 6                     3.66575   2.20315   3.04417 
 1                     3.51617   2.22352   4.12555 
 1                     4.70018   1.92258   2.82388 
 1                     3.46495   3.20174   2.63558 
 6                     1.11935   3.86731  -1.008 
 1                     1.55232   4.85522  -1.1786 
 1                     0.04377   3.90454  -1.22589 
 1                     1.58912   3.14439  -1.68237 
 6                    -4.00701  -1.46375   2.0813 
 9                    -3.24565  -2.2183    2.89543 
 9                    -5.03777  -2.23228   1.67477 
 9                    -4.52527  -0.45973   2.81365 
 6                    -3.22778   2.04465  -1.42737 
 9                    -2.4958    3.0387   -0.86696 
 9                    -4.52128   2.36228  -1.24642 
 9                    -2.97332   2.06799  -2.74747 
 
 ITRead=  0  0  0  0  0  0  0  0  0  0  0  0  0  0  0  0  0  0  0  0
 ITRead=  0  0  0  0  0  0  0  0  0  0  0  0  0  0  0  0  0  0  0  0
 ITRead=  0  0  0  0  0  0  0  0  0  0  0  0  0  0  0
 MicOpt= -1 -1 -1 -1 -1 -1 -1 -1 -1 -1 -1 -1 -1 -1 -1 -1 -1 -1 -1 -1
 MicOpt= -1 -1 -1 -1 -1 -1 -1 -1 -1 -1 -1 -1 -1 -1 -1 -1 -1 -1 -1 -1
 MicOpt= -1 -1 -1 -1 -1 -1 -1 -1 -1 -1 -1 -1 -1 -1 -1
 NAtoms=     55 NQM=       55 NQMF=       0 NMMI=      0 NMMIF=      0
                NMic=       0 NMicF=      0.
                    Isotopes and Nuclear Properties:
 (Nuclear quadrupole moments (NQMom) in fm**2, nuclear magnetic moments (NMagM)
  in nuclear magnetons)

  Atom         1           2           3           4           5           6           7           8           9          10
 IAtWgt=          12          12          12          12          12           1           1           1           1           1
 AtmWgt=  12.0000000  12.0000000  12.0000000  12.0000000  12.0000000   1.0078250   1.0078250   1.0078250   1.0078250   1.0078250
 NucSpn=           0           0           0           0           0           1           1           1           1           1
 AtZEff=   0.0000000   0.0000000   0.0000000   0.0000000   0.0000000   0.0000000   0.0000000   0.0000000   0.0000000   0.0000000
 NQMom=    0.0000000   0.0000000   0.0000000   0.0000000   0.0000000   0.0000000   0.0000000   0.0000000   0.0000000   0.0000000
 NMagM=    0.0000000   0.0000000   0.0000000   0.0000000   0.0000000   2.7928460   2.7928460   2.7928460   2.7928460   2.7928460
 AtZNuc=   6.0000000   6.0000000   6.0000000   6.0000000   6.0000000   1.0000000   1.0000000   1.0000000   1.0000000   1.0000000

  Atom        11          12          13          14          15          16          17          18          19          20
 IAtWgt=          16          16          16          16          16          12           1           1          16          32
 AtmWgt=  15.9949146  15.9949146  15.9949146  15.9949146  15.9949146  12.0000000   1.0078250   1.0078250  15.9949146  31.9720718
 NucSpn=           0           0           0           0           0           0           1           1           0           0
 AtZEff=   0.0000000   0.0000000   0.0000000   0.0000000   0.0000000   0.0000000   0.0000000   0.0000000   0.0000000   0.0000000
 NQMom=    0.0000000   0.0000000   0.0000000   0.0000000   0.0000000   0.0000000   0.0000000   0.0000000   0.0000000   0.0000000
 NMagM=    0.0000000   0.0000000   0.0000000   0.0000000   0.0000000   0.0000000   2.7928460   2.7928460   0.0000000   0.0000000
 AtZNuc=   8.0000000   8.0000000   8.0000000   8.0000000   8.0000000   6.0000000   1.0000000   1.0000000   8.0000000  16.0000000

  Atom        21          22          23          24          25          26          27          28          29          30
 IAtWgt=          16          16          12          12          12          12           1          12           1          12
 AtmWgt=  15.9949146  15.9949146  12.0000000  12.0000000  12.0000000  12.0000000   1.0078250  12.0000000   1.0078250  12.0000000
 NucSpn=           0           0           0           0           0           0           1           0           1           0
 AtZEff=   0.0000000   0.0000000   0.0000000   0.0000000   0.0000000   0.0000000   0.0000000   0.0000000   0.0000000   0.0000000
 NQMom=    0.0000000   0.0000000   0.0000000   0.0000000   0.0000000   0.0000000   0.0000000   0.0000000   0.0000000   0.0000000
 NMagM=    0.0000000   0.0000000   0.0000000   0.0000000   0.0000000   0.0000000   2.7928460   0.0000000   2.7928460   0.0000000
 AtZNuc=   8.0000000   8.0000000   6.0000000   6.0000000   6.0000000   6.0000000   1.0000000   6.0000000   1.0000000   6.0000000

  Atom        31          32          33          34          35          36          37          38          39          40
 IAtWgt=           1          12           1           1           1          12           1           1           1          12
 AtmWgt=   1.0078250  12.0000000   1.0078250   1.0078250   1.0078250  12.0000000   1.0078250   1.0078250   1.0078250  12.0000000
 NucSpn=           1           0           1           1           1           0           1           1           1           0
 AtZEff=   0.0000000   0.0000000   0.0000000   0.0000000   0.0000000   0.0000000   0.0000000   0.0000000   0.0000000   0.0000000
 NQMom=    0.0000000   0.0000000   0.0000000   0.0000000   0.0000000   0.0000000   0.0000000   0.0000000   0.0000000   0.0000000
 NMagM=    2.7928460   0.0000000   2.7928460   2.7928460   2.7928460   0.0000000   2.7928460   2.7928460   2.7928460   0.0000000
 AtZNuc=   1.0000000   6.0000000   1.0000000   1.0000000   1.0000000   6.0000000   1.0000000   1.0000000   1.0000000   6.0000000

  Atom        41          42          43          44          45          46          47          48          49          50
 IAtWgt=           1           1           1          12           1           1           1          12          19          19
 AtmWgt=   1.0078250   1.0078250   1.0078250  12.0000000   1.0078250   1.0078250   1.0078250  12.0000000  18.9984033  18.9984033
 NucSpn=           1           1           1           0           1           1           1           0           1           1
 AtZEff=   0.0000000   0.0000000   0.0000000   0.0000000   0.0000000   0.0000000   0.0000000   0.0000000   0.0000000   0.0000000
 NQMom=    0.0000000   0.0000000   0.0000000   0.0000000   0.0000000   0.0000000   0.0000000   0.0000000   0.0000000   0.0000000
 NMagM=    2.7928460   2.7928460   2.7928460   0.0000000   2.7928460   2.7928460   2.7928460   0.0000000   2.6288670   2.6288670
 AtZNuc=   1.0000000   1.0000000   1.0000000   6.0000000   1.0000000   1.0000000   1.0000000   6.0000000   9.0000000   9.0000000

  Atom        51          52          53          54          55
 IAtWgt=          19          12          19          19          19
 AtmWgt=  18.9984033  12.0000000  18.9984033  18.9984033  18.9984033
 NucSpn=           1           0           1           1           1
 AtZEff=   0.0000000   0.0000000   0.0000000   0.0000000   0.0000000
 NQMom=    0.0000000   0.0000000   0.0000000   0.0000000   0.0000000
 NMagM=    2.6288670   0.0000000   2.6288670   2.6288670   2.6288670
 AtZNuc=   9.0000000   6.0000000   9.0000000   9.0000000   9.0000000
 Leave Link  101 at Sat Jun 15 08:43:32 2019, MaxMem=  6442450944 cpu:              17.4 elap:               0.7
 (Enter /home/ekwan/sw/g16/l103.exe)

 GradGradGradGradGradGradGradGradGradGradGradGradGradGradGradGradGradGrad
 Berny optimization.
 Initialization pass.
                           ----------------------------
                           !    Initial Parameters    !
                           ! (Angstroms and Degrees)  !
 --------------------------                            --------------------------
 ! Name  Definition              Value          Derivative Info.                !
 --------------------------------------------------------------------------------
 ! R1    R(1,2)                  1.5333         estimate D2E/DX2                !
 ! R2    R(1,5)                  1.5325         estimate D2E/DX2                !
 ! R3    R(1,8)                  1.0975         estimate D2E/DX2                !
 ! R4    R(1,14)                 1.4184         estimate D2E/DX2                !
 ! R5    R(2,3)                  1.5407         estimate D2E/DX2                !
 ! R6    R(2,7)                  1.1002         estimate D2E/DX2                !
 ! R7    R(2,13)                 1.4089         estimate D2E/DX2                !
 ! R8    R(3,6)                  1.0882         estimate D2E/DX2                !
 ! R9    R(3,11)                 1.3861         estimate D2E/DX2                !
 ! R10   R(3,12)                 1.4669         estimate D2E/DX2                !
 ! R11   R(4,5)                  1.5344         estimate D2E/DX2                !
 ! R12   R(4,9)                  1.0971         estimate D2E/DX2                !
 ! R13   R(4,11)                 1.4479         estimate D2E/DX2                !
 ! R14   R(4,16)                 1.5269         estimate D2E/DX2                !
 ! R15   R(5,10)                 1.0958         estimate D2E/DX2                !
 ! R16   R(5,15)                 1.4191         estimate D2E/DX2                !
 ! R17   R(12,20)                1.6285         estimate D2E/DX2                !
 ! R18   R(13,32)                1.4239         estimate D2E/DX2                !
 ! R19   R(14,36)                1.4229         estimate D2E/DX2                !
 ! R20   R(15,40)                1.4233         estimate D2E/DX2                !
 ! R21   R(16,17)                1.0926         estimate D2E/DX2                !
 ! R22   R(16,18)                1.0969         estimate D2E/DX2                !
 ! R23   R(16,19)                1.4158         estimate D2E/DX2                !
 ! R24   R(19,44)                1.4228         estimate D2E/DX2                !
 ! R25   R(20,21)                1.4578         estimate D2E/DX2                !
 ! R26   R(20,22)                1.4631         estimate D2E/DX2                !
 ! R27   R(20,23)                1.7904         estimate D2E/DX2                !
 ! R28   R(23,24)                1.3923         estimate D2E/DX2                !
 ! R29   R(23,25)                1.3927         estimate D2E/DX2                !
 ! R30   R(24,26)                1.3943         estimate D2E/DX2                !
 ! R31   R(24,27)                1.0825         estimate D2E/DX2                !
 ! R32   R(25,28)                1.3931         estimate D2E/DX2                !
 ! R33   R(25,29)                1.0819         estimate D2E/DX2                !
 ! R34   R(26,30)                1.394          estimate D2E/DX2                !
 ! R35   R(26,48)                1.5075         estimate D2E/DX2                !
 ! R36   R(28,30)                1.3947         estimate D2E/DX2                !
 ! R37   R(28,52)                1.5064         estimate D2E/DX2                !
 ! R38   R(30,31)                1.0826         estimate D2E/DX2                !
 ! R39   R(32,33)                1.0966         estimate D2E/DX2                !
 ! R40   R(32,34)                1.0973         estimate D2E/DX2                !
 ! R41   R(32,35)                1.0905         estimate D2E/DX2                !
 ! R42   R(36,37)                1.0919         estimate D2E/DX2                !
 ! R43   R(36,38)                1.0979         estimate D2E/DX2                !
 ! R44   R(36,39)                1.0936         estimate D2E/DX2                !
 ! R45   R(40,41)                1.0919         estimate D2E/DX2                !
 ! R46   R(40,42)                1.0942         estimate D2E/DX2                !
 ! R47   R(40,43)                1.0975         estimate D2E/DX2                !
 ! R48   R(44,45)                1.092          estimate D2E/DX2                !
 ! R49   R(44,46)                1.0981         estimate D2E/DX2                !
 ! R50   R(44,47)                1.0946         estimate D2E/DX2                !
 ! R51   R(48,49)                1.346          estimate D2E/DX2                !
 ! R52   R(48,50)                1.3485         estimate D2E/DX2                !
 ! R53   R(48,51)                1.3465         estimate D2E/DX2                !
 ! R54   R(52,53)                1.3557         estimate D2E/DX2                !
 ! R55   R(52,54)                1.3442         estimate D2E/DX2                !
 ! R56   R(52,55)                1.3446         estimate D2E/DX2                !
 ! A1    A(2,1,5)              110.0786         estimate D2E/DX2                !
 ! A2    A(2,1,8)              109.6723         estimate D2E/DX2                !
 ! A3    A(2,1,14)             110.4681         estimate D2E/DX2                !
 ! A4    A(5,1,8)              108.5884         estimate D2E/DX2                !
 ! A5    A(5,1,14)             107.7554         estimate D2E/DX2                !
 ! A6    A(8,1,14)             110.2375         estimate D2E/DX2                !
 ! A7    A(1,2,3)              111.3818         estimate D2E/DX2                !
 ! A8    A(1,2,7)              107.6335         estimate D2E/DX2                !
 ! A9    A(1,2,13)             109.2961         estimate D2E/DX2                !
 ! A10   A(3,2,7)              105.7304         estimate D2E/DX2                !
 ! A11   A(3,2,13)             112.4642         estimate D2E/DX2                !
 ! A12   A(7,2,13)             110.1785         estimate D2E/DX2                !
 ! A13   A(2,3,6)              111.8835         estimate D2E/DX2                !
 ! A14   A(2,3,11)             112.9402         estimate D2E/DX2                !
 ! A15   A(2,3,12)             106.4342         estimate D2E/DX2                !
 ! A16   A(6,3,11)             106.7074         estimate D2E/DX2                !
 ! A17   A(6,3,12)             107.7558         estimate D2E/DX2                !
 ! A18   A(11,3,12)            111.0577         estimate D2E/DX2                !
 ! A19   A(5,4,9)              108.8178         estimate D2E/DX2                !
 ! A20   A(5,4,11)             110.7729         estimate D2E/DX2                !
 ! A21   A(5,4,16)             112.7374         estimate D2E/DX2                !
 ! A22   A(9,4,11)             108.8129         estimate D2E/DX2                !
 ! A23   A(9,4,16)             107.5852         estimate D2E/DX2                !
 ! A24   A(11,4,16)            107.9998         estimate D2E/DX2                !
 ! A25   A(1,5,4)              111.5033         estimate D2E/DX2                !
 ! A26   A(1,5,10)             108.898          estimate D2E/DX2                !
 ! A27   A(1,5,15)             110.2264         estimate D2E/DX2                !
 ! A28   A(4,5,10)             108.4987         estimate D2E/DX2                !
 ! A29   A(4,5,15)             107.0823         estimate D2E/DX2                !
 ! A30   A(10,5,15)            110.6158         estimate D2E/DX2                !
 ! A31   A(3,11,4)             116.0216         estimate D2E/DX2                !
 ! A32   A(3,12,20)            119.8308         estimate D2E/DX2                !
 ! A33   A(2,13,32)            114.8871         estimate D2E/DX2                !
 ! A34   A(1,14,36)            115.029          estimate D2E/DX2                !
 ! A35   A(5,15,40)            114.5873         estimate D2E/DX2                !
 ! A36   A(4,16,17)            106.9861         estimate D2E/DX2                !
 ! A37   A(4,16,18)            109.3929         estimate D2E/DX2                !
 ! A38   A(4,16,19)            114.6085         estimate D2E/DX2                !
 ! A39   A(17,16,18)           108.4538         estimate D2E/DX2                !
 ! A40   A(17,16,19)           106.439          estimate D2E/DX2                !
 ! A41   A(18,16,19)           110.6948         estimate D2E/DX2                !
 ! A42   A(16,19,44)           115.0516         estimate D2E/DX2                !
 ! A43   A(12,20,21)           104.5633         estimate D2E/DX2                !
 ! A44   A(12,20,22)           108.7433         estimate D2E/DX2                !
 ! A45   A(12,20,23)           104.2108         estimate D2E/DX2                !
 ! A46   A(21,20,22)           120.9265         estimate D2E/DX2                !
 ! A47   A(21,20,23)           108.5295         estimate D2E/DX2                !
 ! A48   A(22,20,23)           108.5997         estimate D2E/DX2                !
 ! A49   A(20,23,24)           118.9402         estimate D2E/DX2                !
 ! A50   A(20,23,25)           119.0491         estimate D2E/DX2                !
 ! A51   A(24,23,25)           122.0096         estimate D2E/DX2                !
 ! A52   A(23,24,26)           118.5141         estimate D2E/DX2                !
 ! A53   A(23,24,27)           120.5532         estimate D2E/DX2                !
 ! A54   A(26,24,27)           120.932          estimate D2E/DX2                !
 ! A55   A(23,25,28)           118.4913         estimate D2E/DX2                !
 ! A56   A(23,25,29)           120.8213         estimate D2E/DX2                !
 ! A57   A(28,25,29)           120.6873         estimate D2E/DX2                !
 ! A58   A(24,26,30)           120.5868         estimate D2E/DX2                !
 ! A59   A(24,26,48)           119.5592         estimate D2E/DX2                !
 ! A60   A(30,26,48)           119.8102         estimate D2E/DX2                !
 ! A61   A(25,28,30)           120.6402         estimate D2E/DX2                !
 ! A62   A(25,28,52)           119.3128         estimate D2E/DX2                !
 ! A63   A(30,28,52)           119.9736         estimate D2E/DX2                !
 ! A64   A(26,30,28)           119.7518         estimate D2E/DX2                !
 ! A65   A(26,30,31)           120.1452         estimate D2E/DX2                !
 ! A66   A(28,30,31)           120.103          estimate D2E/DX2                !
 ! A67   A(13,32,33)           112.1337         estimate D2E/DX2                !
 ! A68   A(13,32,34)           110.9813         estimate D2E/DX2                !
 ! A69   A(13,32,35)           106.4861         estimate D2E/DX2                !
 ! A70   A(33,32,34)           109.0959         estimate D2E/DX2                !
 ! A71   A(33,32,35)           108.7297         estimate D2E/DX2                !
 ! A72   A(34,32,35)           109.3333         estimate D2E/DX2                !
 ! A73   A(14,36,37)           106.4533         estimate D2E/DX2                !
 ! A74   A(14,36,38)           111.0667         estimate D2E/DX2                !
 ! A75   A(14,36,39)           111.597          estimate D2E/DX2                !
 ! A76   A(37,36,38)           108.9272         estimate D2E/DX2                !
 ! A77   A(37,36,39)           109.5334         estimate D2E/DX2                !
 ! A78   A(38,36,39)           109.1929         estimate D2E/DX2                !
 ! A79   A(15,40,41)           106.5361         estimate D2E/DX2                !
 ! A80   A(15,40,42)           111.2612         estimate D2E/DX2                !
 ! A81   A(15,40,43)           111.0686         estimate D2E/DX2                !
 ! A82   A(41,40,42)           109.4933         estimate D2E/DX2                !
 ! A83   A(41,40,43)           109.0674         estimate D2E/DX2                !
 ! A84   A(42,40,43)           109.3491         estimate D2E/DX2                !
 ! A85   A(19,44,45)           106.6188         estimate D2E/DX2                !
 ! A86   A(19,44,46)           110.9536         estimate D2E/DX2                !
 ! A87   A(19,44,47)           112.11           estimate D2E/DX2                !
 ! A88   A(45,44,46)           109.0683         estimate D2E/DX2                !
 ! A89   A(45,44,47)           109.3343         estimate D2E/DX2                !
 ! A90   A(46,44,47)           108.6954         estimate D2E/DX2                !
 ! A91   A(26,48,49)           111.5444         estimate D2E/DX2                !
 ! A92   A(26,48,50)           111.3547         estimate D2E/DX2                !
 ! A93   A(26,48,51)           111.5331         estimate D2E/DX2                !
 ! A94   A(49,48,50)           107.1705         estimate D2E/DX2                !
 ! A95   A(49,48,51)           107.863          estimate D2E/DX2                !
 ! A96   A(50,48,51)           107.142          estimate D2E/DX2                !
 ! A97   A(28,52,53)           111.0609         estimate D2E/DX2                !
 ! A98   A(28,52,54)           111.8825         estimate D2E/DX2                !
 ! A99   A(28,52,55)           111.7542         estimate D2E/DX2                !
 ! A100  A(53,52,54)           106.8969         estimate D2E/DX2                !
 ! A101  A(53,52,55)           106.9136         estimate D2E/DX2                !
 ! A102  A(54,52,55)           108.0699         estimate D2E/DX2                !
 ! D1    D(5,1,2,3)            -50.1143         estimate D2E/DX2                !
 ! D2    D(5,1,2,7)             65.3505         estimate D2E/DX2                !
 ! D3    D(5,1,2,13)          -174.9939         estimate D2E/DX2                !
 ! D4    D(8,1,2,3)             69.2992         estimate D2E/DX2                !
 ! D5    D(8,1,2,7)           -175.236          estimate D2E/DX2                !
 ! D6    D(8,1,2,13)           -55.5804         estimate D2E/DX2                !
 ! D7    D(14,1,2,3)          -168.9957         estimate D2E/DX2                !
 ! D8    D(14,1,2,7)           -53.5309         estimate D2E/DX2                !
 ! D9    D(14,1,2,13)           66.1247         estimate D2E/DX2                !
 ! D10   D(2,1,5,4)             52.0439         estimate D2E/DX2                !
 ! D11   D(2,1,5,10)           -67.647          estimate D2E/DX2                !
 ! D12   D(2,1,5,15)           170.8359         estimate D2E/DX2                !
 ! D13   D(8,1,5,4)            -68.0276         estimate D2E/DX2                !
 ! D14   D(8,1,5,10)           172.2814         estimate D2E/DX2                !
 ! D15   D(8,1,5,15)            50.7643         estimate D2E/DX2                !
 ! D16   D(14,1,5,4)           172.5731         estimate D2E/DX2                !
 ! D17   D(14,1,5,10)           52.8822         estimate D2E/DX2                !
 ! D18   D(14,1,5,15)          -68.6349         estimate D2E/DX2                !
 ! D19   D(2,1,14,36)          -97.7096         estimate D2E/DX2                !
 ! D20   D(5,1,14,36)          142.0063         estimate D2E/DX2                !
 ! D21   D(8,1,14,36)           23.6611         estimate D2E/DX2                !
 ! D22   D(1,2,3,6)            171.8237         estimate D2E/DX2                !
 ! D23   D(1,2,3,11)            51.3983         estimate D2E/DX2                !
 ! D24   D(1,2,3,12)           -70.7171         estimate D2E/DX2                !
 ! D25   D(7,2,3,6)             55.192          estimate D2E/DX2                !
 ! D26   D(7,2,3,11)           -65.2334         estimate D2E/DX2                !
 ! D27   D(7,2,3,12)           172.6512         estimate D2E/DX2                !
 ! D28   D(13,2,3,6)           -65.0899         estimate D2E/DX2                !
 ! D29   D(13,2,3,11)          174.4847         estimate D2E/DX2                !
 ! D30   D(13,2,3,12)           52.3693         estimate D2E/DX2                !
 ! D31   D(1,2,13,32)         -156.1708         estimate D2E/DX2                !
 ! D32   D(3,2,13,32)           79.582          estimate D2E/DX2                !
 ! D33   D(7,2,13,32)          -38.0966         estimate D2E/DX2                !
 ! D34   D(2,3,11,4)           -54.8421         estimate D2E/DX2                !
 ! D35   D(6,3,11,4)          -178.1822         estimate D2E/DX2                !
 ! D36   D(12,3,11,4)           64.64           estimate D2E/DX2                !
 ! D37   D(2,3,12,20)         -151.797          estimate D2E/DX2                !
 ! D38   D(6,3,12,20)          -31.6324         estimate D2E/DX2                !
 ! D39   D(11,3,12,20)          84.9032         estimate D2E/DX2                !
 ! D40   D(9,4,5,1)             66.38           estimate D2E/DX2                !
 ! D41   D(9,4,5,10)          -173.6932         estimate D2E/DX2                !
 ! D42   D(9,4,5,15)           -54.2715         estimate D2E/DX2                !
 ! D43   D(11,4,5,1)           -53.2001         estimate D2E/DX2                !
 ! D44   D(11,4,5,10)           66.7267         estimate D2E/DX2                !
 ! D45   D(11,4,5,15)         -173.8516         estimate D2E/DX2                !
 ! D46   D(16,4,5,1)          -174.3523         estimate D2E/DX2                !
 ! D47   D(16,4,5,10)          -54.4255         estimate D2E/DX2                !
 ! D48   D(16,4,5,15)           64.9962         estimate D2E/DX2                !
 ! D49   D(5,4,11,3)            55.6062         estimate D2E/DX2                !
 ! D50   D(9,4,11,3)           -63.9768         estimate D2E/DX2                !
 ! D51   D(16,4,11,3)          179.5171         estimate D2E/DX2                !
 ! D52   D(5,4,16,17)          -66.2352         estimate D2E/DX2                !
 ! D53   D(5,4,16,18)          176.4799         estimate D2E/DX2                !
 ! D54   D(5,4,16,19)           51.4991         estimate D2E/DX2                !
 ! D55   D(9,4,16,17)           53.7453         estimate D2E/DX2                !
 ! D56   D(9,4,16,18)          -63.5396         estimate D2E/DX2                !
 ! D57   D(9,4,16,19)          171.4796         estimate D2E/DX2                !
 ! D58   D(11,4,16,17)         171.0469         estimate D2E/DX2                !
 ! D59   D(11,4,16,18)          53.762          estimate D2E/DX2                !
 ! D60   D(11,4,16,19)         -71.2188         estimate D2E/DX2                !
 ! D61   D(1,5,15,40)          104.5129         estimate D2E/DX2                !
 ! D62   D(4,5,15,40)         -134.0274         estimate D2E/DX2                !
 ! D63   D(10,5,15,40)         -15.9775         estimate D2E/DX2                !
 ! D64   D(3,12,20,21)         158.8762         estimate D2E/DX2                !
 ! D65   D(3,12,20,22)          28.4181         estimate D2E/DX2                !
 ! D66   D(3,12,20,23)         -87.2641         estimate D2E/DX2                !
 ! D67   D(2,13,32,33)         -67.2895         estimate D2E/DX2                !
 ! D68   D(2,13,32,34)          55.0028         estimate D2E/DX2                !
 ! D69   D(2,13,32,35)         173.9018         estimate D2E/DX2                !
 ! D70   D(1,14,36,37)        -178.0728         estimate D2E/DX2                !
 ! D71   D(1,14,36,38)         -59.6352         estimate D2E/DX2                !
 ! D72   D(1,14,36,39)          62.4638         estimate D2E/DX2                !
 ! D73   D(5,15,40,41)         179.5667         estimate D2E/DX2                !
 ! D74   D(5,15,40,42)         -61.1557         estimate D2E/DX2                !
 ! D75   D(5,15,40,43)          60.9098         estimate D2E/DX2                !
 ! D76   D(4,16,19,44)          86.4874         estimate D2E/DX2                !
 ! D77   D(17,16,19,44)       -155.4679         estimate D2E/DX2                !
 ! D78   D(18,16,19,44)        -37.8059         estimate D2E/DX2                !
 ! D79   D(16,19,44,45)        168.3822         estimate D2E/DX2                !
 ! D80   D(16,19,44,46)         49.7377         estimate D2E/DX2                !
 ! D81   D(16,19,44,47)        -72.0013         estimate D2E/DX2                !
 ! D82   D(12,20,23,24)        -91.9018         estimate D2E/DX2                !
 ! D83   D(12,20,23,25)         87.7316         estimate D2E/DX2                !
 ! D84   D(21,20,23,24)         19.103          estimate D2E/DX2                !
 ! D85   D(21,20,23,25)       -161.2635         estimate D2E/DX2                !
 ! D86   D(22,20,23,24)        152.3153         estimate D2E/DX2                !
 ! D87   D(22,20,23,25)        -28.0513         estimate D2E/DX2                !
 ! D88   D(20,23,24,26)        179.7651         estimate D2E/DX2                !
 ! D89   D(20,23,24,27)         -0.542          estimate D2E/DX2                !
 ! D90   D(25,23,24,26)          0.143          estimate D2E/DX2                !
 ! D91   D(25,23,24,27)        179.8359         estimate D2E/DX2                !
 ! D92   D(20,23,25,28)       -179.0636         estimate D2E/DX2                !
 ! D93   D(20,23,25,29)          1.0207         estimate D2E/DX2                !
 ! D94   D(24,23,25,28)          0.5581         estimate D2E/DX2                !
 ! D95   D(24,23,25,29)       -179.3576         estimate D2E/DX2                !
 ! D96   D(23,24,26,30)         -0.6629         estimate D2E/DX2                !
 ! D97   D(23,24,26,48)        176.9233         estimate D2E/DX2                !
 ! D98   D(27,24,26,30)        179.6455         estimate D2E/DX2                !
 ! D99   D(27,24,26,48)         -2.7684         estimate D2E/DX2                !
 ! D100  D(23,25,28,30)         -0.7517         estimate D2E/DX2                !
 ! D101  D(23,25,28,52)        176.1328         estimate D2E/DX2                !
 ! D102  D(29,25,28,30)        179.164          estimate D2E/DX2                !
 ! D103  D(29,25,28,52)         -3.9514         estimate D2E/DX2                !
 ! D104  D(24,26,30,28)          0.4735         estimate D2E/DX2                !
 ! D105  D(24,26,30,31)       -179.597          estimate D2E/DX2                !
 ! D106  D(48,26,30,28)       -177.1066         estimate D2E/DX2                !
 ! D107  D(48,26,30,31)          2.823          estimate D2E/DX2                !
 ! D108  D(24,26,48,49)         30.5673         estimate D2E/DX2                !
 ! D109  D(24,26,48,50)        -89.1124         estimate D2E/DX2                !
 ! D110  D(24,26,48,51)        151.2517         estimate D2E/DX2                !
 ! D111  D(30,26,48,49)       -151.8276         estimate D2E/DX2                !
 ! D112  D(30,26,48,50)         88.4927         estimate D2E/DX2                !
 ! D113  D(30,26,48,51)        -31.1432         estimate D2E/DX2                !
 ! D114  D(25,28,30,26)          0.2494         estimate D2E/DX2                !
 ! D115  D(25,28,30,31)       -179.6802         estimate D2E/DX2                !
 ! D116  D(52,28,30,26)       -176.6147         estimate D2E/DX2                !
 ! D117  D(52,28,30,31)          3.4558         estimate D2E/DX2                !
 ! D118  D(25,28,52,53)        -87.3042         estimate D2E/DX2                !
 ! D119  D(25,28,52,54)        153.3351         estimate D2E/DX2                !
 ! D120  D(25,28,52,55)         31.992          estimate D2E/DX2                !
 ! D121  D(30,28,52,53)         89.6015         estimate D2E/DX2                !
 ! D122  D(30,28,52,54)        -29.7591         estimate D2E/DX2                !
 ! D123  D(30,28,52,55)       -151.1023         estimate D2E/DX2                !
 --------------------------------------------------------------------------------
 Trust Radius=3.00D-01 FncErr=1.00D-07 GrdErr=1.00D-06 EigMax=2.50D+02 EigMin=1.00D-04
 Number of steps in this run=    291 maximum allowed number of steps=    330.
 GradGradGradGradGradGradGradGradGradGradGradGradGradGradGradGradGradGrad

 Leave Link  103 at Sat Jun 15 08:43:32 2019, MaxMem=  6442450944 cpu:               2.4 elap:               0.1
 (Enter /home/ekwan/sw/g16/l202.exe)
 Stoichiometry    C18H22F6O8S
 Framework group  C1[X(C18H22F6O8S)]
 Deg. of freedom   159
 Full point group                 C1      NOp   1
 Largest Abelian subgroup         C1      NOp   1
 Largest concise Abelian subgroup C1      NOp   1
                         Standard orientation:                         
 ---------------------------------------------------------------------
 Center     Atomic      Atomic             Coordinates (Angstroms)
 Number     Number       Type             X           Y           Z
 ---------------------------------------------------------------------
      1          6           0        3.512215   -0.216500    0.751889
      2          6           0        3.360587   -0.499074   -0.747480
      3          6           0        1.889105   -0.396229   -1.192480
      4          6           0        1.343058    1.088617    0.617423
      5          6           0        2.793874    1.087060    1.116874
      6          1           0        1.787622   -0.453466   -2.274398
      7          1           0        3.893005    0.295048   -1.291793
      8          1           0        3.065184   -1.035810    1.329330
      9          1           0        0.779656    0.322381    1.164404
     10          1           0        3.322823    1.926198    0.651135
     11          8           0        1.286856    0.788201   -0.797860
     12          8           0        1.199338   -1.555683   -0.616500
     13          8           0        3.926185   -1.754856   -1.044095
     14          8           0        4.880875   -0.066099    1.092332
     15          8           0        2.749640    1.244791    2.526481
     16          6           0        0.642320    2.426178    0.844046
     17          1           0        0.550737    2.559490    1.924565
     18          1           0       -0.365332    2.387205    0.412361
     19          8           0        1.350756    3.552332    0.360033
     20         16           0       -0.107904   -2.174623   -1.364814
     21          8           0       -0.209361   -3.537704   -0.857884
     22          8           0        0.003783   -1.912425   -2.799922
     23          6           0       -1.478016   -1.222563   -0.715295
     24          6           0       -2.152980   -1.693166    0.407824
     25          6           0       -1.831321   -0.030850   -1.343384
     26          6           0       -3.215412   -0.942178    0.909117
     27          1           0       -1.860053   -2.624246    0.875875
     28          6           0       -2.886466    0.710626   -0.816499
     29          1           0       -1.300065    0.311676   -2.221449
     30          6           0       -3.581828    0.259518    0.305134
     31          1           0       -4.403806    0.840180    0.704270
     32          6           0        4.337345   -1.922371   -2.396974
     33          1           0        3.486412   -1.938254   -3.088454
     34          1           0        5.030101   -1.126627   -2.698476
     35          1           0        4.848247   -2.884421   -2.448285
     36          6           0        5.498820   -1.229545    1.630081
     37          1           0        6.526259   -0.950252    1.871965
     38          1           0        4.993097   -1.556492    2.548142
     39          1           0        5.503502   -2.052323    0.909681
     40          6           0        3.665754    2.203145    3.044174
     41          1           0        3.516165    2.223517    4.125553
     42          1           0        4.700177    1.922583    2.823880
     43          1           0        3.464950    3.201739    2.635583
     44          6           0        1.119352    3.867310   -1.008003
     45          1           0        1.552320    4.855221   -1.178602
     46          1           0        0.043768    3.904536   -1.225888
     47          1           0        1.589119    3.144394   -1.682369
     48          6           0       -4.007011   -1.463746    2.081301
     49          9           0       -3.245650   -2.218304    2.895433
     50          9           0       -5.037767   -2.232280    1.674765
     51          9           0       -4.525269   -0.459725    2.813652
     52          6           0       -3.227776    2.044647   -1.427373
     53          9           0       -2.495799    3.038700   -0.866957
     54          9           0       -4.521276    2.362280   -1.246420
     55          9           0       -2.973319    2.067993   -2.747466
 ---------------------------------------------------------------------
 Rotational constants (GHZ):           0.1504964           0.0805901           0.0740199
 Leave Link  202 at Sat Jun 15 08:43:33 2019, MaxMem=  6442450944 cpu:               5.5 elap:               0.2
 (Enter /home/ekwan/sw/g16/l301.exe)
 Standard basis: 6-31G(d) (6D, 7F)
 Centers:      12     22     21
 SP 1 1.00
     Exponent=  8.4500000000D-02 Coefficients=  1.0000000000D+00  1.0000000000D+00
 ****
 Ernie: Thresh=  0.10000D-02 Tol=  0.10000D-05 Strict=F.
 There are   555 symmetry adapted cartesian basis functions of A   symmetry.
 There are   555 symmetry adapted basis functions of A   symmetry.
   555 basis functions,  1048 primitive gaussians,   555 cartesian basis functions
   132 alpha electrons      132 beta electrons
       nuclear repulsion energy      4271.4979407556 Hartrees.
 IExCor=  902 DFT=T Ex+Corr=mPW1LYP ExCW=0 ScaHFX=  0.250000
 ScaDFX=  0.750000  0.750000  1.000000  1.000000 ScalE2=  1.000000  1.000000
 IRadAn=      5 IRanWt=     -1 IRanGd=            0 ICorTp=0 IEmpDi=  4
 NAtoms=   55 NActive=   55 NUniq=   55 SFac= 1.00D+00 NAtFMM=   60 NAOKFM=F Big=F
 Integral buffers will be    131072 words long.
 Raffenetti 2 integral format.
 Two-electron integral symmetry is turned on.
 ------------------------------------------------------------------------------
 Polarizable Continuum Model (PCM)
 =================================
 Model                : PCM.
 Atomic radii         : UFF (Universal Force Field).
 Polarization charges : Total charges.
 Charge compensation  : None.
 Solution method      : On-the-fly selection.
 Cavity type          : Scaled VdW (van der Waals Surface) (Alpha=1.100).
 Cavity algorithm     : GePol (No added spheres)
                        Default sphere list used, NSphG=   55.
                        Lebedev-Laikov grids with approx.  5.0 points / Ang**2.
                        Smoothing algorithm: York/Karplus (Gamma=1.0000).
                        Polarization charges: spherical gaussians, with
                                              point-specific exponents (IZeta= 3).
                        Self-potential: point-specific (ISelfS= 7).
                        Self-field    : sphere-specific E.n sum rule (ISelfD= 2).
 1st derivatives      : Analytical E(r).r(x)/FMM algorithm (CHGder, D1EAlg=3).
                        Cavity 1st derivative terms included.
 Solvent              : TetraHydroFuran, Eps=   7.425700 Eps(inf)=   1.974025
 ------------------------------------------------------------------------------
 GePol: Number of generator spheres                  =      55
 GePol: Total number of spheres                      =      55
 GePol: Number of exposed spheres                    =      55 (100.00%)
 GePol: Number of points                             =    4004
 GePol: Average weight of points                     =       0.13
 GePol: Minimum weight of points                     =   0.16D-10
 GePol: Maximum weight of points                     =    0.20577
 GePol: Number of points with low weight             =     256
 GePol: Fraction of low-weight points (<1% of avg)   =       6.39%
 GePol: Cavity surface area                          =    507.135 Ang**2
 GePol: Cavity volume                                =    580.944 Ang**3
 Leave Link  301 at Sat Jun 15 08:43:33 2019, MaxMem=  6442450944 cpu:               9.3 elap:               0.4
 (Enter /home/ekwan/sw/g16/l302.exe)
 NPDir=0 NMtPBC=     1 NCelOv=     1 NCel=       1 NClECP=     1 NCelD=      1
         NCelK=      1 NCelE2=     1 NClLst=     1 CellRange=     0.0.
 One-electron integrals computed using PRISM.
 One-electron integral symmetry used in STVInt
 NBasis=   555 RedAO= T EigKep=  4.06D-04  NBF=   555
 NBsUse=   555 1.00D-06 EigRej= -1.00D+00 NBFU=   555
 Precomputing XC quadrature grid using
 IXCGrd= 4 IRadAn=           5 IRanWt=          -1 IRanGd=           0 AccXCQ= 0.00D+00.
 Generated NRdTot=       0 NPtTot=           0 NUsed=           0 NTot=          32
 NSgBfM=   543   542   542   543   543 MxSgAt=    55 MxSgA2=    55.
 Leave Link  302 at Sat Jun 15 08:43:41 2019, MaxMem=  6442450944 cpu:             220.1 elap:               7.7
 (Enter /home/ekwan/sw/g16/l303.exe)
 DipDrv:  MaxL=1.
 Leave Link  303 at Sat Jun 15 08:43:41 2019, MaxMem=  6442450944 cpu:               8.2 elap:               0.3
 (Enter /home/ekwan/sw/g16/l401.exe)
 ExpMin= 8.45D-02 ExpMax= 2.19D+04 ExpMxC= 3.30D+03 IAcc=3 IRadAn=         5 AccDes= 0.00D+00
 Harris functional with IExCor=  902 and IRadAn=       5 diagonalized for initial guess.
 HarFok:  IExCor=  902 AccDes= 0.00D+00 IRadAn=         5 IDoV= 1 UseB2=F ITyADJ=14
 ICtDFT=  3500011 ScaDFX=  1.000000  1.000000  1.000000  1.000000
 FoFCou: FMM=F IPFlag=           0 FMFlag=      100000 FMFlg1=           0
         NFxFlg=           0 DoJE=T BraDBF=F KetDBF=T FulRan=T
         wScrn=  0.000000 ICntrl=       500 IOpCl=  0 I1Cent=   200000004 NGrid=           0
         NMat0=    1 NMatS0=      1 NMatT0=    0 NMatD0=    1 NMtDS0=    0 NMtDT0=    0
 Petite list used in FoFCou.
 Harris En= -2298.10110223997    
 JPrj=0 DoOrth=F DoCkMO=F.
 Leave Link  401 at Sat Jun 15 08:43:50 2019, MaxMem=  6442450944 cpu:             279.3 elap:               9.1
 (Enter /home/ekwan/sw/g16/l502.exe)
 Integral symmetry usage will be decided dynamically.
 Closed shell SCF:
 Using DIIS extrapolation, IDIIS=  1040.
 NGot=  6442450944 LenX=  6441811192 LenY=  6441502612
 Requested convergence on RMS density matrix=1.00D-08 within 128 cycles.
 Requested convergence on MAX density matrix=1.00D-06.
 Requested convergence on             energy=1.00D-06.
 No special actions if energy rises.
 Fock matrices will be formed incrementally for  20 cycles.

 Cycle   1  Pass 1  IDiag  1:
 FoFJK:  IHMeth= 1 ICntrl=       0 DoSepK=F KAlg= 0 I1Cent=           0 FoldK=F
 IRaf= 690000000 NMat=       1 IRICut=       1 DoRegI=T DoRafI=F ISym2E= 0 IDoP0=0 IntGTp=1.
 FoFCou: FMM=F IPFlag=           0 FMFlag=      100000 FMFlg1=           0
         NFxFlg=           0 DoJE=F BraDBF=F KetDBF=F FulRan=T
         wScrn=  0.000000 ICntrl=         0 IOpCl=  0 I1Cent=           0 NGrid=           0
         NMat0=    1 NMatS0=      1 NMatT0=    0 NMatD0=    1 NMtDS0=    0 NMtDT0=    0
 Symmetry not used in FoFCou.
 Inv3:  Mode=1 IEnd=    48096048.
 Iteration    1 A*A^-1 deviation from unit magnitude is 4.44D-15 for   4001.
 Iteration    1 A*A^-1 deviation from orthogonality  is 3.09D-15 for   3477   1105.
 Iteration    1 A^-1*A deviation from unit magnitude is 4.44D-15 for   4001.
 Iteration    1 A^-1*A deviation from orthogonality  is 2.10D-15 for   3499   1101.
 E= -2296.60872441750    
 DIIS: error= 2.92D-02 at cycle   1 NSaved=   1.
 NSaved= 1 IEnMin= 1 EnMin= -2296.60872441750     IErMin= 1 ErrMin= 2.92D-02
 ErrMax= 2.92D-02  0.00D+00 EMaxC= 1.00D-01 BMatC= 9.38D-01 BMatP= 9.38D-01
 IDIUse=3 WtCom= 7.08D-01 WtEn= 2.92D-01
 Coeff-Com:  0.100D+01
 Coeff-En:   0.100D+01
 Coeff:      0.100D+01
 Gap=     0.167 Goal=   None    Shift=    0.000
 GapD=    0.167 DampG=1.000 DampE=0.500 DampFc=0.5000 IDamp=-1.
 Damping current iteration by 5.00D-01
 RMSDP=4.08D-03 MaxDP=5.47D-01              OVMax= 1.95D-01

 Cycle   2  Pass 1  IDiag  1:
 RMSU=  2.04D-03    CP:  9.97D-01
 E= -2296.85221728494     Delta-E=       -0.243492867441 Rises=F Damp=T
 DIIS: error= 7.07D-03 at cycle   2 NSaved=   2.
 NSaved= 2 IEnMin= 2 EnMin= -2296.85221728494     IErMin= 2 ErrMin= 7.07D-03
 ErrMax= 7.07D-03  0.00D+00 EMaxC= 1.00D-01 BMatC= 1.05D-01 BMatP= 9.38D-01
 IDIUse=3 WtCom= 9.29D-01 WtEn= 7.07D-02
 Coeff-Com:  0.166D+00 0.834D+00
 Coeff-En:   0.288D+00 0.712D+00
 Coeff:      0.175D+00 0.825D+00
 Gap=     0.227 Goal=   None    Shift=    0.000
 RMSDP=1.22D-03 MaxDP=1.36D-01 DE=-2.43D-01 OVMax= 1.50D-01

 Cycle   3  Pass 1  IDiag  1:
 RMSU=  1.01D-03    CP:  9.89D-01  6.67D-01
 E= -2297.29665636152     Delta-E=       -0.444439076584 Rises=F Damp=F
 DIIS: error= 7.14D-03 at cycle   3 NSaved=   3.
 NSaved= 3 IEnMin= 3 EnMin= -2297.29665636152     IErMin= 2 ErrMin= 7.07D-03
 ErrMax= 7.14D-03  0.00D+00 EMaxC= 1.00D-01 BMatC= 6.63D-02 BMatP= 1.05D-01
 IDIUse=3 WtCom= 9.29D-01 WtEn= 7.14D-02
 Coeff-Com:  0.221D-01 0.435D+00 0.543D+00
 Coeff-En:   0.000D+00 0.000D+00 0.100D+01
 Coeff:      0.205D-01 0.404D+00 0.575D+00
 Gap=     0.190 Goal=   None    Shift=    0.000
 RMSDP=6.93D-04 MaxDP=4.37D-02 DE=-4.44D-01 OVMax= 5.63D-02

 Cycle   4  Pass 1  IDiag  1:
 RMSU=  4.40D-04    CP:  9.92D-01  7.94D-01  5.37D-01
 E= -2297.33878016681     Delta-E=       -0.042123805288 Rises=F Damp=F
 DIIS: error= 3.40D-03 at cycle   4 NSaved=   4.
 NSaved= 4 IEnMin= 4 EnMin= -2297.33878016681     IErMin= 4 ErrMin= 3.40D-03
 ErrMax= 3.40D-03  0.00D+00 EMaxC= 1.00D-01 BMatC= 1.57D-02 BMatP= 6.63D-02
 IDIUse=3 WtCom= 9.66D-01 WtEn= 3.40D-02
 Coeff-Com: -0.146D-01 0.105D+00 0.348D+00 0.562D+00
 Coeff-En:   0.000D+00 0.000D+00 0.206D+00 0.794D+00
 Coeff:     -0.141D-01 0.101D+00 0.343D+00 0.570D+00
 Gap=     0.190 Goal=   None    Shift=    0.000
 RMSDP=2.55D-04 MaxDP=1.77D-02 DE=-4.21D-02 OVMax= 2.22D-02

 Cycle   5  Pass 1  IDiag  1:
 RMSU=  1.09D-04    CP:  9.92D-01  7.68D-01  6.71D-01  5.94D-01
 E= -2297.35071337685     Delta-E=       -0.011933210040 Rises=F Damp=F
 DIIS: error= 8.10D-04 at cycle   5 NSaved=   5.
 NSaved= 5 IEnMin= 5 EnMin= -2297.35071337685     IErMin= 5 ErrMin= 8.10D-04
 ErrMax= 8.10D-04  0.00D+00 EMaxC= 1.00D-01 BMatC= 1.02D-03 BMatP= 1.57D-02
 IDIUse=3 WtCom= 9.92D-01 WtEn= 8.10D-03
 Coeff-Com: -0.829D-02 0.259D-01 0.138D+00 0.303D+00 0.541D+00
 Coeff-En:   0.000D+00 0.000D+00 0.000D+00 0.000D+00 0.100D+01
 Coeff:     -0.823D-02 0.257D-01 0.137D+00 0.301D+00 0.545D+00
 Gap=     0.191 Goal=   None    Shift=    0.000
 RMSDP=6.05D-05 MaxDP=5.04D-03 DE=-1.19D-02 OVMax= 6.62D-03

 Cycle   6  Pass 1  IDiag  1:
 RMSU=  3.49D-05    CP:  9.91D-01  7.74D-01  6.74D-01  6.38D-01  5.99D-01
 E= -2297.35151934848     Delta-E=       -0.000805971626 Rises=F Damp=F
 DIIS: error= 1.68D-04 at cycle   6 NSaved=   6.
 NSaved= 6 IEnMin= 6 EnMin= -2297.35151934848     IErMin= 6 ErrMin= 1.68D-04
 ErrMax= 1.68D-04  0.00D+00 EMaxC= 1.00D-01 BMatC= 6.21D-05 BMatP= 1.02D-03
 IDIUse=3 WtCom= 9.98D-01 WtEn= 1.68D-03
 Coeff-Com: -0.296D-02 0.414D-02 0.359D-01 0.960D-01 0.265D+00 0.602D+00
 Coeff-En:   0.000D+00 0.000D+00 0.000D+00 0.000D+00 0.000D+00 0.100D+01
 Coeff:     -0.296D-02 0.413D-02 0.359D-01 0.958D-01 0.264D+00 0.603D+00
 Gap=     0.191 Goal=   None    Shift=    0.000
 RMSDP=1.62D-05 MaxDP=1.19D-03 DE=-8.06D-04 OVMax= 1.40D-03

 Cycle   7  Pass 1  IDiag  1:
 RMSU=  9.00D-06    CP:  9.91D-01  7.72D-01  6.74D-01  6.44D-01  6.42D-01
                    CP:  6.55D-01
 E= -2297.35156777651     Delta-E=       -0.000048428038 Rises=F Damp=F
 DIIS: error= 4.40D-05 at cycle   7 NSaved=   7.
 NSaved= 7 IEnMin= 7 EnMin= -2297.35156777651     IErMin= 7 ErrMin= 4.40D-05
 ErrMax= 4.40D-05  0.00D+00 EMaxC= 1.00D-01 BMatC= 4.10D-06 BMatP= 6.21D-05
 IDIUse=1 WtCom= 1.00D+00 WtEn= 0.00D+00
 Coeff-Com: -0.102D-02 0.376D-03 0.891D-02 0.286D-01 0.979D-01 0.294D+00
 Coeff-Com:  0.571D+00
 Coeff:     -0.102D-02 0.376D-03 0.891D-02 0.286D-01 0.979D-01 0.294D+00
 Coeff:      0.571D+00
 Gap=     0.191 Goal=   None    Shift=    0.000
 RMSDP=4.39D-06 MaxDP=2.76D-04 DE=-4.84D-05 OVMax= 3.26D-04

 Cycle   8  Pass 1  IDiag  1:
 RMSU=  3.08D-06    CP:  9.91D-01  7.72D-01  6.74D-01  6.44D-01  6.47D-01
                    CP:  6.98D-01  7.04D-01
 E= -2297.35157078267     Delta-E=       -0.000003006151 Rises=F Damp=F
 DIIS: error= 1.95D-05 at cycle   8 NSaved=   8.
 NSaved= 8 IEnMin= 8 EnMin= -2297.35157078267     IErMin= 8 ErrMin= 1.95D-05
 ErrMax= 1.95D-05  0.00D+00 EMaxC= 1.00D-01 BMatC= 5.08D-07 BMatP= 4.10D-06
 IDIUse=1 WtCom= 1.00D+00 WtEn= 0.00D+00
 Coeff-Com: -0.148D-03-0.285D-03-0.243D-03 0.183D-02 0.162D-01 0.732D-01
 Coeff-Com:  0.293D+00 0.616D+00
 Coeff:     -0.148D-03-0.285D-03-0.243D-03 0.183D-02 0.162D-01 0.732D-01
 Coeff:      0.293D+00 0.616D+00
 Gap=     0.191 Goal=   None    Shift=    0.000
 RMSDP=1.57D-06 MaxDP=9.76D-05 DE=-3.01D-06 OVMax= 1.52D-04

 Cycle   9  Pass 1  IDiag  1:
 RMSU=  1.12D-06    CP:  9.91D-01  7.72D-01  6.74D-01  6.44D-01  6.49D-01
                    CP:  7.04D-01  7.50D-01  7.02D-01
 E= -2297.35157111506     Delta-E=       -0.000000332395 Rises=F Damp=F
 DIIS: error= 7.27D-06 at cycle   9 NSaved=   9.
 NSaved= 9 IEnMin= 9 EnMin= -2297.35157111506     IErMin= 9 ErrMin= 7.27D-06
 ErrMax= 7.27D-06  0.00D+00 EMaxC= 1.00D-01 BMatC= 7.99D-08 BMatP= 5.08D-07
 IDIUse=1 WtCom= 1.00D+00 WtEn= 0.00D+00
 Coeff-Com:  0.252D-04-0.155D-03-0.106D-02-0.215D-02-0.208D-02 0.728D-02
 Coeff-Com:  0.978D-01 0.346D+00 0.554D+00
 Coeff:      0.252D-04-0.155D-03-0.106D-02-0.215D-02-0.208D-02 0.728D-02
 Coeff:      0.978D-01 0.346D+00 0.554D+00
 Gap=     0.191 Goal=   None    Shift=    0.000
 RMSDP=6.51D-07 MaxDP=5.27D-05 DE=-3.32D-07 OVMax= 9.40D-05

 Cycle  10  Pass 1  IDiag  1:
 RMSU=  3.48D-07    CP:  9.91D-01  7.72D-01  6.74D-01  6.44D-01  6.50D-01
                    CP:  7.04D-01  7.68D-01  7.79D-01  6.05D-01
 E= -2297.35157118137     Delta-E=       -0.000000066310 Rises=F Damp=F
 DIIS: error= 2.09D-06 at cycle  10 NSaved=  10.
 NSaved=10 IEnMin=10 EnMin= -2297.35157118137     IErMin=10 ErrMin= 2.09D-06
 ErrMax= 2.09D-06  0.00D+00 EMaxC= 1.00D-01 BMatC= 7.38D-09 BMatP= 7.99D-08
 IDIUse=1 WtCom= 1.00D+00 WtEn= 0.00D+00
 Coeff-Com:  0.243D-04-0.523D-04-0.533D-03-0.127D-02-0.260D-02-0.255D-02
 Coeff-Com:  0.256D-01 0.125D+00 0.298D+00 0.558D+00
 Coeff:      0.243D-04-0.523D-04-0.533D-03-0.127D-02-0.260D-02-0.255D-02
 Coeff:      0.256D-01 0.125D+00 0.298D+00 0.558D+00
 Gap=     0.191 Goal=   None    Shift=    0.000
 RMSDP=1.92D-07 MaxDP=1.49D-05 DE=-6.63D-08 OVMax= 2.98D-05

 Cycle  11  Pass 1  IDiag  1:
 RMSU=  1.33D-07    CP:  9.91D-01  7.72D-01  6.74D-01  6.44D-01  6.50D-01
                    CP:  7.04D-01  7.72D-01  7.82D-01  6.79D-01  7.18D-01
 E= -2297.35157118711     Delta-E=       -0.000000005736 Rises=F Damp=F
 DIIS: error= 6.99D-07 at cycle  11 NSaved=  11.
 NSaved=11 IEnMin=11 EnMin= -2297.35157118711     IErMin=11 ErrMin= 6.99D-07
 ErrMax= 6.99D-07  0.00D+00 EMaxC= 1.00D-01 BMatC= 1.04D-09 BMatP= 7.38D-09
 IDIUse=1 WtCom= 1.00D+00 WtEn= 0.00D+00
 Coeff-Com:  0.111D-04-0.953D-05-0.161D-03-0.429D-03-0.130D-02-0.272D-02
 Coeff-Com: -0.669D-03 0.172D-01 0.847D-01 0.315D+00 0.588D+00
 Coeff:      0.111D-04-0.953D-05-0.161D-03-0.429D-03-0.130D-02-0.272D-02
 Coeff:     -0.669D-03 0.172D-01 0.847D-01 0.315D+00 0.588D+00
 Gap=     0.191 Goal=   None    Shift=    0.000
 RMSDP=7.12D-08 MaxDP=6.19D-06 DE=-5.74D-09 OVMax= 7.38D-06

 Cycle  12  Pass 1  IDiag  1:
 RMSU=  4.37D-08    CP:  9.91D-01  7.72D-01  6.74D-01  6.44D-01  6.50D-01
                    CP:  7.05D-01  7.72D-01  7.86D-01  6.92D-01  7.90D-01
                    CP:  6.82D-01
 E= -2297.35157118786     Delta-E=       -0.000000000754 Rises=F Damp=F
 DIIS: error= 2.24D-07 at cycle  12 NSaved=  12.
 NSaved=12 IEnMin=12 EnMin= -2297.35157118786     IErMin=12 ErrMin= 2.24D-07
 ErrMax= 2.24D-07  0.00D+00 EMaxC= 1.00D-01 BMatC= 9.87D-11 BMatP= 1.04D-09
 IDIUse=1 WtCom= 1.00D+00 WtEn= 0.00D+00
 Coeff-Com:  0.276D-05 0.101D-05-0.147D-04-0.548D-04-0.345D-03-0.105D-02
 Coeff-Com: -0.349D-02-0.766D-02 0.415D-02 0.882D-01 0.293D+00 0.627D+00
 Coeff:      0.276D-05 0.101D-05-0.147D-04-0.548D-04-0.345D-03-0.105D-02
 Coeff:     -0.349D-02-0.766D-02 0.415D-02 0.882D-01 0.293D+00 0.627D+00
 Gap=     0.191 Goal=   None    Shift=    0.000
 RMSDP=2.47D-08 MaxDP=1.36D-06 DE=-7.54D-10 OVMax= 4.33D-06

 Cycle  13  Pass 1  IDiag  1:
 RMSU=  1.82D-08    CP:  9.91D-01  7.72D-01  6.74D-01  6.44D-01  6.50D-01
                    CP:  7.05D-01  7.72D-01  7.88D-01  6.94D-01  8.01D-01
                    CP:  7.41D-01  7.06D-01
 E= -2297.35157118803     Delta-E=       -0.000000000170 Rises=F Damp=F
 DIIS: error= 1.25D-07 at cycle  13 NSaved=  13.
 NSaved=13 IEnMin=13 EnMin= -2297.35157118803     IErMin=13 ErrMin= 1.25D-07
 ErrMax= 1.25D-07  0.00D+00 EMaxC= 1.00D-01 BMatC= 1.85D-11 BMatP= 9.87D-11
 IDIUse=1 WtCom= 1.00D+00 WtEn= 0.00D+00
 Coeff-Com:  0.248D-06 0.154D-05 0.121D-04 0.236D-04-0.290D-04-0.201D-03
 Coeff-Com: -0.155D-02-0.593D-02-0.786D-02 0.796D-02 0.798D-01 0.351D+00
 Coeff-Com:  0.577D+00
 Coeff:      0.248D-06 0.154D-05 0.121D-04 0.236D-04-0.290D-04-0.201D-03
 Coeff:     -0.155D-02-0.593D-02-0.786D-02 0.796D-02 0.798D-01 0.351D+00
 Coeff:      0.577D+00
 Gap=     0.191 Goal=   None    Shift=    0.000
 RMSDP=1.00D-08 MaxDP=6.99D-07 DE=-1.70D-10 OVMax= 2.18D-06

 Cycle  14  Pass 1  IDiag  1:
 RMSU=  5.51D-09    CP:  9.91D-01  7.72D-01  6.74D-01  6.44D-01  6.50D-01
                    CP:  7.05D-01  7.72D-01  7.88D-01  6.94D-01  8.06D-01
                    CP:  7.57D-01  8.00D-01  6.67D-01
 E= -2297.35157118797     Delta-E=        0.000000000059 Rises=F Damp=F
 DIIS: error= 2.93D-08 at cycle  14 NSaved=  14.
 NSaved=14 IEnMin=13 EnMin= -2297.35157118803     IErMin=14 ErrMin= 2.93D-08
 ErrMax= 2.93D-08  0.00D+00 EMaxC= 1.00D-01 BMatC= 1.52D-12 BMatP= 1.85D-11
 IDIUse=1 WtCom= 1.00D+00 WtEn= 0.00D+00
 Coeff-Com: -0.105D-06 0.460D-06 0.869D-05 0.195D-04 0.265D-04 0.272D-04
 Coeff-Com: -0.397D-03-0.232D-02-0.474D-02-0.652D-02 0.487D-02 0.101D+00
 Coeff-Com:  0.281D+00 0.627D+00
 Coeff:     -0.105D-06 0.460D-06 0.869D-05 0.195D-04 0.265D-04 0.272D-04
 Coeff:     -0.397D-03-0.232D-02-0.474D-02-0.652D-02 0.487D-02 0.101D+00
 Coeff:      0.281D+00 0.627D+00
 Gap=     0.191 Goal=   None    Shift=    0.000
 RMSDP=2.87D-09 MaxDP=1.32D-07 DE= 5.91D-11 OVMax= 3.74D-07

 Error on total polarization charges =  0.01072
 SCF Done:  E(RmPW1LYP) =  -2297.35157119     A.U. after   14 cycles
            NFock= 14  Conv=0.29D-08     -V/T= 2.0069
 KE= 2.281617229480D+03 PE=-1.394992233952D+04 EE= 5.099455598095D+03
 Leave Link  502 at Sat Jun 15 08:48:37 2019, MaxMem=  6442450944 cpu:            8641.7 elap:             286.8
 (Enter /home/ekwan/sw/g16/l701.exe)
 ... and contract with generalized density number  0.
 Compute integral first derivatives.
 D1PCM: PCM CHGder 1st derivatives, ID1Alg=3 FixD1E=F DoIter=F DoCFld=F I1PDM=0.
 GePol: Maximum number of non-zero 1st derivatives   =     224
 Leave Link  701 at Sat Jun 15 08:48:48 2019, MaxMem=  6442450944 cpu:             309.3 elap:              11.0
 (Enter /home/ekwan/sw/g16/l702.exe)
 L702 exits ... SP integral derivatives will be done elsewhere.
 Leave Link  702 at Sat Jun 15 08:48:48 2019, MaxMem=  6442450944 cpu:               2.4 elap:               0.1
 (Enter /home/ekwan/sw/g16/l703.exe)
 Integral derivatives from FoFJK, PRISM(SPDF).
 Compute integral first derivatives, UseDBF=F ICtDFT=           0.
 Calling FoFJK, ICntrl=      2127 FMM=F ISym2X=0 I1Cent= 0 IOpClX= 0 NMat=1 NMatS=1 NMatT=0.
 FoFJK:  IHMeth= 1 ICntrl=    2127 DoSepK=F KAlg= 0 I1Cent=           0 FoldK=F
 IRaf=         0 NMat=       1 IRICut=       1 DoRegI=T DoRafI=F ISym2E= 0 IDoP0=0 IntGTp=1.
 FoFCou: FMM=F IPFlag=           0 FMFlag=      100000 FMFlg1=         800
         NFxFlg=           0 DoJE=F BraDBF=F KetDBF=F FulRan=T
         wScrn=  0.000000 ICntrl=      2127 IOpCl=  0 I1Cent=           0 NGrid=           0
         NMat0=    1 NMatS0=      1 NMatT0=    0 NMatD0=    1 NMtDS0=    0 NMtDT0=    0
 Symmetry not used in FoFCou.
 Leave Link  703 at Sat Jun 15 08:49:33 2019, MaxMem=  6442450944 cpu:            1298.5 elap:              44.6
 (Enter /home/ekwan/sw/g16/l716.exe)
 Dipole        = 4.17504329D-01 1.45927016D+00 2.08904674D-02
 ***** Axes restored to original set *****
 -------------------------------------------------------------------
 Center     Atomic                   Forces (Hartrees/Bohr)
 Number     Number              X              Y              Z
 -------------------------------------------------------------------
      1        6          -0.000000727   -0.000000597   -0.000001879
      2        6          -0.000007109    0.000004593    0.000001723
      3        6           0.000003539    0.000030954   -0.000003477
      4        6           0.000002326    0.000001587    0.000001462
      5        6           0.000000787    0.000002877   -0.000002788
      6        1          -0.000000300   -0.000002735    0.000000822
      7        1           0.000000389    0.000001733   -0.000001486
      8        1           0.000002600    0.000000672    0.000000011
      9        1           0.000000778   -0.000000551   -0.000000578
     10        1          -0.000000859    0.000000684   -0.000000445
     11        8           0.000003214   -0.000013253   -0.000001773
     12        8           0.000001763   -0.000015938    0.000006906
     13        8           0.000008920   -0.000004483   -0.000003181
     14        8          -0.000001868    0.000001029   -0.000003548
     15        8           0.000000287    0.000000852   -0.000001182
     16        6          -0.000002844   -0.000001514    0.000002173
     17        1          -0.000000885    0.000001088   -0.000001166
     18        1          -0.000000946   -0.000000123   -0.000000197
     19        8          -0.000000099    0.000002815   -0.000001730
     20       16          -0.000012355    0.000003201   -0.000003382
     21        8           0.000004738   -0.000001790    0.000001966
     22        8           0.000003163   -0.000002891    0.000001525
     23        6           0.000002686    0.000000457   -0.000003762
     24        6          -0.000003350   -0.000002454    0.000006628
     25        6           0.000001479   -0.000005006    0.000001908
     26        6           0.000002027   -0.000005386    0.000001969
     27        1           0.000002681   -0.000000672    0.000001785
     28        6          -0.000003238   -0.000003651    0.000003830
     29        1          -0.000001430   -0.000000639    0.000001174
     30        6           0.000003006    0.000003531   -0.000001085
     31        1          -0.000000383   -0.000003309    0.000003288
     32        6          -0.000004291    0.000002673    0.000001721
     33        1           0.000000814    0.000000413   -0.000001715
     34        1           0.000000486    0.000002163   -0.000001917
     35        1           0.000000707    0.000001379   -0.000001209
     36        6           0.000000285    0.000002453   -0.000002862
     37        1           0.000000791    0.000004348   -0.000002545
     38        1           0.000001991    0.000002236   -0.000002099
     39        1           0.000001649    0.000002663   -0.000002268
     40        6          -0.000000210    0.000004070   -0.000002508
     41        1           0.000000943    0.000001634   -0.000001026
     42        1          -0.000000192    0.000002338   -0.000001584
     43        1          -0.000000705    0.000001259   -0.000001129
     44        6          -0.000002983    0.000001471    0.000000241
     45        1          -0.000002997   -0.000000208   -0.000001281
     46        1          -0.000002955   -0.000000502    0.000000023
     47        1          -0.000002152    0.000000005   -0.000001451
     48        6           0.000003493   -0.000004253    0.000004274
     49        9           0.000001286    0.000000229    0.000001026
     50        9           0.000001624   -0.000003834    0.000002236
     51        9           0.000001214   -0.000002074    0.000002851
     52        6           0.000000404   -0.000002363   -0.000002530
     53        9          -0.000001809   -0.000001831    0.000001904
     54        9          -0.000002902   -0.000003159    0.000001807
     55        9          -0.000002479   -0.000002190    0.000004532
 -------------------------------------------------------------------
 Cartesian Forces:  Max     0.000030954 RMS     0.000003963
 Leave Link  716 at Sat Jun 15 08:49:33 2019, MaxMem=  6442450944 cpu:               2.6 elap:               0.1
 (Enter /home/ekwan/sw/g16/l103.exe)

 GradGradGradGradGradGradGradGradGradGradGradGradGradGradGradGradGradGrad
 Berny optimization.
 FormGI is forming the generalized inverse of G from B-inverse, IUseBI=4.
 Internal  Forces:  Max     0.000015877 RMS     0.000001852
 Search for a local minimum.
 Step number   1 out of a maximum of  291
 All quantities printed in internal units (Hartrees-Bohrs-Radians)
 RMS Force = .18518D-05 SwitMx=.10000D-02 MixMth= 2
 Mixed Optimization -- En-DIIS/RFO-DIIS
 Second derivative matrix not updated -- first step.
 ITU=  0
     Eigenvalues ---    0.00410   0.00497   0.00523   0.00588   0.00666
     Eigenvalues ---    0.00681   0.00807   0.01317   0.01376   0.01384
     Eigenvalues ---    0.01389   0.01391   0.01439   0.01449   0.01483
     Eigenvalues ---    0.01514   0.01575   0.01581   0.01605   0.02164
     Eigenvalues ---    0.02166   0.02173   0.02177   0.02183   0.02187
     Eigenvalues ---    0.02242   0.02845   0.03247   0.04330   0.04512
     Eigenvalues ---    0.04657   0.04785   0.04862   0.05190   0.05217
     Eigenvalues ---    0.05735   0.06025   0.06535   0.06954   0.07002
     Eigenvalues ---    0.07129   0.07786   0.09287   0.09996   0.10020
     Eigenvalues ---    0.10049   0.10078   0.10553   0.10570   0.10589
     Eigenvalues ---    0.10590   0.10701   0.10724   0.10801   0.10819
     Eigenvalues ---    0.10902   0.10960   0.11463   0.11696   0.11805
     Eigenvalues ---    0.14116   0.14996   0.16000   0.16000   0.16000
     Eigenvalues ---    0.16000   0.16000   0.16000   0.16000   0.16000
     Eigenvalues ---    0.16000   0.16000   0.16000   0.16000   0.16000
     Eigenvalues ---    0.16000   0.16000   0.16414   0.16910   0.17524
     Eigenvalues ---    0.18687   0.19708   0.19762   0.20863   0.22137
     Eigenvalues ---    0.23478   0.23485   0.23502   0.24962   0.24978
     Eigenvalues ---    0.24999   0.25000   0.25000   0.25000   0.25000
     Eigenvalues ---    0.25000   0.25000   0.25000   0.25000   0.25000
     Eigenvalues ---    0.25000   0.25000   0.25000   0.26888   0.26902
     Eigenvalues ---    0.28341   0.28483   0.28780   0.29710   0.31599
     Eigenvalues ---    0.31714   0.33663   0.33897   0.33910   0.33958
     Eigenvalues ---    0.33963   0.33985   0.34000   0.34025   0.34063
     Eigenvalues ---    0.34147   0.34291   0.34332   0.34400   0.34519
     Eigenvalues ---    0.34579   0.34598   0.34599   0.34755   0.35025
     Eigenvalues ---    0.35676   0.35695   0.35763   0.36111   0.37241
     Eigenvalues ---    0.41883   0.41971   0.42027   0.42046   0.42552
     Eigenvalues ---    0.42597   0.42641   0.42708   0.43106   0.44184
     Eigenvalues ---    0.46083   0.46106   0.46571   0.46692   0.46744
     Eigenvalues ---    0.46868   0.53821   0.55348   0.55779   0.55871
     Eigenvalues ---    0.56187   0.56282   0.90307   0.92528
 RFO step:  Lambda= 0.00000000D+00 EMin= 4.09949453D-03
 Linear search not attempted -- first point.
 Iteration  1 RMS(Cart)=  0.00028834 RMS(Int)=  0.00000001
 Iteration  2 RMS(Cart)=  0.00000002 RMS(Int)=  0.00000000
 ITry= 1 IFail=0 DXMaxC= 1.35D-03 DCOld= 1.00D+10 DXMaxT= 3.00D-01 DXLimC= 3.00D+00 Rises=F
 Variable       Old X    -DE/DX   Delta X   Delta X   Delta X     New X
                                 (Linear)    (Quad)   (Total)
    R1        2.89748   0.00000   0.00000  -0.00002  -0.00002   2.89746
    R2        2.89597   0.00000   0.00000   0.00001   0.00001   2.89598
    R3        2.07401   0.00000   0.00000   0.00000   0.00000   2.07401
    R4        2.68032  -0.00001   0.00000  -0.00001  -0.00001   2.68030
    R5        2.91157   0.00000   0.00000  -0.00001  -0.00001   2.91155
    R6        2.07902   0.00000   0.00000   0.00000   0.00000   2.07902
    R7        2.66235   0.00001   0.00000   0.00002   0.00002   2.66236
    R8        2.05635   0.00000   0.00000   0.00000   0.00000   2.05635
    R9        2.61937  -0.00001   0.00000  -0.00002  -0.00002   2.61935
   R10        2.77208   0.00002   0.00000   0.00004   0.00004   2.77213
   R11        2.89956   0.00000   0.00000   0.00000   0.00000   2.89955
   R12        2.07330   0.00000   0.00000   0.00000   0.00000   2.07330
   R13        2.73615   0.00000   0.00000   0.00000   0.00000   2.73615
   R14        2.88545   0.00000   0.00000   0.00001   0.00001   2.88546
   R15        2.07083   0.00000   0.00000   0.00000   0.00000   2.07082
   R16        2.68170   0.00000   0.00000   0.00000   0.00000   2.68170
   R17        3.07738   0.00000   0.00000   0.00001   0.00001   3.07739
   R18        2.69072   0.00000   0.00000  -0.00001  -0.00001   2.69071
   R19        2.68889   0.00000   0.00000  -0.00001  -0.00001   2.68888
   R20        2.68960   0.00000   0.00000   0.00000   0.00000   2.68960
   R21        2.06463   0.00000   0.00000   0.00000   0.00000   2.06463
   R22        2.07288   0.00000   0.00000   0.00000   0.00000   2.07288
   R23        2.67540   0.00000   0.00000   0.00001   0.00001   2.67540
   R24        2.68865   0.00000   0.00000   0.00000   0.00000   2.68865
   R25        2.75489   0.00000   0.00000   0.00000   0.00000   2.75490
   R26        2.76492   0.00000   0.00000   0.00000   0.00000   2.76492
   R27        3.38335   0.00000   0.00000   0.00000   0.00000   3.38335
   R28        2.63103   0.00001   0.00000   0.00001   0.00001   2.63104
   R29        2.63174   0.00000   0.00000  -0.00001  -0.00001   2.63174
   R30        2.63482   0.00000   0.00000   0.00000   0.00000   2.63482
   R31        2.04561   0.00000   0.00000   0.00000   0.00000   2.04561
   R32        2.63258   0.00000   0.00000   0.00000   0.00000   2.63258
   R33        2.04454   0.00000   0.00000   0.00000   0.00000   2.04454
   R34        2.63421   0.00000   0.00000   0.00001   0.00001   2.63421
   R35        2.84884   0.00000   0.00000   0.00000   0.00000   2.84884
   R36        2.63553   0.00000   0.00000  -0.00001  -0.00001   2.63553
   R37        2.84670   0.00000   0.00000   0.00000   0.00000   2.84670
   R38        2.04591   0.00000   0.00000   0.00000   0.00000   2.04591
   R39        2.07223   0.00000   0.00000   0.00000   0.00000   2.07223
   R40        2.07356   0.00000   0.00000   0.00000   0.00000   2.07356
   R41        2.06075   0.00000   0.00000   0.00000   0.00000   2.06075
   R42        2.06330   0.00000   0.00000   0.00000   0.00000   2.06330
   R43        2.07482   0.00000   0.00000   0.00000   0.00000   2.07482
   R44        2.06661   0.00000   0.00000   0.00000   0.00000   2.06661
   R45        2.06333   0.00000   0.00000   0.00000   0.00000   2.06333
   R46        2.06774   0.00000   0.00000   0.00000   0.00000   2.06774
   R47        2.07393   0.00000   0.00000   0.00000   0.00000   2.07393
   R48        2.06364   0.00000   0.00000   0.00000   0.00000   2.06364
   R49        2.07504   0.00000   0.00000   0.00000   0.00000   2.07504
   R50        2.06842   0.00000   0.00000   0.00000   0.00000   2.06842
   R51        2.54366   0.00000   0.00000   0.00000   0.00000   2.54365
   R52        2.54824   0.00000   0.00000   0.00000   0.00000   2.54824
   R53        2.54446   0.00000   0.00000   0.00000   0.00000   2.54446
   R54        2.56195   0.00000   0.00000   0.00000   0.00000   2.56196
   R55        2.54010   0.00000   0.00000   0.00000   0.00000   2.54010
   R56        2.54092   0.00000   0.00000  -0.00001  -0.00001   2.54091
    A1        1.92123   0.00000   0.00000   0.00000   0.00000   1.92124
    A2        1.91414   0.00000   0.00000   0.00001   0.00001   1.91415
    A3        1.92803   0.00000   0.00000  -0.00003  -0.00003   1.92800
    A4        1.89522   0.00000   0.00000   0.00002   0.00002   1.89525
    A5        1.88069   0.00000   0.00000   0.00000   0.00000   1.88069
    A6        1.92401   0.00000   0.00000  -0.00001  -0.00001   1.92400
    A7        1.94398   0.00000   0.00000  -0.00001  -0.00001   1.94397
    A8        1.87856   0.00000   0.00000   0.00000   0.00000   1.87856
    A9        1.90758   0.00000   0.00000  -0.00001  -0.00001   1.90757
   A10        1.84534   0.00000   0.00000   0.00000   0.00000   1.84534
   A11        1.96287   0.00000   0.00000   0.00003   0.00003   1.96290
   A12        1.92298   0.00000   0.00000  -0.00001  -0.00001   1.92297
   A13        1.95274   0.00000   0.00000   0.00000   0.00000   1.95274
   A14        1.97118   0.00000   0.00000   0.00000   0.00000   1.97118
   A15        1.85763   0.00000   0.00000   0.00000   0.00000   1.85763
   A16        1.86240   0.00000   0.00000   0.00002   0.00002   1.86241
   A17        1.88069   0.00000   0.00000  -0.00002  -0.00002   1.88068
   A18        1.93832   0.00000   0.00000  -0.00001  -0.00001   1.93831
   A19        1.89923   0.00000   0.00000  -0.00001  -0.00001   1.89922
   A20        1.93335   0.00000   0.00000   0.00001   0.00001   1.93336
   A21        1.96764   0.00000   0.00000   0.00001   0.00001   1.96765
   A22        1.89914   0.00000   0.00000  -0.00001  -0.00001   1.89913
   A23        1.87772   0.00000   0.00000   0.00000   0.00000   1.87772
   A24        1.88495   0.00000   0.00000   0.00001   0.00001   1.88496
   A25        1.94610   0.00000   0.00000   0.00000   0.00000   1.94610
   A26        1.90063   0.00000   0.00000   0.00001   0.00001   1.90063
   A27        1.92381   0.00000   0.00000   0.00001   0.00001   1.92382
   A28        1.89366   0.00000   0.00000   0.00000   0.00000   1.89366
   A29        1.86894   0.00000   0.00000  -0.00001  -0.00001   1.86892
   A30        1.93061   0.00000   0.00000   0.00000   0.00000   1.93061
   A31        2.02496   0.00000   0.00000   0.00001   0.00001   2.02497
   A32        2.09144  -0.00001   0.00000  -0.00002  -0.00002   2.09142
   A33        2.00516   0.00000   0.00000   0.00000   0.00000   2.00516
   A34        2.00763   0.00000   0.00000  -0.00001  -0.00001   2.00762
   A35        1.99993   0.00000   0.00000   0.00001   0.00001   1.99993
   A36        1.86726   0.00000   0.00000   0.00000   0.00000   1.86726
   A37        1.90927   0.00000   0.00000   0.00001   0.00001   1.90927
   A38        2.00030   0.00000   0.00000   0.00001   0.00001   2.00031
   A39        1.89288   0.00000   0.00000   0.00000   0.00000   1.89287
   A40        1.85771   0.00000   0.00000  -0.00001  -0.00001   1.85770
   A41        1.93199   0.00000   0.00000  -0.00001  -0.00001   1.93198
   A42        2.00803   0.00000   0.00000   0.00000   0.00000   2.00803
   A43        1.82497   0.00000   0.00000  -0.00002  -0.00002   1.82496
   A44        1.89793   0.00000   0.00000  -0.00002  -0.00002   1.89791
   A45        1.81882   0.00000   0.00000  -0.00002  -0.00002   1.81881
   A46        2.11057   0.00000   0.00000   0.00000   0.00000   2.11056
   A47        1.89420   0.00000   0.00000   0.00003   0.00003   1.89423
   A48        1.89542   0.00000   0.00000   0.00002   0.00002   1.89544
   A49        2.07590   0.00000   0.00000   0.00001   0.00001   2.07591
   A50        2.07780   0.00000   0.00000  -0.00001  -0.00001   2.07779
   A51        2.12947   0.00000   0.00000   0.00000   0.00000   2.12947
   A52        2.06846   0.00000   0.00000   0.00000   0.00000   2.06846
   A53        2.10405   0.00000   0.00000   0.00000   0.00000   2.10405
   A54        2.11066   0.00000   0.00000   0.00000   0.00000   2.11067
   A55        2.06806   0.00000   0.00000   0.00000   0.00000   2.06807
   A56        2.10873   0.00000   0.00000   0.00000   0.00000   2.10873
   A57        2.10639   0.00000   0.00000  -0.00001  -0.00001   2.10638
   A58        2.10464   0.00000   0.00000   0.00000   0.00000   2.10464
   A59        2.08670   0.00000   0.00000   0.00000   0.00000   2.08670
   A60        2.09108   0.00000   0.00000   0.00000   0.00000   2.09108
   A61        2.10557   0.00000   0.00000   0.00000   0.00000   2.10557
   A62        2.08240   0.00000   0.00000   0.00000   0.00000   2.08240
   A63        2.09393   0.00000   0.00000   0.00000   0.00000   2.09394
   A64        2.09006   0.00000   0.00000   0.00000   0.00000   2.09006
   A65        2.09693   0.00000   0.00000  -0.00001  -0.00001   2.09692
   A66        2.09619   0.00000   0.00000   0.00001   0.00001   2.09620
   A67        1.95710   0.00000   0.00000   0.00002   0.00002   1.95712
   A68        1.93699   0.00000   0.00000   0.00000   0.00000   1.93699
   A69        1.85853   0.00000   0.00000  -0.00001  -0.00001   1.85853
   A70        1.90408   0.00000   0.00000   0.00000   0.00000   1.90408
   A71        1.89769   0.00000   0.00000  -0.00001  -0.00001   1.89769
   A72        1.90823   0.00000   0.00000  -0.00001  -0.00001   1.90822
   A73        1.85796   0.00000   0.00000  -0.00001  -0.00001   1.85795
   A74        1.93848   0.00000   0.00000   0.00000   0.00000   1.93848
   A75        1.94774   0.00000   0.00000   0.00000   0.00000   1.94773
   A76        1.90114   0.00000   0.00000   0.00000   0.00000   1.90114
   A77        1.91172   0.00000   0.00000   0.00000   0.00000   1.91172
   A78        1.90578   0.00000   0.00000   0.00000   0.00000   1.90578
   A79        1.85941   0.00000   0.00000   0.00000   0.00000   1.85940
   A80        1.94187   0.00000   0.00000   0.00000   0.00000   1.94187
   A81        1.93851   0.00000   0.00000   0.00000   0.00000   1.93851
   A82        1.91102   0.00000   0.00000   0.00000   0.00000   1.91102
   A83        1.90358   0.00000   0.00000   0.00000   0.00000   1.90359
   A84        1.90850   0.00000   0.00000   0.00000   0.00000   1.90851
[...]
 933,-0.00001116,0.00001570,0.00000271,-0.00001476,-0.00000045,0.000001
 47,-0.00002631,0.00000129,-0.00016690,-0.00013984,-0.00009220,0.000002
 49,0.00001510,0.00001684,0.00004893,0.00000817,0.00000270,-0.00000603,
 0.00001130,0.00000248,-0.00103800,0.00019117,0.00011007,0.00021743,0.0
 0007367,-0.00003991,-0.00035965,-0.00042012,0.00043670,0.00031758,-0.0
 0006958,-0.00007697,0.00098152,0.00215848,-0.00145581,-0.00012387,-0.0
 0046104,0.00046708,-0.00065697,-0.00063302,0.00019911,-0.00035651,-0.0
 0030080,0.00056010,-0.01447279,-0.03908793,0.54140213,0.00002610,-0.00
 017035,-0.00007228,0.00005071,0.00000087,-0.00007531,-0.00002121,-0.00
 076077,-0.00000268,-0.00034306,-0.00059551,-0.00053308,0.00010691,0.00
 023996,0.00024264,-0.00001639,0.00004768,0.00001025,0.00002434,0.00000
 634,0.00000442,-0.00000751,0.00001719,-0.00000850,-0.00000083,0.000053
 55,-0.00001306,0.00004489,-0.00002078,0.00000026,-0.00015236,0.0005428
 2,0.00028226,0.00058036,0.00045287,0.00002143,-0.00006950,0.00010579,0
 .00006717,-0.00016689,0.00013794,-0.00003962,-0.00015905,0.00002624,-0
 .00010030,0.00229780,0.00068376,0.00054282,-0.00029158,0.00005151,-0.0
 0019369,-0.00168926,0.00010834,-0.00078279,-0.00129836,-0.00032911,-0.
 00050453,-0.00101643,0.00006357,0.00026080,0.00023790,-0.00021401,-0.0
 0003566,0.00023446,-0.00001614,-0.00013657,0.00080510,-0.00098596,0.00
 060454,0.00047950,-0.00015632,-0.00052595,-0.00124430,-0.00067853,0.00
 083225,-0.00021211,0.00037702,-0.00003515,-0.00001766,-0.00003063,-0.0
 0003419,0.00709506,-0.00713852,-0.00410558,-0.00021924,-0.00019919,-0.
 00026278,0.00040126,0.00036523,0.00078276,-0.00007165,0.00017751,-0.00
 043105,0.00001002,-0.00000420,-0.00005247,0.00000195,-0.00000608,0.000
 01010,0.00000252,-0.00000115,0.00000711,-0.00000744,0.00000756,0.00000
 734,0.00002370,-0.00008483,0.00005206,-0.00001417,0.00001114,-0.000008
 31,0.00000282,0.00001000,-0.00001008,-0.00000517,0.00001862,-0.0000007
 5,0.00010727,0.00006493,0.00008228,-0.00000666,-0.00000719,-0.00002510
 ,-0.00002958,-0.00000742,-0.00000396,0.00000726,0.00000936,0.00000490,
 0.00174185,-0.00055299,0.00070929,-0.00038552,-0.00005226,-0.00002826,
 -0.00131490,0.00033400,0.00003870,-0.00028395,0.00003384,0.00004926,0.
 00006308,0.00010877,-0.00044087,0.00004715,-0.00008701,0.00016926,-0.0
 0008057,-0.00006976,0.00007556,-0.00003706,0.00000515,0.00013580,-0.11
 067190,-0.06692924,-0.02828546,0.16578401,-0.00006018,-0.00013369,-0.0
 0012274,-0.00012303,0.00011941,-0.00007745,-0.00041466,-0.00109632,0.0
 0027984,-0.00028750,-0.00053987,-0.00053216,0.00002833,0.00009502,0.00
 007355,-0.00002219,0.00005856,-0.00000457,0.00008521,0.00000660,0.0000
 1437,-0.00000648,0.00002703,-0.00001442,-0.00001049,0.00005963,-0.0000
 4106,0.00006165,-0.00000664,0.00000681,0.00023481,0.00071335,0.0003575
 8,0.00163202,0.00063394,-0.00005346,0.00008871,0.00002283,-0.00001346,
 0.00002143,0.00008666,0.00004105,-0.00002697,0.00011317,0.00006076,0.0
 0102447,0.00014293,0.00055442,-0.00006333,0.00006310,-0.00008190,0.000
 76675,-0.00099865,0.00036296,-0.00059753,0.00032970,-0.00059474,-0.003
 50551,0.00160023,0.00141449,0.00082098,-0.00111595,-0.00018491,0.00086
 244,-0.00034799,-0.00086063,0.00139669,-0.00020275,0.00165794,0.000113
 74,-0.00119141,0.00033989,-0.00253297,-0.00025312,0.00207375,0.0016591
 5,-0.00012379,0.00193903,-0.00018664,-0.00002405,-0.00016763,-0.023499
 81,-0.04252302,-0.01338255,-0.00073631,-0.00049490,-0.00081417,0.00266
 044,-0.00153102,-0.00273141,-0.00091512,-0.00045146,-0.00064605,-0.000
 05884,0.00000210,0.00004780,0.00000150,-0.00000132,0.00001331,0.000016
 62,0.00001399,-0.00000677,0.00000203,-0.00000350,-0.00000141,-0.000014
 21,-0.00001523,0.00001210,0.00000529,0.00000425,0.00000049,0.00000146,
 -0.00000310,-0.00000508,-0.00000812,0.00000847,0.00000176,0.00001068,-
 0.00005556,0.00002293,0.00000393,0.00000140,-0.00000307,-0.00000961,0.
 00000512,-0.00000211,0.00001242,0.00002815,-0.00000388,0.00162591,-0.0
 0042325,0.00090303,-0.00030501,-0.00002555,-0.00003577,-0.00013413,0.0
 0044246,-0.00045036,-0.00035709,0.00002218,0.00003198,0.00184258,0.000
 71446,-0.00224614,-0.00014781,-0.00058955,0.00098789,-0.00075422,-0.00
 047833,0.00033489,-0.00049205,0.00017203,0.00077372,-0.06918929,-0.191
 47258,-0.04749054,0.11945226,0.23016231,0.00001652,-0.00010184,-0.0000
 5383,0.00004024,-0.00001856,-0.00004406,0.00003875,-0.00026273,-0.0000
 6965,-0.00020857,-0.00037899,-0.00040950,0.00007023,0.00016207,0.00014
 361,-0.00002025,0.00003448,0.00001200,-0.00000245,0.00000155,0.0000023
 2,-0.00000261,0.00000445,-0.00000042,0.00000589,0.00000785,0.00001200,
 0.00001184,-0.00001569,-0.00000045,-0.00010767,0.00023953,0.00024409,0
 .00006353,0.00014553,0.00009695,-0.00005056,0.00005939,0.00006727,-0.0
 0010908,0.00008155,-0.00001477,-0.00010407,0.00001227,-0.00003524,0.00
 134671,0.00063166,0.00039095,-0.00014308,0.00001172,-0.00008463,-0.000
 84221,-0.00006523,-0.00056662,-0.00067482,-0.00034765,0.00014836,-0.00
 009124,-0.00013594,-0.00043882,0.00001783,0.00004709,0.00007534,0.0000
 3591,-0.00001619,0.00016461,-0.00026873,0.00032699,-0.00053519,-0.0005
 2601,0.00026033,0.00034547,0.00121079,0.00039822,-0.00020994,-0.000068
 50,-0.00082295,0.00056893,-0.00000447,-0.00002029,0.00002098,-0.000907
 70,0.00327984,0.01082747,-0.00023340,0.00027541,-0.00003497,0.00033475
 ,-0.00091267,-0.00034595,-0.00005478,-0.00005714,-0.00007877,0.0000117
 4,-0.00000193,-0.00005845,0.00000537,-0.00000147,0.00000933,-0.0000031
 9,-0.00000306,0.00000524,-0.00000382,0.00000342,0.00000683,0.00001612,
 -0.00004861,0.00002488,-0.00000968,0.00000643,-0.00000573,0.00000035,0
 .00000512,-0.00000293,-0.00000328,0.00001233,-0.00000046,0.00006966,0.
 00004479,0.00004678,-0.00000151,-0.00000565,-0.00001020,-0.00002087,-0
 .00000310,-0.00000200,0.00000487,0.00000254,-0.00000072,0.00055089,-0.
 00003768,0.00004449,-0.00009691,-0.00003835,0.00003497,0.00031894,0.00
 009339,-0.00040759,-0.00013736,0.00002076,0.00004778,0.00007556,-0.000
 16674,-0.00010990,0.00001626,-0.00004000,0.00010311,0.00001247,0.00003
 691,0.00002568,-0.00000891,0.00006893,0.00005112,-0.02872361,-0.046198
 85,-0.09029948,0.06790497,0.09407812,0.12729347,0.00009266,-0.00006346
 ,0.00004774,0.00016619,-0.00012373,-0.00000897,0.00030632,0.00004474,-
 0.00022318,-0.00000652,-0.00008455,0.00006457,0.00010422,0.00010714,0.
 00018074,0.00000916,-0.00000823,0.00001166,-0.00004260,0.00000435,-0.0
 0001153,-0.00000401,-0.00000120,-0.00000114,0.00001004,0.00001069,0.00
 001326,0.00000672,-0.00001177,-0.00000729,-0.00036608,0.00002208,-0.00
 007334,-0.00072993,-0.00004014,0.00003744,-0.00015702,0.00011547,0.000
 07752,-0.00020048,0.00008141,-0.00008996,-0.00014442,-0.00005474,-0.00
 017234,0.00085563,0.00026496,0.00027084,-0.00010967,0.00000224,-0.0000
 9477,-0.00000453,-0.00015184,0.00012144,-0.00050488,-0.00014732,-0.000
 21658,0.00180038,-0.00108291,-0.00091186,-0.00051801,0.00105518,0.0000
 4994,-0.00043814,0.00030329,0.00056472,-0.00077605,0.00056524,0.001216
 62,0.00005798,0.00021074,-0.00043741,0.00034377,0.00415812,-0.00440318
 ,0.00046415,0.00099977,-0.00053887,0.00008179,-0.00008947,-0.00010445,
 -0.02831695,0.01318461,0.00453920,0.00037118,-0.00066358,-0.00017851,-
 0.00146476,-0.00098075,0.00375245,0.00044754,0.00007144,-0.00210397,0.
 00006157,-0.00001160,-0.00009148,-0.00000111,-0.00000872,-0.00000198,-
 0.00000758,-0.00001161,0.00001485,-0.00001263,0.00001431,0.00000799,0.
 00004413,-0.00009123,0.00005254,-0.00001970,0.00000839,-0.00000948,0.0
 0000252,0.00001483,-0.00000982,0.00000138,0.00001376,-0.00000102,0.000
 10177,0.00009665,0.00006874,-0.00000823,-0.00000934,-0.00002469,-0.000
 02443,-0.00001042,-0.00000065,-0.00000304,-0.00000683,0.00000522,0.000
 73756,-0.00013311,0.00030712,-0.00017206,-0.00005915,-0.00001757,-0.00
 005281,0.00029105,-0.00015131,-0.00007868,0.00001535,0.00000239,-0.001
 26539,-0.00022683,0.00105266,0.00015650,0.00022050,-0.00039495,0.00054
 904,0.00029445,-0.00015595,0.00036346,-0.00015416,-0.00039655,-0.25184
 129,0.06953225,0.01122809,-0.07032345,-0.02314156,-0.01381685,0.381145
 68,-0.00006484,-0.00003034,-0.00006960,-0.00012365,0.00010434,-0.00003
 199,-0.00031095,-0.00052895,0.00023194,-0.00013202,-0.00019744,-0.0002
 4354,-0.00003409,0.00000094,-0.00004223,-0.00001102,0.00002597,-0.0000
 0937,0.00005665,0.00000232,0.00001145,-0.00000113,0.00001233,-0.000007
 07,-0.00000934,0.00002261,-0.00002813,0.00002230,0.00000303,0.00000628
 ,0.00023586,0.00030168,0.00016980,0.00102922,0.00029888,-0.00004903,0.
 00010456,-0.00003713,-0.00004394,0.00009132,0.00000375,0.00005207,0.00
 004757,0.00006934,0.00009282,0.00015930,-0.00006130,0.00007970,-0.0000
 0584,0.00002414,-0.00000241,0.00000822,-0.00017350,0.00004218,-0.00007
 868,0.00013520,-0.00010712,-0.00258619,0.00093020,0.00103351,0.0007411
 7,-0.00105726,-0.00006823,0.00059698,-0.00021994,-0.00069866,0.0005196
 2,-0.00194097,-0.00109436,0.00065499,-0.00065367,0.00001022,-0.0002012
 5,-0.00304213,0.00523400,0.00010498,-0.00010858,-0.00036818,0.00000397
 ,0.00004547,0.00000880,0.04046428,-0.00813597,-0.00286166,0.00009769,0
 .00056218,0.00017788,0.00097923,-0.00102345,-0.00002030,0.00072846,-0.
 00139489,0.00084332,-0.00005084,0.00000573,0.00006477,0.00000005,0.000
 00247,0.00000543,0.00001123,0.00001126,-0.00000909,0.00000573,-0.00000
 706,-0.00000451,-0.00002437,0.00003042,-0.00001518,0.00001038,-0.00000
 154,0.00000423,-0.00000012,-0.00000724,0.00000135,-0.00000397,-0.00000
 229,0.00000118,-0.00003728,-0.00006117,-0.00001816,0.00000462,0.000004
 33,0.00000815,0.00000637,0.00000586,-0.00000061,0.00000594,0.00001412,
 -0.00000336,0.00024313,-0.00008546,0.00013335,-0.00002670,0.00001345,-
 0.00000568,-0.00000214,0.00007727,-0.00005583,-0.00006604,-0.00000109,
 0.00001225,0.00110699,0.00058459,-0.00143754,-0.00008018,-0.00030693,0
 .00051593,-0.00051463,-0.00032233,0.00022264,-0.00034018,0.00008822,0.
 00050123,0.06257500,-0.10033929,0.00056319,-0.03853611,0.01022448,-0.0
 0319610,-0.07236535,0.09476433,0.00001740,-0.00000588,0.00000051,0.000
 02894,-0.00003164,0.00000193,0.00007571,0.00013342,-0.00009576,0.00001
 870,-0.00001076,-0.00003541,0.00001604,0.00001476,0.00001753,-0.000006
 54,0.00000380,0.00000586,-0.00001797,-0.00000118,-0.00000219,0.0000003
 1,-0.00000353,0.00000345,0.00000351,-0.00000899,0.00001479,-0.00000496
 ,-0.00000420,-0.00000130,-0.00005362,-0.00003890,0.00003729,-0.0003142
 3,-0.00007341,0.00006594,-0.00003039,0.00001523,0.00003271,-0.00003223
 ,0.00000934,-0.00000522,-0.00002535,-0.00000844,-0.00000747,0.00012795
 ,0.00007822,0.00000454,-0.00000057,-0.00000322,0.00000365,0.00002259,-
 0.00002666,0.00003828,-0.00007315,-0.00005551,0.00006500,0.00065671,-0
 .00027523,-0.00055094,-0.00017510,0.00029328,0.00007371,-0.00014427,0.
 00002913,0.00029465,-0.00083100,0.00048105,0.00046255,-0.00012633,0.00
 026587,-0.00004848,0.00034497,0.00171558,-0.00154732,-0.00062471,-0.00
 022692,0.00063830,-0.00006047,0.00003141,0.00005673,-0.00937650,0.0051
 2830,0.01065328,-0.00030139,0.00030254,0.00005837,-0.00009189,0.000631
 45,-0.00209433,-0.00151186,0.00100629,0.00043654,0.00001197,-0.0000017
 6,-0.00003552,0.00000346,0.00000027,0.00000292,-0.00000441,-0.00000331
 ,0.00000293,-0.00000129,0.00000122,0.00000306,0.00000763,-0.00001070,0
 .00000208,-0.00000339,0.00000086,-0.00000182,-0.00000075,0.00000136,0.
 00000099,0.00000008,0.00000277,-0.00000006,0.00001723,0.00001494,0.000
 00738,0.00000047,-0.00000170,-0.00000018,-0.00000544,-0.00000033,-0.00
 000007,0.00000087,-0.00000196,-0.00000093,0.00008267,-0.00002055,-0.00
 002924,-0.00001724,-0.00000555,0.00000539,0.00002992,0.00005139,-0.000
 04969,-0.00003553,0.00000850,0.00000849,-0.00022034,-0.00044900,0.0003
 8448,-0.00001407,0.00013313,-0.00015414,0.00016452,0.00014316,-0.00004
 450,0.00006327,0.00007651,-0.00011867,0.01644918,-0.00161896,-0.076363
 86,-0.01972257,-0.00239153,0.01040488,-0.04175396,0.00889431,0.0839797
 7,0.00002178,-0.00001473,0.00001998,0.00003852,-0.00002478,-0.00000696
 ,0.00006217,-0.00009243,-0.00000588,-0.00000344,-0.00000494,0.00007765
 ,0.00002592,0.00001785,0.00004079,0.00001191,-0.00000495,-0.00000171,-
 0.00000134,0.00000296,-0.00000259,-0.00000159,0.00000200,-0.00000343,0
 .00000140,0.00000995,-0.00000895,0.00000599,-0.00000051,-0.00000139,-0
 .00008265,0.00004097,-0.00006197,-0.00004717,0.00006174,-0.00003012,-0
 .00003617,0.00003324,0.00000648,-0.00004717,0.00002173,-0.00002807,-0.
 00003313,-0.00001178,-0.00005198,0.00012561,0.00000112,0.00006891,-0.0
 0002314,0.00000127,-0.00002740,0.00001828,-0.00002892,0.00004247,-0.00
 008912,0.00001097,-0.00012582,0.00013523,-0.00039312,0.00012497,0.0000
 0447,0.00013247,-0.00004785,-0.00005442,0.00011407,-0.00002233,0.00049
 754,-0.00051867,-0.00045821,0.00004796,0.00013064,-0.00008058,-0.00205
 571,0.00090159,-0.00021756,0.00025152,-0.00005947,-0.00067373,0.000076
 59,0.00002509,-0.00005493,0.01038380,0.00121613,-0.00122945,0.00078420
 ,0.00049188,-0.00118593,-0.00040899,0.00114961,0.00007201,0.00023000,0
 .00033029,-0.00033895,0.00001328,-0.00000373,-0.00000920,-0.00000245,-
 0.00000403,-0.00000228,0.00000094,-0.00000161,0.00000356,-0.00000412,0
 .00000464,0.00000050,0.00001117,-0.00002534,0.00001625,-0.00000445,0.0
 0000221,-0.00000209,0.00000120,0.00000411,-0.00000407,0.00000044,0.000
 00308,0.00000008,0.00002249,0.00002074,0.00001674,-0.00000238,-0.00000
 226,-0.00000741,-0.00000506,-0.00000287,0.00000018,-0.00000138,-0.0000
 0044,0.00000170,0.00018015,-0.00003000,0.00011748,-0.00004194,-0.00002
 074,-0.00001609,-0.00002225,0.00010706,0.00007197,0.00002425,0.0000002
 6,-0.00000673,-0.00026326,0.00000291,0.00010262,0.00003638,0.00005013,
 -0.00008960,0.00009208,0.00004959,-0.00001755,0.00006550,-0.00004059,-
 0.00004780,-0.07828083,-0.00113469,0.03063141,0.00998173,-0.00683084,-
 0.02493404,-0.03068687,0.00499113,0.05743743,0.08904656,-0.00004476,-0
 .00003579,-0.00005094,-0.00008613,0.00007078,-0.00002271,-0.00025167,-
 0.00046182,0.00016876,-0.00011349,-0.00018280,-0.00018449,-0.00001777,
 0.00001404,-0.00000891,-0.00000857,0.00001771,-0.00000528,0.00004414,0
 .00000312,0.00000719,-0.00000176,0.00001162,-0.00000730,-0.00000790,0.
 00002458,-0.00002493,0.00002225,0.00000200,0.00000434,0.00016685,0.000
 27973,0.00012352,0.00081116,0.00022373,-0.00003224,0.00007011,-0.00001
 479,-0.00003172,0.00005368,0.00001557,0.00003027,0.00002480,0.00005471
 ,0.00005269,0.00022491,-0.00004081,0.00012727,-0.00002183,0.00002084,-
 0.00001884,0.00005764,-0.00018317,0.00001094,-0.00012477,0.00011875,-0
 .00014618,-0.00183802,0.00109055,0.00058636,0.00041463,-0.00057983,-0.
 00005103,0.00047654,-0.00022979,-0.00047437,-0.00066323,0.00021604,0.0
 0002774,-0.00027562,-0.00045876,0.00087249,0.00093933,-0.00135016,0.00
 082175,-0.00117835,-0.00165912,0.00082578,-0.00003001,0.00003816,0.000
 04148,-0.00552663,0.00121457,0.03590865,0.00014565,-0.00116615,0.00130
 299,0.00421015,-0.00299255,0.00024731,0.00013462,0.00037089,0.00018819
 ,-0.00003752,0.00000269,0.00004704,-0.00000096,0.00000041,0.00000416,0
 .00000976,0.00000876,-0.00000594,0.00000309,-0.00000387,-0.00000317,-0
 .00001571,0.00001282,-0.00000422,0.00000668,-0.00000007,0.00000252,0.0
 0000057,-0.00000400,-0.00000109,-0.00000328,-0.00000029,0.00000091,-0.
 00002052,-0.00004241,-0.00000628,0.00000248,0.00000259,0.00000277,0.00
 000301,0.00000350,-0.00000056,0.00000433,0.00001214,-0.00000195,0.0002
 8837,-0.00007619,0.00014833,-0.00003929,0.00000299,-0.00000892,-0.0000
 0826,0.00008457,-0.00000402,-0.00005290,-0.00000113,0.00000788,0.00124
 320,0.00014250,-0.00154828,-0.00004290,-0.00034368,0.00063497,-0.00063
 066,-0.00032786,0.00024477,-0.00031384,0.00010441,0.00044897,0.0005275
 9,-0.08138543,0.02484693,-0.00587977,-0.00177093,-0.04745527,0.0080305
 7,0.01137103,-0.01418827,-0.00067998,0.07777565,0.00005955,-0.00004181
 ,-0.00001134,0.00010327,-0.00008156,-0.00001014,0.00026654,0.00024776,
 -0.00030674,0.00003114,-0.00009256,-0.00016870,0.00007160,0.00007578,0
 .00009343,-0.00002306,0.00001927,0.00002056,-0.00005133,-0.00000347,-0
 .00000428,0.00000037,-0.00000979,0.00001071,0.00001407,-0.00002887,0.0
 0005037,-0.00001496,-0.00001593,-0.00000504,-0.00027593,-0.00005070,0.
 00016154,-0.00081634,-0.00010110,0.00020758,-0.00010955,0.00006341,0.0
 0011519,-0.00012491,0.00004557,-0.00002006,-0.00010508,-0.00002940,-0.
 00004388,0.00071677,0.00036210,0.00012509,-0.00004672,-0.00001043,-0.0
 0001473,0.00008532,-0.00015934,0.00000252,-0.00037376,-0.00025225,0.00
 023549,0.00191461,-0.00102212,-0.00152246,-0.00048850,0.00066836,0.000
 21704,-0.00043087,0.00012768,0.00090797,-0.00005003,0.00125040,0.00046
 640,-0.00030827,0.00035540,-0.00019032,0.00323844,-0.00159941,-0.00097
 187,0.00175384,0.00060005,-0.00116027,-0.00012100,-0.00007434,0.000047
 11,0.00877069,0.00651781,-0.03797102,-0.00195129,0.00068132,-0.0001590
 9,-0.00480548,0.00549889,-0.00041968,-0.00033334,-0.00063261,0.0004089
 0,0.00003862,-0.00000509,-0.00012357,0.00001175,0.00000045,0.00001133,
 -0.00001444,-0.00001092,0.00001019,-0.00000464,0.00000423,0.00001128,0
 .00002667,-0.00004317,0.00001261,-0.00001278,0.00000417,-0.00000675,-0
 .00000197,0.00000564,0.00000246,-0.00000046,0.00001114,-0.00000076,0.0
 0007067,0.00006247,0.00003614,-0.00000057,-0.00000643,-0.00000500,-0.0
 0002112,-0.00000309,-0.00000128,0.00000264,-0.00000695,-0.00000165,0.0
 0032015,-0.00003808,-0.00014687,-0.00007171,-0.00002768,0.00002213,0.0
 0008960,0.00010806,-0.00013886,-0.00013215,0.00003226,0.00003242,-0.00
 150220,-0.00045768,0.00154219,0.00002976,0.00051508,-0.00083241,0.0007
 4066,0.00044956,-0.00018343,0.00030550,0.00002520,-0.00045616,0.026292
 50,0.03237734,-0.26813009,-0.01642761,-0.03342447,-0.05739865,0.042715
 86,-0.00843010,-0.02658090,-0.05905054,-0.00345006,0.39223534\\0.00000
 072,0.00000058,0.00000185,0.00000708,-0.00000462,-0.00000173,-0.000003
 46,-0.00003098,0.00000344,-0.00000233,-0.00000155,-0.00000143,-0.00000
 081,-0.00000286,0.00000278,0.00000029,0.00000274,-0.00000081,-0.000000
 38,-0.00000172,0.00000149,-0.00000260,-0.00000067,0.,-0.00000078,0.000
 00055,0.00000057,0.00000087,-0.00000069,0.00000044,-0.00000323,0.00001
 325,0.00000181,-0.00000175,0.00001598,-0.00000691,-0.00000893,0.000004
 50,0.00000320,0.00000188,-0.00000102,0.00000355,-0.00000030,-0.0000008
 6,0.00000119,0.00000285,0.00000148,-0.00000219,0.00000089,-0.00000108,
 0.00000117,0.00000095,0.00000013,0.00000020,0.00000010,-0.00000282,0.0
 0000176,0.00001229,-0.00000329,0.00000337,-0.00000473,0.00000183,-0.00
 000198,-0.00000315,0.00000290,-0.00000150,-0.00000272,-0.00000040,0.00
 000377,0.00000340,0.00000246,-0.00000668,-0.00000148,0.00000496,-0.000
 00187,-0.00000198,0.00000541,-0.00000204,-0.00000269,0.00000067,-0.000
 00178,0.00000327,0.00000358,-0.00000381,0.00000142,0.00000064,-0.00000
 117,-0.00000301,-0.00000350,0.00000106,0.00000037,0.00000331,-0.000003
 28,0.00000428,-0.00000267,-0.00000171,-0.00000081,-0.00000041,0.000001
 71,-0.00000048,-0.00000216,0.00000191,-0.00000070,-0.00000138,0.000001
 20,-0.00000029,-0.00000247,0.00000286,-0.00000079,-0.00000435,0.000002
 55,-0.00000199,-0.00000223,0.00000210,-0.00000165,-0.00000266,0.000002
 27,0.00000021,-0.00000407,0.00000250,-0.00000094,-0.00000163,0.0000010
 3,0.00000020,-0.00000234,0.00000158,0.00000071,-0.00000125,0.00000113,
 0.00000298,-0.00000147,-0.00000027,0.00000300,0.00000022,0.00000128,0.
 00000295,0.00000050,-0.00000002,0.00000215,0.,0.00000145,-0.00000351,0
 .00000422,-0.00000424,-0.00000125,-0.00000025,-0.00000100,-0.00000166,
 0.00000381,-0.00000226,-0.00000124,0.00000212,-0.00000282,-0.00000039,
 0.00000237,0.00000251,0.00000183,0.00000186,-0.00000189,0.00000286,0.0
 0000317,-0.00000180,0.00000248,0.00000219,-0.00000456\\\@


 QED = W**5 (WHICH WAS WHAT WE WANTED)
 Job cpu time:       0 days 23 hours 24 minutes 52.9 seconds.
 Elapsed time:       0 days  0 hours 47 minutes 33.2 seconds.
 File lengths (MBytes):  RWF=   2328 Int=      0 D2E=      0 Chk=     41 Scr=      1
 Normal termination of Gaussian 16 at Sat Jun 15 09:37:27 2019.
