 Entering Gaussian System, Link 0=g16
 Input=clay_new-glu_gluC6-BDDL-Na_1Me2O-bisCF3-ts-b3lyp_d3bj-631gd-pcm_thf.gjf
 Output=clay_new-glu_gluC6-BDDL-Na_1Me2O-bisCF3-ts-b3lyp_d3bj-631gd-pcm_thf.out
 Initial command:
 /home/ekwan/sw/g16/l1.exe "/scratch/users/ekwan/clay_new-glu_gluC6-BDDL-Na_1Me2O-bisCF3-ts-b3lyp_d3bj-631gd-pcm_thf/Gau-8557.inp" -scrdir="/scratch/users/ekwan/clay_new-glu_gluC6-BDDL-Na_1Me2O-bisCF3-ts-b3lyp_d3bj-631gd-pcm_thf/"
 Entering Link 1 = /home/ekwan/sw/g16/l1.exe PID=      8558.
  
 Copyright (c) 1988,1990,1992,1993,1995,1998,2003,2009,2016,
            Gaussian, Inc.  All Rights Reserved.
  
 This is part of the Gaussian(R) 16 program.  It is based on
 the Gaussian(R) 09 system (copyright 2009, Gaussian, Inc.),
 the Gaussian(R) 03 system (copyright 2003, Gaussian, Inc.),
 the Gaussian(R) 98 system (copyright 1998, Gaussian, Inc.),
 the Gaussian(R) 94 system (copyright 1995, Gaussian, Inc.),
 the Gaussian 92(TM) system (copyright 1992, Gaussian, Inc.),
 the Gaussian 90(TM) system (copyright 1990, Gaussian, Inc.),
 the Gaussian 88(TM) system (copyright 1988, Gaussian, Inc.),
 the Gaussian 86(TM) system (copyright 1986, Carnegie Mellon
 University), and the Gaussian 82(TM) system (copyright 1983,
 Carnegie Mellon University). Gaussian is a federally registered
 trademark of Gaussian, Inc.
  
 This software contains proprietary and confidential information,
 including trade secrets, belonging to Gaussian, Inc.
  
 This software is provided under written license and may be
 used, copied, transmitted, or stored only in accord with that
 written license.
  
 The following legend is applicable only to US Government
 contracts under FAR:
  
                    RESTRICTED RIGHTS LEGEND
  
 Use, reproduction and disclosure by the US Government is
 subject to restrictions as set forth in subparagraphs (a)
 and (c) of the Commercial Computer Software - Restricted
 Rights clause in FAR 52.227-19.
  
 Gaussian, Inc.
 340 Quinnipiac St., Bldg. 40, Wallingford CT 06492
  
  
 ---------------------------------------------------------------
 Warning -- This program may not be used in any manner that
 competes with the business of Gaussian, Inc. or will provide
 assistance to any competitor of Gaussian, Inc.  The licensee
 of this program is prohibited from giving any competitor of
 Gaussian, Inc. access to this program.  By using this program,
 the user acknowledges that Gaussian, Inc. is engaged in the
 business of creating and licensing software in the field of
 computational chemistry and represents and warrants to the
 licensee that it is not a competitor of Gaussian, Inc. and that
 it will not use this program in any manner prohibited above.
 ---------------------------------------------------------------
  

 Cite this work as:
 Gaussian 16, Revision A.03,
 M. J. Frisch, G. W. Trucks, H. B. Schlegel, G. E. Scuseria, 
 M. A. Robb, J. R. Cheeseman, G. Scalmani, V. Barone, 
 G. A. Petersson, H. Nakatsuji, X. Li, M. Caricato, A. V. Marenich, 
 J. Bloino, B. G. Janesko, R. Gomperts, B. Mennucci, H. P. Hratchian, 
 J. V. Ortiz, A. F. Izmaylov, J. L. Sonnenberg, D. Williams-Young, 
 F. Ding, F. Lipparini, F. Egidi, J. Goings, B. Peng, A. Petrone, 
 T. Henderson, D. Ranasinghe, V. G. Zakrzewski, J. Gao, N. Rega, 
 G. Zheng, W. Liang, M. Hada, M. Ehara, K. Toyota, R. Fukuda, 
 J. Hasegawa, M. Ishida, T. Nakajima, Y. Honda, O. Kitao, H. Nakai, 
 T. Vreven, K. Throssell, J. A. Montgomery, Jr., J. E. Peralta, 
 F. Ogliaro, M. J. Bearpark, J. J. Heyd, E. N. Brothers, K. N. Kudin, 
 V. N. Staroverov, T. A. Keith, R. Kobayashi, J. Normand, 
 K. Raghavachari, A. P. Rendell, J. C. Burant, S. S. Iyengar, 
 J. Tomasi, M. Cossi, J. M. Millam, M. Klene, C. Adamo, R. Cammi, 
 J. W. Ochterski, R. L. Martin, K. Morokuma, O. Farkas, 
 J. B. Foresman, and D. J. Fox, Gaussian, Inc., Wallingford CT, 2016.
 
 ******************************************
 Gaussian 16:  AS64L-G16RevA.03 25-Dec-2016
                 8-May-2019 
 ******************************************
 %mem=48GB
 %nprocshared=32
 Will use up to   32 processors via shared memory.
 ----------------------------------------------------------------------
 #p opt=(ts,noeigentest,calcfc,maxstep=3,modredundant,recalc=30) freq=n
 oraman b3lyp 6-31g* pop=none scrf=(solvent=tetrahydrofuran,pcm) empiri
 caldispersion=gd3bj
 ----------------------------------------------------------------------
 1/5=1,8=3,10=4,11=1,18=120,26=3,38=1,71=30/1,3;
 2/9=110,12=2,17=6,18=5,40=1/2;
 3/5=1,6=6,7=1,11=2,25=1,30=1,70=2201,71=2,72=20,74=-5,124=41,140=1/1,2,3;
 4//1;
 5/5=2,38=5,53=20/2;
 8/6=4,10=90,11=11/1;
 11/6=1,8=1,9=11,15=111,16=1/1,2,10;
 10/6=1,13=1/2;
 7/10=1,18=20,25=1/1,2,3,16;
 1/5=1,8=3,10=4,11=1,18=20,26=3,71=30/3(2);
 2/9=110/2;
 99//99;
 2/9=110/2;
 3/5=1,6=6,7=1,11=2,25=1,30=1,70=2205,71=1,72=20,74=-5,124=41/1,2,3;
 4/5=5,16=3,69=1/1;
 5/5=2,38=5,53=20/2;
 7//1,2,3,16;
 1/5=1,8=3,11=1,18=20,26=3,71=30/3(-5);
 2/9=110/2;
 99/9=1/99;
 Leave Link    1 at Wed May  8 08:00:40 2019, MaxMem=  6442450944 cpu:               6.6 elap:               0.2
 (Enter /home/ekwan/sw/g16/l101.exe)
 -----
 title
 -----
 Symbolic Z-matrix:
 Charge =  0 Multiplicity = 1
 C                     5.79519  -0.78671  -0.7813 
 C                     6.28686  -2.18416  -0.39963 
 C                     5.63257  -2.65259   0.91024 
 C                     3.73078  -1.21605   0.61901 
 C                     4.26582  -0.69912  -0.72419 
 H                     5.81516  -3.72074   1.08954 
 H                     5.96794  -2.88595  -1.18638 
 H                     6.20418  -0.06092  -0.06577 
 H                     4.10077  -0.57263   1.42981 
 H                     3.83919  -1.32083  -1.52273 
 O                     4.22745  -2.55464   0.8086 
 O                     6.16572  -1.89023   1.96051 
 O                     7.70045  -2.14013  -0.33562 
 O                     6.20976  -0.45513  -2.10197 
 O                     3.87019   0.66321  -0.92919 
 C                     2.19268  -1.29932   0.74206 
 H                     2.01728  -2.06194   1.53196 
 H                     1.82216  -1.77716  -0.19864 
 O                     1.58245  -0.10261   1.00906 
 C                     8.31757  -3.41261  -0.22984 
 H                     8.14838  -3.8716    0.7535 
 H                     7.95574  -4.09941  -1.00904 
 H                     9.39048  -3.25499  -0.36277 
 C                     7.39594   0.32393  -2.17247 
 H                     7.27863   1.27318  -1.62867 
 H                     8.25643  -0.21723  -1.76664 
 H                     7.56421   0.5411   -3.23061 
 C                     3.50325   0.96577  -2.27836 
 H                     4.32143   0.72901  -2.96103 
 H                     2.59866   0.41602  -2.5644 
 H                     3.29162   2.03661  -2.30953 
 C                    -1.87302   1.9361    0.49491 
 C                    -1.06712   0.64337   0.62535 
 C                    -0.15311   0.41503  -0.56324 
 C                    -0.18197   2.71768  -1.2002 
 C                    -0.93746   3.07398   0.08445 
 H                     0.27103  -0.55083  -0.77306 
 H                    -0.38003   0.75791   1.46853 
 H                    -2.64793   1.82095  -0.27061 
 H                    -0.90151   2.62283  -2.01784 
 H                    -0.2204    3.25392   0.89307 
 O                     0.50226   1.43602  -1.09265 
 O                    -1.02613  -2.20582  -1.93867 
 O                    -1.93515  -0.43787   0.85775 
 O                    -2.45644   2.28107   1.74198 
 O                    -1.67209   4.25005  -0.21523 
 C                     0.87096   3.72639  -1.60216 
 H                     0.38476   4.70323  -1.71029 
 H                     1.30762   3.44073  -2.56859 
 O                     1.88614   3.78235  -0.60635 
 S                    -1.97365  -1.15766  -2.36941 
 O                    -2.36025  -1.14647  -3.7914 
 O                    -1.50733   0.24663  -1.94793 
 C                    -3.47516  -1.39511  -1.41535 
 C                    -3.66939  -2.58675  -0.73346 
 C                    -4.39855  -0.35451  -1.33186 
 C                    -4.79639  -2.72568   0.08045 
 H                    -2.92868  -3.37399  -0.80412 
 C                    -5.51418  -0.50695  -0.51595 
 H                    -4.22659   0.57339  -1.86276 
 C                    -5.71709  -1.68971   0.20117 
 H                    -6.57681  -1.79514   0.85223 
 C                    -1.3279   -1.56805   1.48396 
 H                    -0.64466  -2.0848    0.80272 
 H                    -0.77931  -1.26945   2.38455 
 H                    -2.14568  -2.23957   1.75132 
 C                    -3.8116    1.86491   1.88137 
 H                    -4.4402    2.31204   1.10072 
 H                    -3.9024    0.7753    1.83513 
 H                    -4.14815   2.22116   2.85798 
 C                    -1.67799   5.21573   0.83051 
 H                    -2.10428   4.80023   1.74898 
 H                    -0.66264   5.58428   1.0337 
 H                    -2.2951    6.04723   0.48196 
 C                     2.8579    4.78745  -0.88094 
 H                     3.59113   4.75489  -0.07294 
 H                     3.3614    4.59799  -1.83814 
 H                     2.3908    5.77992  -0.91104 
 C                     5.72592  -2.32242   3.24432 
 H                     6.25838  -1.71567   3.97946 
 H                     4.64562  -2.18433   3.3665 
 H                     5.96767  -3.38287   3.40346 
 Na                    2.51539   1.81487   0.56924 
 O                     1.63604   2.83873   2.47281 
 C                     1.11537   1.95737   3.46785 
 H                     0.04966   2.16417   3.63827 
 H                     1.24189   0.94906   3.06818 
 H                     1.66235   2.07241   4.41388 
 C                     1.56543   4.20397   2.85382 
 H                     2.1989    4.40191   3.72953 
 H                     1.91531   4.79307   2.0042 
 H                     0.53192   4.49034   3.09215 
 C                    -6.51306   0.60642  -0.36867 
 F                    -6.06376   1.76834  -0.89172 
 F                    -6.79648   0.83798   0.93617 
 F                    -7.6854    0.31909  -0.97549 
 C                    -4.93947  -3.96733   0.91428 
 F                    -6.20824  -4.16385   1.32756 
 F                    -4.16737  -3.89748   2.03004 
 F                    -4.5497   -5.0709    0.24264 
 
 Add virtual bond connecting atoms O53        and C34        Dist= 3.67D+00.
 Add virtual bond connecting atoms H37        and H18        Dist= 3.89D+00.
 Add virtual bond connecting atoms H38        and O19        Dist= 4.14D+00.
 Add virtual bond connecting atoms O84        and Na83       Dist= 4.41D+00.
 Add virtual bond connecting atoms H87        and O19        Dist= 4.42D+00.
 Add virtual bond connecting atoms H87        and H38        Dist= 4.32D+00.
 The following ModRedundant input section has been read:
 
 ITRead=  0  0  0  0  0  0  0  0  0  0  0  0  0  0  0  0  0  0  0  0
 ITRead=  0  0  0  0  0  0  0  0  0  0  0  0  0  0  0  0  0  0  0  0
 ITRead=  0  0  0  0  0  0  0  0  0  0  0  0  0  0  0  0  0  0  0  0
 ITRead=  0  0  0  0  0  0  0  0  0  0  0  0  0  0  0  0  0  0  0  0
 ITRead=  0  0  0  0  0  0  0  0  0  0  0  0  0  0  0  0  0  0  0  0
 MicOpt= -1 -1 -1 -1 -1 -1 -1 -1 -1 -1 -1 -1 -1 -1 -1 -1 -1 -1 -1 -1
 MicOpt= -1 -1 -1 -1 -1 -1 -1 -1 -1 -1 -1 -1 -1 -1 -1 -1 -1 -1 -1 -1
 MicOpt= -1 -1 -1 -1 -1 -1 -1 -1 -1 -1 -1 -1 -1 -1 -1 -1 -1 -1 -1 -1
 MicOpt= -1 -1 -1 -1 -1 -1 -1 -1 -1 -1 -1 -1 -1 -1 -1 -1 -1 -1 -1 -1
 MicOpt= -1 -1 -1 -1 -1 -1 -1 -1 -1 -1 -1 -1 -1 -1 -1 -1 -1 -1 -1 -1
 NAtoms=    100 NQM=      100 NQMF=       0 NMMI=      0 NMMIF=      0
                NMic=       0 NMicF=      0.
                    Isotopes and Nuclear Properties:
 (Nuclear quadrupole moments (NQMom) in fm**2, nuclear magnetic moments (NMagM)
  in nuclear magnetons)

  Atom         1           2           3           4           5           6           7           8           9          10
 IAtWgt=          12          12          12          12          12           1           1           1           1           1
 AtmWgt=  12.0000000  12.0000000  12.0000000  12.0000000  12.0000000   1.0078250   1.0078250   1.0078250   1.0078250   1.0078250
 NucSpn=           0           0           0           0           0           1           1           1           1           1
 AtZEff=   0.0000000   0.0000000   0.0000000   0.0000000   0.0000000   0.0000000   0.0000000   0.0000000   0.0000000   0.0000000
 NQMom=    0.0000000   0.0000000   0.0000000   0.0000000   0.0000000   0.0000000   0.0000000   0.0000000   0.0000000   0.0000000
 NMagM=    0.0000000   0.0000000   0.0000000   0.0000000   0.0000000   2.7928460   2.7928460   2.7928460   2.7928460   2.7928460
 AtZNuc=   6.0000000   6.0000000   6.0000000   6.0000000   6.0000000   1.0000000   1.0000000   1.0000000   1.0000000   1.0000000

  Atom        11          12          13          14          15          16          17          18          19          20
 IAtWgt=          16          16          16          16          16          12           1           1          16          12
 AtmWgt=  15.9949146  15.9949146  15.9949146  15.9949146  15.9949146  12.0000000   1.0078250   1.0078250  15.9949146  12.0000000
 NucSpn=           0           0           0           0           0           0           1           1           0           0
 AtZEff=   0.0000000   0.0000000   0.0000000   0.0000000   0.0000000   0.0000000   0.0000000   0.0000000   0.0000000   0.0000000
 NQMom=    0.0000000   0.0000000   0.0000000   0.0000000   0.0000000   0.0000000   0.0000000   0.0000000   0.0000000   0.0000000
 NMagM=    0.0000000   0.0000000   0.0000000   0.0000000   0.0000000   0.0000000   2.7928460   2.7928460   0.0000000   0.0000000
 AtZNuc=   8.0000000   8.0000000   8.0000000   8.0000000   8.0000000   6.0000000   1.0000000   1.0000000   8.0000000   6.0000000

  Atom        21          22          23          24          25          26          27          28          29          30
 IAtWgt=           1           1           1          12           1           1           1          12           1           1
 AtmWgt=   1.0078250   1.0078250   1.0078250  12.0000000   1.0078250   1.0078250   1.0078250  12.0000000   1.0078250   1.0078250
 NucSpn=           1           1           1           0           1           1           1           0           1           1
 AtZEff=   0.0000000   0.0000000   0.0000000   0.0000000   0.0000000   0.0000000   0.0000000   0.0000000   0.0000000   0.0000000
 NQMom=    0.0000000   0.0000000   0.0000000   0.0000000   0.0000000   0.0000000   0.0000000   0.0000000   0.0000000   0.0000000
 NMagM=    2.7928460   2.7928460   2.7928460   0.0000000   2.7928460   2.7928460   2.7928460   0.0000000   2.7928460   2.7928460
 AtZNuc=   1.0000000   1.0000000   1.0000000   6.0000000   1.0000000   1.0000000   1.0000000   6.0000000   1.0000000   1.0000000

  Atom        31          32          33          34          35          36          37          38          39          40
 IAtWgt=           1          12          12          12          12          12           1           1           1           1
 AtmWgt=   1.0078250  12.0000000  12.0000000  12.0000000  12.0000000  12.0000000   1.0078250   1.0078250   1.0078250   1.0078250
 NucSpn=           1           0           0           0           0           0           1           1           1           1
 AtZEff=   0.0000000   0.0000000   0.0000000   0.0000000   0.0000000   0.0000000   0.0000000   0.0000000   0.0000000   0.0000000
 NQMom=    0.0000000   0.0000000   0.0000000   0.0000000   0.0000000   0.0000000   0.0000000   0.0000000   0.0000000   0.0000000
 NMagM=    2.7928460   0.0000000   0.0000000   0.0000000   0.0000000   0.0000000   2.7928460   2.7928460   2.7928460   2.7928460
 AtZNuc=   1.0000000   6.0000000   6.0000000   6.0000000   6.0000000   6.0000000   1.0000000   1.0000000   1.0000000   1.0000000

  Atom        41          42          43          44          45          46          47          48          49          50
 IAtWgt=           1          16          16          16          16          16          12           1           1          16
 AtmWgt=   1.0078250  15.9949146  15.9949146  15.9949146  15.9949146  15.9949146  12.0000000   1.0078250   1.0078250  15.9949146
 NucSpn=           1           0           0           0           0           0           0           1           1           0
 AtZEff=   0.0000000   0.0000000   0.0000000   0.0000000   0.0000000   0.0000000   0.0000000   0.0000000   0.0000000   0.0000000
 NQMom=    0.0000000   0.0000000   0.0000000   0.0000000   0.0000000   0.0000000   0.0000000   0.0000000   0.0000000   0.0000000
 NMagM=    2.7928460   0.0000000   0.0000000   0.0000000   0.0000000   0.0000000   0.0000000   2.7928460   2.7928460   0.0000000
 AtZNuc=   1.0000000   8.0000000   8.0000000   8.0000000   8.0000000   8.0000000   6.0000000   1.0000000   1.0000000   8.0000000

  Atom        51          52          53          54          55          56          57          58          59          60
 IAtWgt=          32          16          16          12          12          12          12           1          12           1
 AtmWgt=  31.9720718  15.9949146  15.9949146  12.0000000  12.0000000  12.0000000  12.0000000   1.0078250  12.0000000   1.0078250
 NucSpn=           0           0           0           0           0           0           0           1           0           1
 AtZEff=   0.0000000   0.0000000   0.0000000   0.0000000   0.0000000   0.0000000   0.0000000   0.0000000   0.0000000   0.0000000
 NQMom=    0.0000000   0.0000000   0.0000000   0.0000000   0.0000000   0.0000000   0.0000000   0.0000000   0.0000000   0.0000000
 NMagM=    0.0000000   0.0000000   0.0000000   0.0000000   0.0000000   0.0000000   0.0000000   2.7928460   0.0000000   2.7928460
 AtZNuc=  16.0000000   8.0000000   8.0000000   6.0000000   6.0000000   6.0000000   6.0000000   1.0000000   6.0000000   1.0000000

  Atom        61          62          63          64          65          66          67          68          69          70
 IAtWgt=          12           1          12           1           1           1          12           1           1           1
 AtmWgt=  12.0000000   1.0078250  12.0000000   1.0078250   1.0078250   1.0078250  12.0000000   1.0078250   1.0078250   1.0078250
 NucSpn=           0           1           0           1           1           1           0           1           1           1
 AtZEff=   0.0000000   0.0000000   0.0000000   0.0000000   0.0000000   0.0000000   0.0000000   0.0000000   0.0000000   0.0000000
 NQMom=    0.0000000   0.0000000   0.0000000   0.0000000   0.0000000   0.0000000   0.0000000   0.0000000   0.0000000   0.0000000
 NMagM=    0.0000000   2.7928460   0.0000000   2.7928460   2.7928460   2.7928460   0.0000000   2.7928460   2.7928460   2.7928460
 AtZNuc=   6.0000000   1.0000000   6.0000000   1.0000000   1.0000000   1.0000000   6.0000000   1.0000000   1.0000000   1.0000000

  Atom        71          72          73          74          75          76          77          78          79          80
 IAtWgt=          12           1           1           1          12           1           1           1          12           1
 AtmWgt=  12.0000000   1.0078250   1.0078250   1.0078250  12.0000000   1.0078250   1.0078250   1.0078250  12.0000000   1.0078250
 NucSpn=           0           1           1           1           0           1           1           1           0           1
 AtZEff=   0.0000000   0.0000000   0.0000000   0.0000000   0.0000000   0.0000000   0.0000000   0.0000000   0.0000000   0.0000000
 NQMom=    0.0000000   0.0000000   0.0000000   0.0000000   0.0000000   0.0000000   0.0000000   0.0000000   0.0000000   0.0000000
 NMagM=    0.0000000   2.7928460   2.7928460   2.7928460   0.0000000   2.7928460   2.7928460   2.7928460   0.0000000   2.7928460
 AtZNuc=   6.0000000   1.0000000   1.0000000   1.0000000   6.0000000   1.0000000   1.0000000   1.0000000   6.0000000   1.0000000

  Atom        81          82          83          84          85          86          87          88          89          90
 IAtWgt=           1           1          23          16          12           1           1           1          12           1
 AtmWgt=   1.0078250   1.0078250  22.9897697  15.9949146  12.0000000   1.0078250   1.0078250   1.0078250  12.0000000   1.0078250
 NucSpn=           1           1           3           0           0           1           1           1           0           1
 AtZEff=   0.0000000   0.0000000   0.0000000   0.0000000   0.0000000   0.0000000   0.0000000   0.0000000   0.0000000   0.0000000
 NQMom=    0.0000000   0.0000000  10.4000000   0.0000000   0.0000000   0.0000000   0.0000000   0.0000000   0.0000000   0.0000000
 NMagM=    2.7928460   2.7928460   2.2175200   0.0000000   0.0000000   2.7928460   2.7928460   2.7928460   0.0000000   2.7928460
 AtZNuc=   1.0000000   1.0000000  11.0000000   8.0000000   6.0000000   1.0000000   1.0000000   1.0000000   6.0000000   1.0000000

  Atom        91          92          93          94          95          96          97          98          99         100
 IAtWgt=           1           1          12          19          19          19          12          19          19          19
 AtmWgt=   1.0078250   1.0078250  12.0000000  18.9984033  18.9984033  18.9984033  12.0000000  18.9984033  18.9984033  18.9984033
 NucSpn=           1           1           0           1           1           1           0           1           1           1
 AtZEff=   0.0000000   0.0000000   0.0000000   0.0000000   0.0000000   0.0000000   0.0000000   0.0000000   0.0000000   0.0000000
 NQMom=    0.0000000   0.0000000   0.0000000   0.0000000   0.0000000   0.0000000   0.0000000   0.0000000   0.0000000   0.0000000
 NMagM=    2.7928460   2.7928460   0.0000000   2.6288670   2.6288670   2.6288670   0.0000000   2.6288670   2.6288670   2.6288670
 AtZNuc=   1.0000000   1.0000000   6.0000000   9.0000000   9.0000000   9.0000000   6.0000000   9.0000000   9.0000000   9.0000000
 Leave Link  101 at Wed May  8 08:00:41 2019, MaxMem=  6442450944 cpu:              17.9 elap:               0.7
 (Enter /home/ekwan/sw/g16/l103.exe)

 GradGradGradGradGradGradGradGradGradGradGradGradGradGradGradGradGradGrad
 Berny optimization.
 Initialization pass.
                           ----------------------------
                           !    Initial Parameters    !
                           ! (Angstroms and Degrees)  !
 --------------------------                            --------------------------
 ! Name  Definition              Value          Derivative Info.                !
 --------------------------------------------------------------------------------
 ! R1    R(1,2)                  1.5298         calculate D2E/DX2 analytically  !
 ! R2    R(1,5)                  1.5329         calculate D2E/DX2 analytically  !
 ! R3    R(1,8)                  1.0982         calculate D2E/DX2 analytically  !
 ! R4    R(1,14)                 1.4234         calculate D2E/DX2 analytically  !
 ! R5    R(2,3)                  1.5373         calculate D2E/DX2 analytically  !
 ! R6    R(2,7)                  1.1014         calculate D2E/DX2 analytically  !
 ! R7    R(2,13)                 1.4157         calculate D2E/DX2 analytically  !
 ! R8    R(3,6)                  1.0984         calculate D2E/DX2 analytically  !
 ! R9    R(3,11)                 1.4122         calculate D2E/DX2 analytically  !
 ! R10   R(3,12)                 1.403          calculate D2E/DX2 analytically  !
 ! R11   R(4,5)                  1.5355         calculate D2E/DX2 analytically  !
 ! R12   R(4,9)                  1.0992         calculate D2E/DX2 analytically  !
 ! R13   R(4,11)                 1.4403         calculate D2E/DX2 analytically  !
 ! R14   R(4,16)                 1.5453         calculate D2E/DX2 analytically  !
 ! R15   R(5,10)                 1.0983         calculate D2E/DX2 analytically  !
 ! R16   R(5,15)                 1.4333         calculate D2E/DX2 analytically  !
 ! R17   R(12,79)                1.4242         calculate D2E/DX2 analytically  !
 ! R18   R(13,20)                1.4182         calculate D2E/DX2 analytically  !
 ! R19   R(14,24)                1.4209         calculate D2E/DX2 analytically  !
 ! R20   R(15,28)                1.4305         calculate D2E/DX2 analytically  !
 ! R21   R(16,17)                1.1119         calculate D2E/DX2 analytically  !
 ! R22   R(16,18)                1.1183         calculate D2E/DX2 analytically  !
 ! R23   R(16,19)                1.3696         calculate D2E/DX2 analytically  !
 ! R24   R(18,37)                2.0591         calculate D2E/DX2 analytically  !
 ! R25   R(19,38)                2.1916         calculate D2E/DX2 analytically  !
 ! R26   R(19,83)                2.1773         calculate D2E/DX2 analytically  !
 ! R27   R(19,87)                2.3371         calculate D2E/DX2 analytically  !
 ! R28   R(20,21)                1.0983         calculate D2E/DX2 analytically  !
 ! R29   R(20,22)                1.0999         calculate D2E/DX2 analytically  !
 ! R30   R(20,23)                1.0925         calculate D2E/DX2 analytically  !
 ! R31   R(24,25)                1.1003         calculate D2E/DX2 analytically  !
 ! R32   R(24,26)                1.0945         calculate D2E/DX2 analytically  !
 ! R33   R(24,27)                1.0932         calculate D2E/DX2 analytically  !
 ! R34   R(28,29)                1.0916         calculate D2E/DX2 analytically  !
 ! R35   R(28,30)                1.0965         calculate D2E/DX2 analytically  !
 ! R36   R(28,31)                1.092          calculate D2E/DX2 analytically  !
 ! R37   R(32,33)                1.5289         calculate D2E/DX2 analytically  !
 ! R38   R(32,36)                1.5292         calculate D2E/DX2 analytically  !
 ! R39   R(32,39)                1.0953         calculate D2E/DX2 analytically  !
 ! R40   R(32,45)                1.4194         calculate D2E/DX2 analytically  !
 ! R41   R(33,34)                1.5167         calculate D2E/DX2 analytically  !
 ! R42   R(33,38)                1.0937         calculate D2E/DX2 analytically  !
 ! R43   R(33,44)                1.4059         calculate D2E/DX2 analytically  !
 ! R44   R(34,37)                1.0756         calculate D2E/DX2 analytically  !
 ! R45   R(34,42)                1.3237         calculate D2E/DX2 analytically  !
 ! R46   R(34,53)                1.9441         calculate D2E/DX2 analytically  !
 ! R47   R(35,36)                1.5323         calculate D2E/DX2 analytically  !
 ! R48   R(35,40)                1.0933         calculate D2E/DX2 analytically  !
 ! R49   R(35,42)                1.4568         calculate D2E/DX2 analytically  !
 ! R50   R(35,47)                1.5125         calculate D2E/DX2 analytically  !
 ! R51   R(36,41)                1.0956         calculate D2E/DX2 analytically  !
 ! R52   R(36,46)                1.4187         calculate D2E/DX2 analytically  !
 ! R53   R(38,87)                2.286          calculate D2E/DX2 analytically  !
 ! R54   R(43,51)                1.4771         calculate D2E/DX2 analytically  !
 ! R55   R(44,63)                1.4277         calculate D2E/DX2 analytically  !
 ! R56   R(45,67)                1.4245         calculate D2E/DX2 analytically  !
 ! R57   R(46,71)                1.4234         calculate D2E/DX2 analytically  !
 ! R58   R(47,48)                1.0965         calculate D2E/DX2 analytically  !
 ! R59   R(47,49)                1.0983         calculate D2E/DX2 analytically  !
 ! R60   R(47,50)                1.4231         calculate D2E/DX2 analytically  !
 ! R61   R(50,75)                1.4248         calculate D2E/DX2 analytically  !
 ! R62   R(51,52)                1.4737         calculate D2E/DX2 analytically  !
 ! R63   R(51,53)                1.5385         calculate D2E/DX2 analytically  !
 ! R64   R(51,54)                1.7948         calculate D2E/DX2 analytically  !
 ! R65   R(54,55)                1.3866         calculate D2E/DX2 analytically  !
 ! R66   R(54,56)                1.3937         calculate D2E/DX2 analytically  !
 ! R67   R(55,57)                1.3971         calculate D2E/DX2 analytically  !
 ! R68   R(55,58)                1.0832         calculate D2E/DX2 analytically  !
 ! R69   R(56,59)                1.3905         calculate D2E/DX2 analytically  !
 ! R70   R(56,60)                1.0828         calculate D2E/DX2 analytically  !
 ! R71   R(57,61)                1.3912         calculate D2E/DX2 analytically  !
 ! R72   R(57,97)                1.5025         calculate D2E/DX2 analytically  !
 ! R73   R(59,61)                1.398          calculate D2E/DX2 analytically  !
 ! R74   R(59,93)                1.503          calculate D2E/DX2 analytically  !
 ! R75   R(61,62)                1.0836         calculate D2E/DX2 analytically  !
 ! R76   R(63,64)                1.0945         calculate D2E/DX2 analytically  !
 ! R77   R(63,65)                1.096          calculate D2E/DX2 analytically  !
 ! R78   R(63,66)                1.0914         calculate D2E/DX2 analytically  !
 ! R79   R(67,68)                1.0975         calculate D2E/DX2 analytically  !
 ! R80   R(67,69)                1.0944         calculate D2E/DX2 analytically  !
 ! R81   R(67,70)                1.0927         calculate D2E/DX2 analytically  !
 ! R82   R(71,72)                1.0945         calculate D2E/DX2 analytically  !
 ! R83   R(71,73)                1.0991         calculate D2E/DX2 analytically  !
 ! R84   R(71,74)                1.0926         calculate D2E/DX2 analytically  !
 ! R85   R(75,76)                1.0916         calculate D2E/DX2 analytically  !
 ! R86   R(75,77)                1.098          calculate D2E/DX2 analytically  !
 ! R87   R(75,78)                1.0973         calculate D2E/DX2 analytically  !
 ! R88   R(79,80)                1.0918         calculate D2E/DX2 analytically  !
 ! R89   R(79,81)                1.0959         calculate D2E/DX2 analytically  !
 ! R90   R(79,82)                1.0992         calculate D2E/DX2 analytically  !
 ! R91   R(83,84)                2.3335         calculate D2E/DX2 analytically  !
 ! R92   R(84,85)                1.4276         calculate D2E/DX2 analytically  !
 ! R93   R(84,89)                1.4192         calculate D2E/DX2 analytically  !
 ! R94   R(85,86)                1.0989         calculate D2E/DX2 analytically  !
 ! R95   R(85,87)                1.092          calculate D2E/DX2 analytically  !
 ! R96   R(85,88)                1.0988         calculate D2E/DX2 analytically  !
 ! R97   R(89,90)                1.0988         calculate D2E/DX2 analytically  !
 ! R98   R(89,91)                1.0915         calculate D2E/DX2 analytically  !
 ! R99   R(89,92)                1.0986         calculate D2E/DX2 analytically  !
 ! R100  R(93,94)                1.3511         calculate D2E/DX2 analytically  !
 ! R101  R(93,95)                1.3552         calculate D2E/DX2 analytically  !
 ! R102  R(93,96)                1.351          calculate D2E/DX2 analytically  !
 ! R103  R(97,98)                1.3488         calculate D2E/DX2 analytically  !
 ! R104  R(97,99)                1.3587         calculate D2E/DX2 analytically  !
 ! R105  R(97,100)               1.3494         calculate D2E/DX2 analytically  !
 ! A1    A(2,1,5)              111.3179         calculate D2E/DX2 analytically  !
 ! A2    A(2,1,8)              108.7515         calculate D2E/DX2 analytically  !
 ! A3    A(2,1,14)             110.5288         calculate D2E/DX2 analytically  !
 ! A4    A(5,1,8)              108.0303         calculate D2E/DX2 analytically  !
 ! A5    A(5,1,14)             108.1703         calculate D2E/DX2 analytically  !
 ! A6    A(8,1,14)             110.0059         calculate D2E/DX2 analytically  !
 ! A7    A(1,2,3)              110.7408         calculate D2E/DX2 analytically  !
 ! A8    A(1,2,7)              108.1053         calculate D2E/DX2 analytically  !
 ! A9    A(1,2,13)             107.6851         calculate D2E/DX2 analytically  !
 ! A10   A(3,2,7)              106.932          calculate D2E/DX2 analytically  !
 ! A11   A(3,2,13)             113.323          calculate D2E/DX2 analytically  !
 ! A12   A(7,2,13)             109.9511         calculate D2E/DX2 analytically  !
 ! A13   A(2,3,6)              111.3868         calculate D2E/DX2 analytically  !
 ! A14   A(2,3,11)             109.9385         calculate D2E/DX2 analytically  !
 ! A15   A(2,3,12)             108.0913         calculate D2E/DX2 analytically  !
 ! A16   A(6,3,11)             104.1578         calculate D2E/DX2 analytically  !
 ! A17   A(6,3,12)             110.0631         calculate D2E/DX2 analytically  !
 ! A18   A(11,3,12)            113.2215         calculate D2E/DX2 analytically  !
 ! A19   A(5,4,9)              109.3233         calculate D2E/DX2 analytically  !
 ! A20   A(5,4,11)             107.9308         calculate D2E/DX2 analytically  !
 ! A21   A(5,4,16)             115.7626         calculate D2E/DX2 analytically  !
 ! A22   A(9,4,11)             109.3202         calculate D2E/DX2 analytically  !
 ! A23   A(9,4,16)             107.9291         calculate D2E/DX2 analytically  !
 ! A24   A(11,4,16)            106.4205         calculate D2E/DX2 analytically  !
 ! A25   A(1,5,4)              111.1617         calculate D2E/DX2 analytically  !
 ! A26   A(1,5,10)             109.1545         calculate D2E/DX2 analytically  !
 ! A27   A(1,5,15)             108.9259         calculate D2E/DX2 analytically  !
 ! A28   A(4,5,10)             108.0658         calculate D2E/DX2 analytically  !
 ! A29   A(4,5,15)             110.4208         calculate D2E/DX2 analytically  !
 ! A30   A(10,5,15)            109.0762         calculate D2E/DX2 analytically  !
 ! A31   A(3,11,4)             114.6487         calculate D2E/DX2 analytically  !
 ! A32   A(3,12,79)            113.1128         calculate D2E/DX2 analytically  !
 ! A33   A(2,13,20)            114.2026         calculate D2E/DX2 analytically  !
 ! A34   A(1,14,24)            114.6395         calculate D2E/DX2 analytically  !
 ! A35   A(5,15,28)            113.9984         calculate D2E/DX2 analytically  !
 ! A36   A(4,16,17)            104.5102         calculate D2E/DX2 analytically  !
 ! A37   A(4,16,18)            106.6085         calculate D2E/DX2 analytically  !
 ! A38   A(4,16,19)            114.3262         calculate D2E/DX2 analytically  !
 ! A39   A(17,16,18)           104.6106         calculate D2E/DX2 analytically  !
 ! A40   A(17,16,19)           112.9874         calculate D2E/DX2 analytically  !
 ! A41   A(18,16,19)           112.9379         calculate D2E/DX2 analytically  !
 ! A42   A(16,18,37)           103.2837         calculate D2E/DX2 analytically  !
 ! A43   A(16,19,38)           141.5306         calculate D2E/DX2 analytically  !
 ! A44   A(16,19,83)           122.6303         calculate D2E/DX2 analytically  !
 ! A45   A(16,19,87)           129.0411         calculate D2E/DX2 analytically  !
 ! A46   A(38,19,83)            94.603          calculate D2E/DX2 analytically  !
 ! A47   A(83,19,87)            81.0322         calculate D2E/DX2 analytically  !
 ! A48   A(13,20,21)           112.0066         calculate D2E/DX2 analytically  !
 ! A49   A(13,20,22)           111.3633         calculate D2E/DX2 analytically  !
 ! A50   A(13,20,23)           106.7862         calculate D2E/DX2 analytically  !
 ! A51   A(21,20,22)           108.8234         calculate D2E/DX2 analytically  !
 ! A52   A(21,20,23)           108.6937         calculate D2E/DX2 analytically  !
 ! A53   A(22,20,23)           109.0844         calculate D2E/DX2 analytically  !
 ! A54   A(14,24,25)           111.0701         calculate D2E/DX2 analytically  !
 ! A55   A(14,24,26)           111.5201         calculate D2E/DX2 analytically  !
 ! A56   A(14,24,27)           106.5849         calculate D2E/DX2 analytically  !
 ! A57   A(25,24,26)           109.0945         calculate D2E/DX2 analytically  !
 ! A58   A(25,24,27)           108.8696         calculate D2E/DX2 analytically  !
 ! A59   A(26,24,27)           109.6387         calculate D2E/DX2 analytically  !
 ! A60   A(15,28,29)           110.5908         calculate D2E/DX2 analytically  !
 ! A61   A(15,28,30)           110.5855         calculate D2E/DX2 analytically  !
 ! A62   A(15,28,31)           106.5015         calculate D2E/DX2 analytically  !
 ! A63   A(29,28,30)           110.2711         calculate D2E/DX2 analytically  !
 ! A64   A(29,28,31)           109.8832         calculate D2E/DX2 analytically  !
 ! A65   A(30,28,31)           108.9246         calculate D2E/DX2 analytically  !
 ! A66   A(33,32,36)           109.2424         calculate D2E/DX2 analytically  !
 ! A67   A(33,32,39)           110.0986         calculate D2E/DX2 analytically  !
 ! A68   A(33,32,45)           110.3161         calculate D2E/DX2 analytically  !
 ! A69   A(36,32,39)           108.872          calculate D2E/DX2 analytically  !
 ! A70   A(36,32,45)           107.8457         calculate D2E/DX2 analytically  !
 ! A71   A(39,32,45)           110.4144         calculate D2E/DX2 analytically  !
 ! A72   A(32,33,34)           112.2149         calculate D2E/DX2 analytically  !
 ! A73   A(32,33,38)           107.9603         calculate D2E/DX2 analytically  !
 ! A74   A(32,33,44)           109.8109         calculate D2E/DX2 analytically  !
 ! A75   A(34,33,38)           103.9664         calculate D2E/DX2 analytically  !
 ! A76   A(34,33,44)           112.696          calculate D2E/DX2 analytically  !
 ! A77   A(38,33,44)           109.9374         calculate D2E/DX2 analytically  !
 ! A78   A(33,34,37)           121.7174         calculate D2E/DX2 analytically  !
 ! A79   A(33,34,42)           119.7145         calculate D2E/DX2 analytically  !
 ! A80   A(33,34,53)            98.7101         calculate D2E/DX2 analytically  !
 ! A81   A(37,34,42)           114.7957         calculate D2E/DX2 analytically  !
 ! A82   A(37,34,53)            93.3225         calculate D2E/DX2 analytically  !
 ! A83   A(42,34,53)            97.286          calculate D2E/DX2 analytically  !
 ! A84   A(36,35,40)           108.8249         calculate D2E/DX2 analytically  !
 ! A85   A(36,35,42)           111.9769         calculate D2E/DX2 analytically  !
 ! A86   A(36,35,47)           114.2646         calculate D2E/DX2 analytically  !
 ! A87   A(40,35,42)           106.7378         calculate D2E/DX2 analytically  !
 ! A88   A(40,35,47)           108.4979         calculate D2E/DX2 analytically  !
 ! A89   A(42,35,47)           106.2228         calculate D2E/DX2 analytically  !
 ! A90   A(32,36,35)           110.7101         calculate D2E/DX2 analytically  !
 ! A91   A(32,36,41)           108.9357         calculate D2E/DX2 analytically  !
 ! A92   A(32,36,46)           110.9006         calculate D2E/DX2 analytically  !
 ! A93   A(35,36,41)           109.5267         calculate D2E/DX2 analytically  !
 ! A94   A(35,36,46)           105.7219         calculate D2E/DX2 analytically  !
 ! A95   A(41,36,46)           111.0179         calculate D2E/DX2 analytically  !
 ! A96   A(18,37,34)           141.0299         calculate D2E/DX2 analytically  !
 ! A97   A(19,38,33)           111.0882         calculate D2E/DX2 analytically  !
 ! A98   A(34,42,35)           118.3955         calculate D2E/DX2 analytically  !
 ! A99   A(33,44,63)           114.7528         calculate D2E/DX2 analytically  !
 ! A100  A(32,45,67)           113.9548         calculate D2E/DX2 analytically  !
 ! A101  A(36,46,71)           114.1646         calculate D2E/DX2 analytically  !
 ! A102  A(35,47,48)           108.1592         calculate D2E/DX2 analytically  !
 ! A103  A(35,47,49)           109.7038         calculate D2E/DX2 analytically  !
 ! A104  A(35,47,50)           109.6852         calculate D2E/DX2 analytically  !
 ! A105  A(48,47,49)           108.737          calculate D2E/DX2 analytically  !
 ! A106  A(48,47,50)           110.5035         calculate D2E/DX2 analytically  !
 ! A107  A(49,47,50)           110.0195         calculate D2E/DX2 analytically  !
 ! A108  A(47,50,75)           112.2975         calculate D2E/DX2 analytically  !
 ! A109  A(43,51,52)           117.068          calculate D2E/DX2 analytically  !
 ! A110  A(43,51,53)           111.923          calculate D2E/DX2 analytically  !
 ! A111  A(43,51,54)           106.7242         calculate D2E/DX2 analytically  !
 ! A112  A(52,51,53)           109.6893         calculate D2E/DX2 analytically  !
 ! A113  A(52,51,54)           107.126          calculate D2E/DX2 analytically  !
 ! A114  A(53,51,54)           103.2206         calculate D2E/DX2 analytically  !
 ! A115  A(34,53,51)           119.0322         calculate D2E/DX2 analytically  !
 ! A116  A(51,54,55)           119.4914         calculate D2E/DX2 analytically  !
 ! A117  A(51,54,56)           119.1667         calculate D2E/DX2 analytically  !
 ! A118  A(55,54,56)           121.291          calculate D2E/DX2 analytically  !
 ! A119  A(54,55,57)           119.0084         calculate D2E/DX2 analytically  !
 ! A120  A(54,55,58)           119.7822         calculate D2E/DX2 analytically  !
 ! A121  A(57,55,58)           121.1535         calculate D2E/DX2 analytically  !
 ! A122  A(54,56,59)           119.003          calculate D2E/DX2 analytically  !
 ! A123  A(54,56,60)           120.3471         calculate D2E/DX2 analytically  !
 ! A124  A(59,56,60)           120.6011         calculate D2E/DX2 analytically  !
 ! A125  A(55,57,61)           120.6876         calculate D2E/DX2 analytically  !
 ! A126  A(55,57,97)           118.8363         calculate D2E/DX2 analytically  !
 ! A127  A(61,57,97)           120.278          calculate D2E/DX2 analytically  !
 ! A128  A(56,59,61)           120.6762         calculate D2E/DX2 analytically  !
 ! A129  A(56,59,93)           120.6297         calculate D2E/DX2 analytically  !
 ! A130  A(61,59,93)           118.6852         calculate D2E/DX2 analytically  !
 ! A131  A(57,61,59)           119.3038         calculate D2E/DX2 analytically  !
 ! A132  A(57,61,62)           120.3158         calculate D2E/DX2 analytically  !
 ! A133  A(59,61,62)           120.3774         calculate D2E/DX2 analytically  !
 ! A134  A(44,63,64)           111.4853         calculate D2E/DX2 analytically  !
 ! A135  A(44,63,65)           110.9562         calculate D2E/DX2 analytically  !
 ! A136  A(44,63,66)           106.0103         calculate D2E/DX2 analytically  !
 ! A137  A(64,63,65)           109.1249         calculate D2E/DX2 analytically  !
 ! A138  A(64,63,66)           109.2518         calculate D2E/DX2 analytically  !
 ! A139  A(65,63,66)           109.9619         calculate D2E/DX2 analytically  !
 ! A140  A(45,67,68)           110.8719         calculate D2E/DX2 analytically  !
 ! A141  A(45,67,69)           111.4496         calculate D2E/DX2 analytically  !
 ! A142  A(45,67,70)           106.5727         calculate D2E/DX2 analytically  !
 ! A143  A(68,67,69)           109.1514         calculate D2E/DX2 analytically  !
 ! A144  A(68,67,70)           109.0564         calculate D2E/DX2 analytically  !
 ! A145  A(69,67,70)           109.6832         calculate D2E/DX2 analytically  !
 ! A146  A(46,71,72)           111.1351         calculate D2E/DX2 analytically  !
 ! A147  A(46,71,73)           111.0676         calculate D2E/DX2 analytically  !
 ! A148  A(46,71,74)           106.5156         calculate D2E/DX2 analytically  !
 ! A149  A(72,71,73)           109.3874         calculate D2E/DX2 analytically  !
 ! A150  A(72,71,74)           109.6723         calculate D2E/DX2 analytically  !
 ! A151  A(73,71,74)           109.0002         calculate D2E/DX2 analytically  !
 ! A152  A(50,75,76)           107.1242         calculate D2E/DX2 analytically  !
 ! A153  A(50,75,77)           111.0414         calculate D2E/DX2 analytically  !
 ! A154  A(50,75,78)           110.6708         calculate D2E/DX2 analytically  !
 ! A155  A(76,75,77)           109.3979         calculate D2E/DX2 analytically  !
 ! A156  A(76,75,78)           109.464          calculate D2E/DX2 analytically  !
 ! A157  A(77,75,78)           109.1078         calculate D2E/DX2 analytically  !
 ! A158  A(12,79,80)           106.7204         calculate D2E/DX2 analytically  !
 ! A159  A(12,79,81)           111.5095         calculate D2E/DX2 analytically  !
 ! A160  A(12,79,82)           110.8145         calculate D2E/DX2 analytically  !
 ! A161  A(80,79,81)           109.6109         calculate D2E/DX2 analytically  !
 ! A162  A(80,79,82)           109.3526         calculate D2E/DX2 analytically  !
 ! A163  A(81,79,82)           108.7967         calculate D2E/DX2 analytically  !
 ! A164  A(19,83,84)            93.4487         calculate D2E/DX2 analytically  !
 ! A165  A(83,84,85)           115.7949         calculate D2E/DX2 analytically  !
 ! A166  A(83,84,89)           131.2888         calculate D2E/DX2 analytically  !
 ! A167  A(85,84,89)           112.8704         calculate D2E/DX2 analytically  !
 ! A168  A(84,85,86)           110.2195         calculate D2E/DX2 analytically  !
 ! A169  A(84,85,87)           105.8251         calculate D2E/DX2 analytically  !
 ! A170  A(84,85,88)           110.7261         calculate D2E/DX2 analytically  !
 ! A171  A(86,85,87)           110.0537         calculate D2E/DX2 analytically  !
 ! A172  A(86,85,88)           109.2409         calculate D2E/DX2 analytically  !
 ! A173  A(87,85,88)           110.7391         calculate D2E/DX2 analytically  !
 ! A174  A(19,87,85)           139.0139         calculate D2E/DX2 analytically  !
 ! A175  A(38,87,85)           104.5436         calculate D2E/DX2 analytically  !
 ! A176  A(84,89,90)           111.013          calculate D2E/DX2 analytically  !
 ! A177  A(84,89,91)           107.1147         calculate D2E/DX2 analytically  !
 ! A178  A(84,89,92)           110.8427         calculate D2E/DX2 analytically  !
 ! A179  A(90,89,91)           109.7767         calculate D2E/DX2 analytically  !
 ! A180  A(90,89,92)           108.8144         calculate D2E/DX2 analytically  !
 ! A181  A(91,89,92)           109.2528         calculate D2E/DX2 analytically  !
 ! A182  A(59,93,94)           112.216          calculate D2E/DX2 analytically  !
 ! A183  A(59,93,95)           111.0947         calculate D2E/DX2 analytically  !
 ! A184  A(59,93,96)           112.0332         calculate D2E/DX2 analytically  !
 ! A185  A(94,93,95)           107.1781         calculate D2E/DX2 analytically  !
 ! A186  A(94,93,96)           107.3126         calculate D2E/DX2 analytically  !
 ! A187  A(95,93,96)           106.6984         calculate D2E/DX2 analytically  !
 ! A188  A(57,97,98)           112.3363         calculate D2E/DX2 analytically  !
 ! A189  A(57,97,99)           111.048          calculate D2E/DX2 analytically  !
 ! A190  A(57,97,100)          111.8461         calculate D2E/DX2 analytically  !
 ! A191  A(98,97,99)           106.8839         calculate D2E/DX2 analytically  !
 ! A192  A(98,97,100)          107.7621         calculate D2E/DX2 analytically  !
 ! A193  A(99,97,100)          106.6572         calculate D2E/DX2 analytically  !
 ! A194  L(33,38,87,5,-1)      173.7345         calculate D2E/DX2 analytically  !
 ! A195  L(33,38,87,5,-2)      179.2205         calculate D2E/DX2 analytically  !
 ! D1    D(5,1,2,3)            -49.3358         calculate D2E/DX2 analytically  !
 ! D2    D(5,1,2,7)             67.5012         calculate D2E/DX2 analytically  !
 ! D3    D(5,1,2,13)          -173.7447         calculate D2E/DX2 analytically  !
 ! D4    D(8,1,2,3)             69.5692         calculate D2E/DX2 analytically  !
 ! D5    D(8,1,2,7)           -173.5937         calculate D2E/DX2 analytically  !
 ! D6    D(8,1,2,13)           -54.8396         calculate D2E/DX2 analytically  !
 ! D7    D(14,1,2,3)          -169.5726         calculate D2E/DX2 analytically  !
 ! D8    D(14,1,2,7)           -52.7356         calculate D2E/DX2 analytically  !
 ! D9    D(14,1,2,13)           66.0185         calculate D2E/DX2 analytically  !
 ! D10   D(2,1,5,4)             51.1439         calculate D2E/DX2 analytically  !
 ! D11   D(2,1,5,10)           -67.9656         calculate D2E/DX2 analytically  !
 ! D12   D(2,1,5,15)           173.0316         calculate D2E/DX2 analytically  !
 ! D13   D(8,1,5,4)            -68.1916         calculate D2E/DX2 analytically  !
 ! D14   D(8,1,5,10)           172.6989         calculate D2E/DX2 analytically  !
 ! D15   D(8,1,5,15)            53.6961         calculate D2E/DX2 analytically  !
 ! D16   D(14,1,5,4)           172.7632         calculate D2E/DX2 analytically  !
 ! D17   D(14,1,5,10)           53.6536         calculate D2E/DX2 analytically  !
 ! D18   D(14,1,5,15)          -65.3491         calculate D2E/DX2 analytically  !
 ! D19   D(2,1,14,24)          -96.6605         calculate D2E/DX2 analytically  !
 ! D20   D(5,1,14,24)          141.2348         calculate D2E/DX2 analytically  !
 ! D21   D(8,1,14,24)           23.4482         calculate D2E/DX2 analytically  !
 ! D22   D(1,2,3,6)            168.5153         calculate D2E/DX2 analytically  !
 ! D23   D(1,2,3,11)            53.5861         calculate D2E/DX2 analytically  !
 ! D24   D(1,2,3,12)           -70.4523         calculate D2E/DX2 analytically  !
 ! D25   D(7,2,3,6)             50.9575         calculate D2E/DX2 analytically  !
 ! D26   D(7,2,3,11)           -63.9717         calculate D2E/DX2 analytically  !
 ! D27   D(7,2,3,12)           171.99           calculate D2E/DX2 analytically  !
 ! D28   D(13,2,3,6)           -70.3529         calculate D2E/DX2 analytically  !
 ! D29   D(13,2,3,11)          174.718          calculate D2E/DX2 analytically  !
 ! D30   D(13,2,3,12)           50.6796         calculate D2E/DX2 analytically  !
 ! D31   D(1,2,13,20)         -169.1851         calculate D2E/DX2 analytically  !
 ! D32   D(3,2,13,20)           67.9776         calculate D2E/DX2 analytically  !
 ! D33   D(7,2,13,20)          -51.6203         calculate D2E/DX2 analytically  !
 ! D34   D(2,3,11,4)           -62.7808         calculate D2E/DX2 analytically  !
 ! D35   D(6,3,11,4)           177.7752         calculate D2E/DX2 analytically  !
 ! D36   D(12,3,11,4)           58.2228         calculate D2E/DX2 analytically  !
 ! D37   D(2,3,12,79)         -174.3798         calculate D2E/DX2 analytically  !
 ! D38   D(6,3,12,79)          -52.5281         calculate D2E/DX2 analytically  !
 ! D39   D(11,3,12,79)          63.5787         calculate D2E/DX2 analytically  !
 ! D40   D(9,4,5,1)             63.3781         calculate D2E/DX2 analytically  !
 ! D41   D(9,4,5,10)          -176.8627         calculate D2E/DX2 analytically  !
 ! D42   D(9,4,5,15)           -57.6357         calculate D2E/DX2 analytically  !
 ! D43   D(11,4,5,1)           -55.4355         calculate D2E/DX2 analytically  !
 ! D44   D(11,4,5,10)           64.3238         calculate D2E/DX2 analytically  !
 ! D45   D(11,4,5,15)         -176.4493         calculate D2E/DX2 analytically  !
 ! D46   D(16,4,5,1)          -174.5184         calculate D2E/DX2 analytically  !
 ! D47   D(16,4,5,10)          -54.7591         calculate D2E/DX2 analytically  !
 ! D48   D(16,4,5,15)           64.4678         calculate D2E/DX2 analytically  !
 ! D49   D(5,4,11,3)            63.2815         calculate D2E/DX2 analytically  !
 ! D50   D(9,4,11,3)           -55.5341         calculate D2E/DX2 analytically  !
 ! D51   D(16,4,11,3)         -171.8553         calculate D2E/DX2 analytically  !
 ! D52   D(5,4,16,17)          156.3133         calculate D2E/DX2 analytically  !
 ! D53   D(5,4,16,18)           45.881          calculate D2E/DX2 analytically  !
 ! D54   D(5,4,16,19)          -79.6517         calculate D2E/DX2 analytically  !
 ! D55   D(9,4,16,17)          -80.8447         calculate D2E/DX2 analytically  !
 ! D56   D(9,4,16,18)          168.723          calculate D2E/DX2 analytically  !
 ! D57   D(9,4,16,19)           43.1903         calculate D2E/DX2 analytically  !
 ! D58   D(11,4,16,17)          36.4051         calculate D2E/DX2 analytically  !
 ! D59   D(11,4,16,18)         -74.0272         calculate D2E/DX2 analytically  !
 ! D60   D(11,4,16,19)         160.4401         calculate D2E/DX2 analytically  !
 ! D61   D(1,5,15,28)           96.7081         calculate D2E/DX2 analytically  !
 ! D62   D(4,5,15,28)         -140.956          calculate D2E/DX2 analytically  !
 ! D63   D(10,5,15,28)         -22.3435         calculate D2E/DX2 analytically  !
 ! D64   D(3,12,79,80)         175.6923         calculate D2E/DX2 analytically  !
 ! D65   D(3,12,79,81)         -64.6333         calculate D2E/DX2 analytically  !
 ! D66   D(3,12,79,82)          56.7212         calculate D2E/DX2 analytically  !
 ! D67   D(2,13,20,21)         -70.6676         calculate D2E/DX2 analytically  !
 ! D68   D(2,13,20,22)          51.4579         calculate D2E/DX2 analytically  !
 ! D69   D(2,13,20,23)         170.451          calculate D2E/DX2 analytically  !
 ! D70   D(1,14,24,25)         -58.8656         calculate D2E/DX2 analytically  !
 ! D71   D(1,14,24,26)          63.0557         calculate D2E/DX2 analytically  !
 ! D72   D(1,14,24,27)        -177.3146         calculate D2E/DX2 analytically  !
 ! D73   D(5,15,28,29)         -56.9317         calculate D2E/DX2 analytically  !
 ! D74   D(5,15,28,30)          65.5109         calculate D2E/DX2 analytically  !
 ! D75   D(5,15,28,31)        -176.2865         calculate D2E/DX2 analytically  !
 ! D76   D(4,16,18,37)        -132.4793         calculate D2E/DX2 analytically  !
 ! D77   D(17,16,18,37)        117.1585         calculate D2E/DX2 analytically  !
 ! D78   D(19,16,18,37)         -6.109          calculate D2E/DX2 analytically  !
 ! D79   D(4,16,19,38)        -174.5945         calculate D2E/DX2 analytically  !
 ! D80   D(4,16,19,83)          21.8706         calculate D2E/DX2 analytically  !
 ! D81   D(4,16,19,87)         -84.4453         calculate D2E/DX2 analytically  !
 ! D82   D(17,16,19,38)        -55.2238         calculate D2E/DX2 analytically  !
 ! D83   D(17,16,19,83)        141.2413         calculate D2E/DX2 analytically  !
 ! D84   D(17,16,19,87)         34.9254         calculate D2E/DX2 analytically  !
 ! D85   D(18,16,19,38)         63.2698         calculate D2E/DX2 analytically  !
 ! D86   D(18,16,19,83)       -100.2652         calculate D2E/DX2 analytically  !
 ! D87   D(18,16,19,87)        153.4189         calculate D2E/DX2 analytically  !
 ! D88   D(16,18,37,34)         13.2405         calculate D2E/DX2 analytically  !
 ! D89   D(16,19,38,33)        -65.1851         calculate D2E/DX2 analytically  !
 ! D90   D(83,19,38,33)        100.9597         calculate D2E/DX2 analytically  !
 ! D91   D(16,19,83,84)       -143.7442         calculate D2E/DX2 analytically  !
 ! D92   D(38,19,83,84)         46.4446         calculate D2E/DX2 analytically  !
 ! D93   D(87,19,83,84)        -12.7381         calculate D2E/DX2 analytically  !
 ! D94   D(16,19,87,85)        153.1052         calculate D2E/DX2 analytically  !
 ! D95   D(83,19,87,85)         28.0155         calculate D2E/DX2 analytically  !
 ! D96   D(36,32,33,34)        -47.4007         calculate D2E/DX2 analytically  !
 ! D97   D(36,32,33,38)         66.5808         calculate D2E/DX2 analytically  !
 ! D98   D(36,32,33,44)       -173.5659         calculate D2E/DX2 analytically  !
 ! D99   D(39,32,33,34)         72.1071         calculate D2E/DX2 analytically  !
 ! D100  D(39,32,33,38)       -173.9114         calculate D2E/DX2 analytically  !
 ! D101  D(39,32,33,44)        -54.0581         calculate D2E/DX2 analytically  !
 ! D102  D(45,32,33,34)       -165.7832         calculate D2E/DX2 analytically  !
 ! D103  D(45,32,33,38)        -51.8017         calculate D2E/DX2 analytically  !
 ! D104  D(45,32,33,44)         68.0516         calculate D2E/DX2 analytically  !
 ! D105  D(33,32,36,35)         55.3981         calculate D2E/DX2 analytically  !
 ! D106  D(33,32,36,41)        -65.0984         calculate D2E/DX2 analytically  !
 ! D107  D(33,32,36,46)        172.4288         calculate D2E/DX2 analytically  !
 ! D108  D(39,32,36,35)        -64.8649         calculate D2E/DX2 analytically  !
 ! D109  D(39,32,36,41)        174.6385         calculate D2E/DX2 analytically  !
 ! D110  D(39,32,36,46)         52.1657         calculate D2E/DX2 analytically  !
 ! D111  D(45,32,36,35)        175.313          calculate D2E/DX2 analytically  !
 ! D112  D(45,32,36,41)         54.8165         calculate D2E/DX2 analytically  !
 ! D113  D(45,32,36,46)        -67.6563         calculate D2E/DX2 analytically  !
 ! D114  D(33,32,45,67)        -97.0457         calculate D2E/DX2 analytically  !
 ! D115  D(36,32,45,67)        143.7198         calculate D2E/DX2 analytically  !
 ! D116  D(39,32,45,67)         24.8776         calculate D2E/DX2 analytically  !
 ! D117  D(32,33,34,37)       -162.6625         calculate D2E/DX2 analytically  !
 ! D118  D(32,33,34,42)         40.3552         calculate D2E/DX2 analytically  !
 ! D119  D(32,33,34,53)        -63.246          calculate D2E/DX2 analytically  !
 ! D120  D(38,33,34,37)         80.927          calculate D2E/DX2 analytically  !
 ! D121  D(38,33,34,42)        -76.0552         calculate D2E/DX2 analytically  !
 ! D122  D(38,33,34,53)       -179.6565         calculate D2E/DX2 analytically  !
 ! D123  D(44,33,34,37)        -38.0781         calculate D2E/DX2 analytically  !
 ! D124  D(44,33,34,42)        164.9396         calculate D2E/DX2 analytically  !
 ! D125  D(44,33,34,53)         61.3384         calculate D2E/DX2 analytically  !
 ! D126  D(32,33,38,19)       -139.5248         calculate D2E/DX2 analytically  !
 ! D127  D(34,33,38,19)        -20.1728         calculate D2E/DX2 analytically  !
 ! D128  D(44,33,38,19)        100.7016         calculate D2E/DX2 analytically  !
 ! D129  D(32,33,44,63)       -157.449          calculate D2E/DX2 analytically  !
 ! D130  D(34,33,44,63)         76.6592         calculate D2E/DX2 analytically  !
 ! D131  D(38,33,44,63)        -38.808          calculate D2E/DX2 analytically  !
 ! D132  D(32,33,87,85)          0.1656         calculate D2E/DX2 analytically  !
 ! D133  D(34,33,87,85)        118.3163         calculate D2E/DX2 analytically  !
 ! D134  D(44,33,87,85)       -122.3169         calculate D2E/DX2 analytically  !
 ! D135  D(33,34,37,18)        -80.9959         calculate D2E/DX2 analytically  !
 ! D136  D(42,34,37,18)         77.0361         calculate D2E/DX2 analytically  !
 ! D137  D(53,34,37,18)        176.6354         calculate D2E/DX2 analytically  !
 ! D138  D(33,34,42,35)        -39.047          calculate D2E/DX2 analytically  !
 ! D139  D(37,34,42,35)        162.4466         calculate D2E/DX2 analytically  !
 ! D140  D(53,34,42,35)         65.3567         calculate D2E/DX2 analytically  !
 ! D141  D(33,34,53,51)        -96.3742         calculate D2E/DX2 analytically  !
 ! D142  D(37,34,53,51)         26.422          calculate D2E/DX2 analytically  !
 ! D143  D(42,34,53,51)        141.9487         calculate D2E/DX2 analytically  !
 ! D144  D(40,35,36,32)         64.5416         calculate D2E/DX2 analytically  !
 ! D145  D(40,35,36,41)       -175.3144         calculate D2E/DX2 analytically  !
 ! D146  D(40,35,36,46)        -55.6335         calculate D2E/DX2 analytically  !
 ! D147  D(42,35,36,32)        -53.2132         calculate D2E/DX2 analytically  !
 ! D148  D(42,35,36,41)         66.9309         calculate D2E/DX2 analytically  !
 ! D149  D(42,35,36,46)       -173.3882         calculate D2E/DX2 analytically  !
 ! D150  D(47,35,36,32)       -174.0351         calculate D2E/DX2 analytically  !
 ! D151  D(47,35,36,41)        -53.891          calculate D2E/DX2 analytically  !
 ! D152  D(47,35,36,46)         65.7898         calculate D2E/DX2 analytically  !
 ! D153  D(36,35,42,34)         44.8814         calculate D2E/DX2 analytically  !
 ! D154  D(40,35,42,34)        -74.1127         calculate D2E/DX2 analytically  !
 ! D155  D(47,35,42,34)        170.258          calculate D2E/DX2 analytically  !
 ! D156  D(36,35,47,48)        -57.0494         calculate D2E/DX2 analytically  !
 ! D157  D(36,35,47,49)       -175.5098         calculate D2E/DX2 analytically  !
 ! D158  D(36,35,47,50)         63.5378         calculate D2E/DX2 analytically  !
 ! D159  D(40,35,47,48)         64.554          calculate D2E/DX2 analytically  !
 ! D160  D(40,35,47,49)        -53.9064         calculate D2E/DX2 analytically  !
 ! D161  D(40,35,47,50)       -174.8588         calculate D2E/DX2 analytically  !
 ! D162  D(42,35,47,48)        178.9863         calculate D2E/DX2 analytically  !
 ! D163  D(42,35,47,49)         60.5258         calculate D2E/DX2 analytically  !
 ! D164  D(42,35,47,50)        -60.4266         calculate D2E/DX2 analytically  !
 ! D165  D(32,36,46,71)        100.7541         calculate D2E/DX2 analytically  !
 ! D166  D(35,36,46,71)       -139.1957         calculate D2E/DX2 analytically  !
 ! D167  D(41,36,46,71)        -20.5008         calculate D2E/DX2 analytically  !
 ! D168  D(33,44,63,64)        -70.7524         calculate D2E/DX2 analytically  !
 ! D169  D(33,44,63,65)         51.1034         calculate D2E/DX2 analytically  !
 ! D170  D(33,44,63,66)        170.4586         calculate D2E/DX2 analytically  !
 ! D171  D(32,45,67,68)        -59.3613         calculate D2E/DX2 analytically  !
 ! D172  D(32,45,67,69)         62.4446         calculate D2E/DX2 analytically  !
 ! D173  D(32,45,67,70)       -177.9191         calculate D2E/DX2 analytically  !
 ! D174  D(36,46,71,72)        -59.0317         calculate D2E/DX2 analytically  !
 ! D175  D(36,46,71,73)         62.9941         calculate D2E/DX2 analytically  !
 ! D176  D(36,46,71,74)       -178.4427         calculate D2E/DX2 analytically  !
 ! D177  D(35,47,50,75)       -175.685          calculate D2E/DX2 analytically  !
 ! D178  D(48,47,50,75)        -56.5298         calculate D2E/DX2 analytically  !
 ! D179  D(49,47,50,75)         63.5535         calculate D2E/DX2 analytically  !
 ! D180  D(47,50,75,76)       -179.8471         calculate D2E/DX2 analytically  !
 ! D181  D(47,50,75,77)        -60.4483         calculate D2E/DX2 analytically  !
 ! D182  D(47,50,75,78)         60.8842         calculate D2E/DX2 analytically  !
 ! D183  D(43,51,53,34)        -17.3456         calculate D2E/DX2 analytically  !
 ! D184  D(52,51,53,34)       -149.0276         calculate D2E/DX2 analytically  !
 ! D185  D(54,51,53,34)         97.0599         calculate D2E/DX2 analytically  !
 ! D186  D(43,51,54,55)        -15.05           calculate D2E/DX2 analytically  !
 ! D187  D(43,51,54,56)        162.3878         calculate D2E/DX2 analytically  !
 ! D188  D(52,51,54,55)        111.0913         calculate D2E/DX2 analytically  !
 ! D189  D(52,51,54,56)        -71.4709         calculate D2E/DX2 analytically  !
 ! D190  D(53,51,54,55)       -133.1527         calculate D2E/DX2 analytically  !
 ! D191  D(53,51,54,56)         44.2851         calculate D2E/DX2 analytically  !
 ! D192  D(51,54,55,57)        175.591          calculate D2E/DX2 analytically  !
 ! D193  D(51,54,55,58)         -1.7199         calculate D2E/DX2 analytically  !
 ! D194  D(56,54,55,57)         -1.7907         calculate D2E/DX2 analytically  !
 ! D195  D(56,54,55,58)       -179.1016         calculate D2E/DX2 analytically  !
 ! D196  D(51,54,56,59)       -175.4908         calculate D2E/DX2 analytically  !
 ! D197  D(51,54,56,60)          1.9842         calculate D2E/DX2 analytically  !
 ! D198  D(55,54,56,59)          1.8993         calculate D2E/DX2 analytically  !
 ! D199  D(55,54,56,60)        179.3742         calculate D2E/DX2 analytically  !
 ! D200  D(54,55,57,61)          0.4108         calculate D2E/DX2 analytically  !
 ! D201  D(54,55,57,97)       -174.4881         calculate D2E/DX2 analytically  !
 ! D202  D(58,55,57,61)        177.6835         calculate D2E/DX2 analytically  !
 ! D203  D(58,55,57,97)          2.7846         calculate D2E/DX2 analytically  !
 ! D204  D(54,56,59,61)         -0.6276         calculate D2E/DX2 analytically  !
 ! D205  D(54,56,59,93)        178.2739         calculate D2E/DX2 analytically  !
 ! D206  D(60,56,59,61)       -178.0959         calculate D2E/DX2 analytically  !
 ! D207  D(60,56,59,93)          0.8055         calculate D2E/DX2 analytically  !
 ! D208  D(55,57,61,59)          0.818          calculate D2E/DX2 analytically  !
 ! D209  D(55,57,61,62)       -178.5552         calculate D2E/DX2 analytically  !
 ! D210  D(97,57,61,59)        175.6434         calculate D2E/DX2 analytically  !
 ! D211  D(97,57,61,62)         -3.7298         calculate D2E/DX2 analytically  !
 ! D212  D(55,57,97,98)       -161.5263         calculate D2E/DX2 analytically  !
 ! D213  D(55,57,97,99)         78.8335         calculate D2E/DX2 analytically  !
 ! D214  D(55,57,97,100)       -40.1908         calculate D2E/DX2 analytically  !
 ! D215  D(61,57,97,98)         23.5533         calculate D2E/DX2 analytically  !
 ! D216  D(61,57,97,99)        -96.0869         calculate D2E/DX2 analytically  !
 ! D217  D(61,57,97,100)       144.8889         calculate D2E/DX2 analytically  !
 ! D218  D(56,59,61,57)         -0.7067         calculate D2E/DX2 analytically  !
 ! D219  D(56,59,61,62)        178.6661         calculate D2E/DX2 analytically  !
 ! D220  D(93,59,61,57)       -179.6291         calculate D2E/DX2 analytically  !
 ! D221  D(93,59,61,62)         -0.2563         calculate D2E/DX2 analytically  !
 ! D222  D(56,59,93,94)        -11.4086         calculate D2E/DX2 analytically  !
 ! D223  D(56,59,93,95)       -131.3751         calculate D2E/DX2 analytically  !
 ! D224  D(56,59,93,96)        109.3925         calculate D2E/DX2 analytically  !
 ! D225  D(61,59,93,94)        167.5143         calculate D2E/DX2 analytically  !
 ! D226  D(61,59,93,95)         47.5479         calculate D2E/DX2 analytically  !
 ! D227  D(61,59,93,96)        -71.6845         calculate D2E/DX2 analytically  !
 ! D228  D(19,83,84,85)         15.2779         calculate D2E/DX2 analytically  !
 ! D229  D(19,83,84,89)       -167.4004         calculate D2E/DX2 analytically  !
 ! D230  D(83,84,85,86)       -120.1345         calculate D2E/DX2 analytically  !
 ! D231  D(83,84,85,87)         -1.1737         calculate D2E/DX2 analytically  !
 ! D232  D(83,84,85,88)        118.8782         calculate D2E/DX2 analytically  !
 ! D233  D(89,84,85,86)         62.0494         calculate D2E/DX2 analytically  !
 ! D234  D(89,84,85,87)       -178.9898         calculate D2E/DX2 analytically  !
 ! D235  D(89,84,85,88)        -58.9379         calculate D2E/DX2 analytically  !
 ! D236  D(83,84,89,90)       -113.1112         calculate D2E/DX2 analytically  !
 ! D237  D(83,84,89,91)          6.7257         calculate D2E/DX2 analytically  !
 ! D238  D(83,84,89,92)        125.8303         calculate D2E/DX2 analytically  !
 ! D239  D(85,84,89,90)         64.2717         calculate D2E/DX2 analytically  !
 ! D240  D(85,84,89,91)       -175.8914         calculate D2E/DX2 analytically  !
 ! D241  D(85,84,89,92)        -56.7868         calculate D2E/DX2 analytically  !
 ! D242  D(84,85,87,19)        -19.3711         calculate D2E/DX2 analytically  !
 ! D243  D(84,85,87,38)        -74.6947         calculate D2E/DX2 analytically  !
 ! D244  D(86,85,87,19)         99.6993         calculate D2E/DX2 analytically  !
 ! D245  D(86,85,87,38)         44.3757         calculate D2E/DX2 analytically  !
 ! D246  D(88,85,87,19)       -139.4145         calculate D2E/DX2 analytically  !
 ! D247  D(88,85,87,38)        165.2619         calculate D2E/DX2 analytically  !
 --------------------------------------------------------------------------------
 Trust Radius=3.00D-02 FncErr=1.00D-07 GrdErr=1.00D-06 EigMax=2.50D+02 EigMin=1.00D-04
 Number of steps in this run=    557 maximum allowed number of steps=    600.
 Search for a saddle point of order  1.
 Step   0 in ReCalcFC=30 IGetFC= 4 compute analytic Hessian.
 GradGradGradGradGradGradGradGradGradGradGradGradGradGradGradGradGradGrad

 Leave Link  103 at Wed May  8 08:00:41 2019, MaxMem=  6442450944 cpu:               4.3 elap:               0.2
 (Enter /home/ekwan/sw/g16/l202.exe)
 Stoichiometry    C30H47F6NaO15S
 Framework group  C1[X(C30H47F6NaO15S)]
 Deg. of freedom   294
 Full point group                 C1      NOp   1
 Largest Abelian subgroup         C1      NOp   1
 Largest concise Abelian subgroup C1      NOp   1
                         Standard orientation:                         
 ---------------------------------------------------------------------
 Center     Atomic      Atomic             Coordinates (Angstroms)
 Number     Number       Type             X           Y           Z
 ---------------------------------------------------------------------
      1          6           0        5.795192   -0.786706   -0.781304
      2          6           0        6.286861   -2.184156   -0.399634
      3          6           0        5.632574   -2.652586    0.910244
      4          6           0        3.730775   -1.216050    0.619010
      5          6           0        4.265817   -0.699123   -0.724190
      6          1           0        5.815155   -3.720742    1.089537
      7          1           0        5.967943   -2.885946   -1.186382
      8          1           0        6.204182   -0.060922   -0.065773
      9          1           0        4.100768   -0.572627    1.429805
     10          1           0        3.839192   -1.320832   -1.522726
     11          8           0        4.227454   -2.554639    0.808597
     12          8           0        6.165720   -1.890229    1.960513
     13          8           0        7.700454   -2.140132   -0.335619
     14          8           0        6.209764   -0.455130   -2.101975
     15          8           0        3.870194    0.663208   -0.929192
     16          6           0        2.192681   -1.299317    0.742064
     17          1           0        2.017278   -2.061943    1.531955
     18          1           0        1.822164   -1.777163   -0.198640
     19          8           0        1.582451   -0.102605    1.009061
     20          6           0        8.317574   -3.412614   -0.229843
     21          1           0        8.148379   -3.871597    0.753500
     22          1           0        7.955738   -4.099411   -1.009037
     23          1           0        9.390479   -3.254987   -0.362767
     24          6           0        7.395938    0.323928   -2.172470
     25          1           0        7.278627    1.273177   -1.628668
     26          1           0        8.256428   -0.217228   -1.766640
     27          1           0        7.564209    0.541096   -3.230608
     28          6           0        3.503246    0.965770   -2.278357
     29          1           0        4.321430    0.729007   -2.961034
     30          1           0        2.598656    0.416024   -2.564400
     31          1           0        3.291621    2.036605   -2.309532
     32          6           0       -1.873018    1.936101    0.494911
     33          6           0       -1.067116    0.643365    0.625352
     34          6           0       -0.153112    0.415032   -0.563237
     35          6           0       -0.181971    2.717679   -1.200198
     36          6           0       -0.937464    3.073979    0.084452
     37          1           0        0.271031   -0.550831   -0.773060
     38          1           0       -0.380028    0.757911    1.468532
     39          1           0       -2.647933    1.820945   -0.270610
     40          1           0       -0.901511    2.622828   -2.017842
     41          1           0       -0.220395    3.253919    0.893068
     42          8           0        0.502256    1.436024   -1.092652
     43          8           0       -1.026127   -2.205816   -1.938672
     44          8           0       -1.935153   -0.437873    0.857745
     45          8           0       -2.456436    2.281069    1.741983
     46          8           0       -1.672094    4.250055   -0.215232
     47          6           0        0.870962    3.726385   -1.602157
     48          1           0        0.384762    4.703234   -1.710286
     49          1           0        1.307616    3.440726   -2.568590
     50          8           0        1.886135    3.782351   -0.606347
     51         16           0       -1.973648   -1.157664   -2.369405
     52          8           0       -2.360246   -1.146468   -3.791400
     53          8           0       -1.507329    0.246628   -1.947929
     54          6           0       -3.475162   -1.395108   -1.415350
     55          6           0       -3.669387   -2.586749   -0.733464
     56          6           0       -4.398554   -0.354510   -1.331858
     57          6           0       -4.796389   -2.725677    0.080449
     58          1           0       -2.928675   -3.373985   -0.804117
     59          6           0       -5.514183   -0.506949   -0.515950
     60          1           0       -4.226592    0.573386   -1.862757
     61          6           0       -5.717089   -1.689714    0.201171
     62          1           0       -6.576811   -1.795144    0.852228
     63          6           0       -1.327899   -1.568054    1.483961
     64          1           0       -0.644664   -2.084801    0.802720
     65          1           0       -0.779312   -1.269449    2.384546
     66          1           0       -2.145676   -2.239568    1.751317
     67          6           0       -3.811595    1.864912    1.881366
     68          1           0       -4.440199    2.312037    1.100725
     69          1           0       -3.902395    0.775296    1.835129
     70          1           0       -4.148154    2.221161    2.857984
     71          6           0       -1.677990    5.215734    0.830507
     72          1           0       -2.104277    4.800228    1.748977
     73          1           0       -0.662636    5.584276    1.033699
     74          1           0       -2.295097    6.047231    0.481955
     75          6           0        2.857902    4.787449   -0.880939
     76          1           0        3.591127    4.754894   -0.072937
     77          1           0        3.361396    4.597985   -1.838137
     78          1           0        2.390800    5.779917   -0.911042
     79          6           0        5.725924   -2.322422    3.244320
     80          1           0        6.258378   -1.715674    3.979457
     81          1           0        4.645622   -2.184326    3.366502
     82          1           0        5.967672   -3.382866    3.403461
     83         11           0        2.515385    1.814873    0.569242
     84          8           0        1.636037    2.838730    2.472811
     85          6           0        1.115366    1.957368    3.467851
     86          1           0        0.049659    2.164171    3.638268
     87          1           0        1.241887    0.949064    3.068178
     88          1           0        1.662347    2.072410    4.413884
     89          6           0        1.565433    4.203970    2.853818
     90          1           0        2.198905    4.401906    3.729529
     91          1           0        1.915306    4.793065    2.004195
     92          1           0        0.531916    4.490342    3.092150
     93          6           0       -6.513057    0.606422   -0.368671
     94          9           0       -6.063757    1.768343   -0.891718
     95          9           0       -6.796479    0.837982    0.936168
     96          9           0       -7.685402    0.319093   -0.975490
     97          6           0       -4.939473   -3.967330    0.914277
     98          9           0       -6.208244   -4.163852    1.327558
     99          9           0       -4.167368   -3.897482    2.030042
    100          9           0       -4.549699   -5.070900    0.242635
 ---------------------------------------------------------------------
 Rotational constants (GHZ):           0.0718359           0.0296845           0.0252100
 Leave Link  202 at Wed May  8 08:00:41 2019, MaxMem=  6442450944 cpu:               5.1 elap:               0.2
 (Enter /home/ekwan/sw/g16/l301.exe)
 Standard basis: 6-31G(d) (6D, 7F)
 Ernie: Thresh=  0.10000D-02 Tol=  0.10000D-05 Strict=F.
 There are   897 symmetry adapted cartesian basis functions of A   symmetry.
 There are   897 symmetry adapted basis functions of A   symmetry.
   897 basis functions,  1720 primitive gaussians,   897 cartesian basis functions
   214 alpha electrons      214 beta electrons
       nuclear repulsion energy      9285.9533066947 Hartrees.
 IExCor=  402 DFT=T Ex+Corr=B3LYP ExCW=0 ScaHFX=  0.200000
 ScaDFX=  0.800000  0.720000  1.000000  0.810000 ScalE2=  1.000000  1.000000
 IRadAn=      5 IRanWt=     -1 IRanGd=            0 ICorTp=0 IEmpDi=141
 NAtoms=  100 NActive=  100 NUniq=  100 SFac= 1.00D+00 NAtFMM=   60 NAOKFM=T Big=T
 Integral buffers will be    131072 words long.
 Raffenetti 2 integral format.
 Two-electron integral symmetry is turned on.
 R6Disp:  Grimme-D3(BJ) Dispersion energy=       -0.2314417775 Hartrees.
 Nuclear repulsion after empirical dispersion term =     9285.7218649172 Hartrees.
 Force inversion solution in PCM.
 ------------------------------------------------------------------------------
 Polarizable Continuum Model (PCM)
 =================================
 Model                : PCM.
 Atomic radii         : UFF (Universal Force Field).
 Polarization charges : Total charges.
 Charge compensation  : None.
 Solution method      : Matrix inversion.
 Cavity type          : Scaled VdW (van der Waals Surface) (Alpha=1.100).
 Cavity algorithm     : GePol (No added spheres)
                        Default sphere list used, NSphG=  100.
                        Lebedev-Laikov grids with approx.  5.0 points / Ang**2.
                        Smoothing algorithm: York/Karplus (Gamma=1.0000).
                        Polarization charges: spherical gaussians, with
                                              point-specific exponents (IZeta= 3).
                        Self-potential: point-specific (ISelfS= 7).
                        Self-field    : sphere-specific E.n sum rule (ISelfD= 2).
 1st derivatives      : Analytical E(r).r(x)/FMM algorithm (CHGder, D1EAlg=3).
                        Cavity 1st derivative terms included.
 2nd derivatives      : Analytical E(r).r(xy)/FMM algorithm (CHGder, D2EAlg=3).
                        Cavity 2nd derivative terms included.
 Solvent              : TetraHydroFuran, Eps=   7.425700 Eps(inf)=   1.974025
 ------------------------------------------------------------------------------
 GePol: Number of generator spheres                  =     100
 GePol: Total number of spheres                      =     100
 GePol: Number of exposed spheres                    =     100 (100.00%)
 GePol: Number of points                             =    6152
 GePol: Average weight of points                     =       0.13
 GePol: Minimum weight of points                     =   0.24D-11
 GePol: Maximum weight of points                     =    0.21593
 GePol: Number of points with low weight             =     426
 GePol: Fraction of low-weight points (<1% of avg)   =       6.92%
 GePol: Cavity surface area                          =    772.050 Ang**2
 GePol: Cavity volume                                =    974.258 Ang**3
 Leave Link  301 at Wed May  8 08:00:42 2019, MaxMem=  6442450944 cpu:               8.2 elap:               0.3
 (Enter /home/ekwan/sw/g16/l302.exe)
 NPDir=0 NMtPBC=     1 NCelOv=     1 NCel=       1 NClECP=     1 NCelD=      1
         NCelK=      1 NCelE2=     1 NClLst=     1 CellRange=     0.0.
 One-electron integrals computed using PRISM.
 One-electron integral symmetry used in STVInt
 NBasis=   897 RedAO= T EigKep=  4.08D-04  NBF=   897
 NBsUse=   897 1.00D-06 EigRej= -1.00D+00 NBFU=   897
[...]
 02105,0.00000564,-0.00019728,-0.00023249,0.00004428,-0.00060673,0.0001
 6742,0.00022596,-0.00026729,-0.00026590,-0.00007972,-0.00007127,-0.000
 09687,-0.00007468,0.00001679,-0.00014474,-0.00001999,0.00004373,0.0000
 2573,0.00000414,-0.00000584,-0.00000786,-0.00000414,-0.00001353,-0.000
 00228,0.00000168,-0.00006836,-0.00004592,-0.00000250,0.00163183,0.0002
 3237,-0.00126240,-0.00028307,-0.00007009,0.00061309,-0.00081146,-0.000
 50313,0.00002078,-0.00044339,-0.00087872,-0.00065145,0.00216803,-0.000
 63732,0.00015678,0.00000665,-0.00056301,0.00052282,0.01347710,0.001760
 28,0.02740683,0.00003238,0.00010259,0.00051475,-0.00103534,-0.00086525
 ,-0.00061422,0.00005118,0.00006295,0.00006258,-0.00142408,0.00121326,0
 .00109736,0.00045300,0.00016322,0.00036099,0.00024191,0.00042198,-0.00
 018028,-0.00014232,-0.00010747,0.00005121,-0.00016789,-0.00012225,0.00
 000207,-0.00057401,-0.00099683,0.00042211,0.00006154,0.00010686,0.0000
 2107,-0.00000530,0.00004876,0.00001023,0.00001831,-0.00004014,0.000050
 67,-0.00000769,-0.00003485,-0.00003574,0.00000917,0.00006185,0.0000579
 4,-0.00000156,0.00000683,-0.00000291,-0.00001270,-0.00000853,-0.000009
 18,0.00000498,-0.00001231,-0.00000263,0.00003641,0.00003523,-0.0000092
 2,-0.00000680,-0.00000265,-0.00000447,-0.00000447,-0.00000340,0.000007
 05,-0.00000170,-0.00000767,0.00000276,0.00000129,-0.00000964,0.0000117
 3,0.00000063,0.00000033,-0.00000074,-0.00000010,-0.00000209,0.00000079
 ,-0.00000255,0.00000456,-0.00000068,0.00008525,0.00002487,0.00002009,-
 0.00002993,-0.00002155,-0.00002318,0.00001540,0.00000237,0.00000516,-0
 .00000771,0.00000726,0.00000740,0.00001018,-0.00000391,0.00001826,-0.0
 0001049,-0.00000975,-0.00001026,0.00000921,0.00002984,0.00001034,-0.00
 000475,-0.00000383,-0.00000809,0.00000189,-0.00000067,0.00000236,-0.00
 000089,-0.00000104,0.00000241,-0.00133878,0.00098610,0.00007036,0.0002
 4303,-0.00048206,0.00008817,0.00030164,-0.00027623,-0.00023950,0.00052
 758,-0.00016406,0.00011721,0.00569078,-0.07238170,0.01305656,-0.012030
 89,0.01119230,-0.00724301,0.01049693,0.07241897,0.00000112,0.00000397,
 -0.00001257,0.00000331,-0.00000152,-0.00001187,-0.00000502,-0.00000783
 ,-0.00003595,-0.00000568,-0.00000984,-0.00000731,-0.00002636,0.0000245
 3,-0.00002086,0.00000513,-0.00000256,0.00000221,-0.00000021,0.00000226
 ,0.00000338,0.00000230,0.00000257,0.00000126,0.00000026,0.00000247,0.0
 0000457,0.00000177,0.00000185,0.00000417,0.00001767,-0.00002477,0.0000
 3159,-0.00000950,-0.00000443,0.00005062,0.00000014,-0.00000502,0.00001
 304,0.00000100,-0.00000676,0.00002093,0.00002971,-0.00002706,0.0000430
 7,-0.00002944,0.00014183,-0.00004892,0.00001891,-0.00005859,0.00003991
 ,0.00000149,-0.00000303,0.00000122,0.00012939,-0.00013542,0.00021277,0
 .00000005,0.00000249,-0.00000915,-0.00000005,-0.00000159,0.00000391,0.
 00000124,0.00000155,0.00000123,-0.00000068,-0.00000071,-0.00000019,-0.
 00000159,-0.00000075,-0.00000310,-0.00000107,0.00000143,-0.00000023,0.
 00000174,-0.00000063,-0.00000051,-0.00000188,-0.00000072,0.00000250,-0
 .00002686,0.00000008,-0.00004038,0.00000197,0.00000050,0.00000284,0.00
 000767,0.00001015,0.00000655,-0.00000251,-0.00000489,0.00000373,-0.000
 14903,-0.00004700,-0.00024503,0.00020396,0.00009637,0.00004004,-0.0009
 5838,-0.00025312,-0.00087272,-0.00000236,-0.00009554,-0.00004277,0.000
 04607,-0.00006559,0.00001998,0.00001500,0.00001554,0.00002679,-0.00000
 203,0.00003956,0.00002874,0.00003039,-0.00009742,0.00004392,-0.0000053
 4,-0.00001978,0.00001926,0.00001048,0.00003036,-0.00000173,0.00021506,
 0.00022676,0.00012785,0.00103726,-0.00012320,-0.00015667,0.00011791,-0
 .00052938,0.00058303,0.00005607,0.00000942,0.00021511,-0.00001001,0.00
 006721,0.00005454,-0.00004755,-0.00002444,-0.00001177,0.00000637,0.000
 00509,0.00000209,0.00000310,0.00000057,0.00000540,0.00006556,0.0000363
 7,0.00002798,-0.00281177,-0.00085935,0.00139294,0.00056227,0.00020747,
 -0.00081950,0.00137030,0.00103659,0.00030797,0.00065907,0.00078609,0.0
 0072333,-0.00179720,0.00091307,0.00092512,-0.00060300,0.00077596,-0.00
 042322,-0.02432531,0.01097636,-0.03137443,-0.00042579,-0.00057932,-0.0
 0051258,0.00091270,0.00259746,0.00043547,-0.00008209,-0.00005531,-0.00
 011571,0.00287041,-0.00105414,-0.00342945,-0.00068835,-0.00047012,-0.0
 0063348,0.00067293,0.00117512,-0.00047665,-0.00019232,-0.00015271,0.00
 005897,-0.00001153,-0.00008118,0.00008030,0.00072707,0.00071984,-0.000
 40724,-0.00004849,0.00004866,-0.00006724,0.00001260,-0.00014742,0.0000
 1596,-0.00006352,0.00005058,-0.00013454,0.00001045,0.00006096,0.000052
 39,-0.00000385,-0.00004633,-0.00005902,-0.00000380,-0.00000061,0.00000
 807,0.00000954,0.00000648,0.00000599,-0.00000224,0.00000314,0.00000293
 ,-0.00002584,-0.00002633,0.00000233,0.00000840,0.00000372,0.00000349,0
 .00000176,0.00000380,-0.00000289,0.00000172,0.00000523,-0.00000326,0.0
 0002540,0.00001101,-0.00003304,-0.00000085,-0.00000111,0.00000165,-0.0
 0000838,0.00000489,0.00000010,0.00000117,-0.00000367,0.00000200,-0.000
 05189,-0.00000667,-0.00005764,-0.00000872,-0.00005368,0.00006180,0.000
 02923,0.00004643,-0.00003679,-0.00001171,0.00001037,-0.00000505,0.0000
 0783,-0.00000249,-0.00002958,0.00000348,0.00000488,0.00001229,-0.00000
 222,0.00000902,0.00000089,0.00000466,-0.00000058,0.00000189,-0.0000062
 3,-0.00000780,0.00000182,-0.00000012,0.00000084,-0.00000776,0.00220876
 ,-0.00159382,-0.00055417,-0.00038235,0.00096164,-0.00011144,-0.0004880
 1,0.00047862,0.00061648,-0.00077337,0.00028379,-0.00010806,-0.07594552
 ,0.01133606,-0.19596822,-0.02324738,-0.00420131,0.01053715,0.13688923,
 0.01620343,0.27077465,0.00000522,0.00000540,-0.00000463,0.00001172,0.0
 0000345,0.00000153,0.00002159,0.00000952,0.00000901,0.00000106,0.00000
 727,0.00000302,-0.00000284,0.00001705,0.00000005,0.00000135,-0.0000034
 3,0.00000095,0.00000008,-0.00000153,-0.00000242,-0.00000152,-0.0000019
 1,-0.00000027,-0.00000409,-0.00000412,-0.00000263,-0.00000112,-0.00000
 168,-0.00000380,-0.00001334,-0.00001526,-0.00000124,-0.00001057,-0.000
 01043,-0.00000825,-0.00001186,-0.00000353,-0.00000008,-0.00001074,-0.0
 0001108,0.00000752,0.00000097,-0.00001683,0.00000403,-0.00000688,0.000
 06486,0.00001186,0.00000229,-0.00001260,0.00001429,-0.00000329,-0.0000
 0560,-0.00001884,0.00002792,-0.00006214,0.00000507,0.00000318,0.000000
 95,0.00000138,0.00000058,0.00000066,0.00000071,-0.00000005,-0.00000023
 ,-0.00000181,-0.00000197,-0.00000034,0.00000026,0.00000831,0.00000797,
 0.00000006,-0.00000057,-0.00000222,-0.00000139,-0.00000090,-0.00000012
 ,-0.00000044,-0.00000087,-0.00000036,0.00000097,0.00000118,0.00000497,
 -0.00000472,0.00000046,0.00000109,0.00000069,-0.00000213,0.00000091,0.
 00000087,-0.00000026,-0.00000315,0.00000029,-0.00004364,0.00001034,-0.
 00000636,0.00002066,0.00001398,0.00000797,-0.00006925,0.00001583,-0.00
 005938,-0.00000918,0.00001692,-0.00000055,0.00000298,-0.00000386,0.000
 00670,0.00000765,0.00000795,0.00000106,-0.00000195,0.00000449,0.000001
 34,0.00000282,-0.00001544,0.00000633,0.00000002,-0.00000253,0.00000182
 ,0.00000165,0.00000395,-0.00000061,0.00001400,-0.00002107,0.00001319,0
 .00011071,-0.00015793,0.00003141,0.00004101,-0.00011592,0.00004203,0.0
 0005368,0.00000766,-0.00000677,0.00000740,-0.00000402,-0.00000080,-0.0
 0000406,-0.00000190,-0.00000092,-0.00000053,-0.00000192,0.00000035,0.0
 0000176,0.00000099,-0.00000120,0.00000619,-0.00000232,0.00000053,-0.00
 035761,0.00028342,0.00005005,0.00009261,-0.00004288,-0.00006071,0.0001
 3471,-0.00001230,-0.00001295,0.00040369,0.00005200,-0.00083289,-0.0021
 3569,-0.00074646,0.00030570,0.00000654,0.00005921,0.00004780,0.0082155
 3,0.00666385,0.00351261,0.00117288,-0.00065413,-0.00012071,0.00010808,
 -0.00027582,-0.00059083,0.00011239,-0.00002571,0.00003993,0.00035604,-
 0.00025388,0.00023830,0.00040115,-0.00045191,0.00027391,0.00000782,0.0
 0014773,-0.00004129,0.00003028,0.00000352,-0.00000606,0.00000187,-0.00
 002043,0.00000241,0.00002399,0.00005022,0.00002665,-0.00004118,-0.0000
 1974,-0.00000226,0.00000425,-0.00001311,0.00000129,-0.00001164,0.00001
 023,-0.00000724,0.00000356,0.00000275,0.00000255,-0.00000324,-0.000001
 30,0.00000147,-0.00000043,-0.00000072,-0.00000186,0.00000212,0.0000006
 3,-0.00000027,-0.00000031,-0.00000111,0.00000007,-0.00000145,0.0000007
 7,0.00000111,0.00000023,0.00000077,0.00000026,0.00000022,0.00000034,-0
 .00000077,0.00000060,-0.00000083,0.,0.00000421,0.00000261,0.00000100,-
 0.00000227,-0.00000169,-0.00000153,-0.00000102,0.00000359,0.00000107,0
 .00000222,-0.00000109,0.00000018,-0.00000470,0.00001240,0.00000081,0.0
 0000503,-0.00001035,0.00000050,-0.00000390,0.00000557,-0.00000102,0.00
 000179,-0.00000112,-0.00000018,-0.00000055,0.00000159,0.00000105,0.000
 00030,-0.00000005,0.00000083,-0.00000389,0.00000665,0.00000166,0.00000
 030,-0.00000067,-0.00000005,-0.00000047,-0.00000071,-0.00000006,0.0000
 0207,-0.00000090,-0.00000092,0.00012578,-0.00024828,-0.00004373,-0.000
 00782,0.00011123,-0.00001096,-0.00001943,0.00005867,0.00001218,-0.0000
 4536,0.00003172,-0.00000584,-0.08491305,0.04391150,0.02176728,-0.03840
 917,0.04037663,0.03668115,0.01269134,-0.01656252,-0.01572366,0.1018968
 0,0.00001257,-0.00000651,0.00000022,0.00000036,-0.00001505,-0.00001022
 ,0.00003233,-0.00001814,0.00000124,0.00003425,-0.00002218,-0.00000190,
 0.00001519,-0.00003318,-0.00001580,-0.00001159,0.00001110,-0.00000444,
 -0.00000104,0.00000361,0.00000471,0.00000146,0.00000303,0.00000075,0.0
 0000144,0.00000769,0.00000380,0.00000352,0.00000214,0.00000462,-0.0000
 7176,0.00006341,0.00000385,-0.00001107,0.00001698,-0.00000293,-0.00001
 360,0.00002115,0.00000505,-0.00001672,0.00000871,0.00000581,-0.0000422
 4,0.00002981,0.00000806,0.00010910,-0.00026153,-0.00005161,-0.00001336
 ,0.00004845,-0.00002850,0.00000360,0.00002031,0.00003447,-0.00035973,0
 .00016736,-0.00008001,0.00000300,-0.00001865,-0.00000352,-0.00000041,0
 .00000136,-0.00000167,0.00000101,0.00000312,0.00000396,-0.00000032,0.0
 0000170,-0.00000015,0.00000516,-0.00000158,-0.00000150,0.00000002,0.00
 000198,0.00000174,-0.00000292,-0.00000040,-0.00000075,-0.00000053,-0.0
 0000189,0.00000116,0.00001182,0.00000216,0.00000333,-0.00000775,-0.000
 00152,0.00000201,0.00000100,-0.00001206,-0.00000990,0.00000775,0.00000
 708,-0.00000363,0.00006662,0.00003529,0.00014881,0.00013396,0.00029405
 ,-0.00006929,0.00088823,0.00021453,0.00049919,-0.00001120,0.00012282,-
 0.00002344,0.00000592,0.00013543,-0.00005685,-0.00000202,-0.00002427,-
 0.00004385,-0.00002188,-0.00004521,-0.00002352,-0.00001284,0.00010008,
 -0.00003607,0.00001258,0.00001371,-0.00001526,-0.00000983,-0.00002984,
 0.00000733,-0.00027919,-0.00030380,0.00003865,-0.00103116,0.00033711,0
 .00035889,-0.00040221,-0.00010622,-0.00021422,-0.00017006,-0.00014427,
 -0.00007078,0.00001528,-0.00018017,-0.00002346,0.00006004,0.00003602,0
 .00000224,-0.00000716,-0.00000920,-0.00000584,-0.00002030,-0.00000367,
 0.00000418,-0.00009563,-0.00006047,0.00000032,0.00271994,0.00034062,-0
 .00197276,-0.00050984,-0.00007058,0.00105131,-0.00120228,-0.00076389,-
 0.00000630,0.00031583,-0.00000963,0.00086504,0.00225638,-0.00044611,-0
 .00068406,0.00007911,-0.00079327,0.00016420,0.01780460,-0.04436658,-0.
 02118727,-0.00125460,-0.00144912,0.00016859,0.00241055,-0.00160572,0.0
 0099366,-0.00012346,-0.00003917,-0.00008228,-0.00607043,-0.00408370,0.
 00431613,-0.00035822,0.00035938,-0.00063385,0.00033601,-0.00002611,0.0
 0000466,-0.00005788,-0.00002818,0.00004665,-0.00009728,-0.00005779,-0.
 00004736,0.00014835,0.00000368,0.00008479,0.00013830,0.00016322,0.0000
 2886,-0.00000991,0.00008660,0.00001668,0.00004510,-0.00007674,0.000076
 15,-0.00001751,-0.00004744,-0.00004997,0.00001637,0.00008163,0.0000695
 2,-0.00000228,0.00000987,-0.00000069,-0.00001887,-0.00001140,-0.000011
 63,0.00000721,-0.00001523,-0.00000310,0.00005026,0.00004658,-0.0000145
 6,-0.00000881,-0.00000386,-0.00000618,-0.00000647,-0.00000447,0.000010
 63,-0.00000266,-0.00000978,0.00000349,0.00000623,-0.00001248,0.0000066
 5,0.00000203,0.00000120,0.00000045,-0.00000185,-0.00000355,0.00000052,
 -0.00000450,0.00000612,-0.00000056,0.00011619,0.00002343,0.00002068,-0
 .00004690,-0.00003051,-0.00002147,0.00002975,0.00000539,0.00000114,-0.
 00001370,0.00001151,0.00000891,0.00001294,-0.00000586,0.00001805,-0.00
 001319,-0.00001101,-0.00001195,0.00001579,0.00003793,0.00001302,-0.000
 00608,-0.00000472,-0.00001106,0.00000202,-0.00000150,0.00000374,-0.000
 00305,-0.00000062,0.00000286,-0.00243059,0.00176834,0.00078369,0.00035
 068,-0.00124641,0.00012027,0.00050464,-0.00050092,-0.00043865,0.001065
 36,-0.00027031,0.00018557,0.03946528,-0.22521832,-0.05996817,0.0270286
 6,0.00402274,-0.01517851,-0.00930432,-0.01070927,-0.03854889,-0.072172
 61,0.28454563,0.00000028,-0.00000150,-0.00000369,-0.00000390,-0.000004
 86,-0.00000784,-0.00000612,-0.00000974,-0.00001936,0.00000225,-0.00000
 959,-0.00000494,-0.00000771,-0.00000278,-0.00001200,-0.00000015,0.0000
 0201,-0.00000014,-0.00000024,0.00000237,0.00000331,0.00000194,0.000002
 48,0.00000086,0.00000217,0.00000390,0.00000378,0.00000194,0.00000199,0
 .00000423,0.00000133,0.00000571,0.00001503,-0.00000121,0.00000494,0.00
 002497,0.00000329,0.00000261,0.00000684,0.00000253,0.00000346,0.000007
 08,0.00000540,0.00000069,0.00001885,0.00000668,-0.00001139,-0.00003461
 ,0.00000429,-0.00001046,0.00000646,0.00000298,0.00000499,0.00001488,-0
 .00001633,-0.00000048,0.00006727,-0.00000105,-0.00000218,-0.00000545,-
 0.00000035,-0.00000079,0.00000127,0.00000076,0.00000133,0.00000198,0.0
 0000054,0.00000010,-0.00000023,-0.00000367,-0.00000420,-0.00000171,-0.
 00000022,0.00000199,0.00000085,0.00000072,-0.00000030,-0.00000015,-0.0
 0000057,-0.00000051,0.00000089,-0.00001031,-0.00000190,-0.00001525,-0.
 00000090,-0.00000058,0.00000123,0.00000464,0.00000180,0.00000057,0.000
 00047,0.00000059,0.00000090,-0.00002590,-0.00001587,-0.00006621,0.0000
 8995,0.00007212,-0.00000023,-0.00018938,-0.00006509,-0.00022066,0.0000
 0063,-0.00002245,-0.00002020,0.00001713,-0.00000276,-0.00000390,0.0000
 0057,-0.00000238,0.00000092,-0.00000340,0.00000565,0.00000618,0.000007
 60,-0.00001538,0.00000837,0.00000022,-0.00000412,0.00000413,0.00000179
 ,0.00000534,0.00000077,0.00002840,0.00004349,0.00004810,0.00016406,0.0
 0012607,-0.00002245,-0.00002350,-0.00016641,0.00016516,-0.00002743,-0.
 00001994,0.00007329,-0.00000462,0.00000020,0.00001865,-0.00000752,-0.0
 0000317,-0.00000532,0.00000151,0.00000123,-0.00000026,-0.00000304,-0.0
 0000070,0.00000360,0.00000826,0.00000569,0.00001183,-0.00041598,-0.000
 53821,0.00015864,0.00009173,0.00010485,-0.00005843,0.00020789,0.000264
 44,0.00014058,-0.00046911,-0.00044608,0.00068831,0.00189530,0.00142917
 ,-0.00088140,-0.00049499,0.00051655,0.00009127,-0.00111380,0.00700878,
 0.00962299,-0.00102299,0.00072556,-0.00017562,-0.00018555,0.00055459,-
 0.00094964,-0.00007579,0.00003814,0.00001936,0.00097572,-0.00000729,0.
 00032446,-0.00012532,0.00032584,0.00019259,0.00023719,0.00035648,-0.00
 019390,-0.00008267,-0.00005450,0.00002663,-0.00002688,-0.00003773,0.00
 002770,0.00019593,0.00009905,-0.00005005,0.00001966,0.00004760,-0.0000
 2004,0.00000132,-0.00003530,0.00000772,-0.00001128,0.00000263,-0.00003
 627,0.00000006,0.00001580,0.00001172,0.00000248,-0.00000519,-0.0000134
 0,-0.00000164,0.00000148,0.00000396,-0.00000009,0.00000054,0.00000067,
 0.00000043,-0.00000064,0.00000051,-0.00000160,-0.00000353,-0.00000224,
 0.00000189,0.00000051,0.00000037,-0.00000051,0.00000070,0.00000095,-0.
 00000005,0.00000089,-0.00000077,0.00000973,0.00000197,-0.00001363,0.00
 000086,0.00000041,0.00000147,-0.00000335,0.00000010,-0.00000026,-0.000
 00100,-0.00000033,0.00000069,0.00000024,-0.00000407,-0.00002034,-0.000
 01251,-0.00002107,0.00002102,0.00001730,0.00001672,-0.00001398,-0.0000
 0731,0.00000596,-0.00000063,0.00000493,-0.00000246,-0.00000924,-0.0000
 0059,0.00000033,0.00000280,0.00000321,0.00000638,0.00000136,0.00000084
 ,-0.00000065,-0.00000087,-0.00000197,-0.00000301,0.00000132,-0.0000014
 4,0.00000060,-0.00000223,0.00034019,-0.00031926,-0.00037820,-0.0000427
 3,0.00008808,0.00004939,-0.00010053,0.00007851,0.00017829,-0.00015868,
 0.00005999,0.00003885,0.02139063,-0.06698045,-0.10299178,0.03299434,-0
 .02172509,-0.01092701,-0.00850415,-0.05095709,-0.05077754,-0.04555422,
 0.12946810,0.15582622\\0.00000031,-0.00000005,0.00000158,0.00000002,-0
 .00000080,0.00000117,-0.00000133,-0.00000120,0.00000019,-0.00000015,-0
 .00000112,-0.00000008,-0.00000025,-0.00000083,0.00000075,-0.00000083,-
 0.00000094,0.00000016,0.00000041,0.00000032,0.00000062,0.00000011,-0.0
 0000022,0.00000176,-0.00000042,-0.00000045,0.00000118,0.00000054,0.000
 00068,0.00000045,0.00000009,-0.00000052,0.00000060,-0.00000109,-0.0000
 0099,0.00000077,-0.00000012,-0.00000059,0.00000115,0.00000062,0.000000
 25,0.00000145,0.00000049,0.00000069,0.00000186,-0.00000172,0.00000071,
 -0.00000176,-0.00000058,-0.00000166,-0.00000129,-0.00000057,-0.0000001
 3,-0.00000062,0.00000119,0.00000038,0.00000365,-0.00000032,-0.00000122
 ,0.00000112,-0.00000075,-0.00000122,0.00000135,-0.00000007,-0.00000026
 ,0.00000084,-0.00000009,-0.00000084,0.00000154,0.00000105,-0.00000030,
 0.00000200,0.00000082,0.00000026,0.00000318,0.00000065,-0.00000018,0.0
 0000249,0.00000130,0.00000068,0.00000285,0.00000064,0.00000094,0.00000
 214,0.00000155,0.00000115,0.00000109,0.00000085,0.00000080,0.00000060,
 0.00000095,0.00000135,0.00000191,-0.00000013,-0.00000029,-0.00000054,-
 0.00000059,-0.00000008,0.00000137,-0.00000118,-0.00000009,-0.00000056,
 0.00000036,0.00000129,0.00000142,0.00000089,0.00000073,0.00000090,0.00
 000231,0.00000083,0.00000039,-0.00000100,0.00000028,-0.00000247,0.0000
 0054,0.00000066,-0.00000050,0.00000093,0.00000180,0.00000043,-0.000000
 24,-0.00000038,0.00000026,0.00000136,0.00000041,-0.00000128,0.00000049
 ,0.00000116,-0.00000217,-0.00000027,0.00000016,-0.00000202,-0.00000033
 ,-0.00000044,-0.00000074,0.00000014,0.00000002,0.00000102,0.00000084,0
 .00000151,0.00000215,0.00000144,0.00000105,0.00000110,0.00000183,0.000
 00051,0.00000228,0.00000247,-0.00000137,0.00000020,0.00000047,0.000001
 39,-0.00000253,0.00000135,0.00000241,-0.00000112,0.00000131,0.00000107
 ,-0.00000080,0.00000055,0.00000078,-0.00000193,0.00000088,0.00000125,-
 0.00000332,-0.00000012,0.00000199,-0.00000251,-0.00000089,0.00000032,-
 0.00000285,-0.00000029,0.00000095,-0.00000301,0.00000059,0.00000099,-0
 .00000288,0.00000078,0.00000125,-0.00000155,-0.00000022,0.00000113,-0.
 00000384,-0.00000062,0.00000051,-0.00000359,-0.00000024,-0.00000085,-0
 .00000226,-0.00000116,-0.00000022,-0.00000115,-0.00000126,-0.00000077,
 -0.00000029,-0.00000111,-0.00000016,-0.00000191,-0.00000054,0.00000026
 ,-0.00000035,-0.00000024,0.00000023,-0.00000131,-0.00000067,-0.0000003
 6,-0.00000170,-0.00000078,-0.00000064,-0.00000141,0.00000097,0.0000004
 8,0.00000098,-0.00000006,-0.00000042,0.00000093,0.00000012,-0.00000025
 ,0.00000175,0.00000064,0.00000023,0.00000141,0.00000002,0.00000127,0.0
 0000343,0.00000164,0.00000051,0.00000201,0.00000167,0.00000018,0.00000
 296,0.00000130,-0.00000029,0.00000244,-0.00000120,-0.00000216,0.000001
 36,-0.00000175,-0.00000241,0.00000101,-0.00000186,-0.00000185,0.000000
 31,-0.00000172,-0.00000201,0.00000029,-0.00000164,-0.00000074,0.000000
 70,-0.00000100,-0.00000058,0.00000226,-0.00000025,-0.00000177,0.000000
 13,-0.00000110,-0.00000123,0.00000080,-0.00000125,-0.00000215,-0.00000
 069,-0.00000118,-0.00000198,0.00000135,-0.00000044,-0.00000152,0.00000
 284,-0.00000094,-0.00000179,0.00000205,-0.00000007,-0.00000077,0.00000
 211,-0.00000043,-0.00000128,0.00000160,0.00000023,0.00000191,-0.000002
 93,0.00000031,0.00000088,-0.00000187,0.00000002,0.00000045,-0.00000271
 ,0.00000071,0.00000168,-0.00000322,-0.00000102,0.00000047,-0.00000444,
 -0.00000079,0.00000056,-0.00000459,-0.00000096,-0.00000019,-0.00000351
 ,-0.00000092,0.00000076,-0.00000439\\\@


 GARBAGE IN, GARBAGE OUT
 Job cpu time:       4 days  5 hours 20 minutes 29.1 seconds.
 Elapsed time:       0 days  3 hours 21 minutes 24.4 seconds.
 File lengths (MBytes):  RWF=   9771 Int=      0 D2E=      0 Chk=     85 Scr=      1
 Normal termination of Gaussian 16 at Wed May  8 14:42:07 2019.
