 Entering Gaussian System, Link 0=g16
 Input=clay_new-glu_gluC6-ACDL-Na_1Me2O-bisCF3-ts-b3lyp_d3bj-631gd-pcm_thf.gjf
 Output=clay_new-glu_gluC6-ACDL-Na_1Me2O-bisCF3-ts-b3lyp_d3bj-631gd-pcm_thf.out
 Initial command:
 /home/ekwan/sw/g16/l1.exe "/scratch/users/ekwan/clay_new-glu_gluC6-ACDL-Na_1Me2O-bisCF3-ts-b3lyp_d3bj-631gd-pcm_thf/Gau-51844.inp" -scrdir="/scratch/users/ekwan/clay_new-glu_gluC6-ACDL-Na_1Me2O-bisCF3-ts-b3lyp_d3bj-631gd-pcm_thf/"
 Entering Link 1 = /home/ekwan/sw/g16/l1.exe PID=     51845.
  
 Copyright (c) 1988,1990,1992,1993,1995,1998,2003,2009,2016,
            Gaussian, Inc.  All Rights Reserved.
  
 This is part of the Gaussian(R) 16 program.  It is based on
 the Gaussian(R) 09 system (copyright 2009, Gaussian, Inc.),
 the Gaussian(R) 03 system (copyright 2003, Gaussian, Inc.),
 the Gaussian(R) 98 system (copyright 1998, Gaussian, Inc.),
 the Gaussian(R) 94 system (copyright 1995, Gaussian, Inc.),
 the Gaussian 92(TM) system (copyright 1992, Gaussian, Inc.),
 the Gaussian 90(TM) system (copyright 1990, Gaussian, Inc.),
 the Gaussian 88(TM) system (copyright 1988, Gaussian, Inc.),
 the Gaussian 86(TM) system (copyright 1986, Carnegie Mellon
 University), and the Gaussian 82(TM) system (copyright 1983,
 Carnegie Mellon University). Gaussian is a federally registered
 trademark of Gaussian, Inc.
  
 This software contains proprietary and confidential information,
 including trade secrets, belonging to Gaussian, Inc.
  
 This software is provided under written license and may be
 used, copied, transmitted, or stored only in accord with that
 written license.
  
 The following legend is applicable only to US Government
 contracts under FAR:
  
                    RESTRICTED RIGHTS LEGEND
  
 Use, reproduction and disclosure by the US Government is
 subject to restrictions as set forth in subparagraphs (a)
 and (c) of the Commercial Computer Software - Restricted
 Rights clause in FAR 52.227-19.
  
 Gaussian, Inc.
 340 Quinnipiac St., Bldg. 40, Wallingford CT 06492
  
  
 ---------------------------------------------------------------
 Warning -- This program may not be used in any manner that
 competes with the business of Gaussian, Inc. or will provide
 assistance to any competitor of Gaussian, Inc.  The licensee
 of this program is prohibited from giving any competitor of
 Gaussian, Inc. access to this program.  By using this program,
 the user acknowledges that Gaussian, Inc. is engaged in the
 business of creating and licensing software in the field of
 computational chemistry and represents and warrants to the
 licensee that it is not a competitor of Gaussian, Inc. and that
 it will not use this program in any manner prohibited above.
 ---------------------------------------------------------------
  

 Cite this work as:
 Gaussian 16, Revision A.03,
 M. J. Frisch, G. W. Trucks, H. B. Schlegel, G. E. Scuseria, 
 M. A. Robb, J. R. Cheeseman, G. Scalmani, V. Barone, 
 G. A. Petersson, H. Nakatsuji, X. Li, M. Caricato, A. V. Marenich, 
 J. Bloino, B. G. Janesko, R. Gomperts, B. Mennucci, H. P. Hratchian, 
 J. V. Ortiz, A. F. Izmaylov, J. L. Sonnenberg, D. Williams-Young, 
 F. Ding, F. Lipparini, F. Egidi, J. Goings, B. Peng, A. Petrone, 
 T. Henderson, D. Ranasinghe, V. G. Zakrzewski, J. Gao, N. Rega, 
 G. Zheng, W. Liang, M. Hada, M. Ehara, K. Toyota, R. Fukuda, 
 J. Hasegawa, M. Ishida, T. Nakajima, Y. Honda, O. Kitao, H. Nakai, 
 T. Vreven, K. Throssell, J. A. Montgomery, Jr., J. E. Peralta, 
 F. Ogliaro, M. J. Bearpark, J. J. Heyd, E. N. Brothers, K. N. Kudin, 
 V. N. Staroverov, T. A. Keith, R. Kobayashi, J. Normand, 
 K. Raghavachari, A. P. Rendell, J. C. Burant, S. S. Iyengar, 
 J. Tomasi, M. Cossi, J. M. Millam, M. Klene, C. Adamo, R. Cammi, 
 J. W. Ochterski, R. L. Martin, K. Morokuma, O. Farkas, 
 J. B. Foresman, and D. J. Fox, Gaussian, Inc., Wallingford CT, 2016.
 
 ******************************************
 Gaussian 16:  AS64L-G16RevA.03 25-Dec-2016
                 8-May-2019 
 ******************************************
 %mem=48GB
 %nprocshared=32
 Will use up to   32 processors via shared memory.
 ----------------------------------------------------------------------
 #p opt=(ts,noeigentest,calcfc,maxstep=3,modredundant,recalc=30) freq=n
 oraman b3lyp 6-31g* pop=none scrf=(solvent=tetrahydrofuran,pcm) empiri
 caldispersion=gd3bj
 ----------------------------------------------------------------------
 1/5=1,8=3,10=4,11=1,18=120,26=3,38=1,71=30/1,3;
 2/9=110,12=2,17=6,18=5,40=1/2;
 3/5=1,6=6,7=1,11=2,25=1,30=1,70=2201,71=2,72=20,74=-5,124=41,140=1/1,2,3;
 4//1;
 5/5=2,38=5,53=20/2;
 8/6=4,10=90,11=11/1;
 11/6=1,8=1,9=11,15=111,16=1/1,2,10;
 10/6=1,13=1/2;
 7/10=1,18=20,25=1/1,2,3,16;
 1/5=1,8=3,10=4,11=1,18=20,26=3,71=30/3(2);
 2/9=110/2;
 99//99;
 2/9=110/2;
 3/5=1,6=6,7=1,11=2,25=1,30=1,70=2205,71=1,72=20,74=-5,124=41/1,2,3;
 4/5=5,16=3,69=1/1;
 5/5=2,38=5,53=20/2;
 7//1,2,3,16;
 1/5=1,8=3,11=1,18=20,26=3,71=30/3(-5);
 2/9=110/2;
 99/9=1/99;
 Leave Link    1 at Wed May  8 11:30:06 2019, MaxMem=  6442450944 cpu:               6.7 elap:               0.2
 (Enter /home/ekwan/sw/g16/l101.exe)
 -----
 title
 -----
 Symbolic Z-matrix:
 Charge =  0 Multiplicity = 1
 C                     4.02238  -2.01821  -1.02667 
 C                     2.66851  -2.69977  -1.24265 
 C                     2.1398   -3.28144   0.07122 
 C                     3.25567  -1.59822   1.38559 
 C                     3.96212  -1.03106   0.14688 
 H                     1.12004  -3.65824  -0.03869 
 H                     1.94373  -1.93645  -1.5661 
 H                     4.78026  -2.7831   -0.81413 
 H                     3.91459  -2.34428   1.84896 
 H                     3.40504  -0.15121  -0.20122 
 O                     2.01761  -2.23469   1.01964 
 O                     3.01179  -4.29756   0.49096 
 O                     2.81674  -3.67472  -2.25961 
 O                     4.38684  -1.27232  -2.1894 
 O                     5.25082  -0.63291   0.60505 
 C                     2.89466  -0.51651   2.42303 
 H                     3.85313  -0.25226   2.91613 
 H                     2.30317  -1.05362   3.19668 
 O                     2.2378    0.57538   1.90666 
 C                     1.58232  -4.17434  -2.75787 
 H                     1.08604  -4.83558  -2.03521 
 H                     0.89014  -3.36064  -3.01257 
 H                     1.81698  -4.74908  -3.65727 
 C                     5.21133  -1.9722   -3.11067 
 H                     6.15706  -2.28135  -2.6398 
 H                     4.70604  -2.85577  -3.51109 
 H                     5.43433  -1.27518  -3.92316 
 C                     5.9972    0.21469  -0.25212 
 H                     6.43162  -0.32668  -1.09855 
 H                     5.38178   1.03514  -0.64587 
 H                     6.80242   0.63541   0.35618 
 C                    -1.35591   1.99689   0.47117 
 C                    -0.52301   0.87393   1.09249 
 C                     0.52306   0.32676   0.14869 
 C                     0.49271   2.28203  -1.22854 
 C                    -0.43076   2.98945  -0.2307 
 H                     0.98631  -0.62986   0.33116 
 H                     0.08086   1.30018   1.90674 
 H                    -2.05041   1.57827  -0.26514 
 H                    -0.10961   1.86631  -2.03929 
 H                     0.17402   3.50633   0.5253 
 O                     1.20021   1.15377  -0.62594 
 O                    -0.91037  -2.67401  -0.36582 
 O                    -1.38092  -0.11767   1.59212 
 O                    -2.06131   2.70497   1.47711 
 O                    -1.16807   3.92587  -0.99789 
 C                     1.54773   3.18946  -1.81856 
 H                     1.03477   3.98985  -2.36385 
 H                     2.17942   2.62833  -2.51999 
 O                     2.342     3.73975  -0.77123 
 S                    -1.41517  -1.68699  -1.33875 
 O                    -1.56186  -2.14432  -2.7353 
 O                    -0.63557  -0.36796  -1.3129 
 C                    -3.05644  -1.21091  -0.78493 
 C                    -3.53341  -1.69411   0.42481 
 C                    -3.79292  -0.29728  -1.53593 
 C                    -4.76101  -1.23704   0.90381 
 H                    -2.93596  -2.39818   0.98925 
 C                    -5.02278   0.14294  -1.04944 
 H                    -3.40959   0.07146  -2.48041 
 C                    -5.51102  -0.31828   0.17492 
 H                    -6.45968   0.03933   0.55535 
 C                    -0.81729  -0.94419   2.61182 
 H                    -0.0449   -1.60647   2.21187 
 H                    -0.39079  -0.33011   3.41521 
 H                    -1.64827  -1.53217   3.00721 
 C                    -3.40221   2.2655    1.67889 
 H                    -3.98599   2.35433   0.75387 
 H                    -3.43818   1.23095   2.03233 
 H                    -3.83152   2.9266    2.43593 
 C                    -1.36315   5.18308  -0.35732 
 H                    -1.92609   5.06858   0.57381 
 H                    -0.39991   5.66845  -0.1437 
 H                    -1.92789   5.80282  -1.05757 
 C                     3.19107   4.79087  -1.22622 
 H                     3.72144   5.17409  -0.35259 
 H                     3.91419   4.42124  -1.96523 
 H                     2.59793   5.59765  -1.67429 
 C                     2.52207  -5.0183    1.61605 
 H                     3.23522  -5.82175   1.81209 
 H                     2.44245  -4.37587   2.50091 
 H                     1.53427  -5.45106   1.40375 
 Na                    3.08742   2.27788   0.90543 
 O                     5.16973   2.87726   1.66329 
 C                     5.56961   2.21677   2.86138 
 H                     5.91741   2.9438    3.60723 
 H                     4.6945    1.68764   3.24087 
 H                     6.36907   1.49356   2.65716 
 C                     6.22873   3.61712   1.07167 
 H                     7.07965   2.96394   0.83791 
 H                     5.84571   4.05313   0.14737 
 H                     6.56717   4.41919   1.74113 
 C                    -5.77951   1.20498  -1.79559 
 F                    -5.40325   2.44781  -1.39543 
 F                    -7.11071   1.11771  -1.59068 
 F                    -5.56284   1.14301  -3.12541 
 C                    -5.19648  -1.67449   2.2725 
 F                    -6.48065  -1.35848   2.53347 
 F                    -4.43602  -1.08182   3.23076 
 F                    -5.05796  -3.00688   2.44296 
 
 Add virtual bond connecting atoms O53        and C34        Dist= 3.76D+00.
 Add virtual bond connecting atoms H37        and O11        Dist= 3.83D+00.
 The following ModRedundant input section has been read:
 
 ITRead=  0  0  0  0  0  0  0  0  0  0  0  0  0  0  0  0  0  0  0  0
 ITRead=  0  0  0  0  0  0  0  0  0  0  0  0  0  0  0  0  0  0  0  0
 ITRead=  0  0  0  0  0  0  0  0  0  0  0  0  0  0  0  0  0  0  0  0
 ITRead=  0  0  0  0  0  0  0  0  0  0  0  0  0  0  0  0  0  0  0  0
 ITRead=  0  0  0  0  0  0  0  0  0  0  0  0  0  0  0  0  0  0  0  0
 MicOpt= -1 -1 -1 -1 -1 -1 -1 -1 -1 -1 -1 -1 -1 -1 -1 -1 -1 -1 -1 -1
 MicOpt= -1 -1 -1 -1 -1 -1 -1 -1 -1 -1 -1 -1 -1 -1 -1 -1 -1 -1 -1 -1
 MicOpt= -1 -1 -1 -1 -1 -1 -1 -1 -1 -1 -1 -1 -1 -1 -1 -1 -1 -1 -1 -1
 MicOpt= -1 -1 -1 -1 -1 -1 -1 -1 -1 -1 -1 -1 -1 -1 -1 -1 -1 -1 -1 -1
 MicOpt= -1 -1 -1 -1 -1 -1 -1 -1 -1 -1 -1 -1 -1 -1 -1 -1 -1 -1 -1 -1
 NAtoms=    100 NQM=      100 NQMF=       0 NMMI=      0 NMMIF=      0
                NMic=       0 NMicF=      0.
                    Isotopes and Nuclear Properties:
 (Nuclear quadrupole moments (NQMom) in fm**2, nuclear magnetic moments (NMagM)
  in nuclear magnetons)

  Atom         1           2           3           4           5           6           7           8           9          10
 IAtWgt=          12          12          12          12          12           1           1           1           1           1
 AtmWgt=  12.0000000  12.0000000  12.0000000  12.0000000  12.0000000   1.0078250   1.0078250   1.0078250   1.0078250   1.0078250
 NucSpn=           0           0           0           0           0           1           1           1           1           1
 AtZEff=   0.0000000   0.0000000   0.0000000   0.0000000   0.0000000   0.0000000   0.0000000   0.0000000   0.0000000   0.0000000
 NQMom=    0.0000000   0.0000000   0.0000000   0.0000000   0.0000000   0.0000000   0.0000000   0.0000000   0.0000000   0.0000000
 NMagM=    0.0000000   0.0000000   0.0000000   0.0000000   0.0000000   2.7928460   2.7928460   2.7928460   2.7928460   2.7928460
 AtZNuc=   6.0000000   6.0000000   6.0000000   6.0000000   6.0000000   1.0000000   1.0000000   1.0000000   1.0000000   1.0000000

  Atom        11          12          13          14          15          16          17          18          19          20
 IAtWgt=          16          16          16          16          16          12           1           1          16          12
 AtmWgt=  15.9949146  15.9949146  15.9949146  15.9949146  15.9949146  12.0000000   1.0078250   1.0078250  15.9949146  12.0000000
 NucSpn=           0           0           0           0           0           0           1           1           0           0
 AtZEff=   0.0000000   0.0000000   0.0000000   0.0000000   0.0000000   0.0000000   0.0000000   0.0000000   0.0000000   0.0000000
 NQMom=    0.0000000   0.0000000   0.0000000   0.0000000   0.0000000   0.0000000   0.0000000   0.0000000   0.0000000   0.0000000
 NMagM=    0.0000000   0.0000000   0.0000000   0.0000000   0.0000000   0.0000000   2.7928460   2.7928460   0.0000000   0.0000000
 AtZNuc=   8.0000000   8.0000000   8.0000000   8.0000000   8.0000000   6.0000000   1.0000000   1.0000000   8.0000000   6.0000000

  Atom        21          22          23          24          25          26          27          28          29          30
 IAtWgt=           1           1           1          12           1           1           1          12           1           1
 AtmWgt=   1.0078250   1.0078250   1.0078250  12.0000000   1.0078250   1.0078250   1.0078250  12.0000000   1.0078250   1.0078250
 NucSpn=           1           1           1           0           1           1           1           0           1           1
 AtZEff=   0.0000000   0.0000000   0.0000000   0.0000000   0.0000000   0.0000000   0.0000000   0.0000000   0.0000000   0.0000000
 NQMom=    0.0000000   0.0000000   0.0000000   0.0000000   0.0000000   0.0000000   0.0000000   0.0000000   0.0000000   0.0000000
 NMagM=    2.7928460   2.7928460   2.7928460   0.0000000   2.7928460   2.7928460   2.7928460   0.0000000   2.7928460   2.7928460
 AtZNuc=   1.0000000   1.0000000   1.0000000   6.0000000   1.0000000   1.0000000   1.0000000   6.0000000   1.0000000   1.0000000

  Atom        31          32          33          34          35          36          37          38          39          40
 IAtWgt=           1          12          12          12          12          12           1           1           1           1
 AtmWgt=   1.0078250  12.0000000  12.0000000  12.0000000  12.0000000  12.0000000   1.0078250   1.0078250   1.0078250   1.0078250
 NucSpn=           1           0           0           0           0           0           1           1           1           1
 AtZEff=   0.0000000   0.0000000   0.0000000   0.0000000   0.0000000   0.0000000   0.0000000   0.0000000   0.0000000   0.0000000
 NQMom=    0.0000000   0.0000000   0.0000000   0.0000000   0.0000000   0.0000000   0.0000000   0.0000000   0.0000000   0.0000000
 NMagM=    2.7928460   0.0000000   0.0000000   0.0000000   0.0000000   0.0000000   2.7928460   2.7928460   2.7928460   2.7928460
 AtZNuc=   1.0000000   6.0000000   6.0000000   6.0000000   6.0000000   6.0000000   1.0000000   1.0000000   1.0000000   1.0000000

  Atom        41          42          43          44          45          46          47          48          49          50
 IAtWgt=           1          16          16          16          16          16          12           1           1          16
 AtmWgt=   1.0078250  15.9949146  15.9949146  15.9949146  15.9949146  15.9949146  12.0000000   1.0078250   1.0078250  15.9949146
 NucSpn=           1           0           0           0           0           0           0           1           1           0
 AtZEff=   0.0000000   0.0000000   0.0000000   0.0000000   0.0000000   0.0000000   0.0000000   0.0000000   0.0000000   0.0000000
 NQMom=    0.0000000   0.0000000   0.0000000   0.0000000   0.0000000   0.0000000   0.0000000   0.0000000   0.0000000   0.0000000
 NMagM=    2.7928460   0.0000000   0.0000000   0.0000000   0.0000000   0.0000000   0.0000000   2.7928460   2.7928460   0.0000000
 AtZNuc=   1.0000000   8.0000000   8.0000000   8.0000000   8.0000000   8.0000000   6.0000000   1.0000000   1.0000000   8.0000000

  Atom        51          52          53          54          55          56          57          58          59          60
 IAtWgt=          32          16          16          12          12          12          12           1          12           1
 AtmWgt=  31.9720718  15.9949146  15.9949146  12.0000000  12.0000000  12.0000000  12.0000000   1.0078250  12.0000000   1.0078250
 NucSpn=           0           0           0           0           0           0           0           1           0           1
 AtZEff=   0.0000000   0.0000000   0.0000000   0.0000000   0.0000000   0.0000000   0.0000000   0.0000000   0.0000000   0.0000000
 NQMom=    0.0000000   0.0000000   0.0000000   0.0000000   0.0000000   0.0000000   0.0000000   0.0000000   0.0000000   0.0000000
 NMagM=    0.0000000   0.0000000   0.0000000   0.0000000   0.0000000   0.0000000   0.0000000   2.7928460   0.0000000   2.7928460
 AtZNuc=  16.0000000   8.0000000   8.0000000   6.0000000   6.0000000   6.0000000   6.0000000   1.0000000   6.0000000   1.0000000

  Atom        61          62          63          64          65          66          67          68          69          70
 IAtWgt=          12           1          12           1           1           1          12           1           1           1
 AtmWgt=  12.0000000   1.0078250  12.0000000   1.0078250   1.0078250   1.0078250  12.0000000   1.0078250   1.0078250   1.0078250
 NucSpn=           0           1           0           1           1           1           0           1           1           1
 AtZEff=   0.0000000   0.0000000   0.0000000   0.0000000   0.0000000   0.0000000   0.0000000   0.0000000   0.0000000   0.0000000
 NQMom=    0.0000000   0.0000000   0.0000000   0.0000000   0.0000000   0.0000000   0.0000000   0.0000000   0.0000000   0.0000000
 NMagM=    0.0000000   2.7928460   0.0000000   2.7928460   2.7928460   2.7928460   0.0000000   2.7928460   2.7928460   2.7928460
 AtZNuc=   6.0000000   1.0000000   6.0000000   1.0000000   1.0000000   1.0000000   6.0000000   1.0000000   1.0000000   1.0000000

  Atom        71          72          73          74          75          76          77          78          79          80
 IAtWgt=          12           1           1           1          12           1           1           1          12           1
 AtmWgt=  12.0000000   1.0078250   1.0078250   1.0078250  12.0000000   1.0078250   1.0078250   1.0078250  12.0000000   1.0078250
 NucSpn=           0           1           1           1           0           1           1           1           0           1
 AtZEff=   0.0000000   0.0000000   0.0000000   0.0000000   0.0000000   0.0000000   0.0000000   0.0000000   0.0000000   0.0000000
 NQMom=    0.0000000   0.0000000   0.0000000   0.0000000   0.0000000   0.0000000   0.0000000   0.0000000   0.0000000   0.0000000
 NMagM=    0.0000000   2.7928460   2.7928460   2.7928460   0.0000000   2.7928460   2.7928460   2.7928460   0.0000000   2.7928460
 AtZNuc=   6.0000000   1.0000000   1.0000000   1.0000000   6.0000000   1.0000000   1.0000000   1.0000000   6.0000000   1.0000000

  Atom        81          82          83          84          85          86          87          88          89          90
 IAtWgt=           1           1          23          16          12           1           1           1          12           1
 AtmWgt=   1.0078250   1.0078250  22.9897697  15.9949146  12.0000000   1.0078250   1.0078250   1.0078250  12.0000000   1.0078250
 NucSpn=           1           1           3           0           0           1           1           1           0           1
 AtZEff=   0.0000000   0.0000000   0.0000000   0.0000000   0.0000000   0.0000000   0.0000000   0.0000000   0.0000000   0.0000000
 NQMom=    0.0000000   0.0000000  10.4000000   0.0000000   0.0000000   0.0000000   0.0000000   0.0000000   0.0000000   0.0000000
 NMagM=    2.7928460   2.7928460   2.2175200   0.0000000   0.0000000   2.7928460   2.7928460   2.7928460   0.0000000   2.7928460
 AtZNuc=   1.0000000   1.0000000  11.0000000   8.0000000   6.0000000   1.0000000   1.0000000   1.0000000   6.0000000   1.0000000

  Atom        91          92          93          94          95          96          97          98          99         100
 IAtWgt=           1           1          12          19          19          19          12          19          19          19
 AtmWgt=   1.0078250   1.0078250  12.0000000  18.9984033  18.9984033  18.9984033  12.0000000  18.9984033  18.9984033  18.9984033
 NucSpn=           1           1           0           1           1           1           0           1           1           1
 AtZEff=   0.0000000   0.0000000   0.0000000   0.0000000   0.0000000   0.0000000   0.0000000   0.0000000   0.0000000   0.0000000
 NQMom=    0.0000000   0.0000000   0.0000000   0.0000000   0.0000000   0.0000000   0.0000000   0.0000000   0.0000000   0.0000000
 NMagM=    2.7928460   2.7928460   0.0000000   2.6288670   2.6288670   2.6288670   0.0000000   2.6288670   2.6288670   2.6288670
 AtZNuc=   1.0000000   1.0000000   6.0000000   9.0000000   9.0000000   9.0000000   6.0000000   9.0000000   9.0000000   9.0000000
 Leave Link  101 at Wed May  8 11:30:07 2019, MaxMem=  6442450944 cpu:              18.0 elap:               0.7
 (Enter /home/ekwan/sw/g16/l103.exe)

 GradGradGradGradGradGradGradGradGradGradGradGradGradGradGradGradGradGrad
 Berny optimization.
 Initialization pass.
                           ----------------------------
                           !    Initial Parameters    !
                           ! (Angstroms and Degrees)  !
 --------------------------                            --------------------------
 ! Name  Definition              Value          Derivative Info.                !
 --------------------------------------------------------------------------------
 ! R1    R(1,2)                  1.5311         calculate D2E/DX2 analytically  !
 ! R2    R(1,5)                  1.5347         calculate D2E/DX2 analytically  !
 ! R3    R(1,8)                  1.0975         calculate D2E/DX2 analytically  !
 ! R4    R(1,14)                 1.4287         calculate D2E/DX2 analytically  !
 ! R5    R(2,3)                  1.5311         calculate D2E/DX2 analytically  !
 ! R6    R(2,7)                  1.1012         calculate D2E/DX2 analytically  !
 ! R7    R(2,13)                 1.4166         calculate D2E/DX2 analytically  !
 ! R8    R(3,6)                  1.0927         calculate D2E/DX2 analytically  !
 ! R9    R(3,11)                 1.4178         calculate D2E/DX2 analytically  !
 ! R10   R(3,12)                 1.4032         calculate D2E/DX2 analytically  !
 ! R11   R(4,5)                  1.5346         calculate D2E/DX2 analytically  !
 ! R12   R(4,9)                  1.0979         calculate D2E/DX2 analytically  !
 ! R13   R(4,11)                 1.4394         calculate D2E/DX2 analytically  !
 ! R14   R(4,16)                 1.5417         calculate D2E/DX2 analytically  !
 ! R15   R(5,10)                 1.098          calculate D2E/DX2 analytically  !
 ! R16   R(5,15)                 1.4245         calculate D2E/DX2 analytically  !
 ! R17   R(11,37)                2.0281         calculate D2E/DX2 analytically  !
 ! R18   R(12,79)                1.4231         calculate D2E/DX2 analytically  !
 ! R19   R(13,20)                1.4219         calculate D2E/DX2 analytically  !
 ! R20   R(14,24)                1.4207         calculate D2E/DX2 analytically  !
 ! R21   R(15,28)                1.4178         calculate D2E/DX2 analytically  !
 ! R22   R(16,17)                1.1098         calculate D2E/DX2 analytically  !
 ! R23   R(16,18)                1.1122         calculate D2E/DX2 analytically  !
 ! R24   R(16,19)                1.3749         calculate D2E/DX2 analytically  !
 ! R25   R(19,83)                2.1501         calculate D2E/DX2 analytically  !
 ! R26   R(20,21)                1.0981         calculate D2E/DX2 analytically  !
 ! R27   R(20,22)                1.0982         calculate D2E/DX2 analytically  !
 ! R28   R(20,23)                1.0929         calculate D2E/DX2 analytically  !
 ! R29   R(24,25)                1.1008         calculate D2E/DX2 analytically  !
 ! R30   R(24,26)                1.0938         calculate D2E/DX2 analytically  !
 ! R31   R(24,27)                1.0935         calculate D2E/DX2 analytically  !
 ! R32   R(28,29)                1.0947         calculate D2E/DX2 analytically  !
 ! R33   R(28,30)                1.0986         calculate D2E/DX2 analytically  !
 ! R34   R(28,31)                1.0933         calculate D2E/DX2 analytically  !
 ! R35   R(32,33)                1.53           calculate D2E/DX2 analytically  !
 ! R36   R(32,36)                1.5276         calculate D2E/DX2 analytically  !
 ! R37   R(32,39)                1.0953         calculate D2E/DX2 analytically  !
 ! R38   R(32,45)                1.4181         calculate D2E/DX2 analytically  !
 ! R39   R(33,34)                1.5114         calculate D2E/DX2 analytically  !
 ! R40   R(33,38)                1.0997         calculate D2E/DX2 analytically  !
 ! R41   R(33,44)                1.4032         calculate D2E/DX2 analytically  !
 ! R42   R(34,37)                1.0784         calculate D2E/DX2 analytically  !
 ! R43   R(34,42)                1.3201         calculate D2E/DX2 analytically  !
 ! R44   R(34,53)                1.9903         calculate D2E/DX2 analytically  !
 ! R45   R(35,36)                1.5326         calculate D2E/DX2 analytically  !
 ! R46   R(35,40)                1.0922         calculate D2E/DX2 analytically  !
 ! R47   R(35,42)                1.4617         calculate D2E/DX2 analytically  !
 ! R48   R(35,47)                1.5115         calculate D2E/DX2 analytically  !
 ! R49   R(36,41)                1.0975         calculate D2E/DX2 analytically  !
 ! R50   R(36,46)                1.4174         calculate D2E/DX2 analytically  !
 ! R51   R(43,51)                1.475          calculate D2E/DX2 analytically  !
 ! R52   R(44,63)                1.4285         calculate D2E/DX2 analytically  !
 ! R53   R(45,67)                1.4254         calculate D2E/DX2 analytically  !
 ! R54   R(46,71)                1.4244         calculate D2E/DX2 analytically  !
 ! R55   R(47,48)                1.0959         calculate D2E/DX2 analytically  !
 ! R56   R(47,49)                1.0981         calculate D2E/DX2 analytically  !
 ! R57   R(47,50)                1.425          calculate D2E/DX2 analytically  !
 ! R58   R(50,75)                1.4258         calculate D2E/DX2 analytically  !
 ! R59   R(51,52)                1.4768         calculate D2E/DX2 analytically  !
 ! R60   R(51,53)                1.5324         calculate D2E/DX2 analytically  !
 ! R61   R(51,54)                1.7964         calculate D2E/DX2 analytically  !
 ! R62   R(54,55)                1.3872         calculate D2E/DX2 analytically  !
 ! R63   R(54,56)                1.3932         calculate D2E/DX2 analytically  !
 ! R64   R(55,57)                1.3948         calculate D2E/DX2 analytically  !
 ! R65   R(55,58)                1.0822         calculate D2E/DX2 analytically  !
 ! R66   R(56,59)                1.3939         calculate D2E/DX2 analytically  !
 ! R67   R(56,60)                1.084          calculate D2E/DX2 analytically  !
 ! R68   R(57,61)                1.3921         calculate D2E/DX2 analytically  !
 ! R69   R(57,97)                1.5014         calculate D2E/DX2 analytically  !
 ! R70   R(59,61)                1.3965         calculate D2E/DX2 analytically  !
 ! R71   R(59,93)                1.5024         calculate D2E/DX2 analytically  !
 ! R72   R(61,62)                1.0828         calculate D2E/DX2 analytically  !
 ! R73   R(63,64)                1.0932         calculate D2E/DX2 analytically  !
 ! R74   R(63,65)                1.0975         calculate D2E/DX2 analytically  !
 ! R75   R(63,66)                1.0921         calculate D2E/DX2 analytically  !
 ! R76   R(67,68)                1.0974         calculate D2E/DX2 analytically  !
 ! R77   R(67,69)                1.0938         calculate D2E/DX2 analytically  !
 ! R78   R(67,70)                1.0929         calculate D2E/DX2 analytically  !
 ! R79   R(71,72)                1.0941         calculate D2E/DX2 analytically  !
 ! R80   R(71,73)                1.0996         calculate D2E/DX2 analytically  !
 ! R81   R(71,74)                1.0924         calculate D2E/DX2 analytically  !
 ! R82   R(75,76)                1.0915         calculate D2E/DX2 analytically  !
 ! R83   R(75,77)                1.098          calculate D2E/DX2 analytically  !
 ! R84   R(75,78)                1.097          calculate D2E/DX2 analytically  !
 ! R85   R(79,80)                1.092          calculate D2E/DX2 analytically  !
 ! R86   R(79,81)                1.0964         calculate D2E/DX2 analytically  !
 ! R87   R(79,82)                1.0991         calculate D2E/DX2 analytically  !
 ! R88   R(83,84)                2.2956         calculate D2E/DX2 analytically  !
 ! R89   R(84,85)                1.4253         calculate D2E/DX2 analytically  !
 ! R90   R(84,89)                1.4209         calculate D2E/DX2 analytically  !
 ! R91   R(85,86)                1.0981         calculate D2E/DX2 analytically  !
 ! R92   R(85,87)                1.0908         calculate D2E/DX2 analytically  !
 ! R93   R(85,88)                1.0972         calculate D2E/DX2 analytically  !
 ! R94   R(89,90)                1.0979         calculate D2E/DX2 analytically  !
 ! R95   R(89,91)                1.0914         calculate D2E/DX2 analytically  !
 ! R96   R(89,92)                1.0982         calculate D2E/DX2 analytically  !
 ! R97   R(93,94)                1.3588         calculate D2E/DX2 analytically  !
 ! R98   R(93,95)                1.3497         calculate D2E/DX2 analytically  !
 ! R99   R(93,96)                1.3488         calculate D2E/DX2 analytically  !
 ! R100  R(97,98)                1.348          calculate D2E/DX2 analytically  !
 ! R101  R(97,99)                1.3593         calculate D2E/DX2 analytically  !
 ! R102  R(97,100)               1.3504         calculate D2E/DX2 analytically  !
 ! A1    A(2,1,5)              111.0682         calculate D2E/DX2 analytically  !
 ! A2    A(2,1,8)              109.1289         calculate D2E/DX2 analytically  !
 ! A3    A(2,1,14)             110.0711         calculate D2E/DX2 analytically  !
 ! A4    A(5,1,8)              109.1043         calculate D2E/DX2 analytically  !
 ! A5    A(5,1,14)             107.2495         calculate D2E/DX2 analytically  !
 ! A6    A(8,1,14)             110.2            calculate D2E/DX2 analytically  !
 ! A7    A(1,2,3)              110.6969         calculate D2E/DX2 analytically  !
 ! A8    A(1,2,7)              108.3536         calculate D2E/DX2 analytically  !
 ! A9    A(1,2,13)             108.3679         calculate D2E/DX2 analytically  !
 ! A10   A(3,2,7)              106.7462         calculate D2E/DX2 analytically  !
 ! A11   A(3,2,13)             112.9991         calculate D2E/DX2 analytically  !
 ! A12   A(7,2,13)             109.5775         calculate D2E/DX2 analytically  !
 ! A13   A(2,3,6)              111.5286         calculate D2E/DX2 analytically  !
 ! A14   A(2,3,11)             108.8641         calculate D2E/DX2 analytically  !
 ! A15   A(2,3,12)             108.4947         calculate D2E/DX2 analytically  !
 ! A16   A(6,3,11)             103.9717         calculate D2E/DX2 analytically  !
 ! A17   A(6,3,12)             111.1199         calculate D2E/DX2 analytically  !
 ! A18   A(11,3,12)            112.8353         calculate D2E/DX2 analytically  !
 ! A19   A(5,4,9)              108.3916         calculate D2E/DX2 analytically  !
 ! A20   A(5,4,11)             110.7422         calculate D2E/DX2 analytically  !
 ! A21   A(5,4,16)             113.0573         calculate D2E/DX2 analytically  !
 ! A22   A(9,4,11)             108.8463         calculate D2E/DX2 analytically  !
 ! A23   A(9,4,16)             109.4695         calculate D2E/DX2 analytically  !
 ! A24   A(11,4,16)            106.256          calculate D2E/DX2 analytically  !
 ! A25   A(1,5,4)              113.4268         calculate D2E/DX2 analytically  !
 ! A26   A(1,5,10)             107.0321         calculate D2E/DX2 analytically  !
 ! A27   A(1,5,15)             112.9677         calculate D2E/DX2 analytically  !
 ! A28   A(4,5,10)             108.5708         calculate D2E/DX2 analytically  !
 ! A29   A(4,5,15)             105.0784         calculate D2E/DX2 analytically  !
 ! A30   A(10,5,15)            109.6932         calculate D2E/DX2 analytically  !
 ! A31   A(3,11,4)             114.9864         calculate D2E/DX2 analytically  !
 ! A32   A(3,11,37)            113.638          calculate D2E/DX2 analytically  !
 ! A33   A(4,11,37)            100.0085         calculate D2E/DX2 analytically  !
 ! A34   A(3,12,79)            112.9168         calculate D2E/DX2 analytically  !
 ! A35   A(2,13,20)            113.7388         calculate D2E/DX2 analytically  !
 ! A36   A(1,14,24)            114.7466         calculate D2E/DX2 analytically  !
 ! A37   A(5,15,28)            116.6719         calculate D2E/DX2 analytically  !
 ! A38   A(4,16,17)            105.2973         calculate D2E/DX2 analytically  !
 ! A39   A(4,16,18)            104.7025         calculate D2E/DX2 analytically  !
 ! A40   A(4,16,19)            114.6057         calculate D2E/DX2 analytically  !
 ! A41   A(17,16,18)           105.3805         calculate D2E/DX2 analytically  !
 ! A42   A(17,16,19)           112.9784         calculate D2E/DX2 analytically  !
 ! A43   A(18,16,19)           112.9989         calculate D2E/DX2 analytically  !
 ! A44   A(16,19,83)           127.9484         calculate D2E/DX2 analytically  !
 ! A45   A(13,20,21)           111.9227         calculate D2E/DX2 analytically  !
 ! A46   A(13,20,22)           111.599          calculate D2E/DX2 analytically  !
 ! A47   A(13,20,23)           106.6654         calculate D2E/DX2 analytically  !
 ! A48   A(21,20,22)           108.2976         calculate D2E/DX2 analytically  !
 ! A49   A(21,20,23)           108.7817         calculate D2E/DX2 analytically  !
 ! A50   A(22,20,23)           109.5192         calculate D2E/DX2 analytically  !
 ! A51   A(14,24,25)           111.0732         calculate D2E/DX2 analytically  !
 ! A52   A(14,24,26)           111.5465         calculate D2E/DX2 analytically  !
 ! A53   A(14,24,27)           106.628          calculate D2E/DX2 analytically  !
 ! A54   A(25,24,26)           109.0639         calculate D2E/DX2 analytically  !
 ! A55   A(25,24,27)           108.7634         calculate D2E/DX2 analytically  !
 ! A56   A(26,24,27)           109.7021         calculate D2E/DX2 analytically  !
 ! A57   A(15,28,29)           112.3799         calculate D2E/DX2 analytically  !
 ! A58   A(15,28,30)           111.6076         calculate D2E/DX2 analytically  !
 ! A59   A(15,28,31)           106.3426         calculate D2E/DX2 analytically  !
 ! A60   A(29,28,30)           108.3319         calculate D2E/DX2 analytically  !
 ! A61   A(29,28,31)           109.1612         calculate D2E/DX2 analytically  !
 ! A62   A(30,28,31)           108.9406         calculate D2E/DX2 analytically  !
 ! A63   A(33,32,36)           109.4984         calculate D2E/DX2 analytically  !
 ! A64   A(33,32,39)           109.734          calculate D2E/DX2 analytically  !
 ! A65   A(33,32,45)           110.4397         calculate D2E/DX2 analytically  !
 ! A66   A(36,32,39)           108.8726         calculate D2E/DX2 analytically  !
 ! A67   A(36,32,45)           107.6222         calculate D2E/DX2 analytically  !
 ! A68   A(39,32,45)           110.6279         calculate D2E/DX2 analytically  !
 ! A69   A(32,33,34)           112.8865         calculate D2E/DX2 analytically  !
 ! A70   A(32,33,38)           108.3689         calculate D2E/DX2 analytically  !
 ! A71   A(32,33,44)           109.2957         calculate D2E/DX2 analytically  !
 ! A72   A(34,33,38)           102.8633         calculate D2E/DX2 analytically  !
 ! A73   A(34,33,44)           112.9338         calculate D2E/DX2 analytically  !
 ! A74   A(38,33,44)           110.2429         calculate D2E/DX2 analytically  !
 ! A75   A(33,34,37)           120.8493         calculate D2E/DX2 analytically  !
 ! A76   A(33,34,42)           119.6475         calculate D2E/DX2 analytically  !
 ! A77   A(33,34,53)           100.4881         calculate D2E/DX2 analytically  !
 ! A78   A(37,34,42)           115.7639         calculate D2E/DX2 analytically  !
 ! A79   A(37,34,53)            93.7086         calculate D2E/DX2 analytically  !
 ! A80   A(42,34,53)            94.9547         calculate D2E/DX2 analytically  !
 ! A81   A(36,35,40)           109.0684         calculate D2E/DX2 analytically  !
 ! A82   A(36,35,42)           112.3033         calculate D2E/DX2 analytically  !
 ! A83   A(36,35,47)           113.4291         calculate D2E/DX2 analytically  !
 ! A84   A(40,35,42)           106.2091         calculate D2E/DX2 analytically  !
 ! A85   A(40,35,47)           108.8847         calculate D2E/DX2 analytically  !
 ! A86   A(42,35,47)           106.6469         calculate D2E/DX2 analytically  !
 ! A87   A(32,36,35)           111.354          calculate D2E/DX2 analytically  !
 ! A88   A(32,36,41)           108.8596         calculate D2E/DX2 analytically  !
 ! A89   A(32,36,46)           111.2784         calculate D2E/DX2 analytically  !
 ! A90   A(35,36,41)           109.502          calculate D2E/DX2 analytically  !
 ! A91   A(35,36,46)           105.4244         calculate D2E/DX2 analytically  !
 ! A92   A(41,36,46)           110.3865         calculate D2E/DX2 analytically  !
 ! A93   A(34,42,35)           118.5027         calculate D2E/DX2 analytically  !
 ! A94   A(33,44,63)           114.9494         calculate D2E/DX2 analytically  !
 ! A95   A(32,45,67)           114.4821         calculate D2E/DX2 analytically  !
 ! A96   A(36,46,71)           114.263          calculate D2E/DX2 analytically  !
 ! A97   A(35,47,48)           107.8164         calculate D2E/DX2 analytically  !
 ! A98   A(35,47,49)           110.1256         calculate D2E/DX2 analytically  !
 ! A99   A(35,47,50)           109.5112         calculate D2E/DX2 analytically  !
 ! A100  A(48,47,49)           108.9427         calculate D2E/DX2 analytically  !
 ! A101  A(48,47,50)           110.1539         calculate D2E/DX2 analytically  !
 ! A102  A(49,47,50)           110.2528         calculate D2E/DX2 analytically  !
 ! A103  A(47,50,75)           112.4633         calculate D2E/DX2 analytically  !
 ! A104  A(43,51,52)           116.7778         calculate D2E/DX2 analytically  !
 ! A105  A(43,51,53)           113.0011         calculate D2E/DX2 analytically  !
 ! A106  A(43,51,54)           106.6588         calculate D2E/DX2 analytically  !
 ! A107  A(52,51,53)           109.453          calculate D2E/DX2 analytically  !
 ! A108  A(52,51,54)           106.4303         calculate D2E/DX2 analytically  !
 ! A109  A(53,51,54)           103.3847         calculate D2E/DX2 analytically  !
 ! A110  A(34,53,51)           127.5167         calculate D2E/DX2 analytically  !
 ! A111  A(51,54,55)           119.3838         calculate D2E/DX2 analytically  !
 ! A112  A(51,54,56)           119.3777         calculate D2E/DX2 analytically  !
 ! A113  A(55,54,56)           121.1127         calculate D2E/DX2 analytically  !
 ! A114  A(54,55,57)           119.2065         calculate D2E/DX2 analytically  !
 ! A115  A(54,55,58)           119.4463         calculate D2E/DX2 analytically  !
 ! A116  A(57,55,58)           121.3297         calculate D2E/DX2 analytically  !
 ! A117  A(54,56,59)           119.0366         calculate D2E/DX2 analytically  !
 ! A118  A(54,56,60)           120.3852         calculate D2E/DX2 analytically  !
 ! A119  A(59,56,60)           120.576          calculate D2E/DX2 analytically  !
 ! A120  A(55,57,61)           120.7076         calculate D2E/DX2 analytically  !
 ! A121  A(55,57,97)           118.2207         calculate D2E/DX2 analytically  !
 ! A122  A(61,57,97)           120.8856         calculate D2E/DX2 analytically  !
 ! A123  A(56,59,61)           120.6742         calculate D2E/DX2 analytically  !
 ! A124  A(56,59,93)           119.6241         calculate D2E/DX2 analytically  !
 ! A125  A(61,59,93)           119.5238         calculate D2E/DX2 analytically  !
 ! A126  A(57,61,59)           119.2531         calculate D2E/DX2 analytically  !
 ! A127  A(57,61,62)           120.3984         calculate D2E/DX2 analytically  !
 ! A128  A(59,61,62)           120.3476         calculate D2E/DX2 analytically  !
 ! A129  A(44,63,64)           111.6001         calculate D2E/DX2 analytically  !
 ! A130  A(44,63,65)           110.6184         calculate D2E/DX2 analytically  !
 ! A131  A(44,63,66)           105.6488         calculate D2E/DX2 analytically  !
 ! A132  A(64,63,65)           109.403          calculate D2E/DX2 analytically  !
 ! A133  A(64,63,66)           110.1144         calculate D2E/DX2 analytically  !
 ! A134  A(65,63,66)           109.3866         calculate D2E/DX2 analytically  !
 ! A135  A(45,67,68)           110.8627         calculate D2E/DX2 analytically  !
 ! A136  A(45,67,69)           111.6093         calculate D2E/DX2 analytically  !
 ! A137  A(45,67,70)           106.3244         calculate D2E/DX2 analytically  !
 ! A138  A(68,67,69)           109.3547         calculate D2E/DX2 analytically  !
 ! A139  A(68,67,70)           109.0217         calculate D2E/DX2 analytically  !
 ! A140  A(69,67,70)           109.5952         calculate D2E/DX2 analytically  !
 ! A141  A(46,71,72)           111.1513         calculate D2E/DX2 analytically  !
 ! A142  A(46,71,73)           110.9155         calculate D2E/DX2 analytically  !
 ! A143  A(46,71,74)           106.454          calculate D2E/DX2 analytically  !
 ! A144  A(72,71,73)           109.3657         calculate D2E/DX2 analytically  !
 ! A145  A(72,71,74)           109.8112         calculate D2E/DX2 analytically  !
 ! A146  A(73,71,74)           109.0856         calculate D2E/DX2 analytically  !
 ! A147  A(50,75,76)           107.0252         calculate D2E/DX2 analytically  !
 ! A148  A(50,75,77)           111.0262         calculate D2E/DX2 analytically  !
 ! A149  A(50,75,78)           110.5205         calculate D2E/DX2 analytically  !
 ! A150  A(76,75,77)           109.6871         calculate D2E/DX2 analytically  !
 ! A151  A(76,75,78)           109.3553         calculate D2E/DX2 analytically  !
 ! A152  A(77,75,78)           109.1915         calculate D2E/DX2 analytically  !
 ! A153  A(12,79,80)           106.8474         calculate D2E/DX2 analytically  !
 ! A154  A(12,79,81)           111.4878         calculate D2E/DX2 analytically  !
 ! A155  A(12,79,82)           110.8536         calculate D2E/DX2 analytically  !
 ! A156  A(80,79,81)           109.49           calculate D2E/DX2 analytically  !
 ! A157  A(80,79,82)           109.3835         calculate D2E/DX2 analytically  !
 ! A158  A(81,79,82)           108.7437         calculate D2E/DX2 analytically  !
 ! A159  A(19,83,84)           114.2968         calculate D2E/DX2 analytically  !
 ! A160  A(83,84,85)           114.2677         calculate D2E/DX2 analytically  !
 ! A161  A(83,84,89)           132.4212         calculate D2E/DX2 analytically  !
 ! A162  A(85,84,89)           112.4691         calculate D2E/DX2 analytically  !
 ! A163  A(84,85,86)           110.6701         calculate D2E/DX2 analytically  !
 ! A164  A(84,85,87)           106.9864         calculate D2E/DX2 analytically  !
 ! A165  A(84,85,88)           110.6954         calculate D2E/DX2 analytically  !
 ! A166  A(86,85,87)           109.814          calculate D2E/DX2 analytically  !
 ! A167  A(86,85,88)           109.3928         calculate D2E/DX2 analytically  !
 ! A168  A(87,85,88)           109.2432         calculate D2E/DX2 analytically  !
 ! A169  A(84,89,90)           110.8867         calculate D2E/DX2 analytically  !
 ! A170  A(84,89,91)           107.4027         calculate D2E/DX2 analytically  !
 ! A171  A(84,89,92)           110.8655         calculate D2E/DX2 analytically  !
 ! A172  A(90,89,91)           109.2292         calculate D2E/DX2 analytically  !
 ! A173  A(90,89,92)           108.9933         calculate D2E/DX2 analytically  !
 ! A174  A(91,89,92)           109.4298         calculate D2E/DX2 analytically  !
 ! A175  A(59,93,94)           111.1507         calculate D2E/DX2 analytically  !
 ! A176  A(59,93,95)           112.0652         calculate D2E/DX2 analytically  !
 ! A177  A(59,93,96)           112.1021         calculate D2E/DX2 analytically  !
 ! A178  A(94,93,95)           106.7112         calculate D2E/DX2 analytically  !
 ! A179  A(94,93,96)           106.7324         calculate D2E/DX2 analytically  !
 ! A180  A(95,93,96)           107.767          calculate D2E/DX2 analytically  !
 ! A181  A(57,97,98)           112.6122         calculate D2E/DX2 analytically  !
 ! A182  A(57,97,99)           110.6912         calculate D2E/DX2 analytically  !
 ! A183  A(57,97,100)          111.8882         calculate D2E/DX2 analytically  !
 ! A184  A(98,97,99)           107.1127         calculate D2E/DX2 analytically  !
 ! A185  A(98,97,100)          107.7338         calculate D2E/DX2 analytically  !
 ! A186  A(99,97,100)          106.4879         calculate D2E/DX2 analytically  !
 ! A187  L(11,37,34,10,-1)     176.5828         calculate D2E/DX2 analytically  !
 ! A188  L(11,37,34,10,-2)     191.9455         calculate D2E/DX2 analytically  !
 ! D1    D(5,1,2,3)            -50.7383         calculate D2E/DX2 analytically  !
 ! D2    D(5,1,2,7)             65.9963         calculate D2E/DX2 analytically  !
 ! D3    D(5,1,2,13)          -175.178          calculate D2E/DX2 analytically  !
 ! D4    D(8,1,2,3)             69.583          calculate D2E/DX2 analytically  !
 ! D5    D(8,1,2,7)           -173.6824         calculate D2E/DX2 analytically  !
 ! D6    D(8,1,2,13)           -54.8567         calculate D2E/DX2 analytically  !
 ! D7    D(14,1,2,3)          -169.3635         calculate D2E/DX2 analytically  !
 ! D8    D(14,1,2,7)           -52.6289         calculate D2E/DX2 analytically  !
 ! D9    D(14,1,2,13)           66.1968         calculate D2E/DX2 analytically  !
 ! D10   D(2,1,5,4)             45.4532         calculate D2E/DX2 analytically  !
 ! D11   D(2,1,5,10)           -74.2657         calculate D2E/DX2 analytically  !
 ! D12   D(2,1,5,15)           164.896          calculate D2E/DX2 analytically  !
 ! D13   D(8,1,5,4)            -74.8827         calculate D2E/DX2 analytically  !
 ! D14   D(8,1,5,10)           165.3984         calculate D2E/DX2 analytically  !
 ! D15   D(8,1,5,15)            44.5601         calculate D2E/DX2 analytically  !
 ! D16   D(14,1,5,4)           165.7649         calculate D2E/DX2 analytically  !
 ! D17   D(14,1,5,10)           46.046          calculate D2E/DX2 analytically  !
 ! D18   D(14,1,5,15)          -74.7923         calculate D2E/DX2 analytically  !
 ! D19   D(2,1,14,24)          -93.949          calculate D2E/DX2 analytically  !
 ! D20   D(5,1,14,24)          145.1073         calculate D2E/DX2 analytically  !
 ! D21   D(8,1,14,24)           26.4608         calculate D2E/DX2 analytically  !
 ! D22   D(1,2,3,6)            172.756          calculate D2E/DX2 analytically  !
 ! D23   D(1,2,3,11)            58.6097         calculate D2E/DX2 analytically  !
 ! D24   D(1,2,3,12)           -64.5337         calculate D2E/DX2 analytically  !
 ! D25   D(7,2,3,6)             55.0335         calculate D2E/DX2 analytically  !
 ! D26   D(7,2,3,11)           -59.1129         calculate D2E/DX2 analytically  !
 ! D27   D(7,2,3,12)           177.7438         calculate D2E/DX2 analytically  !
 ! D28   D(13,2,3,6)           -65.4876         calculate D2E/DX2 analytically  !
 ! D29   D(13,2,3,11)         -179.6339         calculate D2E/DX2 analytically  !
 ! D30   D(13,2,3,12)           57.2227         calculate D2E/DX2 analytically  !
 ! D31   D(1,2,13,20)         -167.0629         calculate D2E/DX2 analytically  !
 ! D32   D(3,2,13,20)           69.879          calculate D2E/DX2 analytically  !
 ! D33   D(7,2,13,20)          -49.0139         calculate D2E/DX2 analytically  !
 ! D34   D(2,3,11,4)           -63.4475         calculate D2E/DX2 analytically  !
 ! D35   D(2,3,11,37)           50.9627         calculate D2E/DX2 analytically  !
 ! D36   D(6,3,11,4)           177.5644         calculate D2E/DX2 analytically  !
 ! D37   D(6,3,11,37)          -68.0254         calculate D2E/DX2 analytically  !
 ! D38   D(12,3,11,4)           57.057          calculate D2E/DX2 analytically  !
 ! D39   D(12,3,11,37)         171.4672         calculate D2E/DX2 analytically  !
 ! D40   D(2,3,12,79)         -172.5811         calculate D2E/DX2 analytically  !
 ! D41   D(6,3,12,79)          -49.6236         calculate D2E/DX2 analytically  !
 ! D42   D(11,3,12,79)          66.7033         calculate D2E/DX2 analytically  !
 ! D43   D(9,4,5,1)             72.395          calculate D2E/DX2 analytically  !
 ! D44   D(9,4,5,10)          -168.7673         calculate D2E/DX2 analytically  !
 ! D45   D(9,4,5,15)           -51.4651         calculate D2E/DX2 analytically  !
 ! D46   D(11,4,5,1)           -46.941          calculate D2E/DX2 analytically  !
 ! D47   D(11,4,5,10)           71.8966         calculate D2E/DX2 analytically  !
 ! D48   D(11,4,5,15)         -170.8011         calculate D2E/DX2 analytically  !
 ! D49   D(16,4,5,1)          -166.0531         calculate D2E/DX2 analytically  !
 ! D50   D(16,4,5,10)          -47.2155         calculate D2E/DX2 analytically  !
 ! D51   D(16,4,5,15)           70.0868         calculate D2E/DX2 analytically  !
 ! D52   D(5,4,11,3)            57.4262         calculate D2E/DX2 analytically  !
 ! D53   D(5,4,11,37)          -64.6763         calculate D2E/DX2 analytically  !
 ! D54   D(9,4,11,3)           -61.6357         calculate D2E/DX2 analytically  !
 ! D55   D(9,4,11,37)          176.2618         calculate D2E/DX2 analytically  !
 ! D56   D(16,4,11,3)         -179.4353         calculate D2E/DX2 analytically  !
 ! D57   D(16,4,11,37)          58.4622         calculate D2E/DX2 analytically  !
 ! D58   D(5,4,16,17)          -74.9628         calculate D2E/DX2 analytically  !
 ! D59   D(5,4,16,18)          174.1795         calculate D2E/DX2 analytically  !
 ! D60   D(5,4,16,19)           49.8156         calculate D2E/DX2 analytically  !
 ! D61   D(9,4,16,17)           45.9797         calculate D2E/DX2 analytically  !
 ! D62   D(9,4,16,18)          -64.878          calculate D2E/DX2 analytically  !
 ! D63   D(9,4,16,19)          170.7581         calculate D2E/DX2 analytically  !
 ! D64   D(11,4,16,17)         163.365          calculate D2E/DX2 analytically  !
 ! D65   D(11,4,16,18)          52.5073         calculate D2E/DX2 analytically  !
 ! D66   D(11,4,16,19)         -71.8565         calculate D2E/DX2 analytically  !
 ! D67   D(1,5,15,28)           70.5764         calculate D2E/DX2 analytically  !
 ! D68   D(4,5,15,28)         -165.2718         calculate D2E/DX2 analytically  !
 ! D69   D(10,5,15,28)         -48.7364         calculate D2E/DX2 analytically  !
 ! D70   D(3,11,34,33)         132.4876         calculate D2E/DX2 analytically  !
 ! D71   D(3,11,34,42)         -77.1454         calculate D2E/DX2 analytically  !
 ! D72   D(3,11,34,53)          24.19           calculate D2E/DX2 analytically  !
 ! D73   D(4,11,34,33)        -104.5047         calculate D2E/DX2 analytically  !
 ! D74   D(4,11,34,42)          45.8624         calculate D2E/DX2 analytically  !
 ! D75   D(4,11,34,53)         147.1977         calculate D2E/DX2 analytically  !
 ! D76   D(3,12,79,80)         176.0307         calculate D2E/DX2 analytically  !
 ! D77   D(3,12,79,81)         -64.3751         calculate D2E/DX2 analytically  !
 ! D78   D(3,12,79,82)          56.9241         calculate D2E/DX2 analytically  !
 ! D79   D(2,13,20,21)         -72.4833         calculate D2E/DX2 analytically  !
 ! D80   D(2,13,20,22)          49.0718         calculate D2E/DX2 analytically  !
 ! D81   D(2,13,20,23)         168.6513         calculate D2E/DX2 analytically  !
 ! D82   D(1,14,24,25)         -59.813          calculate D2E/DX2 analytically  !
 ! D83   D(1,14,24,26)          62.0896         calculate D2E/DX2 analytically  !
 ! D84   D(1,14,24,27)        -178.1617         calculate D2E/DX2 analytically  !
 ! D85   D(5,15,28,29)         -76.0772         calculate D2E/DX2 analytically  !
 ! D86   D(5,15,28,30)          45.8566         calculate D2E/DX2 analytically  !
 ! D87   D(5,15,28,31)         164.5396         calculate D2E/DX2 analytically  !
 ! D88   D(4,16,19,83)         -81.4692         calculate D2E/DX2 analytically  !
 ! D89   D(17,16,19,83)         39.153          calculate D2E/DX2 analytically  !
 ! D90   D(18,16,19,83)        158.6873         calculate D2E/DX2 analytically  !
 ! D91   D(16,19,83,84)        -32.9615         calculate D2E/DX2 analytically  !
 ! D92   D(36,32,33,34)        -46.2417         calculate D2E/DX2 analytically  !
 ! D93   D(36,32,33,38)         67.0115         calculate D2E/DX2 analytically  !
 ! D94   D(36,32,33,44)       -172.8209         calculate D2E/DX2 analytically  !
 ! D95   D(39,32,33,34)         73.2022         calculate D2E/DX2 analytically  !
 ! D96   D(39,32,33,38)       -173.5446         calculate D2E/DX2 analytically  !
 ! D97   D(39,32,33,44)        -53.3769         calculate D2E/DX2 analytically  !
 ! D98   D(45,32,33,34)       -164.5816         calculate D2E/DX2 analytically  !
 ! D99   D(45,32,33,38)        -51.3284         calculate D2E/DX2 analytically  !
 ! D100  D(45,32,33,44)         68.8393         calculate D2E/DX2 analytically  !
 ! D101  D(33,32,36,35)         53.3597         calculate D2E/DX2 analytically  !
 ! D102  D(33,32,36,41)        -67.4598         calculate D2E/DX2 analytically  !
 ! D103  D(33,32,36,46)        170.6647         calculate D2E/DX2 analytically  !
 ! D104  D(39,32,36,35)        -66.6131         calculate D2E/DX2 analytically  !
 ! D105  D(39,32,36,41)        172.5675         calculate D2E/DX2 analytically  !
 ! D106  D(39,32,36,46)         50.6919         calculate D2E/DX2 analytically  !
 ! D107  D(45,32,36,35)        173.438          calculate D2E/DX2 analytically  !
 ! D108  D(45,32,36,41)         52.6185         calculate D2E/DX2 analytically  !
 ! D109  D(45,32,36,46)        -69.257          calculate D2E/DX2 analytically  !
 ! D110  D(33,32,45,67)        -95.6261         calculate D2E/DX2 analytically  !
 ! D111  D(36,32,45,67)        144.8933         calculate D2E/DX2 analytically  !
 ! D112  D(39,32,45,67)         26.0633         calculate D2E/DX2 analytically  !
 ! D113  D(32,33,34,37)       -162.4705         calculate D2E/DX2 analytically  !
 ! D114  D(32,33,34,42)         40.232          calculate D2E/DX2 analytically  !
 ! D115  D(32,33,34,53)        -61.6815         calculate D2E/DX2 analytically  !
 ! D116  D(38,33,34,37)         80.9611         calculate D2E/DX2 analytically  !
 ! D117  D(38,33,34,42)        -76.3364         calculate D2E/DX2 analytically  !
 ! D118  D(38,33,34,53)       -178.2499         calculate D2E/DX2 analytically  !
 ! D119  D(44,33,34,37)        -37.8543         calculate D2E/DX2 analytically  !
 ! D120  D(44,33,34,42)        164.8482         calculate D2E/DX2 analytically  !
 ! D121  D(44,33,34,53)         62.9348         calculate D2E/DX2 analytically  !
 ! D122  D(32,33,44,63)       -157.3883         calculate D2E/DX2 analytically  !
 ! D123  D(34,33,44,63)         76.0594         calculate D2E/DX2 analytically  !
 ! D124  D(38,33,44,63)        -38.3768         calculate D2E/DX2 analytically  !
 ! D125  D(33,34,42,35)        -39.0587         calculate D2E/DX2 analytically  !
 ! D126  D(37,34,42,35)        162.5284         calculate D2E/DX2 analytically  !
 ! D127  D(53,34,42,35)         65.9864         calculate D2E/DX2 analytically  !
 ! D128  D(33,34,53,51)        -79.5985         calculate D2E/DX2 analytically  !
 ! D129  D(37,34,53,51)         42.7175         calculate D2E/DX2 analytically  !
 ! D130  D(42,34,53,51)        159.002          calculate D2E/DX2 analytically  !
 ! D131  D(40,35,36,32)         65.9172         calculate D2E/DX2 analytically  !
 ! D132  D(40,35,36,41)       -173.6408         calculate D2E/DX2 analytically  !
 ! D133  D(40,35,36,46)        -54.8853         calculate D2E/DX2 analytically  !
 ! D134  D(42,35,36,32)        -51.5359         calculate D2E/DX2 analytically  !
 ! D135  D(42,35,36,41)         68.9061         calculate D2E/DX2 analytically  !
 ! D136  D(42,35,36,46)       -172.3384         calculate D2E/DX2 analytically  !
 ! D137  D(47,35,36,32)       -172.5479         calculate D2E/DX2 analytically  !
 ! D138  D(47,35,36,41)        -52.1058         calculate D2E/DX2 analytically  !
 ! D139  D(47,35,36,46)         66.6497         calculate D2E/DX2 analytically  !
 ! D140  D(36,35,42,34)         44.1806         calculate D2E/DX2 analytically  !
 ! D141  D(40,35,42,34)        -74.9614         calculate D2E/DX2 analytically  !
 ! D142  D(47,35,42,34)        169.0158         calculate D2E/DX2 analytically  !
 ! D143  D(36,35,47,48)        -61.4985         calculate D2E/DX2 analytically  !
 ! D144  D(36,35,47,49)        179.756          calculate D2E/DX2 analytically  !
 ! D145  D(36,35,47,50)         58.3577         calculate D2E/DX2 analytically  !
 ! D146  D(40,35,47,48)         60.1392         calculate D2E/DX2 analytically  !
 ! D147  D(40,35,47,49)        -58.6063         calculate D2E/DX2 analytically  !
 ! D148  D(40,35,47,50)        179.9954         calculate D2E/DX2 analytically  !
 ! D149  D(42,35,47,48)        174.3574         calculate D2E/DX2 analytically  !
 ! D150  D(42,35,47,49)         55.6119         calculate D2E/DX2 analytically  !
 ! D151  D(42,35,47,50)        -65.7864         calculate D2E/DX2 analytically  !
 ! D152  D(32,36,46,71)         99.1288         calculate D2E/DX2 analytically  !
 ! D153  D(35,36,46,71)       -140.0193         calculate D2E/DX2 analytically  !
 ! D154  D(41,36,46,71)        -21.8559         calculate D2E/DX2 analytically  !
 ! D155  D(33,44,63,64)        -69.9216         calculate D2E/DX2 analytically  !
 ! D156  D(33,44,63,65)         52.1326         calculate D2E/DX2 analytically  !
 ! D157  D(33,44,63,66)        170.4075         calculate D2E/DX2 analytically  !
 ! D158  D(32,45,67,68)        -58.8048         calculate D2E/DX2 analytically  !
 ! D159  D(32,45,67,69)         63.3661         calculate D2E/DX2 analytically  !
 ! D160  D(32,45,67,70)       -177.1687         calculate D2E/DX2 analytically  !
 ! D161  D(36,46,71,72)        -61.1384         calculate D2E/DX2 analytically  !
 ! D162  D(36,46,71,73)         60.7652         calculate D2E/DX2 analytically  !
 ! D163  D(36,46,71,74)        179.3113         calculate D2E/DX2 analytically  !
 ! D164  D(35,47,50,75)       -169.06           calculate D2E/DX2 analytically  !
 ! D165  D(48,47,50,75)        -50.6467         calculate D2E/DX2 analytically  !
 ! D166  D(49,47,50,75)         69.6185         calculate D2E/DX2 analytically  !
 ! D167  D(47,50,75,76)        177.5489         calculate D2E/DX2 analytically  !
 ! D168  D(47,50,75,77)        -62.7708         calculate D2E/DX2 analytically  !
 ! D169  D(47,50,75,78)         58.5554         calculate D2E/DX2 analytically  !
 ! D170  D(43,51,53,34)        -19.5536         calculate D2E/DX2 analytically  !
 ! D171  D(52,51,53,34)       -151.5439         calculate D2E/DX2 analytically  !
 ! D172  D(54,51,53,34)         95.3528         calculate D2E/DX2 analytically  !
 ! D173  D(43,51,54,55)          5.248          calculate D2E/DX2 analytically  !
 ! D174  D(43,51,54,56)       -178.7825         calculate D2E/DX2 analytically  !
 ! D175  D(52,51,54,55)        130.5953         calculate D2E/DX2 analytically  !
 ! D176  D(52,51,54,56)        -53.4352         calculate D2E/DX2 analytically  !
 ! D177  D(53,51,54,55)       -114.1226         calculate D2E/DX2 analytically  !
 ! D178  D(53,51,54,56)         61.8469         calculate D2E/DX2 analytically  !
 ! D179  D(51,54,55,57)        174.7936         calculate D2E/DX2 analytically  !
 ! D180  D(51,54,55,58)         -3.7034         calculate D2E/DX2 analytically  !
 ! D181  D(56,54,55,57)         -1.1039         calculate D2E/DX2 analytically  !
 ! D182  D(56,54,55,58)       -179.6009         calculate D2E/DX2 analytically  !
 ! D183  D(51,54,56,59)       -175.2721         calculate D2E/DX2 analytically  !
 ! D184  D(51,54,56,60)          4.1946         calculate D2E/DX2 analytically  !
 ! D185  D(55,54,56,59)          0.6257         calculate D2E/DX2 analytically  !
 ! D186  D(55,54,56,60)       -179.9077         calculate D2E/DX2 analytically  !
 ! D187  D(54,55,57,61)          0.7097         calculate D2E/DX2 analytically  !
 ! D188  D(54,55,57,97)       -174.3759         calculate D2E/DX2 analytically  !
 ! D189  D(58,55,57,61)        179.1775         calculate D2E/DX2 analytically  !
 ! D190  D(58,55,57,97)          4.0918         calculate D2E/DX2 analytically  !
 ! D191  D(54,56,59,61)          0.2557         calculate D2E/DX2 analytically  !
 ! D192  D(54,56,59,93)        175.3849         calculate D2E/DX2 analytically  !
 ! D193  D(60,56,59,61)       -179.2099         calculate D2E/DX2 analytically  !
 ! D194  D(60,56,59,93)         -4.0807         calculate D2E/DX2 analytically  !
 ! D195  D(55,57,61,59)          0.1488         calculate D2E/DX2 analytically  !
 ! D196  D(55,57,61,62)       -179.5009         calculate D2E/DX2 analytically  !
 ! D197  D(97,57,61,59)        175.1028         calculate D2E/DX2 analytically  !
 ! D198  D(97,57,61,62)         -4.5469         calculate D2E/DX2 analytically  !
 ! D199  D(55,57,97,98)       -169.5796         calculate D2E/DX2 analytically  !
 ! D200  D(55,57,97,99)         70.5495         calculate D2E/DX2 analytically  !
 ! D201  D(55,57,97,100)       -48.0506         calculate D2E/DX2 analytically  !
 ! D202  D(61,57,97,98)         15.3439         calculate D2E/DX2 analytically  !
 ! D203  D(61,57,97,99)       -104.527          calculate D2E/DX2 analytically  !
 ! D204  D(61,57,97,100)       136.8729         calculate D2E/DX2 analytically  !
 ! D205  D(56,59,61,57)         -0.6362         calculate D2E/DX2 analytically  !
 ! D206  D(56,59,61,62)        179.0137         calculate D2E/DX2 analytically  !
 ! D207  D(93,59,61,57)       -175.7701         calculate D2E/DX2 analytically  !
 ! D208  D(93,59,61,62)          3.8797         calculate D2E/DX2 analytically  !
 ! D209  D(56,59,93,94)        -87.8066         calculate D2E/DX2 analytically  !
 ! D210  D(56,59,93,95)        152.8852         calculate D2E/DX2 analytically  !
 ! D211  D(56,59,93,96)         31.5535         calculate D2E/DX2 analytically  !
 ! D212  D(61,59,93,94)         87.379          calculate D2E/DX2 analytically  !
 ! D213  D(61,59,93,95)        -31.9292         calculate D2E/DX2 analytically  !
 ! D214  D(61,59,93,96)       -153.2609         calculate D2E/DX2 analytically  !
 ! D215  D(19,83,84,85)        -10.6381         calculate D2E/DX2 analytically  !
 ! D216  D(19,83,84,89)        157.8494         calculate D2E/DX2 analytically  !
 ! D217  D(83,84,85,86)       -129.2208         calculate D2E/DX2 analytically  !
 ! D218  D(83,84,85,87)         -9.613          calculate D2E/DX2 analytically  !
 ! D219  D(83,84,85,88)        109.3199         calculate D2E/DX2 analytically  !
 ! D220  D(89,84,85,86)         59.9534         calculate D2E/DX2 analytically  !
 ! D221  D(89,84,85,87)        179.5612         calculate D2E/DX2 analytically  !
 ! D222  D(89,84,85,88)        -61.5059         calculate D2E/DX2 analytically  !
 ! D223  D(83,84,89,90)       -110.0907         calculate D2E/DX2 analytically  !
 ! D224  D(83,84,89,91)          9.186          calculate D2E/DX2 analytically  !
 ! D225  D(83,84,89,92)        128.6942         calculate D2E/DX2 analytically  !
 ! D226  D(85,84,89,90)         58.5539         calculate D2E/DX2 analytically  !
 ! D227  D(85,84,89,91)        177.8306         calculate D2E/DX2 analytically  !
 ! D228  D(85,84,89,92)        -62.6611         calculate D2E/DX2 analytically  !
 --------------------------------------------------------------------------------
 Trust Radius=3.00D-02 FncErr=1.00D-07 GrdErr=1.00D-06 EigMax=2.50D+02 EigMin=1.00D-04
 Number of steps in this run=    528 maximum allowed number of steps=    600.
 Search for a saddle point of order  1.
 Step   0 in ReCalcFC=30 IGetFC= 4 compute analytic Hessian.
 GradGradGradGradGradGradGradGradGradGradGradGradGradGradGradGradGradGrad

 Leave Link  103 at Wed May  8 11:30:07 2019, MaxMem=  6442450944 cpu:              13.6 elap:               0.5
 (Enter /home/ekwan/sw/g16/l202.exe)
 Stoichiometry    C30H47F6NaO15S
 Framework group  C1[X(C30H47F6NaO15S)]
 Deg. of freedom   294
 Full point group                 C1      NOp   1
 Largest Abelian subgroup         C1      NOp   1
 Largest concise Abelian subgroup C1      NOp   1
                         Standard orientation:                         
 ---------------------------------------------------------------------
 Center     Atomic      Atomic             Coordinates (Angstroms)
 Number     Number       Type             X           Y           Z
 ---------------------------------------------------------------------
      1          6           0        4.022382   -2.018209   -1.026672
      2          6           0        2.668510   -2.699765   -1.242651
      3          6           0        2.139804   -3.281440    0.071222
      4          6           0        3.255668   -1.598224    1.385586
      5          6           0        3.962124   -1.031063    0.146884
      6          1           0        1.120036   -3.658239   -0.038687
      7          1           0        1.943731   -1.936448   -1.566101
      8          1           0        4.780260   -2.783098   -0.814125
      9          1           0        3.914586   -2.344281    1.848961
     10          1           0        3.405038   -0.151212   -0.201220
     11          8           0        2.017610   -2.234694    1.019643
     12          8           0        3.011788   -4.297563    0.490963
     13          8           0        2.816735   -3.674716   -2.259606
     14          8           0        4.386844   -1.272317   -2.189396
     15          8           0        5.250820   -0.632905    0.605053
     16          6           0        2.894658   -0.516509    2.423026
     17          1           0        3.853130   -0.252258    2.916128
     18          1           0        2.303172   -1.053618    3.196684
     19          8           0        2.237802    0.575381    1.906658
     20          6           0        1.582318   -4.174335   -2.757865
     21          1           0        1.086040   -4.835577   -2.035215
     22          1           0        0.890143   -3.360639   -3.012570
     23          1           0        1.816977   -4.749081   -3.657269
     24          6           0        5.211330   -1.972200   -3.110674
     25          1           0        6.157057   -2.281354   -2.639797
     26          1           0        4.706041   -2.855770   -3.511090
     27          1           0        5.434325   -1.275176   -3.923158
     28          6           0        5.997195    0.214685   -0.252115
     29          1           0        6.431624   -0.326684   -1.098552
     30          1           0        5.381781    1.035139   -0.645865
     31          1           0        6.802418    0.635406    0.356177
     32          6           0       -1.355908    1.996889    0.471169
     33          6           0       -0.523009    0.873932    1.092489
     34          6           0        0.523055    0.326761    0.148694
     35          6           0        0.492710    2.282029   -1.228538
     36          6           0       -0.430755    2.989451   -0.230695
     37          1           0        0.986307   -0.629861    0.331158
     38          1           0        0.080857    1.300176    1.906735
     39          1           0       -2.050408    1.578270   -0.265136
     40          1           0       -0.109605    1.866310   -2.039287
     41          1           0        0.174023    3.506330    0.525295
     42          8           0        1.200210    1.153768   -0.625938
     43          8           0       -0.910365   -2.674005   -0.365823
     44          8           0       -1.380920   -0.117669    1.592120
     45          8           0       -2.061310    2.704972    1.477111
     46          8           0       -1.168065    3.925869   -0.997893
     47          6           0        1.547733    3.189457   -1.818562
     48          1           0        1.034770    3.989849   -2.363845
     49          1           0        2.179416    2.628325   -2.519989
     50          8           0        2.342004    3.739747   -0.771231
     51         16           0       -1.415169   -1.686991   -1.338748
     52          8           0       -1.561860   -2.144319   -2.735296
     53          8           0       -0.635570   -0.367963   -1.312900
     54          6           0       -3.056444   -1.210907   -0.784929
     55          6           0       -3.533407   -1.694107    0.424810
     56          6           0       -3.792923   -0.297284   -1.535926
     57          6           0       -4.761006   -1.237042    0.903814
     58          1           0       -2.935957   -2.398180    0.989249
     59          6           0       -5.022780    0.142941   -1.049440
     60          1           0       -3.409589    0.071461   -2.480409
     61          6           0       -5.511022   -0.318280    0.174923
     62          1           0       -6.459677    0.039330    0.555353
     63          6           0       -0.817292   -0.944187    2.611819
     64          1           0       -0.044903   -1.606467    2.211867
     65          1           0       -0.390790   -0.330111    3.415210
     66          1           0       -1.648270   -1.532168    3.007208
     67          6           0       -3.402206    2.265495    1.678893
     68          1           0       -3.985990    2.354330    0.753871
     69          1           0       -3.438182    1.230947    2.032331
     70          1           0       -3.831523    2.926602    2.435931
     71          6           0       -1.363149    5.183081   -0.357317
     72          1           0       -1.926088    5.068584    0.573812
     73          1           0       -0.399906    5.668450   -0.143701
     74          1           0       -1.927888    5.802821   -1.057575
     75          6           0        3.191069    4.790865   -1.226215
     76          1           0        3.721435    5.174090   -0.352590
     77          1           0        3.914186    4.421244   -1.965228
     78          1           0        2.597934    5.597647   -1.674293
     79          6           0        2.522066   -5.018301    1.616048
     80          1           0        3.235216   -5.821746    1.812093
     81          1           0        2.442451   -4.375872    2.500908
     82          1           0        1.534270   -5.451065    1.403752
     83         11           0        3.087424    2.277881    0.905431
     84          8           0        5.169732    2.877259    1.663285
     85          6           0        5.569610    2.216771    2.861380
     86          1           0        5.917406    2.943801    3.607231
     87          1           0        4.694500    1.687642    3.240866
     88          1           0        6.369073    1.493563    2.657159
     89          6           0        6.228726    3.617120    1.071675
     90          1           0        7.079648    2.963940    0.837909
     91          1           0        5.845711    4.053126    0.147370
     92          1           0        6.567171    4.419190    1.741132
     93          6           0       -5.779511    1.204981   -1.795590
     94          9           0       -5.403248    2.447809   -1.395426
     95          9           0       -7.110715    1.117706   -1.590683
     96          9           0       -5.562844    1.143008   -3.125414
     97          6           0       -5.196480   -1.674491    2.272498
     98          9           0       -6.480650   -1.358478    2.533474
     99          9           0       -4.436022   -1.081822    3.230761
    100          9           0       -5.057958   -3.006881    2.442964
 ---------------------------------------------------------------------
 Rotational constants (GHZ):           0.0695846           0.0363740           0.0308245
 Leave Link  202 at Wed May  8 11:30:08 2019, MaxMem=  6442450944 cpu:               5.2 elap:               0.2
 (Enter /home/ekwan/sw/g16/l301.exe)
 Standard basis: 6-31G(d) (6D, 7F)
 Ernie: Thresh=  0.10000D-02 Tol=  0.10000D-05 Strict=F.
 There are   897 symmetry adapted cartesian basis functions of A   symmetry.
 There are   897 symmetry adapted basis functions of A   symmetry.
   897 basis functions,  1720 primitive gaussians,   897 cartesian basis functions
   214 alpha electrons      214 beta electrons
       nuclear repulsion energy      9574.4455778881 Hartrees.
 IExCor=  402 DFT=T Ex+Corr=B3LYP ExCW=0 ScaHFX=  0.200000
 ScaDFX=  0.800000  0.720000  1.000000  0.810000 ScalE2=  1.000000  1.000000
 IRadAn=      5 IRanWt=     -1 IRanGd=            0 ICorTp=0 IEmpDi=141
 NAtoms=  100 NActive=  100 NUniq=  100 SFac= 1.00D+00 NAtFMM=   60 NAOKFM=T Big=T
 Integral buffers will be    131072 words long.
 Raffenetti 2 integral format.
 Two-electron integral symmetry is turned on.
 R6Disp:  Grimme-D3(BJ) Dispersion energy=       -0.2354752245 Hartrees.
 Nuclear repulsion after empirical dispersion term =     9574.2101026636 Hartrees.
 Force inversion solution in PCM.
 ------------------------------------------------------------------------------
 Polarizable Continuum Model (PCM)
 =================================
 Model                : PCM.
 Atomic radii         : UFF (Universal Force Field).
 Polarization charges : Total charges.
 Charge compensation  : None.
 Solution method      : Matrix inversion.
 Cavity type          : Scaled VdW (van der Waals Surface) (Alpha=1.100).
 Cavity algorithm     : GePol (No added spheres)
                        Default sphere list used, NSphG=  100.
                        Lebedev-Laikov grids with approx.  5.0 points / Ang**2.
                        Smoothing algorithm: York/Karplus (Gamma=1.0000).
                        Polarization charges: spherical gaussians, with
                                              point-specific exponents (IZeta= 3).
                        Self-potential: point-specific (ISelfS= 7).
                        Self-field    : sphere-specific E.n sum rule (ISelfD= 2).
 1st derivatives      : Analytical E(r).r(x)/FMM algorithm (CHGder, D1EAlg=3).
                        Cavity 1st derivative terms included.
 2nd derivatives      : Analytical E(r).r(xy)/FMM algorithm (CHGder, D2EAlg=3).
                        Cavity 2nd derivative terms included.
 Solvent              : TetraHydroFuran, Eps=   7.425700 Eps(inf)=   1.974025
 ------------------------------------------------------------------------------
 GePol: Number of generator spheres                  =     100
 GePol: Total number of spheres                      =     100
 GePol: Number of exposed spheres                    =     100 (100.00%)
 GePol: Number of points                             =    6139
 GePol: Average weight of points                     =       0.12
 GePol: Minimum weight of points                     =   0.13D-11
 GePol: Maximum weight of points                     =    0.21593
 GePol: Number of points with low weight             =     485
 GePol: Fraction of low-weight points (<1% of avg)   =       7.90%
 GePol: Cavity surface area                          =    755.058 Ang**2
 GePol: Cavity volume                                =    972.375 Ang**3
 Leave Link  301 at Wed May  8 11:30:08 2019, MaxMem=  6442450944 cpu:              13.0 elap:               0.5
 (Enter /home/ekwan/sw/g16/l302.exe)
 NPDir=0 NMtPBC=     1 NCelOv=     1 NCel=       1 NClECP=     1 NCelD=      1
         NCelK=      1 NCelE2=     1 NClLst=     1 CellRange=     0.0.
 One-electron integrals computed using PRISM.
 One-electron integral symmetry used in STVInt
 NBasis=   897 RedAO= T EigKep=  4.06D-04  NBF=   897
 NBsUse=   897 1.00D-06 EigRej= -1.00D+00 NBFU=   897
 Precomputing XC quadrature grid using
 IXCGrd= 4 IRadAn=           5 IRanWt=          -1 IRanGd=           0 AccXCQ= 0.00D+00.
 Generated NRdTot=       0 NPtTot=           0 NUsed=           0 NTot=          32
 NSgBfM=   838   838   838   838   838 MxSgAt=   100 MxSgA2=   100.
 Leave Link  302 at Wed May  8 11:30:26 2019, MaxMem=  6442450944 cpu:             500.3 elap:              17.3
 (Enter /home/ekwan/sw/g16/l303.exe)
 DipDrv:  MaxL=1.
 Leave Link  303 at Wed May  8 11:30:26 2019, MaxMem=  6442450944 cpu:              15.7 elap:               0.6
 (Enter /home/ekwan/sw/g16/l401.exe)
 ExpMin= 2.60D-02 ExpMax= 2.19D+04 ExpMxC= 3.30D+03 IAcc=3 IRadAn=         5 AccDes= 0.00D+00
 Harris functional with IExCor=  402 and IRadAn=       5 diagonalized for initial guess.
 HarFok:  IExCor=  402 AccDes= 0.00D+00 IRadAn=         5 IDoV= 1 UseB2=F ITyADJ=14
 ICtDFT=  3500011 ScaDFX=  1.000000  1.000000  1.000000  1.000000
 FoFCou: FMM=F IPFlag=           0 FMFlag=      100000 FMFlg1=        2001
         NFxFlg=           0 DoJE=T BraDBF=F KetDBF=T FulRan=T
         wScrn=  0.000000 ICntrl=       500 IOpCl=  0 I1Cent=   200000004 NGrid=           0
         NMat0=    1 NMatS0=      1 NMatT0=    0 NMatD0=    1 NMtDS0=    0 NMtDT0=    0
 Petite list used in FoFCou.
 Harris En= -3459.37013444323    
 JPrj=0 DoOrth=F DoCkMO=F.
 Leave Link  401 at Wed May  8 11:30:46 2019, MaxMem=  6442450944 cpu:             600.1 elap:              19.5
 (Enter /home/ekwan/sw/g16/l502.exe)
 Integral symmetry usage will be decided dynamically.
 Closed shell SCF:
 Using DIIS extrapolation, IDIIS=  1040.
 NGot=  6442450944 LenX=  6440803163 LenY=  6439997657
 Requested convergence on RMS density matrix=1.00D-08 within 128 cycles.
 Requested convergence on MAX density matrix=1.00D-06.
 Requested convergence on             energy=1.00D-06.
 No special actions if energy rises.
 Fock matrices will be formed incrementally for  20 cycles.

 Cycle   1  Pass 1  IDiag  1:
 FoFJK:  IHMeth= 1 ICntrl=       0 DoSepK=F KAlg= 0 I1Cent=           0 FoldK=F
 IRaf= 850000000 NMat=       1 IRICut=       1 DoRegI=T DoRafI=F ISym2E= 0 IDoP0=0 IntGTp=1.
 FoFCou: FMM=T IPFlag=           0 FMFlag=      100000 FMFlg1=        2001
         NFxFlg=           0 DoJE=F BraDBF=F KetDBF=F FulRan=T
         wScrn=  0.000000 ICntrl=         0 IOpCl=  0 I1Cent=           0 NGrid=           0
         NMat0=    1 NMatS0=      1 NMatT0=    0 NMatD0=    1 NMtDS0=    0 NMtDT0=    0
 Symmetry not used in FoFCou.
 FMM levels:  10  Number of levels for PrismC:   9
 Inv3:  Mode=1 IEnd=   113061963.
 Iteration    1 A*A^-1 deviation from unit magnitude is 9.10D-15 for   3656.
[...]
 001148,0.00009638,0.00006050,0.00010927,0.00001398,-0.00042414,-0.0000
 3760,0.00013411,-0.00074604,-0.00040466,0.00047599,0.00000044,-0.00008
 697,0.00004988,0.00001013,0.00002674,0.00000464,0.00000229,-0.00000329
 ,-0.00000433,-0.00001817,-0.00000485,0.00000623,-0.00003458,-0.0000208
 1,0.00001626,-0.00019339,-0.00038766,-0.00010192,0.00006783,0.00006601
 ,0.00002202,0.00009531,0.00023545,0.00009917,-0.00011694,-0.00035835,0
 .00005395,0.00059131,0.00033366,0.00079497,-0.00028242,0.00008697,0.00
 010334,-0.00294678,0.00984838,-0.00090958,-0.00021843,-0.00004772,0.00
 019101,-0.00035717,0.00036430,-0.00063350,0.00001940,0.00002648,-0.000
 00522,0.00066019,-0.00037755,-0.00129240,0.00004198,-0.00002806,0.0000
 7287,0.00023692,0.00008089,0.00022461,-0.00008163,-0.00004994,0.000009
 71,0.00002108,-0.00000559,-0.00002567,0.00042093,-0.00052640,-0.000088
 19,0.00024963,0.00136614,-0.00029702,0.00000937,-0.00025950,0.00012745
 ,0.00035002,-0.00060753,-0.00004896,0.00002289,-0.00013288,0.00001227,
 0.00001773,0.00004734,-0.00000498,-0.00000993,0.00002616,0.00000625,-0
 .00001221,-0.00000854,-0.00000212,0.00000277,-0.00001185,0.00000994,0.
 00001872,0.00002203,-0.00001448,-0.00000040,-0.00000202,-0.00000120,-0
 .00000512,-0.00000027,0.00000605,-0.00000068,-0.00000313,0.00000107,-0
 .00002745,-0.00002733,0.00001048,0.00000177,0.00000234,-0.00000151,0.0
 0000110,0.00000002,0.00000141,0.00000979,0.00000590,0.00000339,0.00004
 340,-0.00000239,-0.00001425,-0.00001814,-0.00000178,0.00000909,0.00001
 391,-0.00000380,-0.00000146,0.00000069,-0.00000065,0.00000030,-0.00000
 005,-0.00000193,0.00000305,-0.00000384,0.00000133,0.00000231,0.0000121
 1,0.00000528,-0.00000893,-0.00000392,0.00000165,0.00000092,0.00000134,
 -0.00000145,0.00000075,-0.00000068,-0.00000111,0.00000043,0.00010638,-
 0.00018906,-0.00009629,0.00002602,0.00019567,0.00006820,0.00001138,0.0
 0003474,0.00000083,-0.00002177,0.00004672,-0.00005488,-0.03030028,-0.0
 9312356,-0.04909562,-0.00922774,0.01239374,0.00009329,0.07206093,0.132
 33012,-0.00002953,-0.00002092,0.00000161,-0.00004641,0.00005308,-0.000
 01316,-0.00012314,0.00001255,-0.00008569,-0.00006258,-0.00002458,-0.00
 002802,-0.00003676,0.00000568,-0.00002184,-0.00002092,0.00006128,-0.00
 002371,-0.00000630,-0.00002261,0.00002324,0.00001437,-0.00000090,-0.00
 000114,0.00001755,-0.00001031,0.00000396,-0.00000590,-0.00000848,0.000
 00925,0.00006954,0.00000258,0.00009539,0.00007060,-0.00007001,0.000099
 95,0.00007711,-0.00001741,0.00002951,0.00003849,0.00000248,-0.00000344
 ,0.00004612,0.00001484,0.00001924,0.00001490,0.00014778,-0.00009871,0.
 00003292,-0.00002649,0.00003375,-0.00001700,-0.00004860,0.00004449,0.0
 0013461,-0.00000906,0.00022832,-0.00006388,0.00003093,-0.00003852,0.00
 000132,0.00001011,-0.00000259,-0.00002130,-0.00002357,0.00003182,0.000
 01540,-0.00000944,-0.00000487,-0.00002431,0.00000914,0.00000804,0.0000
 0927,-0.00000291,0.00000388,-0.00000246,0.00000218,0.00000197,-0.00000
 086,-0.00000045,-0.00000160,-0.00001399,-0.00000720,0.00000087,-0.0000
 0105,0.00000163,-0.00000203,0.00000295,-0.00000437,-0.00000209,0.00000
 702,0.00000347,0.00000224,-0.00005616,-0.00025166,-0.00040572,0.000161
 45,0.00011635,0.00003231,-0.00089945,-0.00064253,-0.00085719,-0.000006
 38,-0.00013258,-0.00001584,0.00001408,-0.00006362,0.00005593,0.0000058
 2,0.00009998,0.00003690,0.00000449,0.00004142,0.00002739,-0.00001236,-
 0.00009568,0.00004080,-0.00002008,-0.00001808,0.00003234,0.00003370,0.
 00004455,0.00000021,0.00022922,0.00030183,0.00005226,0.00111940,-0.000
 52123,0.00011601,0.00008804,-0.00006315,0.00073148,-0.00009549,0.00007
 603,0.00041801,-0.00001137,0.00012848,0.00003888,-0.00005981,-0.000040
 66,-0.00001085,0.00000570,0.00000641,0.00000414,0.00000307,0.00000335,
 0.00000634,0.00007379,0.00006758,0.00003323,-0.00368910,0.00046032,0.0
 0104557,0.00086244,-0.00033658,-0.00082032,0.00178075,0.00098050,0.000
 20524,0.00081558,0.00109451,0.00059944,-0.00271467,0.00141380,-0.00081
 161,-0.00044031,0.00077107,-0.00117974,-0.02502979,-0.01448454,-0.0437
 4353,-0.00024108,-0.00083927,-0.00050429,0.00165387,0.00254158,-0.0012
 1743,-0.00012246,-0.00019369,-0.00011129,0.00347799,-0.00399053,-0.001
 50637,-0.00066927,-0.00090659,-0.00028785,0.00021806,0.00101878,-0.000
 59261,-0.00012084,-0.00015095,0.00008121,0.00006500,-0.00003397,0.0001
 0171,0.00080238,-0.00081899,-0.00012765,-0.00001669,0.00052997,-0.0002
 2263,0.00002651,-0.00024753,0.00013408,0.00036535,0.00047339,-0.000972
 57,0.00000674,0.00010015,0.00006223,0.00001119,-0.00009973,-0.00006353
 ,-0.00000982,0.00000770,0.00000998,0.00001548,0.00001435,0.00000827,-0
 .00000364,0.00000353,0.00000498,-0.00002675,-0.00003716,0.00000941,0.0
 0001057,0.00000706,0.00000369,0.00000241,0.00000480,-0.00000345,0.0000
 0219,0.00000393,-0.00000542,0.00001210,0.00001856,-0.00007764,0.000001
 46,-0.00000618,0.00000746,0.00000177,0.00000918,0.00001724,-0.00000197
 ,-0.00000084,0.00000085,-0.00004186,-0.00005114,-0.00006381,-0.0000050
 6,0.00000149,0.00002960,0.00000003,0.00000634,-0.00002018,0.00000627,0
 .00000471,0.00000329,-0.00000433,-0.00000727,-0.00000656,-0.00000252,0
 .00000027,0.00000202,0.00000698,0.00000215,-0.00000984,-0.00000317,0.0
 0000083,-0.00000011,-0.00000123,-0.00000392,0.00000084,0.00000100,0.00
 000216,0.00000249,0.00211692,-0.00225097,0.00121789,-0.00026822,0.0012
 7122,-0.00004228,-0.00077514,0.00045408,-0.00025661,-0.00033550,0.0005
 0167,-0.00088073,-0.06379710,-0.05045029,-0.18069872,-0.02340238,-0.00
 035091,0.00915912,0.11561493,0.09145535,0.21520690,0.00001217,0.000007
 02,-0.00001270,0.00000519,-0.00001322,-0.00001701,0.00003490,-0.000019
 55,-0.00001355,0.00003053,0.00001333,0.00001028,0.00001566,0.00000674,
 0.00000022,0.00000701,-0.00001367,-0.00000610,0.00000074,0.00000349,-0
 .00000331,-0.00000303,0.00000005,0.00000123,-0.00000608,0.00000217,-0.
 00000180,0.00000126,-0.00000087,-0.00000416,-0.00004409,0.00000408,0.0
 0001439,-0.00002957,0.00001202,0.00000528,-0.00001182,0.00000997,0.000
 01608,-0.00001747,-0.00000335,0.00002140,-0.00002147,-0.00000406,0.000
 00918,0.00001349,-0.00002145,-0.00000017,-0.00001439,0.00000239,-0.000
 00672,-0.00000087,-0.00000026,0.00000759,-0.00005696,-0.00000782,-0.00
 001201,0.00000496,-0.00000219,-0.00000331,-0.00000008,-0.00000518,0.00
 000189,0.00000473,0.00000234,-0.00000622,-0.00000345,0.00000295,0.0000
 0385,0.00001053,-0.00000679,-0.00000916,-0.00000237,0.00000145,-0.0000
 0006,0.00000024,0.00000144,-0.00000026,-0.00000151,-0.00000065,0.00000
 260,0.00000980,0.00001058,-0.00001009,-0.00000158,-0.00000002,0.000003
 07,0.00000118,-0.00000135,0.00000073,-0.00000273,-0.00000216,-0.000000
 53,-0.00001234,0.00002198,0.00000700,0.00006572,0.00011093,-0.00004489
 ,0.00013233,0.00007336,0.00003599,-0.00000907,0.00003495,-0.00002186,0
 .00000748,0.00003277,-0.00001992,0.00000632,-0.00001059,-0.00000852,-0
 .00001031,-0.00001138,-0.00000013,0.00000055,0.00001039,-0.00000500,0.
 00000405,0.00000129,-0.00000235,-0.00000193,-0.00000417,0.00000090,-0.
 00005794,-0.00007498,0.00005176,-0.00014539,0.00001175,0.00011974,-0.0
 0007758,-0.00011480,0.00005004,-0.00002447,-0.00006057,0.00000973,0.00
 001349,-0.00005435,0.00001354,0.00001124,0.00000954,-0.00000007,-0.000
 00153,-0.00000418,-0.00000051,-0.00000377,-0.00000082,-0.00000025,-0.0
 0001711,-0.00001866,0.00000291,0.00035762,0.00006439,-0.00041805,-0.00
 004946,0.00002256,0.00016380,-0.00018252,-0.00013550,0.00003213,0.0004
 2686,-0.00040079,-0.00065620,-0.00146189,-0.00009753,0.00014212,0.0001
 0612,-0.00011857,0.00015682,0.01127883,-0.00587567,0.00293439,0.000910
 28,-0.00054073,0.00051101,0.00055740,-0.00068095,0.00040939,0.00007390
 ,-0.00000070,0.00005324,-0.00162782,-0.00021724,0.00113880,0.00024371,
 -0.00017059,0.00040326,0.00017239,0.00014518,-0.00005965,-0.00000945,-
 0.00002269,0.00000988,-0.00003438,-0.00003645,0.00000170,0.00002125,-0
 .00002454,0.00005005,0.00000517,0.00013428,-0.00001309,-0.00000182,-0.
 00000476,0.00001529,0.00007716,0.00002420,-0.00008527,-0.00000244,-0.0
 0002929,-0.00001078,-0.00000296,0.00002933,0.00001266,-0.00000164,0.00
 000239,-0.00000315,-0.00000220,-0.00000397,-0.00000298,0.00000145,-0.0
 0000551,0.00000231,0.00000884,0.00001383,-0.00000656,-0.00000155,-0.00
 000103,-0.00000081,-0.00000173,-0.00000075,0.00000198,-0.00000002,-0.0
 0000232,0.00000164,0.00001449,0.00000106,-0.00000340,-0.00000582,0.000
 00340,0.00000022,0.00000435,0.00000201,0.00000551,-0.00000298,-0.00000
 615,-0.00000546,0.00001775,0.00001706,-0.00000034,-0.00000777,-0.00000
 779,0.00000403,0.00000803,0.00000098,-0.00000141,-0.00000094,-0.000001
 91,-0.00000020,-0.00000081,0.00000139,0.00000333,-0.00000007,0.,0.0000
 0073,0.00000619,0.00000512,-0.00000391,-0.00000107,0.00000026,0.000000
 38,0.00000057,-0.00000031,0.00000120,-0.00000121,-0.00000133,-0.000000
 59,-0.00038795,0.00030907,-0.00005389,0.00005009,-0.00015983,0.0000143
 8,0.00016358,-0.00005196,0.00000800,0.00007056,-0.00009381,0.00016846,
 -0.07354387,0.01184741,0.00054482,-0.02212104,0.05661040,-0.00256037,0
 .00622896,-0.03033711,-0.00680846,0.07883320,0.00000641,-0.00000101,-0
 .00001205,0.00004237,-0.00006964,-0.00001047,0.00004031,-0.00016865,-0
 .00000895,0.00002152,-0.00000369,0.00001536,0.00003713,-0.00001694,0.0
 0000557,0.00001152,-0.00002600,0.00003002,-0.00000051,0.00001966,-0.00
 001953,-0.00001360,0.00000325,0.00000407,-0.00001881,0.00001576,-0.000
 00255,0.00000863,0.00000960,-0.00001591,-0.00005576,0.00013570,0.00000
 912,-0.00002338,0.00014464,-0.00008623,-0.00000165,0.00007388,0.000025
 07,-0.00002228,0.00001821,0.00001623,-0.00002919,0.00002481,0.00000645
 ,0.00005472,-0.00020610,0.00007624,-0.00004313,0.00003046,-0.00002912,
 0.00001211,0.00003147,-0.00002127,-0.00023917,0.00010719,-0.00012402,-
 0.00001906,-0.00006384,0.00003033,0.00000767,0.00001031,-0.00001463,0.
 00001054,0.00001415,-0.00002013,-0.00000737,0.00000991,0.00000415,0.00
 001842,-0.00001653,-0.00001331,-0.00000630,0.00000194,-0.00000178,0.00
 000084,0.00000201,0.00000352,-0.00000004,0.00000156,0.00000061,0.00001
 668,-0.00000073,-0.00000705,-0.00000289,0.00000117,0.00000473,-0.00000
 287,0.00000417,-0.00000107,-0.00000295,-0.00000317,-0.00000130,0.00018
 762,-0.00002359,-0.00004041,0.00007712,0.00023482,-0.00013248,0.000539
 13,0.00023960,0.00026698,0.00001235,0.00003155,-0.00003865,0.00001850,
 0.00012738,-0.00007900,0.00001277,-0.00009139,-0.00000064,-0.00002076,
 -0.00004684,0.00000429,0.00001401,0.00007160,-0.00001954,0.00001484,0.
 00001011,-0.00001427,-0.00001465,-0.00002872,0.00000461,-0.00021635,-0
 .00016241,0.00008552,-0.00064647,0.00064835,-0.00012623,-0.00049382,-0
 .00003439,-0.00014332,-0.00051777,-0.00027103,0.00013649,-0.00000251,-
 0.00015820,0.00004162,0.00004731,0.00004657,0.00000380,-0.00000018,-0.
 00000704,-0.00000746,-0.00002315,-0.00000576,0.00000487,-0.00008338,-0
 .00005869,0.00000647,0.00216869,-0.00109182,-0.00071199,-0.00051520,0.
 00041391,0.00061726,-0.00098650,-0.00025286,0.00002479,-0.00020544,0.0
 0069728,0.00097336,0.00332760,-0.00024387,-0.00016418,-0.00024800,-0.0
 0039993,0.00026547,0.00449153,-0.03265395,0.01235962,-0.00165933,-0.00
 051664,-0.00018311,0.00128375,-0.00043462,0.00135874,-0.00012438,-0.00
 003320,-0.00005332,-0.00498027,0.00002356,0.00303514,-0.00032044,0.000
 04267,-0.00079751,0.00019944,-0.00011730,0.00026596,-0.00008611,-0.000
 03325,0.00000912,-0.00003303,-0.00000076,-0.00006402,0.00024835,-0.000
 25069,0.00004187,0.00032964,0.00057556,-0.00009752,-0.00002793,0.00003
 388,-0.00000375,0.00023446,0.00000186,-0.00005415,-0.00001321,-0.00009
 201,-0.00003292,0.00001444,0.00010056,0.00002408,-0.00000455,0.0000163
 1,0.00000429,-0.00002260,-0.00001641,-0.00000802,0.00000754,-0.0000124
 9,0.00000554,0.00003864,0.00004496,-0.00002490,-0.00000492,-0.00000612
 ,-0.00000337,-0.00000825,-0.00000202,0.00001045,-0.00000261,-0.0000056
 4,0.00000340,-0.00007669,-0.00007146,0.00006574,0.00000590,0.00000666,
 -0.00000746,0.00000069,-0.00000450,-0.00000850,0.00002518,0.00001571,0
 .00000922,0.00008105,0.00001554,0.00000826,-0.00002486,0.00000023,-0.0
 0000060,0.00002168,-0.00001096,0.00000776,-0.00000151,-0.00000243,-0.0
 0000092,0.00000239,-0.00000023,0.00000710,-0.00000554,0.00000214,0.000
 00276,0.00001420,0.00000489,-0.00000860,-0.00000468,0.00000235,0.00000
 147,0.00000256,-0.00000039,0.00000030,-0.00000107,-0.00000223,-0.00000
 008,-0.00130455,0.00155799,-0.00081356,0.00014333,-0.00065113,0.000112
 62,0.00051740,-0.00026958,0.00022656,0.00025519,-0.00045628,0.00095195
 ,0.00753415,-0.24958114,0.04852687,0.04282457,-0.03648705,-0.00280351,
 -0.02168078,-0.06103334,-0.02699964,-0.03013442,0.38057278,-0.00001884
 ,-0.00001080,0.00000758,-0.00003284,0.00004334,0.00000005,-0.00007762,
 0.00005698,-0.00003366,-0.00004340,-0.00001348,-0.00002033,-0.00003059
 ,0.00000448,-0.00001155,-0.00001460,0.00003809,-0.00001764,-0.00000297
 ,-0.00001620,0.00001664,0.00001090,-0.00000132,-0.00000196,0.00001496,
 -0.00000952,0.00000301,-0.00000515,-0.00000603,0.00000960,0.00005987,-
 0.00003592,0.00003669,0.00004678,-0.00007446,0.00006871,0.00004103,-0.
 00002723,0.00000413,0.00002853,-0.00000259,-0.00001167,0.00003460,0.00
 000074,0.00000429,-0.00001283,0.00012640,-0.00006395,0.00003017,-0.000
 01987,0.00002446,-0.00001066,-0.00002912,0.00002270,0.00013946,-0.0000
 3114,0.00013431,-0.00002813,0.00002886,-0.00002397,-0.00000128,0.00000
 441,0.00000104,-0.00001391,-0.00001518,0.00002129,0.00000970,-0.000007
 30,-0.00000433,-0.00001909,0.00001022,0.00000949,0.00000663,-0.0000022
 3,0.00000232,-0.00000144,0.00000016,0.00000014,0.00000004,-0.00000041,
 -0.00000164,-0.00001361,-0.00000624,0.00000516,0.00000072,0.00000043,-
 0.00000309,0.00000178,-0.00000273,-0.00000086,0.00000476,0.00000309,0.
 00000156,-0.00005667,-0.00011962,-0.00019445,0.00003503,-0.00002260,0.
 00006129,-0.00057149,-0.00036434,-0.00045154,-0.00000422,-0.00007812,0
 .00000857,-0.00000096,-0.00006730,0.00005123,-0.00000453,0.00006878,0.
 00001996,0.00000839,0.00002967,0.00001199,-0.00000997,-0.00006379,0.00
 002386,-0.00001386,-0.00001111,0.00001870,0.00001933,0.00002853,-0.000
 00164,0.00017116,0.00019500,-0.00001325,0.00070229,-0.00037135,0.00001
 456,0.00021007,0.00002824,0.00031631,0.00004985,0.00008636,0.00017165,
 -0.00000843,0.00011300,0.00000243,-0.00004185,-0.00003228,-0.00000553,
 0.00000298,0.00000579,0.00000383,0.00000802,0.00000308,0.00000172,0.00
 005910,0.00005062,0.00001226,-0.00224564,0.00035848,0.00084222,0.00052
 319,-0.00023854,-0.00054544,0.00104266,0.00054309,0.00005424,-0.000488
 88,-0.00049398,0.00015745,-0.00039045,0.00058429,-0.00102449,-0.000318
 62,0.00091168,-0.00062589,-0.00286529,0.03928029,-0.00465845,0.0003803
 6,0.00071935,-0.00047088,-0.00084734,-0.00007497,-0.00231159,0.0000222
 2,0.00007179,0.00002716,0.00475663,0.00001525,-0.00155505,0.00013349,0
 .00042081,0.00049826,0.00000730,0.00028491,-0.00028864,-0.00001928,-0.
 00003298,0.00002235,0.00003545,-0.00000268,0.00005905,0.00006207,-0.00
 008418,-0.00002274,-0.00009268,0.00013490,-0.00010424,0.00002349,-0.00
 015234,0.00006038,0.00006985,0.00002431,-0.00024555,0.00001492,0.00005
 659,0.00004677,0.00000303,-0.00007844,-0.00003825,-0.00000274,-0.00000
 017,0.00000459,0.00001287,0.00001164,0.00000687,-0.00000408,0.00000622
 ,0.00000018,-0.00002434,-0.00003224,0.00001261,0.00000630,0.00000496,0
 .00000281,0.00000365,0.00000283,-0.00000485,0.00000166,0.00000389,-0.0
 0000374,0.00002144,0.00002720,-0.00005371,0.00000072,-0.00000553,0.000
 00537,0.00000011,0.00000558,0.00000917,-0.00000650,-0.00000320,-0.0000
 0125,-0.00004487,-0.00003102,-0.00002936,0.00000713,0.00000284,0.00001
 188,-0.00000878,0.00000565,-0.00001065,0.00000339,0.00000331,0.0000017
 6,-0.00000229,-0.00000341,-0.00000581,0.00000054,-0.00000047,-0.000000
 18,-0.00000275,-0.00000198,-0.00000074,0.00000022,-0.00000035,-0.00000
 061,-0.00000139,-0.00000154,-0.00000010,0.00000107,0.00000198,0.000001
 31,0.00121354,-0.00176423,0.00060246,-0.00012093,0.00070210,-0.0000689
 7,-0.00052992,0.00028923,-0.00015318,-0.00023520,0.00050369,-0.0007764
 1,0.00170509,0.04340587,-0.08644582,0.00152179,-0.00815341,0.01323623,
 -0.00770370,-0.04083822,0.00566652,0.00372426,-0.03587285,0.07788649\\
 -0.00000113,-0.00000056,-0.00000005,-0.00000065,-0.00000012,0.00000027
 ,0.00000028,0.00000032,-0.00000081,-0.00000078,0.00000112,-0.00000109,
 -0.00000041,-0.00000124,0.00000010,-0.00000095,-0.00000009,0.00000078,
 -0.00000099,-0.00000042,-0.00000021,-0.00000074,-0.00000148,-0.0000004
 5,-0.00000001,-0.00000016,0.00000039,-0.00000028,-0.00000097,-0.000000
 33,-0.00000327,-0.00000192,0.00000035,-0.00000087,-0.00000028,-0.00000
 010,-0.00000163,-0.00000061,-0.00000048,-0.00000050,-0.00000161,-0.000
 00112,-0.00000254,-0.00000408,-0.00000139,0.00000099,0.00000096,-0.000
 00132,-0.00000021,-0.00000104,-0.00000016,-0.00000058,0.00000002,-0.00
 000016,0.00000173,-0.00000051,-0.00000071,-0.00000131,-0.00000124,0.00
 000063,-0.00000176,-0.00000043,0.00000037,-0.00000196,0.00000026,0.000
 00022,-0.00000207,-0.00000039,0.00000006,-0.00000145,-0.00000151,-0.00
 000017,-0.00000121,-0.00000166,-0.00000065,-0.00000143,-0.00000115,-0.
 00000042,-0.00000107,-0.00000151,-0.00000082,0.00000036,-0.00000120,-0
 .00000141,-0.00000047,-0.00000153,-0.00000058,0.00000066,-0.00000165,-
 0.00000166,0.00000014,-0.00000158,-0.00000108,0.00000170,0.00000087,-0
 .00000034,0.00000093,0.00000034,-0.00000114,-0.00000011,0.00000020,0.0
 0000454,0.00000017,0.00000053,-0.00000029,0.00000113,0.00000020,-0.000
 00030,0.00000664,-0.00000015,0.00000084,-0.00000049,-0.00000051,0.0000
 0077,0.00000045,0.00000092,0.00000046,0.00000050,-0.00000120,-0.000000
 03,-0.00000019,0.00000052,0.00000018,-0.00000147,-0.00000180,-0.000001
 93,-0.00000166,0.00000097,-0.00000022,-0.00000096,0.00000206,0.0000013
 4,0.00000014,0.00000186,-0.00000005,0.00000133,0.00000068,-0.00000003,
 -0.00000141,0.00000176,0.00000045,0.00000086,0.00000009,0.00000039,0.0
 0000026,-0.00000081,-0.00000124,-0.00000076,0.00000160,-0.00000202,-0.
 00000072,-0.00000061,-0.00000060,-0.00000130,-0.00000007,0.00000060,-0
 .00000144,-0.00000041,0.00000016,-0.00000088,0.00000179,0.00000133,-0.
 00000075,0.00000023,0.00000007,-0.00000014,0.00000121,0.00000166,0.000
 00040,0.00000209,0.00000125,-0.00000072,0.00000138,0.00000075,0.000000
 36,0.00000274,0.00000148,-0.00000036,0.00000130,0.00000063,-0.00000058
 ,0.00000082,0.00000049,-0.00000022,0.00000236,0.00000140,0.00000065,-0
 .00000025,0.00000017,-0.00000024,0.00000044,0.00000023,0.00000034,0.00
 000072,0.00000006,0.00000009,0.00000115,0.00000055,0.00000155,0.000001
 15,0.00000036,0.00000081,0.00000138,0.00000060,0.00000030,0.00000083,0
 .00000077,0.00000108,0.00000163,0.00000091,0.00000079,0.00000023,0.000
 00055,0.00000160,0.00000094,-0.00000010,0.00000169,0.00000039,-0.00000
 022,0.00000136,0.00000076,-0.00000010,-0.00000028,-0.00000008,-0.00000
 099,0.00000180,-0.00000091,-0.00000087,0.00000110,-0.00000122,-0.00000
 065,0.00000120,-0.00000054,-0.00000088,-0.00000163,-0.00000016,-0.0000
 0020,-0.00000113,-0.00000085,0.00000022,-0.00000094,-0.00000025,0.0000
 0020,-0.00000123,-0.00000007,0.00000033,0.00000214,-0.00000263,0.00000
 146,0.00000497,-0.00000271,-0.00000174,0.00000151,-0.00000038,0.000000
 81,0.00000120,-0.00000103,-0.00000105,0.00000104,-0.00000093,-0.000000
 87,0.00000070,-0.00000104,-0.00000099,0.00000053,-0.00000007,-0.000000
 99,0.00000113,-0.00000179,-0.00000098,0.00000099,-0.00000178,-0.000001
 59,0.00000116,-0.00000162,-0.00000147,0.00000015,0.00000131,0.00000078
 ,0.00000011,0.00000107,0.00000077,0.00000014,0.00000247,0.00000134,-0.
 00000071,0.00000125,0.00000084,-0.00000055,0.00000151,0.00000039,-0.00
 000015,0.00000249,0.00000164,0.00000089,0.00000224,0.00000095,-0.00000
 076,0.00000168,0.00000115\\\@


 BLACK HOLES SUCK.
 Job cpu time:       4 days  9 hours 57 minutes 52.3 seconds.
 Elapsed time:       0 days  3 hours 37 minutes 10.1 seconds.
 File lengths (MBytes):  RWF=   9769 Int=      0 D2E=      0 Chk=     85 Scr=      1
 Normal termination of Gaussian 16 at Wed May  8 18:40:00 2019.
