 Entering Gaussian System, Link 0=g16
 Input=clay_new-glu_gluC6-BDUL-Na_1Me2O-bisCF3-ts-b3lyp_d3bj-631gd-pcm_thf.gjf
 Output=clay_new-glu_gluC6-BDUL-Na_1Me2O-bisCF3-ts-b3lyp_d3bj-631gd-pcm_thf.out
 Initial command:
 /home/ekwan/sw/g16/l1.exe "/scratch/users/ekwan/clay_new-glu_gluC6-BDUL-Na_1Me2O-bisCF3-ts-b3lyp_d3bj-631gd-pcm_thf/Gau-52383.inp" -scrdir="/scratch/users/ekwan/clay_new-glu_gluC6-BDUL-Na_1Me2O-bisCF3-ts-b3lyp_d3bj-631gd-pcm_thf/"
 Entering Link 1 = /home/ekwan/sw/g16/l1.exe PID=     52384.
  
 Copyright (c) 1988,1990,1992,1993,1995,1998,2003,2009,2016,
            Gaussian, Inc.  All Rights Reserved.
  
 This is part of the Gaussian(R) 16 program.  It is based on
 the Gaussian(R) 09 system (copyright 2009, Gaussian, Inc.),
 the Gaussian(R) 03 system (copyright 2003, Gaussian, Inc.),
 the Gaussian(R) 98 system (copyright 1998, Gaussian, Inc.),
 the Gaussian(R) 94 system (copyright 1995, Gaussian, Inc.),
 the Gaussian 92(TM) system (copyright 1992, Gaussian, Inc.),
 the Gaussian 90(TM) system (copyright 1990, Gaussian, Inc.),
 the Gaussian 88(TM) system (copyright 1988, Gaussian, Inc.),
 the Gaussian 86(TM) system (copyright 1986, Carnegie Mellon
 University), and the Gaussian 82(TM) system (copyright 1983,
 Carnegie Mellon University). Gaussian is a federally registered
 trademark of Gaussian, Inc.
  
 This software contains proprietary and confidential information,
 including trade secrets, belonging to Gaussian, Inc.
  
 This software is provided under written license and may be
 used, copied, transmitted, or stored only in accord with that
 written license.
  
 The following legend is applicable only to US Government
 contracts under FAR:
  
                    RESTRICTED RIGHTS LEGEND
  
 Use, reproduction and disclosure by the US Government is
 subject to restrictions as set forth in subparagraphs (a)
 and (c) of the Commercial Computer Software - Restricted
 Rights clause in FAR 52.227-19.
  
 Gaussian, Inc.
 340 Quinnipiac St., Bldg. 40, Wallingford CT 06492
  
  
 ---------------------------------------------------------------
 Warning -- This program may not be used in any manner that
 competes with the business of Gaussian, Inc. or will provide
 assistance to any competitor of Gaussian, Inc.  The licensee
 of this program is prohibited from giving any competitor of
 Gaussian, Inc. access to this program.  By using this program,
 the user acknowledges that Gaussian, Inc. is engaged in the
 business of creating and licensing software in the field of
 computational chemistry and represents and warrants to the
 licensee that it is not a competitor of Gaussian, Inc. and that
 it will not use this program in any manner prohibited above.
 ---------------------------------------------------------------
  

 Cite this work as:
 Gaussian 16, Revision A.03,
 M. J. Frisch, G. W. Trucks, H. B. Schlegel, G. E. Scuseria, 
 M. A. Robb, J. R. Cheeseman, G. Scalmani, V. Barone, 
 G. A. Petersson, H. Nakatsuji, X. Li, M. Caricato, A. V. Marenich, 
 J. Bloino, B. G. Janesko, R. Gomperts, B. Mennucci, H. P. Hratchian, 
 J. V. Ortiz, A. F. Izmaylov, J. L. Sonnenberg, D. Williams-Young, 
 F. Ding, F. Lipparini, F. Egidi, J. Goings, B. Peng, A. Petrone, 
 T. Henderson, D. Ranasinghe, V. G. Zakrzewski, J. Gao, N. Rega, 
 G. Zheng, W. Liang, M. Hada, M. Ehara, K. Toyota, R. Fukuda, 
 J. Hasegawa, M. Ishida, T. Nakajima, Y. Honda, O. Kitao, H. Nakai, 
 T. Vreven, K. Throssell, J. A. Montgomery, Jr., J. E. Peralta, 
 F. Ogliaro, M. J. Bearpark, J. J. Heyd, E. N. Brothers, K. N. Kudin, 
 V. N. Staroverov, T. A. Keith, R. Kobayashi, J. Normand, 
 K. Raghavachari, A. P. Rendell, J. C. Burant, S. S. Iyengar, 
 J. Tomasi, M. Cossi, J. M. Millam, M. Klene, C. Adamo, R. Cammi, 
 J. W. Ochterski, R. L. Martin, K. Morokuma, O. Farkas, 
 J. B. Foresman, and D. J. Fox, Gaussian, Inc., Wallingford CT, 2016.
 
 ******************************************
 Gaussian 16:  AS64L-G16RevA.03 25-Dec-2016
                 9-May-2019 
 ******************************************
 %mem=48GB
 %nprocshared=32
 Will use up to   32 processors via shared memory.
 ----------------------------------------------------------------------
 #p opt=(ts,noeigentest,calcfc,maxstep=3,modredundant,recalc=30) freq=n
 oraman b3lyp 6-31g* pop=none scrf=(solvent=tetrahydrofuran,pcm) empiri
 caldispersion=gd3bj
 ----------------------------------------------------------------------
 1/5=1,8=3,10=4,11=1,18=120,26=3,38=1,71=30/1,3;
 2/9=110,12=2,17=6,18=5,40=1/2;
 3/5=1,6=6,7=1,11=2,25=1,30=1,70=2201,71=2,72=20,74=-5,124=41,140=1/1,2,3;
 4//1;
 5/5=2,38=5,53=20/2;
 8/6=4,10=90,11=11/1;
 11/6=1,8=1,9=11,15=111,16=1/1,2,10;
 10/6=1,13=1/2;
 7/10=1,18=20,25=1/1,2,3,16;
 1/5=1,8=3,10=4,11=1,18=20,26=3,71=30/3(2);
 2/9=110/2;
 99//99;
 2/9=110/2;
 3/5=1,6=6,7=1,11=2,25=1,30=1,70=2205,71=1,72=20,74=-5,124=41/1,2,3;
 4/5=5,16=3,69=1/1;
 5/5=2,38=5,53=20/2;
 7//1,2,3,16;
 1/5=1,8=3,11=1,18=20,26=3,71=30/3(-5);
 2/9=110/2;
 99/9=1/99;
 Leave Link    1 at Thu May  9 08:24:02 2019, MaxMem=  6442450944 cpu:               6.3 elap:               0.2
 (Enter /home/ekwan/sw/g16/l101.exe)
 -----
 title
 -----
 Symbolic Z-matrix:
 Charge =  0 Multiplicity = 1
 C                     4.54499  -2.68958  -0.00556 
 C                     5.44048  -1.46637   0.18817 
 C                     4.66434  -0.20147  -0.20263 
 C                     2.55237  -1.14575   0.5112 
 C                     3.21041  -2.51593   0.72556 
 H                     5.24345   0.71206  -0.00887 
 H                     5.69894  -1.38187   1.25491 
 H                     4.33783  -2.80989  -1.07534 
 H                     2.12799  -1.11462  -0.50032 
 H                     3.39865  -2.64918   1.80153 
 O                     3.51973  -0.07022   0.62981 
 O                     4.35853  -0.30151  -1.56223 
 O                     6.61487  -1.64095  -0.58301 
 O                     5.16698  -3.86223   0.51041 
 O                     2.27912  -3.48833   0.26405 
 C                     1.446    -0.86975   1.55125 
 H                     1.92059  -1.04025   2.5468 
 H                     0.72296  -1.70284   1.42594 
 O                     0.87249   0.37274   1.45288 
 C                     7.69813  -0.8159   -0.18571 
 H                     7.50123   0.24907  -0.3713 
 H                     7.93099  -0.95021   0.88074 
 H                     8.56127  -1.12016  -0.78207 
 C                     5.84492  -4.64525  -0.46289 
 H                     5.15668  -4.97399  -1.25507 
 H                     6.6751   -4.09362  -0.91577 
 H                     6.23085  -5.52569   0.05807 
 C                     2.15993  -4.6378    1.08897 
 H                     3.12026  -5.1517    1.19936 
 H                     1.77342  -4.3745    2.08395 
 H                     1.44154  -5.29773   0.59824 
 C                    -1.83423   3.09506   0.06135 
 C                    -1.42008   1.68684   0.48862 
 C                    -0.48418   1.0334   -0.49953 
 C                     0.21211   3.12597  -1.41719 
 C                    -0.58585   3.87666  -0.34482 
 H                    -0.2852   -0.02017  -0.4438 
 H                    -0.80612   1.77551   1.39023 
 H                    -2.52866   3.04397  -0.78329 
 H                    -0.38376   3.07504  -2.33196 
 H                     0.04219   4.02342   0.5409 
 O                     0.49357   1.74477  -1.03143 
 O                    -1.51821   0.86071  -2.11552 
 O                    -2.55124   0.89315   0.7534 
 O                    -2.42663   3.77525   1.15916 
 O                    -0.92907   5.12151  -0.93247 
 C                     1.54616   3.76403  -1.73619 
 H                     1.35406   4.79445  -2.05746 
 H                     2.03734   3.22596  -2.55745 
 O                     2.37312   3.75074  -0.57739 
 S                    -2.97782   0.46765  -2.41369 
 O                    -3.06624   0.01867  -3.81639 
 O                    -3.94947   1.49363  -1.99312 
 C                    -3.26296  -0.97443  -1.38261 
 C                    -2.26275  -1.93316  -1.23796 
 C                    -4.48759  -1.10894  -0.73961 
 C                    -2.49631  -3.03386  -0.41557 
 H                    -1.3109   -1.81608  -1.74212 
 C                    -4.70923  -2.22277   0.06972 
 H                    -5.2373   -0.33485  -0.84559 
 C                    -3.71891  -3.18809   0.23833 
 H                    -3.8921   -4.04398   0.87987 
 C                    -2.37567  -0.04635   1.81373 
 H                    -1.61943  -0.79956   1.57204 
 H                    -2.07898   0.46411   2.73795 
 H                    -3.34547  -0.52512   1.95543 
 C                    -3.85062   3.7202    1.17473 
 H                    -4.27047   4.18791   0.27381 
 H                    -4.20852   2.68851   1.24121 
 H                    -4.17255   4.28224   2.05484 
 C                    -0.82872   6.23201  -0.04765 
 H                    -1.4816    6.1047    0.82139 
 H                     0.20688   6.37404   0.29278 
 H                    -1.13992   7.11117  -0.61668 
 C                     3.5513    4.53536  -0.73812 
 H                     4.12487   4.44256   0.18636 
 H                     4.15592   4.17434  -1.58017 
 H                     3.29476   5.58888  -0.9061 
 C                     3.72035   0.84678  -2.10638 
 H                     3.77583   0.75417  -3.19291 
 H                     2.67036   0.9049   -1.80313 
 H                     4.23818   1.7651   -1.7943 
 Na                    2.31216   1.95149   0.96737 
 O                     1.43015   3.43463   2.53137 
 C                     0.54001   2.84909   3.48283 
 H                    -0.45745   3.30178   3.39572 
 H                     0.49284   1.78739   3.22967 
 H                     0.91605   2.99196   4.50529 
 C                     1.61325   4.82711   2.73417 
 H                     2.09307   5.02464   3.70276 
 H                     2.25251   5.18955   1.92691 
 H                     0.65169   5.35724   2.70013 
 C                    -1.39397  -4.01443  -0.12859 
 F                    -1.8511   -5.28466  -0.06693 
 F                    -0.82654  -3.75002   1.07693 
 F                    -0.4153   -3.97482  -1.05099 
 C                    -5.97688  -2.31126   0.87146 
 F                    -6.31596  -3.58782   1.14776 
 F                    -7.01941  -1.736     0.23876 
 F                    -5.83848  -1.67404   2.06271 
 
 Add virtual bond connecting atoms O43        and C34        Dist= 3.64D+00.
 Add virtual bond connecting atoms H37        and O19        Dist= 4.26D+00.
 Add virtual bond connecting atoms H38        and O19        Dist= 4.14D+00.
 Add virtual bond connecting atoms O84        and Na83       Dist= 4.40D+00.
 Add virtual bond connecting atoms H87        and O19        Dist= 4.35D+00.
 Add virtual bond connecting atoms H87        and H38        Dist= 4.26D+00.
 The following ModRedundant input section has been read:
 
 ITRead=  0  0  0  0  0  0  0  0  0  0  0  0  0  0  0  0  0  0  0  0
 ITRead=  0  0  0  0  0  0  0  0  0  0  0  0  0  0  0  0  0  0  0  0
 ITRead=  0  0  0  0  0  0  0  0  0  0  0  0  0  0  0  0  0  0  0  0
 ITRead=  0  0  0  0  0  0  0  0  0  0  0  0  0  0  0  0  0  0  0  0
 ITRead=  0  0  0  0  0  0  0  0  0  0  0  0  0  0  0  0  0  0  0  0
 MicOpt= -1 -1 -1 -1 -1 -1 -1 -1 -1 -1 -1 -1 -1 -1 -1 -1 -1 -1 -1 -1
 MicOpt= -1 -1 -1 -1 -1 -1 -1 -1 -1 -1 -1 -1 -1 -1 -1 -1 -1 -1 -1 -1
 MicOpt= -1 -1 -1 -1 -1 -1 -1 -1 -1 -1 -1 -1 -1 -1 -1 -1 -1 -1 -1 -1
 MicOpt= -1 -1 -1 -1 -1 -1 -1 -1 -1 -1 -1 -1 -1 -1 -1 -1 -1 -1 -1 -1
 MicOpt= -1 -1 -1 -1 -1 -1 -1 -1 -1 -1 -1 -1 -1 -1 -1 -1 -1 -1 -1 -1
 NAtoms=    100 NQM=      100 NQMF=       0 NMMI=      0 NMMIF=      0
                NMic=       0 NMicF=      0.
                    Isotopes and Nuclear Properties:
 (Nuclear quadrupole moments (NQMom) in fm**2, nuclear magnetic moments (NMagM)
  in nuclear magnetons)

  Atom         1           2           3           4           5           6           7           8           9          10
 IAtWgt=          12          12          12          12          12           1           1           1           1           1
 AtmWgt=  12.0000000  12.0000000  12.0000000  12.0000000  12.0000000   1.0078250   1.0078250   1.0078250   1.0078250   1.0078250
 NucSpn=           0           0           0           0           0           1           1           1           1           1
 AtZEff=   0.0000000   0.0000000   0.0000000   0.0000000   0.0000000   0.0000000   0.0000000   0.0000000   0.0000000   0.0000000
 NQMom=    0.0000000   0.0000000   0.0000000   0.0000000   0.0000000   0.0000000   0.0000000   0.0000000   0.0000000   0.0000000
 NMagM=    0.0000000   0.0000000   0.0000000   0.0000000   0.0000000   2.7928460   2.7928460   2.7928460   2.7928460   2.7928460
 AtZNuc=   6.0000000   6.0000000   6.0000000   6.0000000   6.0000000   1.0000000   1.0000000   1.0000000   1.0000000   1.0000000

  Atom        11          12          13          14          15          16          17          18          19          20
 IAtWgt=          16          16          16          16          16          12           1           1          16          12
 AtmWgt=  15.9949146  15.9949146  15.9949146  15.9949146  15.9949146  12.0000000   1.0078250   1.0078250  15.9949146  12.0000000
 NucSpn=           0           0           0           0           0           0           1           1           0           0
 AtZEff=   0.0000000   0.0000000   0.0000000   0.0000000   0.0000000   0.0000000   0.0000000   0.0000000   0.0000000   0.0000000
 NQMom=    0.0000000   0.0000000   0.0000000   0.0000000   0.0000000   0.0000000   0.0000000   0.0000000   0.0000000   0.0000000
 NMagM=    0.0000000   0.0000000   0.0000000   0.0000000   0.0000000   0.0000000   2.7928460   2.7928460   0.0000000   0.0000000
 AtZNuc=   8.0000000   8.0000000   8.0000000   8.0000000   8.0000000   6.0000000   1.0000000   1.0000000   8.0000000   6.0000000

  Atom        21          22          23          24          25          26          27          28          29          30
 IAtWgt=           1           1           1          12           1           1           1          12           1           1
 AtmWgt=   1.0078250   1.0078250   1.0078250  12.0000000   1.0078250   1.0078250   1.0078250  12.0000000   1.0078250   1.0078250
 NucSpn=           1           1           1           0           1           1           1           0           1           1
 AtZEff=   0.0000000   0.0000000   0.0000000   0.0000000   0.0000000   0.0000000   0.0000000   0.0000000   0.0000000   0.0000000
 NQMom=    0.0000000   0.0000000   0.0000000   0.0000000   0.0000000   0.0000000   0.0000000   0.0000000   0.0000000   0.0000000
 NMagM=    2.7928460   2.7928460   2.7928460   0.0000000   2.7928460   2.7928460   2.7928460   0.0000000   2.7928460   2.7928460
 AtZNuc=   1.0000000   1.0000000   1.0000000   6.0000000   1.0000000   1.0000000   1.0000000   6.0000000   1.0000000   1.0000000

  Atom        31          32          33          34          35          36          37          38          39          40
 IAtWgt=           1          12          12          12          12          12           1           1           1           1
 AtmWgt=   1.0078250  12.0000000  12.0000000  12.0000000  12.0000000  12.0000000   1.0078250   1.0078250   1.0078250   1.0078250
 NucSpn=           1           0           0           0           0           0           1           1           1           1
 AtZEff=   0.0000000   0.0000000   0.0000000   0.0000000   0.0000000   0.0000000   0.0000000   0.0000000   0.0000000   0.0000000
 NQMom=    0.0000000   0.0000000   0.0000000   0.0000000   0.0000000   0.0000000   0.0000000   0.0000000   0.0000000   0.0000000
 NMagM=    2.7928460   0.0000000   0.0000000   0.0000000   0.0000000   0.0000000   2.7928460   2.7928460   2.7928460   2.7928460
 AtZNuc=   1.0000000   6.0000000   6.0000000   6.0000000   6.0000000   6.0000000   1.0000000   1.0000000   1.0000000   1.0000000

  Atom        41          42          43          44          45          46          47          48          49          50
 IAtWgt=           1          16          16          16          16          16          12           1           1          16
 AtmWgt=   1.0078250  15.9949146  15.9949146  15.9949146  15.9949146  15.9949146  12.0000000   1.0078250   1.0078250  15.9949146
 NucSpn=           1           0           0           0           0           0           0           1           1           0
 AtZEff=   0.0000000   0.0000000   0.0000000   0.0000000   0.0000000   0.0000000   0.0000000   0.0000000   0.0000000   0.0000000
 NQMom=    0.0000000   0.0000000   0.0000000   0.0000000   0.0000000   0.0000000   0.0000000   0.0000000   0.0000000   0.0000000
 NMagM=    2.7928460   0.0000000   0.0000000   0.0000000   0.0000000   0.0000000   0.0000000   2.7928460   2.7928460   0.0000000
 AtZNuc=   1.0000000   8.0000000   8.0000000   8.0000000   8.0000000   8.0000000   6.0000000   1.0000000   1.0000000   8.0000000

  Atom        51          52          53          54          55          56          57          58          59          60
 IAtWgt=          32          16          16          12          12          12          12           1          12           1
 AtmWgt=  31.9720718  15.9949146  15.9949146  12.0000000  12.0000000  12.0000000  12.0000000   1.0078250  12.0000000   1.0078250
 NucSpn=           0           0           0           0           0           0           0           1           0           1
 AtZEff=   0.0000000   0.0000000   0.0000000   0.0000000   0.0000000   0.0000000   0.0000000   0.0000000   0.0000000   0.0000000
 NQMom=    0.0000000   0.0000000   0.0000000   0.0000000   0.0000000   0.0000000   0.0000000   0.0000000   0.0000000   0.0000000
 NMagM=    0.0000000   0.0000000   0.0000000   0.0000000   0.0000000   0.0000000   0.0000000   2.7928460   0.0000000   2.7928460
 AtZNuc=  16.0000000   8.0000000   8.0000000   6.0000000   6.0000000   6.0000000   6.0000000   1.0000000   6.0000000   1.0000000

  Atom        61          62          63          64          65          66          67          68          69          70
 IAtWgt=          12           1          12           1           1           1          12           1           1           1
 AtmWgt=  12.0000000   1.0078250  12.0000000   1.0078250   1.0078250   1.0078250  12.0000000   1.0078250   1.0078250   1.0078250
 NucSpn=           0           1           0           1           1           1           0           1           1           1
 AtZEff=   0.0000000   0.0000000   0.0000000   0.0000000   0.0000000   0.0000000   0.0000000   0.0000000   0.0000000   0.0000000
 NQMom=    0.0000000   0.0000000   0.0000000   0.0000000   0.0000000   0.0000000   0.0000000   0.0000000   0.0000000   0.0000000
 NMagM=    0.0000000   2.7928460   0.0000000   2.7928460   2.7928460   2.7928460   0.0000000   2.7928460   2.7928460   2.7928460
 AtZNuc=   6.0000000   1.0000000   6.0000000   1.0000000   1.0000000   1.0000000   6.0000000   1.0000000   1.0000000   1.0000000

  Atom        71          72          73          74          75          76          77          78          79          80
 IAtWgt=          12           1           1           1          12           1           1           1          12           1
 AtmWgt=  12.0000000   1.0078250   1.0078250   1.0078250  12.0000000   1.0078250   1.0078250   1.0078250  12.0000000   1.0078250
 NucSpn=           0           1           1           1           0           1           1           1           0           1
 AtZEff=   0.0000000   0.0000000   0.0000000   0.0000000   0.0000000   0.0000000   0.0000000   0.0000000   0.0000000   0.0000000
 NQMom=    0.0000000   0.0000000   0.0000000   0.0000000   0.0000000   0.0000000   0.0000000   0.0000000   0.0000000   0.0000000
 NMagM=    0.0000000   2.7928460   2.7928460   2.7928460   0.0000000   2.7928460   2.7928460   2.7928460   0.0000000   2.7928460
 AtZNuc=   6.0000000   1.0000000   1.0000000   1.0000000   6.0000000   1.0000000   1.0000000   1.0000000   6.0000000   1.0000000

  Atom        81          82          83          84          85          86          87          88          89          90
 IAtWgt=           1           1          23          16          12           1           1           1          12           1
 AtmWgt=   1.0078250   1.0078250  22.9897697  15.9949146  12.0000000   1.0078250   1.0078250   1.0078250  12.0000000   1.0078250
 NucSpn=           1           1           3           0           0           1           1           1           0           1
 AtZEff=   0.0000000   0.0000000   0.0000000   0.0000000   0.0000000   0.0000000   0.0000000   0.0000000   0.0000000   0.0000000
 NQMom=    0.0000000   0.0000000  10.4000000   0.0000000   0.0000000   0.0000000   0.0000000   0.0000000   0.0000000   0.0000000
 NMagM=    2.7928460   2.7928460   2.2175200   0.0000000   0.0000000   2.7928460   2.7928460   2.7928460   0.0000000   2.7928460
 AtZNuc=   1.0000000   1.0000000  11.0000000   8.0000000   6.0000000   1.0000000   1.0000000   1.0000000   6.0000000   1.0000000

  Atom        91          92          93          94          95          96          97          98          99         100
 IAtWgt=           1           1          12          19          19          19          12          19          19          19
 AtmWgt=   1.0078250   1.0078250  12.0000000  18.9984033  18.9984033  18.9984033  12.0000000  18.9984033  18.9984033  18.9984033
 NucSpn=           1           1           0           1           1           1           0           1           1           1
 AtZEff=   0.0000000   0.0000000   0.0000000   0.0000000   0.0000000   0.0000000   0.0000000   0.0000000   0.0000000   0.0000000
 NQMom=    0.0000000   0.0000000   0.0000000   0.0000000   0.0000000   0.0000000   0.0000000   0.0000000   0.0000000   0.0000000
 NMagM=    2.7928460   2.7928460   0.0000000   2.6288670   2.6288670   2.6288670   0.0000000   2.6288670   2.6288670   2.6288670
 AtZNuc=   1.0000000   1.0000000   6.0000000   9.0000000   9.0000000   9.0000000   6.0000000   9.0000000   9.0000000   9.0000000
 Leave Link  101 at Thu May  9 08:24:02 2019, MaxMem=  6442450944 cpu:              18.0 elap:               0.7
 (Enter /home/ekwan/sw/g16/l103.exe)

 GradGradGradGradGradGradGradGradGradGradGradGradGradGradGradGradGradGrad
 Berny optimization.
 Initialization pass.
                           ----------------------------
                           !    Initial Parameters    !
                           ! (Angstroms and Degrees)  !
 --------------------------                            --------------------------
 ! Name  Definition              Value          Derivative Info.                !
 --------------------------------------------------------------------------------
 ! R1    R(1,2)                  1.5283         calculate D2E/DX2 analytically  !
 ! R2    R(1,5)                  1.5316         calculate D2E/DX2 analytically  !
 ! R3    R(1,8)                  1.0963         calculate D2E/DX2 analytically  !
 ! R4    R(1,14)                 1.4241         calculate D2E/DX2 analytically  !
 ! R5    R(2,3)                  1.5346         calculate D2E/DX2 analytically  !
 ! R6    R(2,7)                  1.1009         calculate D2E/DX2 analytically  !
 ! R7    R(2,13)                 1.4158         calculate D2E/DX2 analytically  !
 ! R8    R(3,6)                  1.0988         calculate D2E/DX2 analytically  !
 ! R9    R(3,11)                 1.4214         calculate D2E/DX2 analytically  !
 ! R10   R(3,12)                 1.3972         calculate D2E/DX2 analytically  !
 ! R11   R(4,5)                  1.535          calculate D2E/DX2 analytically  !
 ! R12   R(4,9)                  1.0974         calculate D2E/DX2 analytically  !
 ! R13   R(4,11)                 1.4514         calculate D2E/DX2 analytically  !
 ! R14   R(4,16)                 1.5433         calculate D2E/DX2 analytically  !
 ! R15   R(5,10)                 1.1004         calculate D2E/DX2 analytically  !
 ! R16   R(5,15)                 1.4233         calculate D2E/DX2 analytically  !
 ! R17   R(12,79)                1.422          calculate D2E/DX2 analytically  !
 ! R18   R(13,20)                1.4184         calculate D2E/DX2 analytically  !
 ! R19   R(14,24)                1.4213         calculate D2E/DX2 analytically  !
 ! R20   R(15,28)                1.4199         calculate D2E/DX2 analytically  !
 ! R21   R(16,17)                1.116          calculate D2E/DX2 analytically  !
 ! R22   R(16,18)                1.1102         calculate D2E/DX2 analytically  !
 ! R23   R(16,19)                1.372          calculate D2E/DX2 analytically  !
 ! R24   R(19,37)                2.2565         calculate D2E/DX2 analytically  !
 ! R25   R(19,38)                2.1885         calculate D2E/DX2 analytically  !
 ! R26   R(19,83)                2.1911         calculate D2E/DX2 analytically  !
 ! R27   R(19,87)                2.3027         calculate D2E/DX2 analytically  !
 ! R28   R(20,21)                1.0988         calculate D2E/DX2 analytically  !
 ! R29   R(20,22)                1.0998         calculate D2E/DX2 analytically  !
 ! R30   R(20,23)                1.0923         calculate D2E/DX2 analytically  !
 ! R31   R(24,25)                1.0997         calculate D2E/DX2 analytically  !
 ! R32   R(24,26)                1.0948         calculate D2E/DX2 analytically  !
 ! R33   R(24,27)                1.0934         calculate D2E/DX2 analytically  !
 ! R34   R(28,29)                1.0948         calculate D2E/DX2 analytically  !
 ! R35   R(28,30)                1.0994         calculate D2E/DX2 analytically  !
 ! R36   R(28,31)                1.092          calculate D2E/DX2 analytically  !
 ! R37   R(32,33)                1.5288         calculate D2E/DX2 analytically  !
 ! R38   R(32,36)                1.5279         calculate D2E/DX2 analytically  !
 ! R39   R(32,39)                1.0947         calculate D2E/DX2 analytically  !
 ! R40   R(32,45)                1.4208         calculate D2E/DX2 analytically  !
 ! R41   R(33,34)                1.5097         calculate D2E/DX2 analytically  !
 ! R42   R(33,38)                1.0944         calculate D2E/DX2 analytically  !
 ! R43   R(33,44)                1.407          calculate D2E/DX2 analytically  !
 ! R44   R(34,37)                1.0736         calculate D2E/DX2 analytically  !
 ! R45   R(34,42)                1.321          calculate D2E/DX2 analytically  !
 ! R46   R(34,43)                1.9262         calculate D2E/DX2 analytically  !
 ! R47   R(35,36)                1.5331         calculate D2E/DX2 analytically  !
 ! R48   R(35,40)                1.0929         calculate D2E/DX2 analytically  !
 ! R49   R(35,42)                1.4614         calculate D2E/DX2 analytically  !
 ! R50   R(35,47)                1.5128         calculate D2E/DX2 analytically  !
 ! R51   R(36,41)                1.0957         calculate D2E/DX2 analytically  !
 ! R52   R(36,46)                1.4187         calculate D2E/DX2 analytically  !
 ! R53   R(38,87)                2.2519         calculate D2E/DX2 analytically  !
 ! R54   R(43,51)                1.5407         calculate D2E/DX2 analytically  !
 ! R55   R(44,63)                1.4275         calculate D2E/DX2 analytically  !
 ! R56   R(45,67)                1.4251         calculate D2E/DX2 analytically  !
 ! R57   R(46,71)                1.4234         calculate D2E/DX2 analytically  !
 ! R58   R(47,48)                1.0963         calculate D2E/DX2 analytically  !
 ! R59   R(47,49)                1.0978         calculate D2E/DX2 analytically  !
 ! R60   R(47,50)                1.4237         calculate D2E/DX2 analytically  !
 ! R61   R(50,75)                1.4246         calculate D2E/DX2 analytically  !
 ! R62   R(51,52)                1.4755         calculate D2E/DX2 analytically  !
 ! R63   R(51,53)                1.4743         calculate D2E/DX2 analytically  !
 ! R64   R(51,54)                1.7956         calculate D2E/DX2 analytically  !
 ! R65   R(54,55)                1.393          calculate D2E/DX2 analytically  !
 ! R66   R(54,56)                1.3897         calculate D2E/DX2 analytically  !
 ! R67   R(55,57)                1.3937         calculate D2E/DX2 analytically  !
 ! R68   R(55,58)                1.0835         calculate D2E/DX2 analytically  !
 ! R69   R(56,59)                1.3945         calculate D2E/DX2 analytically  !
 ! R70   R(56,60)                1.0828         calculate D2E/DX2 analytically  !
 ! R71   R(57,61)                1.395          calculate D2E/DX2 analytically  !
 ! R72   R(57,93)                1.503          calculate D2E/DX2 analytically  !
 ! R73   R(59,61)                1.3932         calculate D2E/DX2 analytically  !
 ! R74   R(59,97)                1.5025         calculate D2E/DX2 analytically  !
 ! R75   R(61,62)                1.0836         calculate D2E/DX2 analytically  !
 ! R76   R(63,64)                1.0944         calculate D2E/DX2 analytically  !
 ! R77   R(63,65)                1.0967         calculate D2E/DX2 analytically  !
 ! R78   R(63,66)                1.0908         calculate D2E/DX2 analytically  !
 ! R79   R(67,68)                1.0985         calculate D2E/DX2 analytically  !
 ! R80   R(67,69)                1.094          calculate D2E/DX2 analytically  !
 ! R81   R(67,70)                1.0928         calculate D2E/DX2 analytically  !
 ! R82   R(71,72)                1.0944         calculate D2E/DX2 analytically  !
 ! R83   R(71,73)                1.0993         calculate D2E/DX2 analytically  !
 ! R84   R(71,74)                1.0925         calculate D2E/DX2 analytically  !
 ! R85   R(75,76)                1.0919         calculate D2E/DX2 analytically  !
 ! R86   R(75,77)                1.0977         calculate D2E/DX2 analytically  !
 ! R87   R(75,78)                1.0972         calculate D2E/DX2 analytically  !
 ! R88   R(79,80)                1.0919         calculate D2E/DX2 analytically  !
 ! R89   R(79,81)                1.0944         calculate D2E/DX2 analytically  !
 ! R90   R(79,82)                1.0995         calculate D2E/DX2 analytically  !
 ! R91   R(83,84)                2.3289         calculate D2E/DX2 analytically  !
 ! R92   R(84,85)                1.4284         calculate D2E/DX2 analytically  !
 ! R93   R(84,89)                1.419          calculate D2E/DX2 analytically  !
 ! R94   R(85,86)                1.0988         calculate D2E/DX2 analytically  !
 ! R95   R(85,87)                1.0925         calculate D2E/DX2 analytically  !
 ! R96   R(85,88)                1.0987         calculate D2E/DX2 analytically  !
 ! R97   R(89,90)                1.0988         calculate D2E/DX2 analytically  !
 ! R98   R(89,91)                1.0916         calculate D2E/DX2 analytically  !
 ! R99   R(89,92)                1.0985         calculate D2E/DX2 analytically  !
 ! R100  R(93,94)                1.3514         calculate D2E/DX2 analytically  !
 ! R101  R(93,95)                1.3584         calculate D2E/DX2 analytically  !
 ! R102  R(93,96)                1.3454         calculate D2E/DX2 analytically  !
 ! R103  R(97,98)                1.3494         calculate D2E/DX2 analytically  !
 ! R104  R(97,99)                1.3484         calculate D2E/DX2 analytically  !
 ! R105  R(97,100)               1.3581         calculate D2E/DX2 analytically  !
 ! A1    A(2,1,5)              111.0579         calculate D2E/DX2 analytically  !
 ! A2    A(2,1,8)              108.7992         calculate D2E/DX2 analytically  !
 ! A3    A(2,1,14)             110.9288         calculate D2E/DX2 analytically  !
 ! A4    A(5,1,8)              108.2761         calculate D2E/DX2 analytically  !
 ! A5    A(5,1,14)             107.516          calculate D2E/DX2 analytically  !
 ! A6    A(8,1,14)             110.2257         calculate D2E/DX2 analytically  !
 ! A7    A(1,2,3)              109.3346         calculate D2E/DX2 analytically  !
 ! A8    A(1,2,7)              108.7739         calculate D2E/DX2 analytically  !
 ! A9    A(1,2,13)             108.5602         calculate D2E/DX2 analytically  !
 ! A10   A(3,2,7)              107.5914         calculate D2E/DX2 analytically  !
 ! A11   A(3,2,13)             112.4859         calculate D2E/DX2 analytically  !
 ! A12   A(7,2,13)             110.032          calculate D2E/DX2 analytically  !
 ! A13   A(2,3,6)              111.9495         calculate D2E/DX2 analytically  !
 ! A14   A(2,3,11)             109.5269         calculate D2E/DX2 analytically  !
 ! A15   A(2,3,12)             107.4266         calculate D2E/DX2 analytically  !
 ! A16   A(6,3,11)             104.1444         calculate D2E/DX2 analytically  !
 ! A17   A(6,3,12)             110.2715         calculate D2E/DX2 analytically  !
 ! A18   A(11,3,12)            113.595          calculate D2E/DX2 analytically  !
 ! A19   A(5,4,9)              108.6519         calculate D2E/DX2 analytically  !
 ! A20   A(5,4,11)             111.3654         calculate D2E/DX2 analytically  !
 ! A21   A(5,4,16)             111.8898         calculate D2E/DX2 analytically  !
 ! A22   A(9,4,11)             108.1827         calculate D2E/DX2 analytically  !
 ! A23   A(9,4,16)             109.8076         calculate D2E/DX2 analytically  !
 ! A24   A(11,4,16)            106.8699         calculate D2E/DX2 analytically  !
 ! A25   A(1,5,4)              114.084          calculate D2E/DX2 analytically  !
 ! A26   A(1,5,10)             107.6955         calculate D2E/DX2 analytically  !
 ! A27   A(1,5,15)             109.749          calculate D2E/DX2 analytically  !
 ! A28   A(4,5,10)             108.5395         calculate D2E/DX2 analytically  !
 ! A29   A(4,5,15)             106.502          calculate D2E/DX2 analytically  !
 ! A30   A(10,5,15)            110.2584         calculate D2E/DX2 analytically  !
 ! A31   A(3,11,4)             114.8618         calculate D2E/DX2 analytically  !
 ! A32   A(3,12,79)            114.3812         calculate D2E/DX2 analytically  !
 ! A33   A(2,13,20)            114.1544         calculate D2E/DX2 analytically  !
 ! A34   A(1,14,24)            114.4467         calculate D2E/DX2 analytically  !
 ! A35   A(5,15,28)            114.8111         calculate D2E/DX2 analytically  !
 ! A36   A(4,16,17)            105.6039         calculate D2E/DX2 analytically  !
 ! A37   A(4,16,18)            104.8695         calculate D2E/DX2 analytically  !
 ! A38   A(4,16,19)            114.4117         calculate D2E/DX2 analytically  !
 ! A39   A(17,16,18)           105.2484         calculate D2E/DX2 analytically  !
 ! A40   A(17,16,19)           112.339          calculate D2E/DX2 analytically  !
 ! A41   A(18,16,19)           113.5306         calculate D2E/DX2 analytically  !
 ! A42   A(16,19,37)            96.7208         calculate D2E/DX2 analytically  !
 ! A43   A(16,19,38)           154.5754         calculate D2E/DX2 analytically  !
 ! A44   A(16,19,83)           113.1883         calculate D2E/DX2 analytically  !
 ! A45   A(16,19,87)           124.7469         calculate D2E/DX2 analytically  !
 ! A46   A(37,19,38)            72.184          calculate D2E/DX2 analytically  !
 ! A47   A(37,19,83)           106.04           calculate D2E/DX2 analytically  !
 ! A48   A(37,19,87)           132.1403         calculate D2E/DX2 analytically  !
 ! A49   A(38,19,83)            92.0511         calculate D2E/DX2 analytically  !
 ! A50   A(83,19,87)            80.5987         calculate D2E/DX2 analytically  !
 ! A51   A(13,20,21)           112.3079         calculate D2E/DX2 analytically  !
 ! A52   A(13,20,22)           111.2391         calculate D2E/DX2 analytically  !
 ! A53   A(13,20,23)           106.7692         calculate D2E/DX2 analytically  !
 ! A54   A(21,20,22)           108.6677         calculate D2E/DX2 analytically  !
 ! A55   A(21,20,23)           108.6233         calculate D2E/DX2 analytically  !
 ! A56   A(22,20,23)           109.1515         calculate D2E/DX2 analytically  !
 ! A57   A(14,24,25)           111.0685         calculate D2E/DX2 analytically  !
 ! A58   A(14,24,26)           111.555          calculate D2E/DX2 analytically  !
 ! A59   A(14,24,27)           106.6007         calculate D2E/DX2 analytically  !
 ! A60   A(25,24,26)           109.0998         calculate D2E/DX2 analytically  !
 ! A61   A(25,24,27)           108.8692         calculate D2E/DX2 analytically  !
 ! A62   A(26,24,27)           109.583          calculate D2E/DX2 analytically  !
 ! A63   A(15,28,29)           111.4063         calculate D2E/DX2 analytically  !
 ! A64   A(15,28,30)           111.1881         calculate D2E/DX2 analytically  !
 ! A65   A(15,28,31)           106.4626         calculate D2E/DX2 analytically  !
 ! A66   A(29,28,30)           109.2419         calculate D2E/DX2 analytically  !
 ! A67   A(29,28,31)           109.7987         calculate D2E/DX2 analytically  !
 ! A68   A(30,28,31)           108.6722         calculate D2E/DX2 analytically  !
 ! A69   A(33,32,36)           108.9156         calculate D2E/DX2 analytically  !
 ! A70   A(33,32,39)           110.152          calculate D2E/DX2 analytically  !
 ! A71   A(33,32,45)           109.754          calculate D2E/DX2 analytically  !
 ! A72   A(36,32,39)           109.7002         calculate D2E/DX2 analytically  !
 ! A73   A(36,32,45)           107.5281         calculate D2E/DX2 analytically  !
 ! A74   A(39,32,45)           110.7337         calculate D2E/DX2 analytically  !
 ! A75   A(32,33,34)           112.5626         calculate D2E/DX2 analytically  !
 ! A76   A(32,33,38)           107.9141         calculate D2E/DX2 analytically  !
 ! A77   A(32,33,44)           110.7583         calculate D2E/DX2 analytically  !
 ! A78   A(34,33,38)           103.0923         calculate D2E/DX2 analytically  !
 ! A79   A(34,33,44)           112.1729         calculate D2E/DX2 analytically  !
 ! A80   A(38,33,44)           109.9796         calculate D2E/DX2 analytically  !
 ! A81   A(33,34,37)           120.3738         calculate D2E/DX2 analytically  !
 ! A82   A(33,34,42)           119.2948         calculate D2E/DX2 analytically  !
 ! A83   A(33,34,43)           104.7809         calculate D2E/DX2 analytically  !
 ! A84   A(37,34,42)           114.3412         calculate D2E/DX2 analytically  !
 ! A85   A(37,34,43)            93.1567         calculate D2E/DX2 analytically  !
 ! A86   A(42,34,43)            96.1892         calculate D2E/DX2 analytically  !
 ! A87   A(36,35,40)           108.9366         calculate D2E/DX2 analytically  !
 ! A88   A(36,35,42)           112.234          calculate D2E/DX2 analytically  !
 ! A89   A(36,35,47)           113.5762         calculate D2E/DX2 analytically  !
 ! A90   A(40,35,42)           106.3734         calculate D2E/DX2 analytically  !
 ! A91   A(40,35,47)           108.9022         calculate D2E/DX2 analytically  !
 ! A92   A(42,35,47)           106.5258         calculate D2E/DX2 analytically  !
 ! A93   A(32,36,35)           111.1462         calculate D2E/DX2 analytically  !
 ! A94   A(32,36,41)           108.7822         calculate D2E/DX2 analytically  !
 ! A95   A(32,36,46)           111.1807         calculate D2E/DX2 analytically  !
 ! A96   A(35,36,41)           109.4335         calculate D2E/DX2 analytically  !
 ! A97   A(35,36,46)           105.4168         calculate D2E/DX2 analytically  !
 ! A98   A(41,36,46)           110.8538         calculate D2E/DX2 analytically  !
 ! A99   A(19,37,34)            88.1576         calculate D2E/DX2 analytically  !
 ! A100  A(19,38,33)           113.6999         calculate D2E/DX2 analytically  !
 ! A101  A(34,42,35)           118.2093         calculate D2E/DX2 analytically  !
 ! A102  A(34,43,51)           133.9289         calculate D2E/DX2 analytically  !
 ! A103  A(33,44,63)           114.3413         calculate D2E/DX2 analytically  !
 ! A104  A(32,45,67)           113.9886         calculate D2E/DX2 analytically  !
 ! A105  A(36,46,71)           114.2052         calculate D2E/DX2 analytically  !
 ! A106  A(35,47,48)           107.6802         calculate D2E/DX2 analytically  !
 ! A107  A(35,47,49)           110.2161         calculate D2E/DX2 analytically  !
 ! A108  A(35,47,50)           109.6731         calculate D2E/DX2 analytically  !
 ! A109  A(48,47,49)           108.6534         calculate D2E/DX2 analytically  !
 ! A110  A(48,47,50)           110.4313         calculate D2E/DX2 analytically  !
 ! A111  A(49,47,50)           110.1472         calculate D2E/DX2 analytically  !
 ! A112  A(47,50,75)           112.5446         calculate D2E/DX2 analytically  !
 ! A113  A(43,51,52)           108.5654         calculate D2E/DX2 analytically  !
 ! A114  A(43,51,53)           113.0551         calculate D2E/DX2 analytically  !
 ! A115  A(43,51,54)           104.135          calculate D2E/DX2 analytically  !
 ! A116  A(52,51,53)           116.3244         calculate D2E/DX2 analytically  !
 ! A117  A(52,51,54)           106.9784         calculate D2E/DX2 analytically  !
 ! A118  A(53,51,54)           106.884          calculate D2E/DX2 analytically  !
 ! A119  A(51,54,55)           119.8912         calculate D2E/DX2 analytically  !
 ! A120  A(51,54,56)           118.9061         calculate D2E/DX2 analytically  !
 ! A121  A(55,54,56)           121.2027         calculate D2E/DX2 analytically  !
 ! A122  A(54,55,57)           118.9796         calculate D2E/DX2 analytically  !
 ! A123  A(54,55,58)           120.5372         calculate D2E/DX2 analytically  !
 ! A124  A(57,55,58)           120.4735         calculate D2E/DX2 analytically  !
 ! A125  A(54,56,59)           119.0706         calculate D2E/DX2 analytically  !
 ! A126  A(54,56,60)           119.7122         calculate D2E/DX2 analytically  !
 ! A127  A(59,56,60)           121.1809         calculate D2E/DX2 analytically  !
 ! A128  A(55,57,61)           120.7146         calculate D2E/DX2 analytically  !
 ! A129  A(55,57,93)           120.3321         calculate D2E/DX2 analytically  !
 ! A130  A(61,57,93)           118.7601         calculate D2E/DX2 analytically  !
 ! A131  A(56,59,61)           120.7085         calculate D2E/DX2 analytically  !
 ! A132  A(56,59,97)           119.3934         calculate D2E/DX2 analytically  !
 ! A133  A(61,59,97)           119.6253         calculate D2E/DX2 analytically  !
 ! A134  A(57,61,59)           119.3165         calculate D2E/DX2 analytically  !
 ! A135  A(57,61,62)           120.3259         calculate D2E/DX2 analytically  !
 ! A136  A(59,61,62)           120.3538         calculate D2E/DX2 analytically  !
 ! A137  A(44,63,64)           111.9576         calculate D2E/DX2 analytically  !
 ! A138  A(44,63,65)           110.665          calculate D2E/DX2 analytically  !
 ! A139  A(44,63,66)           106.0225         calculate D2E/DX2 analytically  !
 ! A140  A(64,63,65)           108.6338         calculate D2E/DX2 analytically  !
 ! A141  A(64,63,66)           109.9364         calculate D2E/DX2 analytically  !
 ! A142  A(65,63,66)           109.5934         calculate D2E/DX2 analytically  !
 ! A143  A(45,67,68)           110.8842         calculate D2E/DX2 analytically  !
 ! A144  A(45,67,69)           111.3442         calculate D2E/DX2 analytically  !
 ! A145  A(45,67,70)           106.4573         calculate D2E/DX2 analytically  !
 ! A146  A(68,67,69)           109.0453         calculate D2E/DX2 analytically  !
 ! A147  A(68,67,70)           109.2053         calculate D2E/DX2 analytically  !
 ! A148  A(69,67,70)           109.8596         calculate D2E/DX2 analytically  !
 ! A149  A(46,71,72)           111.149          calculate D2E/DX2 analytically  !
 ! A150  A(46,71,73)           111.0821         calculate D2E/DX2 analytically  !
 ! A151  A(46,71,74)           106.4967         calculate D2E/DX2 analytically  !
 ! A152  A(72,71,73)           109.3361         calculate D2E/DX2 analytically  !
 ! A153  A(72,71,74)           109.711          calculate D2E/DX2 analytically  !
 ! A154  A(73,71,74)           109.0054         calculate D2E/DX2 analytically  !
 ! A155  A(50,75,76)           106.9833         calculate D2E/DX2 analytically  !
 ! A156  A(50,75,77)           111.1572         calculate D2E/DX2 analytically  !
 ! A157  A(50,75,78)           110.6541         calculate D2E/DX2 analytically  !
 ! A158  A(76,75,77)           109.4015         calculate D2E/DX2 analytically  !
 ! A159  A(76,75,78)           109.5148         calculate D2E/DX2 analytically  !
 ! A160  A(77,75,78)           109.094          calculate D2E/DX2 analytically  !
 ! A161  A(12,79,80)           106.8287         calculate D2E/DX2 analytically  !
 ! A162  A(12,79,81)           111.5572         calculate D2E/DX2 analytically  !
 ! A163  A(12,79,82)           110.7622         calculate D2E/DX2 analytically  !
 ! A164  A(80,79,81)           109.206          calculate D2E/DX2 analytically  !
 ! A165  A(80,79,82)           109.2298         calculate D2E/DX2 analytically  !
 ! A166  A(81,79,82)           109.1988         calculate D2E/DX2 analytically  !
 ! A167  A(19,83,84)            93.5093         calculate D2E/DX2 analytically  !
 ! A168  A(83,84,85)           114.9781         calculate D2E/DX2 analytically  !
 ! A169  A(83,84,89)           132.224          calculate D2E/DX2 analytically  !
 ! A170  A(85,84,89)           112.7962         calculate D2E/DX2 analytically  !
 ! A171  A(84,85,86)           110.1197         calculate D2E/DX2 analytically  !
 ! A172  A(84,85,87)           105.7186         calculate D2E/DX2 analytically  !
 ! A173  A(84,85,88)           110.6874         calculate D2E/DX2 analytically  !
 ! A174  A(86,85,87)           110.0472         calculate D2E/DX2 analytically  !
 ! A175  A(86,85,88)           109.3219         calculate D2E/DX2 analytically  !
 ! A176  A(87,85,88)           110.9026         calculate D2E/DX2 analytically  !
 ! A177  A(19,87,85)           140.2394         calculate D2E/DX2 analytically  !
 ! A178  A(38,87,85)           102.669          calculate D2E/DX2 analytically  !
 ! A179  A(84,89,90)           111.0215         calculate D2E/DX2 analytically  !
 ! A180  A(84,89,91)           107.1983         calculate D2E/DX2 analytically  !
 ! A181  A(84,89,92)           110.8653         calculate D2E/DX2 analytically  !
 ! A182  A(90,89,91)           109.6608         calculate D2E/DX2 analytically  !
 ! A183  A(90,89,92)           108.8315         calculate D2E/DX2 analytically  !
 ! A184  A(91,89,92)           109.2346         calculate D2E/DX2 analytically  !
 ! A185  A(57,93,94)           111.9532         calculate D2E/DX2 analytically  !
 ! A186  A(57,93,95)           110.4164         calculate D2E/DX2 analytically  !
 ! A187  A(57,93,96)           112.5435         calculate D2E/DX2 analytically  !
 ! A188  A(94,93,95)           106.4856         calculate D2E/DX2 analytically  !
 ! A189  A(94,93,96)           107.7581         calculate D2E/DX2 analytically  !
 ! A190  A(95,93,96)           107.388          calculate D2E/DX2 analytically  !
 ! A191  A(59,97,98)           112.1465         calculate D2E/DX2 analytically  !
 ! A192  A(59,97,99)           112.1364         calculate D2E/DX2 analytically  !
 ! A193  A(59,97,100)          110.7597         calculate D2E/DX2 analytically  !
 ! A194  A(98,97,99)           107.7816         calculate D2E/DX2 analytically  !
 ! A195  A(98,97,100)          106.851          calculate D2E/DX2 analytically  !
 ! A196  A(99,97,100)          106.8705         calculate D2E/DX2 analytically  !
 ! A197  L(33,38,87,1,-1)      176.4057         calculate D2E/DX2 analytically  !
 ! A198  L(33,38,87,1,-2)      182.7089         calculate D2E/DX2 analytically  !
 ! D1    D(5,1,2,3)            -52.8694         calculate D2E/DX2 analytically  !
 ! D2    D(5,1,2,7)             64.3603         calculate D2E/DX2 analytically  !
 ! D3    D(5,1,2,13)          -175.9188         calculate D2E/DX2 analytically  !
 ! D4    D(8,1,2,3)             66.2113         calculate D2E/DX2 analytically  !
 ! D5    D(8,1,2,7)           -176.559          calculate D2E/DX2 analytically  !
 ! D6    D(8,1,2,13)           -56.8381         calculate D2E/DX2 analytically  !
 ! D7    D(14,1,2,3)          -172.3769         calculate D2E/DX2 analytically  !
 ! D8    D(14,1,2,7)           -55.1473         calculate D2E/DX2 analytically  !
 ! D9    D(14,1,2,13)           64.5737         calculate D2E/DX2 analytically  !
 ! D10   D(2,1,5,4)             45.9688         calculate D2E/DX2 analytically  !
 ! D11   D(2,1,5,10)           -74.5743         calculate D2E/DX2 analytically  !
 ! D12   D(2,1,5,15)           165.3787         calculate D2E/DX2 analytically  !
 ! D13   D(8,1,5,4)            -73.4253         calculate D2E/DX2 analytically  !
 ! D14   D(8,1,5,10)           166.0316         calculate D2E/DX2 analytically  !
 ! D15   D(8,1,5,15)            45.9846         calculate D2E/DX2 analytically  !
 ! D16   D(14,1,5,4)           167.4955         calculate D2E/DX2 analytically  !
 ! D17   D(14,1,5,10)           46.9524         calculate D2E/DX2 analytically  !
 ! D18   D(14,1,5,15)          -73.0946         calculate D2E/DX2 analytically  !
 ! D19   D(2,1,14,24)          -96.7835         calculate D2E/DX2 analytically  !
 ! D20   D(5,1,14,24)          141.6092         calculate D2E/DX2 analytically  !
 ! D21   D(8,1,14,24)           23.7867         calculate D2E/DX2 analytically  !
 ! D22   D(1,2,3,6)            175.7536         calculate D2E/DX2 analytically  !
 ! D23   D(1,2,3,11)            60.7633         calculate D2E/DX2 analytically  !
 ! D24   D(1,2,3,12)           -63.0472         calculate D2E/DX2 analytically  !
 ! D25   D(7,2,3,6)             57.781          calculate D2E/DX2 analytically  !
 ! D26   D(7,2,3,11)           -57.2093         calculate D2E/DX2 analytically  !
 ! D27   D(7,2,3,12)           178.9802         calculate D2E/DX2 analytically  !
 ! D28   D(13,2,3,6)           -63.5616         calculate D2E/DX2 analytically  !
 ! D29   D(13,2,3,11)         -178.5519         calculate D2E/DX2 analytically  !
 ! D30   D(13,2,3,12)           57.6376         calculate D2E/DX2 analytically  !
 ! D31   D(1,2,13,20)         -161.0843         calculate D2E/DX2 analytically  !
 ! D32   D(3,2,13,20)           77.7867         calculate D2E/DX2 analytically  !
 ! D33   D(7,2,13,20)          -42.1522         calculate D2E/DX2 analytically  !
 ! D34   D(2,3,11,4)           -62.609          calculate D2E/DX2 analytically  !
 ! D35   D(6,3,11,4)           177.4986         calculate D2E/DX2 analytically  !
 ! D36   D(12,3,11,4)           57.5005         calculate D2E/DX2 analytically  !
 ! D37   D(2,3,12,79)         -175.5674         calculate D2E/DX2 analytically  !
 ! D38   D(6,3,12,79)          -53.3203         calculate D2E/DX2 analytically  !
 ! D39   D(11,3,12,79)          63.141          calculate D2E/DX2 analytically  !
 ! D40   D(9,4,5,1)             74.5575         calculate D2E/DX2 analytically  !
 ! D41   D(9,4,5,10)          -165.3719         calculate D2E/DX2 analytically  !
 ! D42   D(9,4,5,15)           -46.6702         calculate D2E/DX2 analytically  !
 ! D43   D(11,4,5,1)           -44.5007         calculate D2E/DX2 analytically  !
 ! D44   D(11,4,5,10)           75.57           calculate D2E/DX2 analytically  !
 ! D45   D(11,4,5,15)         -165.7284         calculate D2E/DX2 analytically  !
 ! D46   D(16,4,5,1)          -164.0392         calculate D2E/DX2 analytically  !
 ! D47   D(16,4,5,10)          -43.9685         calculate D2E/DX2 analytically  !
 ! D48   D(16,4,5,15)           74.7331         calculate D2E/DX2 analytically  !
 ! D49   D(5,4,11,3)            53.8024         calculate D2E/DX2 analytically  !
 ! D50   D(9,4,11,3)           -65.5354         calculate D2E/DX2 analytically  !
 ! D51   D(16,4,11,3)          176.28           calculate D2E/DX2 analytically  !
 ! D52   D(5,4,16,17)           52.5421         calculate D2E/DX2 analytically  !
 ! D53   D(5,4,16,18)          -58.3544         calculate D2E/DX2 analytically  !
 ! D54   D(5,4,16,19)          176.6068         calculate D2E/DX2 analytically  !
 ! D55   D(9,4,16,17)          173.2763         calculate D2E/DX2 analytically  !
 ! D56   D(9,4,16,18)           62.3798         calculate D2E/DX2 analytically  !
 ! D57   D(9,4,16,19)          -62.6589         calculate D2E/DX2 analytically  !
 ! D58   D(11,4,16,17)         -69.6068         calculate D2E/DX2 analytically  !
 ! D59   D(11,4,16,18)         179.4968         calculate D2E/DX2 analytically  !
 ! D60   D(11,4,16,19)          54.458          calculate D2E/DX2 analytically  !
 ! D61   D(1,5,15,28)           97.8649         calculate D2E/DX2 analytically  !
 ! D62   D(4,5,15,28)         -138.1786         calculate D2E/DX2 analytically  !
 ! D63   D(10,5,15,28)         -20.6089         calculate D2E/DX2 analytically  !
 ! D64   D(3,12,79,80)         165.4349         calculate D2E/DX2 analytically  !
 ! D65   D(3,12,79,81)         -75.2886         calculate D2E/DX2 analytically  !
 ! D66   D(3,12,79,82)          46.5757         calculate D2E/DX2 analytically  !
 ! D67   D(2,13,20,21)         -66.8788         calculate D2E/DX2 analytically  !
 ! D68   D(2,13,20,22)          55.1705         calculate D2E/DX2 analytically  !
 ! D69   D(2,13,20,23)         174.1649         calculate D2E/DX2 analytically  !
 ! D70   D(1,14,24,25)         -59.0448         calculate D2E/DX2 analytically  !
 ! D71   D(1,14,24,26)          62.9064         calculate D2E/DX2 analytically  !
 ! D72   D(1,14,24,27)        -177.5019         calculate D2E/DX2 analytically  !
 ! D73   D(5,15,28,29)         -58.6943         calculate D2E/DX2 analytically  !
 ! D74   D(5,15,28,30)          63.4195         calculate D2E/DX2 analytically  !
 ! D75   D(5,15,28,31)        -178.378          calculate D2E/DX2 analytically  !
 ! D76   D(4,16,19,37)          72.0872         calculate D2E/DX2 analytically  !
 ! D77   D(4,16,19,38)         134.0727         calculate D2E/DX2 analytically  !
 ! D78   D(4,16,19,83)         -38.5929         calculate D2E/DX2 analytically  !
 ! D79   D(4,16,19,87)        -133.2309         calculate D2E/DX2 analytically  !
 ! D80   D(17,16,19,37)       -167.5239         calculate D2E/DX2 analytically  !
 ! D81   D(17,16,19,38)       -105.5384         calculate D2E/DX2 analytically  !
 ! D82   D(17,16,19,83)         81.796          calculate D2E/DX2 analytically  !
 ! D83   D(17,16,19,87)        -12.842          calculate D2E/DX2 analytically  !
 ! D84   D(18,16,19,37)        -48.2445         calculate D2E/DX2 analytically  !
 ! D85   D(18,16,19,38)         13.7409         calculate D2E/DX2 analytically  !
 ! D86   D(18,16,19,83)       -158.9246         calculate D2E/DX2 analytically  !
 ! D87   D(18,16,19,87)        106.4373         calculate D2E/DX2 analytically  !
 ! D88   D(16,19,37,34)       -168.7773         calculate D2E/DX2 analytically  !
 ! D89   D(38,19,37,34)         34.6828         calculate D2E/DX2 analytically  !
 ! D90   D(83,19,37,34)        -52.2631         calculate D2E/DX2 analytically  !
 ! D91   D(87,19,37,34)         39.5092         calculate D2E/DX2 analytically  !
 ! D92   D(16,19,38,33)        -68.6962         calculate D2E/DX2 analytically  !
 ! D93   D(37,19,38,33)         -1.6343         calculate D2E/DX2 analytically  !
 ! D94   D(83,19,38,33)        104.5604         calculate D2E/DX2 analytically  !
 ! D95   D(16,19,83,84)       -136.2522         calculate D2E/DX2 analytically  !
 ! D96   D(37,19,83,84)        118.9371         calculate D2E/DX2 analytically  !
 ! D97   D(38,19,83,84)         46.8916         calculate D2E/DX2 analytically  !
 ! D98   D(87,19,83,84)        -12.365          calculate D2E/DX2 analytically  !
 ! D99   D(16,19,87,85)        140.8062         calculate D2E/DX2 analytically  !
 ! D100  D(37,19,87,85)        -74.1368         calculate D2E/DX2 analytically  !
 ! D101  D(83,19,87,85)         29.036          calculate D2E/DX2 analytically  !
 ! D102  D(36,32,33,34)        -48.0941         calculate D2E/DX2 analytically  !
 ! D103  D(36,32,33,38)         64.9916         calculate D2E/DX2 analytically  !
 ! D104  D(36,32,33,44)       -174.574          calculate D2E/DX2 analytically  !
 ! D105  D(39,32,33,34)         72.2596         calculate D2E/DX2 analytically  !
 ! D106  D(39,32,33,38)       -174.6547         calculate D2E/DX2 analytically  !
 ! D107  D(39,32,33,44)        -54.2203         calculate D2E/DX2 analytically  !
 ! D108  D(45,32,33,34)       -165.5674         calculate D2E/DX2 analytically  !
 ! D109  D(45,32,33,38)        -52.4817         calculate D2E/DX2 analytically  !
 ! D110  D(45,32,33,44)         67.9528         calculate D2E/DX2 analytically  !
 ! D111  D(33,32,36,35)         54.4079         calculate D2E/DX2 analytically  !
 ! D112  D(33,32,36,41)        -66.1454         calculate D2E/DX2 analytically  !
 ! D113  D(33,32,36,46)        171.5089         calculate D2E/DX2 analytically  !
 ! D114  D(39,32,36,35)        -66.2239         calculate D2E/DX2 analytically  !
 ! D115  D(39,32,36,41)        173.2228         calculate D2E/DX2 analytically  !
 ! D116  D(39,32,36,46)         50.8771         calculate D2E/DX2 analytically  !
 ! D117  D(45,32,36,35)        173.2832         calculate D2E/DX2 analytically  !
 ! D118  D(45,32,36,41)         52.7298         calculate D2E/DX2 analytically  !
 ! D119  D(45,32,36,46)        -69.6158         calculate D2E/DX2 analytically  !
 ! D120  D(33,32,45,67)        -96.3187         calculate D2E/DX2 analytically  !
 ! D121  D(36,32,45,67)        145.3455         calculate D2E/DX2 analytically  !
 ! D122  D(39,32,45,67)         25.5074         calculate D2E/DX2 analytically  !
 ! D123  D(32,33,34,37)       -166.4775         calculate D2E/DX2 analytically  !
 ! D124  D(32,33,34,42)         42.2848         calculate D2E/DX2 analytically  !
 ! D125  D(32,33,34,43)        -63.7302         calculate D2E/DX2 analytically  !
 ! D126  D(38,33,34,37)         77.5076         calculate D2E/DX2 analytically  !
 ! D127  D(38,33,34,42)        -73.7301         calculate D2E/DX2 analytically  !
 ! D128  D(38,33,34,43)       -179.7451         calculate D2E/DX2 analytically  !
 ! D129  D(44,33,34,37)        -40.7605         calculate D2E/DX2 analytically  !
 ! D130  D(44,33,34,42)        168.0018         calculate D2E/DX2 analytically  !
 ! D131  D(44,33,34,43)         61.9868         calculate D2E/DX2 analytically  !
 ! D132  D(32,33,38,19)       -141.5763         calculate D2E/DX2 analytically  !
 ! D133  D(34,33,38,19)        -22.2894         calculate D2E/DX2 analytically  !
 ! D134  D(44,33,38,19)         97.5019         calculate D2E/DX2 analytically  !
 ! D135  D(32,33,44,63)       -145.3748         calculate D2E/DX2 analytically  !
 ! D136  D(34,33,44,63)         87.9292         calculate D2E/DX2 analytically  !
 ! D137  D(38,33,44,63)        -26.1778         calculate D2E/DX2 analytically  !
 ! D138  D(32,33,87,85)          1.9354         calculate D2E/DX2 analytically  !
 ! D139  D(34,33,87,85)        121.5699         calculate D2E/DX2 analytically  !
 ! D140  D(44,33,87,85)       -120.1203         calculate D2E/DX2 analytically  !
 ! D141  D(33,34,37,19)        -70.2626         calculate D2E/DX2 analytically  !
 ! D142  D(42,34,37,19)         82.3126         calculate D2E/DX2 analytically  !
 ! D143  D(43,34,37,19)       -179.4393         calculate D2E/DX2 analytically  !
 ! D144  D(33,34,42,35)        -40.2035         calculate D2E/DX2 analytically  !
 ! D145  D(37,34,42,35)        166.9023         calculate D2E/DX2 analytically  !
 ! D146  D(43,34,42,35)         70.5956         calculate D2E/DX2 analytically  !
 ! D147  D(33,34,43,51)        -40.7959         calculate D2E/DX2 analytically  !
 ! D148  D(37,34,43,51)         81.7715         calculate D2E/DX2 analytically  !
 ! D149  D(42,34,43,51)       -163.3183         calculate D2E/DX2 analytically  !
 ! D150  D(40,35,36,32)         65.6389         calculate D2E/DX2 analytically  !
 ! D151  D(40,35,36,41)       -174.193          calculate D2E/DX2 analytically  !
 ! D152  D(40,35,36,46)        -54.9264         calculate D2E/DX2 analytically  !
 ! D153  D(42,35,36,32)        -51.8913         calculate D2E/DX2 analytically  !
 ! D154  D(42,35,36,41)         68.2769         calculate D2E/DX2 analytically  !
 ! D155  D(42,35,36,46)       -172.4566         calculate D2E/DX2 analytically  !
 ! D156  D(47,35,36,32)       -172.8002         calculate D2E/DX2 analytically  !
 ! D157  D(47,35,36,41)        -52.6321         calculate D2E/DX2 analytically  !
 ! D158  D(47,35,36,46)         66.6344         calculate D2E/DX2 analytically  !
 ! D159  D(36,35,42,34)         44.4713         calculate D2E/DX2 analytically  !
 ! D160  D(40,35,42,34)        -74.5749         calculate D2E/DX2 analytically  !
 ! D161  D(47,35,42,34)        169.3613         calculate D2E/DX2 analytically  !
 ! D162  D(36,35,47,48)        -57.5982         calculate D2E/DX2 analytically  !
 ! D163  D(36,35,47,49)       -175.9653         calculate D2E/DX2 analytically  !
 ! D164  D(36,35,47,50)         62.6048         calculate D2E/DX2 analytically  !
 ! D165  D(40,35,47,48)         63.9818         calculate D2E/DX2 analytically  !
 ! D166  D(40,35,47,49)        -54.3853         calculate D2E/DX2 analytically  !
 ! D167  D(40,35,47,50)       -175.8151         calculate D2E/DX2 analytically  !
 ! D168  D(42,35,47,48)        178.3376         calculate D2E/DX2 analytically  !
 ! D169  D(42,35,47,49)         59.9705         calculate D2E/DX2 analytically  !
 ! D170  D(42,35,47,50)        -61.4594         calculate D2E/DX2 analytically  !
 ! D171  D(32,36,46,71)         99.7016         calculate D2E/DX2 analytically  !
 ! D172  D(35,36,46,71)       -139.7557         calculate D2E/DX2 analytically  !
 ! D173  D(41,36,46,71)        -21.4372         calculate D2E/DX2 analytically  !
 ! D174  D(34,43,51,52)       -158.7095         calculate D2E/DX2 analytically  !
 ! D175  D(34,43,51,53)         70.6469         calculate D2E/DX2 analytically  !
 ! D176  D(34,43,51,54)        -44.9911         calculate D2E/DX2 analytically  !
 ! D177  D(33,44,63,64)        -64.5601         calculate D2E/DX2 analytically  !
 ! D178  D(33,44,63,65)         56.7896         calculate D2E/DX2 analytically  !
 ! D179  D(33,44,63,66)        175.5535         calculate D2E/DX2 analytically  !
 ! D180  D(32,45,67,68)        -60.878          calculate D2E/DX2 analytically  !
 ! D181  D(32,45,67,69)         60.7282         calculate D2E/DX2 analytically  !
 ! D182  D(32,45,67,70)       -179.5526         calculate D2E/DX2 analytically  !
 ! D183  D(36,46,71,72)        -59.2767         calculate D2E/DX2 analytically  !
 ! D184  D(36,46,71,73)         62.7032         calculate D2E/DX2 analytically  !
 ! D185  D(36,46,71,74)       -178.7308         calculate D2E/DX2 analytically  !
 ! D186  D(35,47,50,75)       -169.9395         calculate D2E/DX2 analytically  !
 ! D187  D(48,47,50,75)        -51.426          calculate D2E/DX2 analytically  !
 ! D188  D(49,47,50,75)         68.5892         calculate D2E/DX2 analytically  !
 ! D189  D(47,50,75,76)       -178.6818         calculate D2E/DX2 analytically  !
 ! D190  D(47,50,75,77)        -59.2994         calculate D2E/DX2 analytically  !
 ! D191  D(47,50,75,78)         62.0827         calculate D2E/DX2 analytically  !
 ! D192  D(43,51,54,55)        -39.7451         calculate D2E/DX2 analytically  !
 ! D193  D(43,51,54,56)        140.171          calculate D2E/DX2 analytically  !
 ! D194  D(52,51,54,55)         75.1008         calculate D2E/DX2 analytically  !
 ! D195  D(52,51,54,56)       -104.9831         calculate D2E/DX2 analytically  !
 ! D196  D(53,51,54,55)       -159.644          calculate D2E/DX2 analytically  !
 ! D197  D(53,51,54,56)         20.2721         calculate D2E/DX2 analytically  !
 ! D198  D(51,54,55,57)        178.9526         calculate D2E/DX2 analytically  !
 ! D199  D(51,54,55,58)          0.083          calculate D2E/DX2 analytically  !
 ! D200  D(56,54,55,57)         -0.9615         calculate D2E/DX2 analytically  !
 ! D201  D(56,54,55,58)       -179.8311         calculate D2E/DX2 analytically  !
 ! D202  D(51,54,56,59)       -179.5424         calculate D2E/DX2 analytically  !
 ! D203  D(51,54,56,60)         -1.7074         calculate D2E/DX2 analytically  !
 ! D204  D(55,54,56,59)          0.3725         calculate D2E/DX2 analytically  !
 ! D205  D(55,54,56,60)        178.2075         calculate D2E/DX2 analytically  !
 ! D206  D(54,55,57,61)          0.9862         calculate D2E/DX2 analytically  !
 ! D207  D(54,55,57,93)       -173.9            calculate D2E/DX2 analytically  !
 ! D208  D(58,55,57,61)        179.8566         calculate D2E/DX2 analytically  !
 ! D209  D(58,55,57,93)          4.9703         calculate D2E/DX2 analytically  !
 ! D210  D(54,56,59,61)          0.2045         calculate D2E/DX2 analytically  !
 ! D211  D(54,56,59,97)        174.1835         calculate D2E/DX2 analytically  !
 ! D212  D(60,56,59,61)       -177.5976         calculate D2E/DX2 analytically  !
 ! D213  D(60,56,59,97)         -3.6186         calculate D2E/DX2 analytically  !
 ! D214  D(55,57,61,59)         -0.428          calculate D2E/DX2 analytically  !
 ! D215  D(55,57,61,62)       -179.7179         calculate D2E/DX2 analytically  !
 ! D216  D(93,57,61,59)        174.5374         calculate D2E/DX2 analytically  !
 ! D217  D(93,57,61,62)         -4.7526         calculate D2E/DX2 analytically  !
 ! D218  D(55,57,93,94)       -142.7409         calculate D2E/DX2 analytically  !
 ! D219  D(55,57,93,95)         98.8019         calculate D2E/DX2 analytically  !
 ! D220  D(55,57,93,96)        -21.1824         calculate D2E/DX2 analytically  !
 ! D221  D(61,57,93,94)         42.2739         calculate D2E/DX2 analytically  !
 ! D222  D(61,57,93,95)        -76.1833         calculate D2E/DX2 analytically  !
 ! D223  D(61,57,93,96)        163.8324         calculate D2E/DX2 analytically  !
 ! D224  D(56,59,61,57)         -0.1762         calculate D2E/DX2 analytically  !
 ! D225  D(56,59,61,62)        179.1136         calculate D2E/DX2 analytically  !
 ! D226  D(97,59,61,57)       -174.1413         calculate D2E/DX2 analytically  !
 ! D227  D(97,59,61,62)          5.1485         calculate D2E/DX2 analytically  !
 ! D228  D(56,59,97,98)        154.6575         calculate D2E/DX2 analytically  !
 ! D229  D(56,59,97,99)         33.2232         calculate D2E/DX2 analytically  !
 ! D230  D(56,59,97,100)       -86.0687         calculate D2E/DX2 analytically  !
 ! D231  D(61,59,97,98)        -31.2975         calculate D2E/DX2 analytically  !
 ! D232  D(61,59,97,99)       -152.7318         calculate D2E/DX2 analytically  !
 ! D233  D(61,59,97,100)        87.9763         calculate D2E/DX2 analytically  !
 ! D234  D(19,83,84,85)         13.9089         calculate D2E/DX2 analytically  !
 ! D235  D(19,83,84,89)       -166.6068         calculate D2E/DX2 analytically  !
 ! D236  D(83,84,85,86)       -118.616          calculate D2E/DX2 analytically  !
 ! D237  D(83,84,85,87)          0.2234         calculate D2E/DX2 analytically  !
 ! D238  D(83,84,85,88)        120.3865         calculate D2E/DX2 analytically  !
 ! D239  D(89,84,85,86)         61.7983         calculate D2E/DX2 analytically  !
 ! D240  D(89,84,85,87)       -179.3623         calculate D2E/DX2 analytically  !
 ! D241  D(89,84,85,88)        -59.1992         calculate D2E/DX2 analytically  !
 ! D242  D(83,84,89,90)       -115.7221         calculate D2E/DX2 analytically  !
 ! D243  D(83,84,89,91)          4.0305         calculate D2E/DX2 analytically  !
 ! D244  D(83,84,89,92)        123.1767         calculate D2E/DX2 analytically  !
 ! D245  D(85,84,89,90)         63.7707         calculate D2E/DX2 analytically  !
 ! D246  D(85,84,89,91)       -176.4766         calculate D2E/DX2 analytically  !
 ! D247  D(85,84,89,92)        -57.3305         calculate D2E/DX2 analytically  !
 ! D248  D(84,85,87,19)        -21.422          calculate D2E/DX2 analytically  !
 ! D249  D(84,85,87,38)        -75.0753         calculate D2E/DX2 analytically  !
 ! D250  D(86,85,87,19)         97.4656         calculate D2E/DX2 analytically  !
 ! D251  D(86,85,87,38)         43.8123         calculate D2E/DX2 analytically  !
 ! D252  D(88,85,87,19)       -141.444          calculate D2E/DX2 analytically  !
 ! D253  D(88,85,87,38)        164.9027         calculate D2E/DX2 analytically  !
 --------------------------------------------------------------------------------
 Trust Radius=3.00D-02 FncErr=1.00D-07 GrdErr=1.00D-06 EigMax=2.50D+02 EigMin=1.00D-04
 Number of steps in this run=    566 maximum allowed number of steps=    600.
 Search for a saddle point of order  1.
 Step   0 in ReCalcFC=30 IGetFC= 4 compute analytic Hessian.
 GradGradGradGradGradGradGradGradGradGradGradGradGradGradGradGradGradGrad

 Leave Link  103 at Thu May  9 08:24:03 2019, MaxMem=  6442450944 cpu:               4.3 elap:               0.2
 (Enter /home/ekwan/sw/g16/l202.exe)
 Stoichiometry    C30H47F6NaO15S
 Framework group  C1[X(C30H47F6NaO15S)]
 Deg. of freedom   294
 Full point group                 C1      NOp   1
 Largest Abelian subgroup         C1      NOp   1
 Largest concise Abelian subgroup C1      NOp   1
                         Standard orientation:                         
 ---------------------------------------------------------------------
 Center     Atomic      Atomic             Coordinates (Angstroms)
 Number     Number       Type             X           Y           Z
 ---------------------------------------------------------------------
      1          6           0       -4.544994   -2.689584    0.005558
      2          6           0       -5.440479   -1.466369   -0.188166
      3          6           0       -4.664336   -0.201472    0.202625
      4          6           0       -2.552371   -1.145751   -0.511203
      5          6           0       -3.210406   -2.515932   -0.725562
      6          1           0       -5.243454    0.712060    0.008866
      7          1           0       -5.698935   -1.381865   -1.254909
      8          1           0       -4.337828   -2.809886    1.075336
      9          1           0       -2.127992   -1.114620    0.500315
     10          1           0       -3.398654   -2.649177   -1.801525
     11          8           0       -3.519732   -0.070220   -0.629807
     12          8           0       -4.358534   -0.301511    1.562226
     13          8           0       -6.614872   -1.640948    0.583014
     14          8           0       -5.166979   -3.862232   -0.510413
     15          8           0       -2.279117   -3.488327   -0.264053
     16          6           0       -1.445999   -0.869751   -1.551248
     17          1           0       -1.920587   -1.040255   -2.546800
     18          1           0       -0.722959   -1.702838   -1.425941
     19          8           0       -0.872492    0.372744   -1.452877
     20          6           0       -7.698131   -0.815902    0.185713
     21          1           0       -7.501230    0.249068    0.371301
     22          1           0       -7.930990   -0.950214   -0.880738
     23          1           0       -8.561265   -1.120159    0.782069
     24          6           0       -5.844920   -4.645245    0.462890
     25          1           0       -5.156684   -4.973986    1.255068
     26          1           0       -6.675095   -4.093622    0.915766
     27          1           0       -6.230847   -5.525693   -0.058070
     28          6           0       -2.159931   -4.637798   -1.088971
     29          1           0       -3.120257   -5.151703   -1.199362
     30          1           0       -1.773416   -4.374504   -2.083946
     31          1           0       -1.441537   -5.297729   -0.598239
     32          6           0        1.834229    3.095059   -0.061350
     33          6           0        1.420080    1.686838   -0.488617
     34          6           0        0.484182    1.033397    0.499532
     35          6           0       -0.212111    3.125971    1.417193
     36          6           0        0.585845    3.876661    0.344816
     37          1           0        0.285195   -0.020171    0.443799
     38          1           0        0.806124    1.775510   -1.390233
     39          1           0        2.528659    3.043965    0.783290
     40          1           0        0.383760    3.075035    2.331960
     41          1           0       -0.042185    4.023421   -0.540904
     42          8           0       -0.493572    1.744767    1.031428
     43          8           0        1.518205    0.860709    2.115516
     44          8           0        2.551237    0.893151   -0.753401
     45          8           0        2.426630    3.775251   -1.159155
     46          8           0        0.929073    5.121513    0.932465
     47          6           0       -1.546159    3.764033    1.736191
     48          1           0       -1.354062    4.794447    2.057462
     49          1           0       -2.037338    3.225959    2.557446
     50          8           0       -2.373118    3.750741    0.577387
     51         16           0        2.977817    0.467648    2.413685
     52          8           0        3.066245    0.018670    3.816392
     53          8           0        3.949474    1.493626    1.993123
     54          6           0        3.262964   -0.974433    1.382611
     55          6           0        2.262754   -1.933162    1.237957
     56          6           0        4.487588   -1.108942    0.739611
     57          6           0        2.496307   -3.033863    0.415568
     58          1           0        1.310900   -1.816075    1.742115
     59          6           0        4.709229   -2.222775   -0.069715
     60          1           0        5.237297   -0.334847    0.845590
     61          6           0        3.718913   -3.188092   -0.238327
     62          1           0        3.892097   -4.043977   -0.879865
     63          6           0        2.375668   -0.046348   -1.813731
     64          1           0        1.619426   -0.799564   -1.572041
     65          1           0        2.078976    0.464110   -2.737953
     66          1           0        3.345468   -0.525120   -1.955429
     67          6           0        3.850622    3.720195   -1.174734
     68          1           0        4.270470    4.187910   -0.273808
     69          1           0        4.208517    2.688513   -1.241206
     70          1           0        4.172551    4.282235   -2.054837
     71          6           0        0.828718    6.232005    0.047649
     72          1           0        1.481596    6.104696   -0.821386
     73          1           0       -0.206877    6.374039   -0.292782
     74          1           0        1.139920    7.111170    0.616678
     75          6           0       -3.551296    4.535364    0.738115
     76          1           0       -4.124869    4.442559   -0.186355
     77          1           0       -4.155918    4.174342    1.580167
     78          1           0       -3.294758    5.588878    0.906103
     79          6           0       -3.720352    0.846777    2.106377
     80          1           0       -3.775827    0.754170    3.192911
     81          1           0       -2.670361    0.904898    1.803132
     82          1           0       -4.238184    1.765101    1.794302
     83         11           0       -2.312162    1.951494   -0.967366
     84          8           0       -1.430147    3.434628   -2.531370
     85          6           0       -0.540012    2.849094   -3.482830
     86          1           0        0.457450    3.301779   -3.395715
     87          1           0       -0.492842    1.787388   -3.229668
     88          1           0       -0.916045    2.991960   -4.505286
     89          6           0       -1.613249    4.827110   -2.734167
     90          1           0       -2.093074    5.024638   -3.702760
     91          1           0       -2.252507    5.189551   -1.926907
     92          1           0       -0.651694    5.357235   -2.700126
     93          6           0        1.393974   -4.014425    0.128587
     94          9           0        1.851095   -5.284664    0.066933
     95          9           0        0.826535   -3.750019   -1.076930
     96          9           0        0.415295   -3.974817    1.050993
     97          6           0        5.976876   -2.311263   -0.871455
     98          9           0        6.315964   -3.587824   -1.147757
     99          9           0        7.019408   -1.736002   -0.238761
    100          9           0        5.838477   -1.674041   -2.062713
 ---------------------------------------------------------------------
 Rotational constants (GHZ):           0.0578783           0.0420449           0.0290495
 Leave Link  202 at Thu May  9 08:24:03 2019, MaxMem=  6442450944 cpu:               5.5 elap:               0.2
 (Enter /home/ekwan/sw/g16/l301.exe)
 Standard basis: 6-31G(d) (6D, 7F)
 Ernie: Thresh=  0.10000D-02 Tol=  0.10000D-05 Strict=F.
 There are   897 symmetry adapted cartesian basis functions of A   symmetry.
 There are   897 symmetry adapted basis functions of A   symmetry.
   897 basis functions,  1720 primitive gaussians,   897 cartesian basis functions
   214 alpha electrons      214 beta electrons
       nuclear repulsion energy      9514.6901730112 Hartrees.
 IExCor=  402 DFT=T Ex+Corr=B3LYP ExCW=0 ScaHFX=  0.200000
 ScaDFX=  0.800000  0.720000  1.000000  0.810000 ScalE2=  1.000000  1.000000
 IRadAn=      5 IRanWt=     -1 IRanGd=            0 ICorTp=0 IEmpDi=141
 NAtoms=  100 NActive=  100 NUniq=  100 SFac= 1.00D+00 NAtFMM=   60 NAOKFM=T Big=T
 Integral buffers will be    131072 words long.
 Raffenetti 2 integral format.
 Two-electron integral symmetry is turned on.
 R6Disp:  Grimme-D3(BJ) Dispersion energy=       -0.2342713346 Hartrees.
 Nuclear repulsion after empirical dispersion term =     9514.4559016766 Hartrees.
 Force inversion solution in PCM.
 ------------------------------------------------------------------------------
 Polarizable Continuum Model (PCM)
 =================================
 Model                : PCM.
 Atomic radii         : UFF (Universal Force Field).
 Polarization charges : Total charges.
 Charge compensation  : None.
 Solution method      : Matrix inversion.
 Cavity type          : Scaled VdW (van der Waals Surface) (Alpha=1.100).
 Cavity algorithm     : GePol (No added spheres)
                        Default sphere list used, NSphG=  100.
                        Lebedev-Laikov grids with approx.  5.0 points / Ang**2.
                        Smoothing algorithm: York/Karplus (Gamma=1.0000).
                        Polarization charges: spherical gaussians, with
                                              point-specific exponents (IZeta= 3).
                        Self-potential: point-specific (ISelfS= 7).
                        Self-field    : sphere-specific E.n sum rule (ISelfD= 2).
 1st derivatives      : Analytical E(r).r(x)/FMM algorithm (CHGder, D1EAlg=3).
                        Cavity 1st derivative terms included.
 2nd derivatives      : Analytical E(r).r(xy)/FMM algorithm (CHGder, D2EAlg=3).
                        Cavity 2nd derivative terms included.
 Solvent              : TetraHydroFuran, Eps=   7.425700 Eps(inf)=   1.974025
 ------------------------------------------------------------------------------
 GePol: Number of generator spheres                  =     100
 GePol: Total number of spheres                      =     100
 GePol: Number of exposed spheres                    =     100 (100.00%)
 GePol: Number of points                             =    6093
 GePol: Average weight of points                     =       0.12
 GePol: Minimum weight of points                     =   0.12D-11
 GePol: Maximum weight of points                     =    0.21371
 GePol: Number of points with low weight             =     467
[...]
 ,0.00001628,0.00054468,-0.00081731,0.00008646,0.00003770,0.00006612,-0
 .00112632,-0.00255743,0.00056035,-0.00012457,-0.00017092,-0.00047726,-
 0.00003716,0.00011985,0.00001274,0.01060072,0.00469796,0.00573839,-0.0
 0071106,0.00140295,-0.00027564,0.00054388,0.00105687,-0.00022451,-0.00
 052608,0.00043361,0.00023975,0.00002188,-0.00004774,0.00005109,-0.0000
 5145,0.00000601,-0.00001410,0.00001248,0.00002975,0.00000739,0.0000658
 0,-0.00004343,-0.00006183,0.00009678,0.00003687,-0.00000249,-0.0000057
 5,0.00000728,-0.00000800,0.00001149,-0.00000499,0.00002057,-0.00000560
 ,-0.00000137,0.00000083,0.00000622,-0.00000532,-0.00000698,0.00000026,
 0.00000193,0.00000461,-0.00000354,0.00000074,0.00000085,0.00000103,0.0
 0000309,0.00000010,-0.00000108,-0.00000384,0.00000030,0.00000046,-0.00
 000002,-0.00000056,0.00000001,0.00000004,0.00000059,-0.00000006,0.0000
 0174,-0.00000036,-0.00000197,-0.00000734,0.00000434,-0.00000022,-0.000
 00064,-0.00000071,-0.00000003,-0.00000087,0.00000016,0.00000208,0.0000
 0219,0.00000082,-0.00000317,-0.00001691,-0.00000200,-0.00000620,0.0000
 1210,0.00000094,0.00000789,-0.00000608,0.00000122,-0.00000233,0.000003
 08,-0.00000015,0.00000097,-0.00000324,-0.00000608,-0.00000018,0.000000
 70,-0.00000048,0.00000417,-0.00000980,0.00000033,-0.00000010,0.0000009
 7,-0.00000019,0.00000034,0.00000050,0.00000021,-0.00000270,0.00000201,
 -0.00000002,-0.00039479,0.00022861,-0.00021045,0.00007363,-0.00008050,
 0.00000821,0.00009633,-0.00001569,0.00007938,0.00024888,-0.00008341,-0
 .00005724,0.06352311,-0.10043744,0.02949801,0.03618657,-0.05121053,0.0
 3505328,-0.09951784,0.13014586,-0.00000068,0.00000198,-0.00000621,0.00
 000048,0.00000007,-0.00000546,-0.00000011,-0.00000096,-0.00002445,-0.0
 0000555,-0.00000265,-0.00001382,-0.00000147,-0.00000234,-0.00000857,0.
 00000006,0.00000097,0.00000140,0.00000188,0.00000011,0.00000283,-0.000
 00100,0.00000139,0.00000263,-0.00000088,-0.00000187,0.00000839,0.00000
 211,-0.00000105,0.00000496,-0.00000378,0.00000124,0.00001768,0.0000085
 5,-0.00000460,0.00002058,-0.00000028,-0.00000003,0.00000625,-0.0000009
 8,0.00000061,0.00000924,0.00000021,-0.00001411,0.00002233,-0.00000292,
 0.00001553,-0.00000979,0.00001555,-0.00000913,0.00001359,0.00000236,-0
 .00000610,-0.00000873,-0.00000519,-0.00001786,0.00006474,-0.00000166,0
 .00000040,-0.00000350,0.00000030,-0.00000056,-0.00000014,0.00000044,-0
 .00000049,0.00000182,-0.00000064,0.00000037,0.00000009,-0.00000018,-0.
 00000312,-0.00000767,0.00000160,0.00000128,0.00000178,-0.00000079,-0.0
 0000013,0.00000051,0.00000076,-0.00000075,0.00000059,0.00000389,0.0000
 0984,-0.00002740,0.00000091,0.00000032,0.00000276,-0.00000137,0.000002
 13,0.00000831,-0.00000112,0.00000549,-0.00000157,-0.00002353,-0.000009
 16,-0.00003145,0.00009120,0.00003353,0.00000800,-0.00018361,-0.0000684
 3,-0.00024872,-0.00000272,-0.00001912,-0.00001487,0.00000993,-0.000005
 64,-0.00000678,-0.00000750,0.00000442,0.00000577,-0.00000465,0.0000110
 9,0.00000091,-0.00000191,-0.00001450,0.00000048,-0.00000238,-0.0000031
 6,0.00000468,0.00000205,0.00000372,0.00000100,0.00003747,0.00004139,0.
 00004038,0.00033905,0.00013687,0.00011420,-0.00008002,-0.00011791,0.00
 020171,-0.00000438,-0.00000248,0.00004260,0.00000045,0.00000242,0.0000
 1702,-0.00001249,-0.00000142,-0.00000810,0.00000189,0.,0.00000050,-0.0
 0000177,0.00000044,0.00000227,0.00001427,0.00000432,0.00001429,-0.0005
 5825,-0.00040187,0.00024060,0.00010861,0.00008746,-0.00007532,0.000134
 09,0.00015414,-0.00004926,-0.00039044,-0.00052804,0.00063414,0.0004668
 2,-0.00045456,0.00010715,0.00159919,0.00195942,-0.00108913,0.00055057,
 -0.00028750,-0.00088676,0.00004526,-0.00007755,0.00002562,0.00672068,-
 0.00176135,0.00960188,0.00082513,-0.00117324,-0.00001938,0.00028474,0.
 00100390,0.00033553,0.00024813,-0.00013891,0.00020680,0.00031802,0.000
 27100,-0.00016307,-0.00006791,-0.00002959,0.00000443,-0.00003553,-0.00
 001433,0.00002390,0.00020902,0.00008473,-0.00009586,0.00000617,0.00002
 368,-0.00001793,-0.00000150,-0.00001937,0.00001350,-0.00000503,0.00000
 058,-0.00001997,-0.00000114,0.00000930,0.00000414,-0.00000191,-0.00000
 737,-0.00001009,-0.00000185,0.00000192,0.00000140,0.00000256,0.0000004
 9,0.00000067,-0.00000055,-0.00000141,0.00000104,-0.00000545,-0.0000032
 0,-0.00000200,0.00000183,-0.00000004,0.00000180,-0.00000009,0.00000092
 ,0.00000007,0.00000067,0.00000048,-0.00000076,-0.00000759,0.00000585,-
 0.00000572,-0.00000172,-0.00000080,0.00000268,0.00000084,-0.00000136,-
 0.00000253,0.00000240,0.00000014,0.00000116,-0.00000489,-0.00000053,-0
 .00002197,-0.00001443,-0.00001922,0.00002090,0.00001588,0.00001256,-0.
 00001251,-0.00000257,0.00000497,-0.00000096,0.00000413,-0.00000249,-0.
 00000495,0.00000049,0.00000201,0.00000403,0.00000059,0.00000915,0.0000
 0025,0.00000126,-0.00000082,0.00000042,-0.00000288,-0.00000243,0.00000
 090,0.00000101,-0.00000071,-0.00000252,-0.00032027,0.00027766,-0.00041
 496,0.00002466,-0.00014123,0.00007646,0.00012389,-0.00004762,0.0001682
 1,0.00012851,-0.00005853,0.00005735,-0.06183437,0.03017284,-0.10071968
 ,-0.01468364,0.03179923,-0.00501051,0.11775595,-0.06369903,0.14950909,
 0.00002346,-0.00001465,-0.00000379,0.00002535,0.00000170,0.00000194,0.
 00006424,0.00000592,-0.00002945,0.00005155,0.00003641,0.00000509,0.000
 02174,-0.00000009,0.00001639,-0.00001110,-0.00001012,0.00000216,-0.000
 00283,0.00000009,-0.00000111,0.,0.00000028,-0.00000150,0.00000283,-0.0
 0000089,-0.00001745,-0.00000381,-0.00000059,-0.00000760,-0.00009769,-0
 .00002301,0.00001985,-0.00003021,-0.00000225,0.00001218,-0.00004166,-0
 .00000345,0.00000335,-0.00003685,0.00002708,0.00000660,-0.00005800,0.0
 0003240,-0.00002249,0.00011793,-0.00006860,0.00002432,-0.00005214,0.00
 002822,-0.00003695,-0.00000991,-0.00003264,0.00000485,-0.00024086,0.00
 002967,-0.00010353,0.00001722,0.00001055,0.00000871,-0.00000042,-0.000
 00212,-0.00000152,-0.00000110,-0.00000147,-0.00000354,-0.00000395,-0.0
 0000053,0.00000094,0.00001476,-0.00001309,-0.00001417,-0.00000109,0.00
 000003,0.00000114,-0.00000350,-0.00000002,0.00000351,-0.00000271,0.000
 00490,-0.00000003,0.00001791,-0.00002492,0.00002366,-0.00001403,0.0000
 0386,-0.00000308,0.00000617,0.00000132,0.00000664,0.00001260,-0.000022
 32,-0.00000370,-0.00013075,0.00012919,0.00008553,0.00025051,0.00021715
 ,-0.00002334,0.00049252,0.00020149,0.00024456,-0.00000124,0.00016303,-
 0.00004806,0.00004326,0.00007159,-0.00002320,0.00009051,-0.00000028,-0
 .00000969,-0.00001674,-0.00001163,-0.00000485,0.00000324,0.00001861,-0
 .00000409,0.00001043,-0.00000032,-0.00000585,-0.00000407,-0.00000552,0
 .00000361,-0.00025457,-0.00026748,0.00010541,-0.00059454,-0.00059429,0
 .00012780,-0.00031447,-0.00055501,0.00004128,0.00012005,-0.00010419,-0
 .00008225,-0.00000156,-0.00015518,0.00000570,0.00004377,0.00000400,0.0
 0000389,-0.00001222,-0.00001141,-0.00000356,-0.00000780,0.00000364,-0.
 00000270,-0.00006387,-0.00003551,-0.00000724,0.00017778,0.00157571,-0.
 00137306,-0.00004534,-0.00025831,0.00061100,0.00015631,-0.00059458,0.0
 0023561,-0.00094581,-0.00047454,-0.00076207,-0.00064378,-0.00016727,0.
 00047157,-0.00054306,0.00239204,0.00003307,-0.00051110,-0.00079969,-0.
 00052754,0.00007449,0.00006374,0.00007698,0.00276515,0.01102635,0.0282
 4397,0.00009806,0.00004235,0.00052468,0.00105257,-0.00140713,0.0008638
 3,0.00009800,0.00035981,0.00028417,0.00056508,0.00049973,-0.00020119,-
 0.00005104,-0.00005743,0.00008002,-0.00018523,-0.00016575,-0.00003868,
 -0.00084023,-0.00023374,0.00023789,-0.00009297,0.00002828,-0.00001191,
 0.00001014,-0.00000826,0.00001426,-0.00002943,0.00001478,0.00001164,0.
 00000865,-0.00001993,-0.00001352,0.00000649,0.00006104,0.00005093,-0.0
 0000010,0.00000173,-0.00000885,-0.00000705,-0.00000519,-0.00000878,0.0
 0000037,-0.00001513,-0.00000080,0.00004174,0.00003095,-0.00000531,-0.0
 0000633,-0.00000226,-0.00000322,-0.00000527,-0.00000132,0.00000441,-0.
 00000239,-0.00000827,0.00000299,0.00002765,0.00000425,-0.00000899,-0.0
 0000098,0.00000199,0.00000282,-0.00000088,-0.00000208,-0.00000213,-0.0
 0000533,-0.00000547,-0.00000176,0.00007483,0.00003909,0.00002612,-0.00
 002111,-0.00004441,-0.00002012,0.00000854,0.00001329,0.00000170,-0.000
 00404,0.00000792,0.00000887,0.00000679,0.00000359,0.00003517,-0.000011
 28,-0.00001088,-0.00001000,0.00000780,0.00004290,0.00000893,-0.0000031
 1,-0.00000537,-0.00000765,-0.00000072,-0.00000319,0.00000283,0.0000030
 0,-0.00000338,0.00000121,0.00096708,-0.00125641,0.00031012,-0.00013953
 ,0.00049870,-0.00007338,-0.00034423,0.00021791,-0.00030451,-0.00039386
 ,0.00026006,0.00009533,-0.07246389,0.00242758,0.00743922,0.00875478,-0
 .01862572,-0.01301626,-0.01151562,-0.00907293,-0.05182090,0.07449202,0
 .00000050,-0.00000076,-0.00000524,-0.00000110,-0.00000380,-0.00000345,
 0.00000022,-0.00000478,-0.00001702,-0.00001409,-0.00000478,-0.00001546
 ,-0.00002243,-0.00002303,-0.00000774,0.00000076,0.00000225,0.00000028,
 0.00000177,0.00000021,0.00000215,-0.00000152,0.00000108,0.00000248,0.,
 -0.00000233,0.00000809,0.00000364,-0.00000038,0.00000474,0.00000086,0.
 00001699,0.00001493,0.00000499,0.00000517,0.00001308,0.00000518,0.0000
 0595,0.00000461,0.00000212,0.00000978,0.00000620,0.00002469,0.00001651
 ,0.00001796,0.00001902,-0.00006252,-0.00000262,0.00000513,-0.00000005,
 0.00000485,0.00001422,0.00000339,-0.00000500,-0.00008600,0.00004454,0.
 00006704,-0.00000436,-0.00000371,-0.00000364,0.00000029,0.00000126,-0.
 00000018,0.00000057,-0.00000029,0.00000157,0.,0.00000035,0.00000015,-0
 .00000340,-0.00000429,-0.00000729,0.00000180,0.00000088,0.00000325,0.0
 0000087,0.00000044,0.00000007,-0.00000054,-0.00000035,0.00000041,-0.00
 001017,-0.00001115,-0.00001312,0.00000348,0.00000148,0.00000068,-0.000
 00303,0.00000012,0.00000053,-0.00000172,0.00001309,0.00000357,-0.00001
 633,-0.00003423,-0.00006245,0.00021658,0.00010253,-0.00000525,-0.00022
 684,-0.00015717,-0.00036656,0.00000398,-0.00004336,-0.00002540,0.00003
 629,0.00000140,-0.00001552,-0.00002688,0.00000083,0.00000071,-0.000011
 20,0.00001276,0.00000617,0.00000242,-0.00001514,-0.00000322,-0.0000024
 4,-0.00000647,0.00000778,0.00000083,0.00000272,0.00000262,0.00002587,0
 .00008452,0.00006645,0.00047548,0.00043252,0.00004426,-0.00024017,-0.0
 0022558,0.00033426,-0.00012383,-0.00001557,0.00007842,-0.00001855,-0.0
 0001714,0.00002147,-0.00000488,0.00000254,-0.00000047,0.00000369,0.000
 00164,-0.00000111,-0.00000700,-0.00000014,0.00000350,-0.00000078,0.000
 00530,0.00001131,-0.00006441,-0.00106593,0.00046930,0.00003581,0.00021
 094,-0.00023338,-0.00009708,0.00039146,0.00000226,0.00150779,0.0006500
 3,-0.00027334,-0.00015716,0.00070957,-0.00046668,0.00071806,-0.0019656
 3,-0.00042604,-0.00036329,-0.00000085,0.00040995,-0.00002153,-0.000017
 22,-0.00006883,0.00111532,0.00611878,-0.01308004,-0.00017879,-0.000100
 54,-0.00048890,0.00019281,0.00041607,0.00060608,-0.00047221,-0.0000180
 6,-0.00011376,0.00068500,0.00069162,-0.00031676,-0.00021786,-0.0000780
 4,0.00003084,-0.00012382,-0.00005919,0.00003159,0.00019005,-0.00039226
 ,-0.00002755,0.00011214,0.00009900,-0.00003014,-0.00000780,-0.00002239
 ,0.00001242,-0.00000139,0.00000793,0.00000071,-0.00000630,0.00000212,0
 .00000164,0.00000766,0.00000282,-0.00000481,-0.00000173,0.00000581,0.0
 0000502,-0.00000386,-0.00000016,-0.00000067,0.00000061,-0.00000213,0.0
 0000114,0.00000345,-0.00000054,-0.00000258,0.00000100,-0.00000067,0.00
 000034,-0.00000139,0.00000065,0.00000191,0.00000006,0.00000068,-0.0000
 0053,-0.00000355,-0.00000215,-0.00000254,-0.00000234,-0.00000109,0.000
 00249,0.00000057,-0.00000293,-0.00000314,0.00000383,0.00000155,0.00000
 187,0.00001211,-0.00001216,-0.00002045,-0.00003203,-0.00001870,0.00001
 810,0.00003209,0.00001023,-0.00001140,-0.00000776,0.00001390,0.0000018
 2,0.00000953,-0.00000752,-0.00000180,-0.00000412,-0.00000115,0.0000000
 7,0.00000865,0.00001016,0.00000389,0.00000024,-0.00000137,-0.00000217,
 -0.00000303,-0.00000317,0.00000204,-0.00000156,0.00000091,-0.00000257,
 -0.00052043,0.00025491,-0.00024395,0.00011232,-0.00011979,0.00003818,0
 .00017349,-0.00001893,0.00018224,0.00020853,-0.00008787,-0.00003544,0.
 00118348,-0.10399652,-0.06911453,-0.01557151,-0.06077089,-0.04454239,-
 0.00308293,0.01594156,0.00301833,0.01460530,0.14309389,-0.00001614,0.0
 0001310,-0.00001101,-0.00001751,-0.00000542,-0.00001340,-0.00004393,-0
 .00000992,-0.00003200,-0.00005917,-0.00003535,-0.00004032,-0.00004326,
 -0.00003051,-0.00003371,0.00000842,0.00001057,0.00000082,0.00000657,0.
 00000044,0.00000714,-0.00000326,0.00000293,0.00000759,-0.00000414,-0.0
 0000496,0.00003439,0.00001050,-0.00000136,0.00001818,0.00006289,0.0000
 3622,0.00002828,0.00003800,0.00000006,0.00003416,0.00003304,0.00000829
 ,0.00001152,0.00002637,-0.00000770,0.00001513,0.00007324,-0.00002818,0
 .00007219,-0.00006766,-0.00000050,-0.00003740,0.00006823,-0.00003198,0
 .00005315,0.00002716,0.00001800,-0.00002416,0.00006324,-0.00000436,0.0
 0024182,-0.00001822,-0.00001010,-0.00001477,0.00000104,0.00000184,0.00
 000068,0.00000201,0.,0.00000659,0.00000178,0.00000128,-0.00000027,-0.0
 0001384,0.00000027,-0.00000864,0.00000478,0.00000271,0.00000513,0.0000
 0217,0.00000024,-0.00000154,0.00000250,-0.00000483,0.00000122,-0.00001
 880,0.00001975,-0.00007708,0.00001621,0.00000034,0.00000794,-0.0000100
 3,0.00000220,0.00000859,-0.00001399,0.00004127,0.00000517,0.00001587,-
 0.00012507,-0.00013855,0.00018172,-0.00001571,0.00005755,-0.00081586,-
 0.00040381,-0.00088340,0.00000370,-0.00017971,-0.00001002,0.00002221,-
 0.00006093,-0.00000987,-0.00010929,0.00000542,0.00000931,0.00000182,0.
 00004636,0.00000648,-0.00000275,-0.00004968,0.00000116,-0.00001299,-0.
 00001063,0.00001794,0.00000615,0.00001203,0.00000106,0.00025137,0.0003
 3131,0.00004973,0.00133292,0.00103609,0.00012399,-0.00018851,-0.000085
 78,0.00064968,-0.00016390,0.00005801,0.00017598,-0.00001602,0.00009161
 ,0.00003985,-0.00005304,-0.00000228,-0.00001506,0.00001479,0.00000964,
 0.00000236,-0.00000309,-0.00000213,0.00000834,0.00006367,0.00003520,0.
 00003577,-0.00087823,-0.00280553,0.00171916,0.00020117,0.00053036,-0.0
 0087113,-0.00007134,0.00103693,-0.00024288,0.00091099,0.00085957,0.000
 92562,0.00088858,-0.00052414,-0.00033139,0.00109597,-0.00230237,0.0005
 4807,0.00250724,0.00084957,0.00039178,-0.00006998,-0.00012200,-0.00015
 452,0.00951146,-0.02106459,-0.03479305,-0.00062878,-0.00050125,-0.0005
 9172,-0.00109597,0.00286860,-0.00287665,-0.00046521,-0.00073807,-0.000
 68890,0.00100052,0.00076623,-0.00041363,-0.00029596,-0.00009079,-0.000
 02362,-0.00006803,0.00002724,0.00009655,0.00084141,0.00010798,-0.00055
 390,0.00013991,0.00007457,-0.00003631,-0.00001464,-0.00003864,0.000020
 01,0.00000297,-0.00001270,-0.00004220,-0.00001231,0.00003093,0.0000156
 3,-0.00000149,-0.00004893,-0.00005163,-0.00000416,0.00000611,0.0000116
 8,0.00000534,0.00000403,0.00000592,-0.00000039,0.00000653,0.00000299,-
 0.00003329,-0.00002613,-0.00000168,0.00000798,0.00000101,0.00000506,0.
 00000227,0.00000275,-0.00000114,0.00000267,0.00000696,-0.00000351,-0.0
 0003362,0.00000354,-0.00000396,-0.00000393,-0.00000366,0.00000427,0.00
 000234,-0.00000355,-0.00000529,0.00001089,0.00000549,0.00000458,-0.000
 04702,-0.00003835,-0.00007059,-0.00003672,-0.00001999,0.00006215,0.000
 04603,0.00002302,-0.00003073,-0.00000785,0.00001438,-0.00000584,0.0000
 1139,-0.00001289,-0.00003303,0.00000479,0.00000940,0.00001323,0.000002
 51,-0.00000366,-0.00000162,0.00000424,0.00000103,0.00000365,-0.0000065
 8,-0.00000477,0.00000134,-0.00000151,0.00000167,-0.00000684,-0.0016363
 4,0.00206626,-0.00103247,0.00027498,-0.00074376,0.00017977,0.00067658,
 -0.00030791,0.00083383,0.00075915,-0.00046052,-0.00012510,0.00515940,-
 0.06965780,-0.21051432,-0.00813969,-0.02946136,0.00403839,-0.03941159,
 -0.00548447,-0.05263535,0.02824692,0.12449935,0.29687164\\-0.00000017,
 0.00000071,-0.00000375,0.00000006,0.00000040,-0.00000411,-0.00000058,0
 .00000099,-0.00000246,0.00000023,0.00000010,-0.00000183,0.00000103,-0.
 00000017,-0.00000293,0.00000034,0.00000013,-0.00000366,0.00000100,0.00
 000016,-0.00000430,-0.00000068,0.00000091,-0.00000379,-0.00000048,0.00
 000060,-0.00000153,0.00000138,-0.00000031,-0.00000301,0.00000175,0.000
 00079,-0.00000244,-0.00000087,0.00000083,-0.00000297,-0.00000042,0.000
 00074,-0.00000512,0.00000044,0.00000003,-0.00000462,0.00000048,-0.0000
 0102,-0.00000186,0.00000078,0.00000008,-0.00000088,0.00000185,-0.00000
 084,-0.00000136,0.00000067,-0.00000018,-0.00000097,0.00000060,-0.00000
 008,-0.00000047,0.00000003,0.00000071,-0.00000554,-0.00000034,0.000000
 58,-0.00000503,0.00000054,0.00000038,-0.00000570,-0.00000058,0.0000010
 5,-0.00000622,0.00000014,0.00000059,-0.00000557,-0.00000060,0.00000091
 ,-0.00000510,-0.00000048,0.00000093,-0.00000594,0.00000043,0.00000057,
 -0.00000609,0.00000101,0.00000001,-0.00000282,0.00000119,0.00000003,-0
 .00000382,0.00000186,-0.00000059,-0.00000250,0.00000077,-0.00000007,-0
 .00000263,-0.00000041,-0.00000017,0.00000254,0.00000015,-0.00000016,0.
 00000195,-0.00000049,0.00000004,0.00000136,-0.00000133,0.00000076,0.00
 000074,-0.00000078,0.00000004,0.00000234,-0.00000040,0.00000050,0.0000
 0046,0.00000080,-0.00000007,0.00000171,-0.00000113,0.00000016,0.000003
 27,-0.00000195,0.00000068,0.00000171,0.00000057,-0.00000018,0.00000216
 ,-0.00000144,0.00000057,0.00000049,-0.00000204,0.00000030,0.00000130,0
 .00000025,-0.00000022,0.00000211,0.00000027,-0.00000087,0.00000346,-0.
 00000108,0.00000015,0.00000293,-0.00000156,0.00000068,0.00000055,-0.00
 000200,0.00000094,0.00000123,-0.00000214,0.00000083,0.,-0.00000055,0.0
 0000094,-0.00000077,-0.00000154,0.00000111,0.00000339,-0.00000287,0.00
 000109,0.00000220,-0.00000162,0.00000016,0.00000418,-0.00000092,0.0000
 0048,0.00000261,-0.00000074,0.00000017,0.00000151,-0.00000010,0.000000
 36,0.00000346,0.00000032,0.00000034,0.00000132,-0.00000131,0.00000023,
 0.00000040,-0.00000126,-0.00000233,0.00000049,-0.00000102,-0.00000052,
 0.00000359,-0.00000020,0.00000007,0.00000241,0.00000029,-0.00000063,0.
 00000118,0.00000146,-0.00000137,0.00000181,0.00000122,-0.00000057,0.00
 000126,0.00000191,-0.00000120,0.00000201,0.00000150,-0.00000073,0.0000
 0254,0.00000044,-0.00000074,0.00000423,-0.00000007,-0.00000049,0.00000
 497,0.00000026,-0.00000092,0.00000434,0.00000097,-0.00000111,0.0000048
 5,-0.00000073,-0.00000017,0.00000305,0.00000004,-0.00000038,0.00000347
 ,-0.00000053,-0.00000011,0.00000216,-0.00000119,0.00000012,0.00000364,
 -0.00000135,0.00000174,-0.00000118,-0.00000019,-0.00000127,0.00000106,
 -0.00000140,0.00000104,-0.00000113,-0.00000117,0.00000068,-0.00000012,
 -0.00000250,0.00000079,-0.00000122,-0.00000246,0.00000145,-0.00000212,
 -0.00000139,0.00000081,-0.00000127,-0.00000152,0.00000059,-0.00000239,
 -0.00000164,-0.00000055,-0.00000140,0.00000230,-0.00000096,0.00000013,
 0.00000220,-0.00000129,0.00000106,0.00000206,-0.00000102,0.00000174,0.
 00000197,-0.00000121,0.00000036,0.00000275,-0.00000145,0.00000074,0.00
 000108,-0.00000085,0.00000100,0.00000213,-0.00000113,0.00000056,0.0000
 0054,-0.00000043,0.00000072,0.00000123,-0.00000091,0.00000179,0.000000
 73,-0.00000046,-0.00000016,0.00000028,0.00000001,-0.00000014,0.0000009
 2,-0.00000042,-0.00000032,-0.00000051,0.00000105,-0.00000092,0.0000029
 0,-0.00000247,0.00000525,0.00000091,0.00000006,0.00000290,0.00000076,-
 0.00000005,0.00000534,0.00000095,-0.00000053,0.00000415\\\@


 LET US LEARN TO DREAM, GENTLEMEN, THEN PERHAPS WE SHALL
 DISCOVER THE TRUTH;  BUT LET US BEWARE OF PUBLISHING
 OUR DREAMS ABROAD BEFORE THEY HAVE BEEN SCRUTINIZED
 BY OUR VIGILANT INTELLECT ... LET US ALWAYS ALLOW
 THE FRUIT TO HANG UNTIL IT IS RIPE.  UNRIPE FRUIT
 BRINGS EVEN THE GROWER BUT LITTLE PROFIT; IT DAMAGES
 THE HEALTH OF THOSE WHO CONSUME IT; IT ENDANGERS
 PARTICULARLY THE YOUTH WHO CANNOT YET DISTINGUISH
 BETWEEN RIPE AND UNRIPE FRUIT.

                                  -- KEKULE, 1890
 Job cpu time:       4 days 11 hours 34 minutes 25.6 seconds.
 Elapsed time:       0 days  3 hours 31 minutes 25.2 seconds.
 File lengths (MBytes):  RWF=   9745 Int=      0 D2E=      0 Chk=    107 Scr=      1
 Normal termination of Gaussian 16 at Thu May  9 15:37:39 2019.
