 Entering Gaussian System, Link 0=g16
 Input=clay_new-glu_gluC6-ADUL-Na_1Me2O-bisCF3-ts-b3lyp_d3bj-631gd-pcm_thf.gjf
 Output=clay_new-glu_gluC6-ADUL-Na_1Me2O-bisCF3-ts-b3lyp_d3bj-631gd-pcm_thf.out
 Initial command:
 /home/ekwan/sw/g16/l1.exe "/scratch/users/ekwan/clay_new-glu_gluC6-ADUL-Na_1Me2O-bisCF3-ts-b3lyp_d3bj-631gd-pcm_thf/Gau-38346.inp" -scrdir="/scratch/users/ekwan/clay_new-glu_gluC6-ADUL-Na_1Me2O-bisCF3-ts-b3lyp_d3bj-631gd-pcm_thf/"
 Entering Link 1 = /home/ekwan/sw/g16/l1.exe PID=     38347.
  
 Copyright (c) 1988,1990,1992,1993,1995,1998,2003,2009,2016,
            Gaussian, Inc.  All Rights Reserved.
  
 This is part of the Gaussian(R) 16 program.  It is based on
 the Gaussian(R) 09 system (copyright 2009, Gaussian, Inc.),
 the Gaussian(R) 03 system (copyright 2003, Gaussian, Inc.),
 the Gaussian(R) 98 system (copyright 1998, Gaussian, Inc.),
 the Gaussian(R) 94 system (copyright 1995, Gaussian, Inc.),
 the Gaussian 92(TM) system (copyright 1992, Gaussian, Inc.),
 the Gaussian 90(TM) system (copyright 1990, Gaussian, Inc.),
 the Gaussian 88(TM) system (copyright 1988, Gaussian, Inc.),
 the Gaussian 86(TM) system (copyright 1986, Carnegie Mellon
 University), and the Gaussian 82(TM) system (copyright 1983,
 Carnegie Mellon University). Gaussian is a federally registered
 trademark of Gaussian, Inc.
  
 This software contains proprietary and confidential information,
 including trade secrets, belonging to Gaussian, Inc.
  
 This software is provided under written license and may be
 used, copied, transmitted, or stored only in accord with that
 written license.
  
 The following legend is applicable only to US Government
 contracts under FAR:
  
                    RESTRICTED RIGHTS LEGEND
  
 Use, reproduction and disclosure by the US Government is
 subject to restrictions as set forth in subparagraphs (a)
 and (c) of the Commercial Computer Software - Restricted
 Rights clause in FAR 52.227-19.
  
 Gaussian, Inc.
 340 Quinnipiac St., Bldg. 40, Wallingford CT 06492
  
  
 ---------------------------------------------------------------
 Warning -- This program may not be used in any manner that
 competes with the business of Gaussian, Inc. or will provide
 assistance to any competitor of Gaussian, Inc.  The licensee
 of this program is prohibited from giving any competitor of
 Gaussian, Inc. access to this program.  By using this program,
 the user acknowledges that Gaussian, Inc. is engaged in the
 business of creating and licensing software in the field of
 computational chemistry and represents and warrants to the
 licensee that it is not a competitor of Gaussian, Inc. and that
 it will not use this program in any manner prohibited above.
 ---------------------------------------------------------------
  

 Cite this work as:
 Gaussian 16, Revision A.03,
 M. J. Frisch, G. W. Trucks, H. B. Schlegel, G. E. Scuseria, 
 M. A. Robb, J. R. Cheeseman, G. Scalmani, V. Barone, 
 G. A. Petersson, H. Nakatsuji, X. Li, M. Caricato, A. V. Marenich, 
 J. Bloino, B. G. Janesko, R. Gomperts, B. Mennucci, H. P. Hratchian, 
 J. V. Ortiz, A. F. Izmaylov, J. L. Sonnenberg, D. Williams-Young, 
 F. Ding, F. Lipparini, F. Egidi, J. Goings, B. Peng, A. Petrone, 
 T. Henderson, D. Ranasinghe, V. G. Zakrzewski, J. Gao, N. Rega, 
 G. Zheng, W. Liang, M. Hada, M. Ehara, K. Toyota, R. Fukuda, 
 J. Hasegawa, M. Ishida, T. Nakajima, Y. Honda, O. Kitao, H. Nakai, 
 T. Vreven, K. Throssell, J. A. Montgomery, Jr., J. E. Peralta, 
 F. Ogliaro, M. J. Bearpark, J. J. Heyd, E. N. Brothers, K. N. Kudin, 
 V. N. Staroverov, T. A. Keith, R. Kobayashi, J. Normand, 
 K. Raghavachari, A. P. Rendell, J. C. Burant, S. S. Iyengar, 
 J. Tomasi, M. Cossi, J. M. Millam, M. Klene, C. Adamo, R. Cammi, 
 J. W. Ochterski, R. L. Martin, K. Morokuma, O. Farkas, 
 J. B. Foresman, and D. J. Fox, Gaussian, Inc., Wallingford CT, 2016.
 
 ******************************************
 Gaussian 16:  AS64L-G16RevA.03 25-Dec-2016
                 7-May-2019 
 ******************************************
 %mem=48GB
 %nprocshared=32
 Will use up to   32 processors via shared memory.
 ----------------------------------------------------------------------
 #p opt=(ts,noeigentest,calcfc,maxstep=3,modredundant,recalc=30) freq=n
 oraman b3lyp 6-31g* pop=none scrf=(solvent=tetrahydrofuran,pcm) empiri
 caldispersion=gd3bj
 ----------------------------------------------------------------------
 1/5=1,8=3,10=4,11=1,18=120,26=3,38=1,71=30/1,3;
 2/9=110,12=2,17=6,18=5,40=1/2;
 3/5=1,6=6,7=1,11=2,25=1,30=1,70=2201,71=2,72=20,74=-5,124=41,140=1/1,2,3;
 4//1;
 5/5=2,38=5,53=20/2;
 8/6=4,10=90,11=11/1;
 11/6=1,8=1,9=11,15=111,16=1/1,2,10;
 10/6=1,13=1/2;
 7/10=1,18=20,25=1/1,2,3,16;
 1/5=1,8=3,10=4,11=1,18=20,26=3,71=30/3(2);
 2/9=110/2;
 99//99;
 2/9=110/2;
 3/5=1,6=6,7=1,11=2,25=1,30=1,70=2205,71=1,72=20,74=-5,124=41/1,2,3;
 4/5=5,16=3,69=1/1;
 5/5=2,38=5,53=20/2;
 7//1,2,3,16;
 1/5=1,8=3,11=1,18=20,26=3,71=30/3(-5);
 2/9=110/2;
 99/9=1/99;
 Leave Link    1 at Tue May  7 15:56:24 2019, MaxMem=  6442450944 cpu:               7.5 elap:               0.3
 (Enter /home/ekwan/sw/g16/l101.exe)
 -----
 title
 -----
 Symbolic Z-matrix:
 Charge =  0 Multiplicity = 1
 C                     5.46606  -0.24284   0.50925 
 C                     5.64562  -1.39336  -0.48563 
 C                     4.31233  -1.77848  -1.15298 
 C                     3.34361   0.36463  -0.70485 
 C                     4.65479   0.89583  -0.11468 
 H                     4.48275  -2.42416  -2.02425 
 H                     6.31123  -1.04042  -1.28948 
 H                     4.91833  -0.61384   1.38647 
 H                     2.75081  -0.10688   0.08843 
 H                     5.23497   1.35072  -0.92861 
 O                     3.6876   -0.6297   -1.68903 
 O                     3.51871  -2.44473  -0.20756 
 O                     6.25448  -2.46705   0.20718 
 O                     6.72985   0.27562   0.90899 
 O                     4.38427   1.89526   0.87822 
 C                     2.4448    1.42135  -1.39105 
 H                     1.92371   0.84722  -2.19309 
 H                     3.11442   2.12577  -1.93662 
 O                     1.57312   2.04145  -0.5305 
 C                     6.69253  -3.52545  -0.62905 
 H                     5.8509   -4.09175  -1.04946 
 H                     7.31725  -3.15214  -1.45386 
 H                     7.28849  -4.19494  -0.00439 
 C                     7.23789  -0.26511   2.12135 
 H                     6.54     -0.09196   2.95411 
 H                     7.42987  -1.33882   2.03299 
 H                     8.17362   0.26055   2.3291 
 C                     5.30527   2.98952   0.86746 
 H                     6.32517   2.63818   1.03562 
 H                     5.25108   3.52869  -0.08757 
 H                     5.00702   3.66113   1.6776 
 C                    -2.61191   1.96869   0.27387 
 C                    -1.23621   1.3337    0.07697 
 C                    -0.76829   1.4901   -1.35585 
 C                    -2.05631   3.49299  -1.68707 
 C                    -2.55084   3.40444  -0.23906 
 H                     0.04018   0.88904  -1.73358 
 H                    -0.50882   1.89852   0.6729 
 H                    -3.36355   1.41058  -0.2945 
 H                    -2.85956   3.16237  -2.35321 
 H                    -1.86479   3.977     0.394 
 O                    -0.91929   2.6274   -1.97865 
 O                    -0.317    -1.17776  -2.7549 
 O                    -1.2735   -0.00789   0.5014 
 O                    -2.96702   2.01095   1.64835 
 O                    -3.83463   4.00885  -0.2491 
 C                    -1.64049   4.91289  -2.0584 
 H                    -2.54585   5.52642  -2.04561 
 H                    -1.23015   4.91347  -3.07814 
 O                    -0.73603   5.50356  -1.14555 
 S                    -1.77969  -0.97098  -2.69568 
 O                    -2.55486  -1.30933  -3.90115 
 O                    -2.13967   0.44881  -2.22331 
 C                    -2.37695  -2.01728  -1.36505 
 C                    -1.56569  -3.04072  -0.90076 
 C                    -3.62045  -1.7624   -0.78823 
 C                    -1.99124  -3.80524   0.18869 
 H                    -0.59973  -3.21026  -1.35926 
 C                    -4.03403  -2.5365    0.28977 
 H                    -4.23673  -0.95064  -1.15321 
 C                    -3.21958  -3.55729   0.79162 
 H                    -3.53939  -4.14426   1.64481 
 C                    -0.00448  -0.59405   0.76814 
 H                     0.58893  -0.70169  -0.14298 
 H                     0.56168   0.00366   1.49105 
 H                    -0.20439  -1.58124   1.18691 
 C                    -3.76262   0.90926   2.07858 
 H                    -4.67969   0.8316    1.48025 
 H                    -3.21009  -0.03132   2.01151 
 H                    -4.03113   1.10685   3.11908 
 C                    -4.08988   4.85785   0.86463 
 H                    -4.08362   4.29475   1.80349 
 H                    -3.34864   5.66737   0.92084 
 H                    -5.07985   5.29136   0.70336 
 C                     0.63884   5.16807  -1.36441 
 H                     1.21652   5.82072  -0.70247 
 H                     0.86492   4.11886  -1.13783 
 H                     0.92346   5.38311  -2.4053 
 C                     2.37991  -3.08027  -0.78603 
 H                     1.81789  -3.52791   0.03509 
 H                     1.74799  -2.36338  -1.32219 
 H                     2.69106  -3.86984  -1.48455 
 Na                    2.21912   2.49986   1.46013 
 O                     0.38515   2.85606   2.79619 
 C                    -0.13299   1.87683   3.69527 
 H                    -1.15019   1.59819   3.40023 
 H                     0.52111   1.00421   3.63572 
 H                    -0.13486   2.25714   4.72539 
 C                    -0.37005   4.06503   2.83377 
 H                    -0.24824   4.5686    3.80236 
 H                     0.00708   4.70965   2.03671 
 H                    -1.43139   3.85383   2.66543 
 C                    -1.04356  -4.81156   0.77551 
 F                    -0.32434  -5.44279  -0.17645 
 F                    -1.67263  -5.74837   1.51019 
 F                    -0.14173  -4.2041    1.59718 
 C                    -5.34061  -2.25958   0.9797 
 F                    -6.0256   -1.25194   0.40014 
 F                    -5.14297  -1.91383   2.27714 
 F                    -6.14242  -3.34626   0.98984 
 
 Add virtual bond connecting atoms O53        and C34        Dist= 3.64D+00.
 Add virtual bond connecting atoms H37        and H17        Dist= 3.66D+00.
 The following ModRedundant input section has been read:
 
 ITRead=  0  0  0  0  0  0  0  0  0  0  0  0  0  0  0  0  0  0  0  0
 ITRead=  0  0  0  0  0  0  0  0  0  0  0  0  0  0  0  0  0  0  0  0
 ITRead=  0  0  0  0  0  0  0  0  0  0  0  0  0  0  0  0  0  0  0  0
 ITRead=  0  0  0  0  0  0  0  0  0  0  0  0  0  0  0  0  0  0  0  0
 ITRead=  0  0  0  0  0  0  0  0  0  0  0  0  0  0  0  0  0  0  0  0
 MicOpt= -1 -1 -1 -1 -1 -1 -1 -1 -1 -1 -1 -1 -1 -1 -1 -1 -1 -1 -1 -1
 MicOpt= -1 -1 -1 -1 -1 -1 -1 -1 -1 -1 -1 -1 -1 -1 -1 -1 -1 -1 -1 -1
 MicOpt= -1 -1 -1 -1 -1 -1 -1 -1 -1 -1 -1 -1 -1 -1 -1 -1 -1 -1 -1 -1
 MicOpt= -1 -1 -1 -1 -1 -1 -1 -1 -1 -1 -1 -1 -1 -1 -1 -1 -1 -1 -1 -1
 MicOpt= -1 -1 -1 -1 -1 -1 -1 -1 -1 -1 -1 -1 -1 -1 -1 -1 -1 -1 -1 -1
 NAtoms=    100 NQM=      100 NQMF=       0 NMMI=      0 NMMIF=      0
                NMic=       0 NMicF=      0.
                    Isotopes and Nuclear Properties:
 (Nuclear quadrupole moments (NQMom) in fm**2, nuclear magnetic moments (NMagM)
  in nuclear magnetons)

  Atom         1           2           3           4           5           6           7           8           9          10
 IAtWgt=          12          12          12          12          12           1           1           1           1           1
 AtmWgt=  12.0000000  12.0000000  12.0000000  12.0000000  12.0000000   1.0078250   1.0078250   1.0078250   1.0078250   1.0078250
 NucSpn=           0           0           0           0           0           1           1           1           1           1
 AtZEff=   0.0000000   0.0000000   0.0000000   0.0000000   0.0000000   0.0000000   0.0000000   0.0000000   0.0000000   0.0000000
 NQMom=    0.0000000   0.0000000   0.0000000   0.0000000   0.0000000   0.0000000   0.0000000   0.0000000   0.0000000   0.0000000
 NMagM=    0.0000000   0.0000000   0.0000000   0.0000000   0.0000000   2.7928460   2.7928460   2.7928460   2.7928460   2.7928460
 AtZNuc=   6.0000000   6.0000000   6.0000000   6.0000000   6.0000000   1.0000000   1.0000000   1.0000000   1.0000000   1.0000000

  Atom        11          12          13          14          15          16          17          18          19          20
 IAtWgt=          16          16          16          16          16          12           1           1          16          12
 AtmWgt=  15.9949146  15.9949146  15.9949146  15.9949146  15.9949146  12.0000000   1.0078250   1.0078250  15.9949146  12.0000000
 NucSpn=           0           0           0           0           0           0           1           1           0           0
 AtZEff=   0.0000000   0.0000000   0.0000000   0.0000000   0.0000000   0.0000000   0.0000000   0.0000000   0.0000000   0.0000000
 NQMom=    0.0000000   0.0000000   0.0000000   0.0000000   0.0000000   0.0000000   0.0000000   0.0000000   0.0000000   0.0000000
 NMagM=    0.0000000   0.0000000   0.0000000   0.0000000   0.0000000   0.0000000   2.7928460   2.7928460   0.0000000   0.0000000
 AtZNuc=   8.0000000   8.0000000   8.0000000   8.0000000   8.0000000   6.0000000   1.0000000   1.0000000   8.0000000   6.0000000

  Atom        21          22          23          24          25          26          27          28          29          30
 IAtWgt=           1           1           1          12           1           1           1          12           1           1
 AtmWgt=   1.0078250   1.0078250   1.0078250  12.0000000   1.0078250   1.0078250   1.0078250  12.0000000   1.0078250   1.0078250
 NucSpn=           1           1           1           0           1           1           1           0           1           1
 AtZEff=   0.0000000   0.0000000   0.0000000   0.0000000   0.0000000   0.0000000   0.0000000   0.0000000   0.0000000   0.0000000
 NQMom=    0.0000000   0.0000000   0.0000000   0.0000000   0.0000000   0.0000000   0.0000000   0.0000000   0.0000000   0.0000000
 NMagM=    2.7928460   2.7928460   2.7928460   0.0000000   2.7928460   2.7928460   2.7928460   0.0000000   2.7928460   2.7928460
 AtZNuc=   1.0000000   1.0000000   1.0000000   6.0000000   1.0000000   1.0000000   1.0000000   6.0000000   1.0000000   1.0000000

  Atom        31          32          33          34          35          36          37          38          39          40
 IAtWgt=           1          12          12          12          12          12           1           1           1           1
 AtmWgt=   1.0078250  12.0000000  12.0000000  12.0000000  12.0000000  12.0000000   1.0078250   1.0078250   1.0078250   1.0078250
 NucSpn=           1           0           0           0           0           0           1           1           1           1
 AtZEff=   0.0000000   0.0000000   0.0000000   0.0000000   0.0000000   0.0000000   0.0000000   0.0000000   0.0000000   0.0000000
 NQMom=    0.0000000   0.0000000   0.0000000   0.0000000   0.0000000   0.0000000   0.0000000   0.0000000   0.0000000   0.0000000
 NMagM=    2.7928460   0.0000000   0.0000000   0.0000000   0.0000000   0.0000000   2.7928460   2.7928460   2.7928460   2.7928460
 AtZNuc=   1.0000000   6.0000000   6.0000000   6.0000000   6.0000000   6.0000000   1.0000000   1.0000000   1.0000000   1.0000000

  Atom        41          42          43          44          45          46          47          48          49          50
 IAtWgt=           1          16          16          16          16          16          12           1           1          16
 AtmWgt=   1.0078250  15.9949146  15.9949146  15.9949146  15.9949146  15.9949146  12.0000000   1.0078250   1.0078250  15.9949146
 NucSpn=           1           0           0           0           0           0           0           1           1           0
 AtZEff=   0.0000000   0.0000000   0.0000000   0.0000000   0.0000000   0.0000000   0.0000000   0.0000000   0.0000000   0.0000000
 NQMom=    0.0000000   0.0000000   0.0000000   0.0000000   0.0000000   0.0000000   0.0000000   0.0000000   0.0000000   0.0000000
 NMagM=    2.7928460   0.0000000   0.0000000   0.0000000   0.0000000   0.0000000   0.0000000   2.7928460   2.7928460   0.0000000
 AtZNuc=   1.0000000   8.0000000   8.0000000   8.0000000   8.0000000   8.0000000   6.0000000   1.0000000   1.0000000   8.0000000

  Atom        51          52          53          54          55          56          57          58          59          60
 IAtWgt=          32          16          16          12          12          12          12           1          12           1
 AtmWgt=  31.9720718  15.9949146  15.9949146  12.0000000  12.0000000  12.0000000  12.0000000   1.0078250  12.0000000   1.0078250
 NucSpn=           0           0           0           0           0           0           0           1           0           1
 AtZEff=   0.0000000   0.0000000   0.0000000   0.0000000   0.0000000   0.0000000   0.0000000   0.0000000   0.0000000   0.0000000
 NQMom=    0.0000000   0.0000000   0.0000000   0.0000000   0.0000000   0.0000000   0.0000000   0.0000000   0.0000000   0.0000000
 NMagM=    0.0000000   0.0000000   0.0000000   0.0000000   0.0000000   0.0000000   0.0000000   2.7928460   0.0000000   2.7928460
 AtZNuc=  16.0000000   8.0000000   8.0000000   6.0000000   6.0000000   6.0000000   6.0000000   1.0000000   6.0000000   1.0000000

  Atom        61          62          63          64          65          66          67          68          69          70
 IAtWgt=          12           1          12           1           1           1          12           1           1           1
 AtmWgt=  12.0000000   1.0078250  12.0000000   1.0078250   1.0078250   1.0078250  12.0000000   1.0078250   1.0078250   1.0078250
 NucSpn=           0           1           0           1           1           1           0           1           1           1
 AtZEff=   0.0000000   0.0000000   0.0000000   0.0000000   0.0000000   0.0000000   0.0000000   0.0000000   0.0000000   0.0000000
 NQMom=    0.0000000   0.0000000   0.0000000   0.0000000   0.0000000   0.0000000   0.0000000   0.0000000   0.0000000   0.0000000
 NMagM=    0.0000000   2.7928460   0.0000000   2.7928460   2.7928460   2.7928460   0.0000000   2.7928460   2.7928460   2.7928460
 AtZNuc=   6.0000000   1.0000000   6.0000000   1.0000000   1.0000000   1.0000000   6.0000000   1.0000000   1.0000000   1.0000000

  Atom        71          72          73          74          75          76          77          78          79          80
 IAtWgt=          12           1           1           1          12           1           1           1          12           1
 AtmWgt=  12.0000000   1.0078250   1.0078250   1.0078250  12.0000000   1.0078250   1.0078250   1.0078250  12.0000000   1.0078250
 NucSpn=           0           1           1           1           0           1           1           1           0           1
 AtZEff=   0.0000000   0.0000000   0.0000000   0.0000000   0.0000000   0.0000000   0.0000000   0.0000000   0.0000000   0.0000000
 NQMom=    0.0000000   0.0000000   0.0000000   0.0000000   0.0000000   0.0000000   0.0000000   0.0000000   0.0000000   0.0000000
 NMagM=    0.0000000   2.7928460   2.7928460   2.7928460   0.0000000   2.7928460   2.7928460   2.7928460   0.0000000   2.7928460
 AtZNuc=   6.0000000   1.0000000   1.0000000   1.0000000   6.0000000   1.0000000   1.0000000   1.0000000   6.0000000   1.0000000

  Atom        81          82          83          84          85          86          87          88          89          90
 IAtWgt=           1           1          23          16          12           1           1           1          12           1
 AtmWgt=   1.0078250   1.0078250  22.9897697  15.9949146  12.0000000   1.0078250   1.0078250   1.0078250  12.0000000   1.0078250
 NucSpn=           1           1           3           0           0           1           1           1           0           1
 AtZEff=   0.0000000   0.0000000   0.0000000   0.0000000   0.0000000   0.0000000   0.0000000   0.0000000   0.0000000   0.0000000
 NQMom=    0.0000000   0.0000000  10.4000000   0.0000000   0.0000000   0.0000000   0.0000000   0.0000000   0.0000000   0.0000000
 NMagM=    2.7928460   2.7928460   2.2175200   0.0000000   0.0000000   2.7928460   2.7928460   2.7928460   0.0000000   2.7928460
 AtZNuc=   1.0000000   1.0000000  11.0000000   8.0000000   6.0000000   1.0000000   1.0000000   1.0000000   6.0000000   1.0000000

  Atom        91          92          93          94          95          96          97          98          99         100
 IAtWgt=           1           1          12          19          19          19          12          19          19          19
 AtmWgt=   1.0078250   1.0078250  12.0000000  18.9984033  18.9984033  18.9984033  12.0000000  18.9984033  18.9984033  18.9984033
 NucSpn=           1           1           0           1           1           1           0           1           1           1
 AtZEff=   0.0000000   0.0000000   0.0000000   0.0000000   0.0000000   0.0000000   0.0000000   0.0000000   0.0000000   0.0000000
 NQMom=    0.0000000   0.0000000   0.0000000   0.0000000   0.0000000   0.0000000   0.0000000   0.0000000   0.0000000   0.0000000
 NMagM=    2.7928460   2.7928460   0.0000000   2.6288670   2.6288670   2.6288670   0.0000000   2.6288670   2.6288670   2.6288670
 AtZNuc=   1.0000000   1.0000000   6.0000000   9.0000000   9.0000000   9.0000000   6.0000000   9.0000000   9.0000000   9.0000000
 Leave Link  101 at Tue May  7 15:56:25 2019, MaxMem=  6442450944 cpu:              28.2 elap:               1.1
 (Enter /home/ekwan/sw/g16/l103.exe)

 GradGradGradGradGradGradGradGradGradGradGradGradGradGradGradGradGradGrad
 Berny optimization.
 Initialization pass.
                           ----------------------------
                           !    Initial Parameters    !
                           ! (Angstroms and Degrees)  !
 --------------------------                            --------------------------
 ! Name  Definition              Value          Derivative Info.                !
 --------------------------------------------------------------------------------
 ! R1    R(1,2)                  1.5316         calculate D2E/DX2 analytically  !
 ! R2    R(1,5)                  1.531          calculate D2E/DX2 analytically  !
 ! R3    R(1,8)                  1.0987         calculate D2E/DX2 analytically  !
 ! R4    R(1,14)                 1.4233         calculate D2E/DX2 analytically  !
 ! R5    R(2,3)                  1.5399         calculate D2E/DX2 analytically  !
 ! R6    R(2,7)                  1.1017         calculate D2E/DX2 analytically  !
 ! R7    R(2,13)                 1.4155         calculate D2E/DX2 analytically  !
 ! R8    R(3,6)                  1.0978         calculate D2E/DX2 analytically  !
 ! R9    R(3,11)                 1.4133         calculate D2E/DX2 analytically  !
 ! R10   R(3,12)                 1.4027         calculate D2E/DX2 analytically  !
 ! R11   R(4,5)                  1.5329         calculate D2E/DX2 analytically  !
 ! R12   R(4,9)                  1.0968         calculate D2E/DX2 analytically  !
 ! R13   R(4,11)                 1.4407         calculate D2E/DX2 analytically  !
 ! R14   R(4,16)                 1.5477         calculate D2E/DX2 analytically  !
 ! R15   R(5,10)                 1.0982         calculate D2E/DX2 analytically  !
 ! R16   R(5,15)                 1.4345         calculate D2E/DX2 analytically  !
 ! R17   R(12,79)                1.4267         calculate D2E/DX2 analytically  !
 ! R18   R(13,20)                1.4182         calculate D2E/DX2 analytically  !
 ! R19   R(14,24)                1.4214         calculate D2E/DX2 analytically  !
 ! R20   R(15,28)                1.4303         calculate D2E/DX2 analytically  !
 ! R21   R(16,17)                1.1155         calculate D2E/DX2 analytically  !
 ! R22   R(16,18)                1.1146         calculate D2E/DX2 analytically  !
 ! R23   R(16,19)                1.3729         calculate D2E/DX2 analytically  !
 ! R24   R(17,37)                1.9392         calculate D2E/DX2 analytically  !
 ! R25   R(19,83)                2.1424         calculate D2E/DX2 analytically  !
 ! R26   R(20,21)                1.0981         calculate D2E/DX2 analytically  !
 ! R27   R(20,22)                1.1            calculate D2E/DX2 analytically  !
 ! R28   R(20,23)                1.0925         calculate D2E/DX2 analytically  !
 ! R29   R(24,25)                1.1002         calculate D2E/DX2 analytically  !
 ! R30   R(24,26)                1.0943         calculate D2E/DX2 analytically  !
 ! R31   R(24,27)                1.0932         calculate D2E/DX2 analytically  !
 ! R32   R(28,29)                1.0917         calculate D2E/DX2 analytically  !
 ! R33   R(28,30)                1.0981         calculate D2E/DX2 analytically  !
 ! R34   R(28,31)                1.0938         calculate D2E/DX2 analytically  !
 ! R35   R(32,33)                1.5279         calculate D2E/DX2 analytically  !
 ! R36   R(32,36)                1.5258         calculate D2E/DX2 analytically  !
 ! R37   R(32,39)                1.0952         calculate D2E/DX2 analytically  !
 ! R38   R(32,45)                1.4202         calculate D2E/DX2 analytically  !
 ! R39   R(33,34)                1.5154         calculate D2E/DX2 analytically  !
 ! R40   R(33,38)                1.0969         calculate D2E/DX2 analytically  !
 ! R41   R(33,44)                1.4076         calculate D2E/DX2 analytically  !
 ! R42   R(34,37)                1.0759         calculate D2E/DX2 analytically  !
 ! R43   R(34,42)                1.3054         calculate D2E/DX2 analytically  !
 ! R44   R(34,53)                1.9281         calculate D2E/DX2 analytically  !
 ! R45   R(35,36)                1.5327         calculate D2E/DX2 analytically  !
 ! R46   R(35,40)                1.0946         calculate D2E/DX2 analytically  !
 ! R47   R(35,42)                1.4584         calculate D2E/DX2 analytically  !
 ! R48   R(35,47)                1.5254         calculate D2E/DX2 analytically  !
 ! R49   R(36,41)                1.0951         calculate D2E/DX2 analytically  !
 ! R50   R(36,46)                1.419          calculate D2E/DX2 analytically  !
 ! R51   R(43,51)                1.4784         calculate D2E/DX2 analytically  !
 ! R52   R(44,63)                1.4231         calculate D2E/DX2 analytically  !
 ! R53   R(45,67)                1.4254         calculate D2E/DX2 analytically  !
 ! R54   R(46,71)                1.4235         calculate D2E/DX2 analytically  !
 ! R55   R(47,48)                1.0937         calculate D2E/DX2 analytically  !
 ! R56   R(47,49)                1.0992         calculate D2E/DX2 analytically  !
 ! R57   R(47,50)                1.4143         calculate D2E/DX2 analytically  !
 ! R58   R(50,75)                1.432          calculate D2E/DX2 analytically  !
 ! R59   R(51,52)                1.4726         calculate D2E/DX2 analytically  !
 ! R60   R(51,53)                1.539          calculate D2E/DX2 analytically  !
 ! R61   R(51,54)                1.795          calculate D2E/DX2 analytically  !
 ! R62   R(54,55)                1.386          calculate D2E/DX2 analytically  !
 ! R63   R(54,56)                1.3943         calculate D2E/DX2 analytically  !
 ! R64   R(55,57)                1.3973         calculate D2E/DX2 analytically  !
 ! R65   R(55,58)                1.0826         calculate D2E/DX2 analytically  !
 ! R66   R(56,59)                1.3901         calculate D2E/DX2 analytically  !
 ! R67   R(56,60)                1.0826         calculate D2E/DX2 analytically  !
 ! R68   R(57,61)                1.3906         calculate D2E/DX2 analytically  !
 ! R69   R(57,93)                1.5017         calculate D2E/DX2 analytically  !
 ! R70   R(59,61)                1.399          calculate D2E/DX2 analytically  !
 ! R71   R(59,97)                1.5033         calculate D2E/DX2 analytically  !
 ! R72   R(61,62)                1.0839         calculate D2E/DX2 analytically  !
 ! R73   R(63,64)                1.0926         calculate D2E/DX2 analytically  !
 ! R74   R(63,65)                1.0956         calculate D2E/DX2 analytically  !
 ! R75   R(63,66)                1.0908         calculate D2E/DX2 analytically  !
 ! R76   R(67,68)                1.0978         calculate D2E/DX2 analytically  !
 ! R77   R(67,69)                1.0929         calculate D2E/DX2 analytically  !
 ! R78   R(67,70)                1.0926         calculate D2E/DX2 analytically  !
 ! R79   R(71,72)                1.0948         calculate D2E/DX2 analytically  !
 ! R80   R(71,73)                1.0991         calculate D2E/DX2 analytically  !
 ! R81   R(71,74)                1.0927         calculate D2E/DX2 analytically  !
 ! R82   R(75,76)                1.0945         calculate D2E/DX2 analytically  !
 ! R83   R(75,77)                1.0969         calculate D2E/DX2 analytically  !
 ! R84   R(75,78)                1.1003         calculate D2E/DX2 analytically  !
 ! R85   R(79,80)                1.0911         calculate D2E/DX2 analytically  !
 ! R86   R(79,81)                1.0958         calculate D2E/DX2 analytically  !
 ! R87   R(79,82)                1.0992         calculate D2E/DX2 analytically  !
 ! R88   R(83,84)                2.2968         calculate D2E/DX2 analytically  !
 ! R89   R(84,85)                1.4268         calculate D2E/DX2 analytically  !
 ! R90   R(84,89)                1.426          calculate D2E/DX2 analytically  !
 ! R91   R(85,86)                1.0952         calculate D2E/DX2 analytically  !
 ! R92   R(85,87)                1.0922         calculate D2E/DX2 analytically  !
 ! R93   R(85,88)                1.0981         calculate D2E/DX2 analytically  !
 ! R94   R(89,90)                1.0984         calculate D2E/DX2 analytically  !
 ! R95   R(89,91)                1.0923         calculate D2E/DX2 analytically  !
 ! R96   R(89,92)                1.0952         calculate D2E/DX2 analytically  !
 ! R97   R(93,94)                1.3498         calculate D2E/DX2 analytically  !
 ! R98   R(93,95)                1.3465         calculate D2E/DX2 analytically  !
 ! R99   R(93,96)                1.3629         calculate D2E/DX2 analytically  !
 ! R100  R(97,98)                1.3492         calculate D2E/DX2 analytically  !
 ! R101  R(97,99)                1.3572         calculate D2E/DX2 analytically  !
 ! R102  R(97,100)               1.3505         calculate D2E/DX2 analytically  !
 ! A1    A(2,1,5)              110.8609         calculate D2E/DX2 analytically  !
 ! A2    A(2,1,8)              108.8697         calculate D2E/DX2 analytically  !
 ! A3    A(2,1,14)             110.6078         calculate D2E/DX2 analytically  !
 ! A4    A(5,1,8)              108.201          calculate D2E/DX2 analytically  !
 ! A5    A(5,1,14)             108.3035         calculate D2E/DX2 analytically  !
 ! A6    A(8,1,14)             109.963          calculate D2E/DX2 analytically  !
 ! A7    A(1,2,3)              111.584          calculate D2E/DX2 analytically  !
 ! A8    A(1,2,7)              107.7064         calculate D2E/DX2 analytically  !
 ! A9    A(1,2,13)             107.5966         calculate D2E/DX2 analytically  !
 ! A10   A(3,2,7)              106.6786         calculate D2E/DX2 analytically  !
 ! A11   A(3,2,13)             113.2559         calculate D2E/DX2 analytically  !
 ! A12   A(7,2,13)             109.8929         calculate D2E/DX2 analytically  !
 ! A13   A(2,3,6)              110.8946         calculate D2E/DX2 analytically  !
 ! A14   A(2,3,11)             110.1098         calculate D2E/DX2 analytically  !
 ! A15   A(2,3,12)             108.4554         calculate D2E/DX2 analytically  !
 ! A16   A(6,3,11)             104.222          calculate D2E/DX2 analytically  !
 ! A17   A(6,3,12)             110.0846         calculate D2E/DX2 analytically  !
 ! A18   A(11,3,12)            113.0563         calculate D2E/DX2 analytically  !
 ! A19   A(5,4,9)              109.4398         calculate D2E/DX2 analytically  !
 ! A20   A(5,4,11)             107.3343         calculate D2E/DX2 analytically  !
 ! A21   A(5,4,16)             115.5218         calculate D2E/DX2 analytically  !
 ! A22   A(9,4,11)             109.0518         calculate D2E/DX2 analytically  !
 ! A23   A(9,4,16)             107.4758         calculate D2E/DX2 analytically  !
 ! A24   A(11,4,16)            107.879          calculate D2E/DX2 analytically  !
 ! A25   A(1,5,4)              110.6361         calculate D2E/DX2 analytically  !
 ! A26   A(1,5,10)             109.2789         calculate D2E/DX2 analytically  !
 ! A27   A(1,5,15)             109.6343         calculate D2E/DX2 analytically  !
 ! A28   A(4,5,10)             108.0645         calculate D2E/DX2 analytically  !
 ! A29   A(4,5,15)             110.2802         calculate D2E/DX2 analytically  !
 ! A30   A(10,5,15)            108.9063         calculate D2E/DX2 analytically  !
 ! A31   A(3,11,4)             114.044          calculate D2E/DX2 analytically  !
 ! A32   A(3,12,79)            112.9497         calculate D2E/DX2 analytically  !
 ! A33   A(2,13,20)            114.227          calculate D2E/DX2 analytically  !
 ! A34   A(1,14,24)            114.7306         calculate D2E/DX2 analytically  !
 ! A35   A(5,15,28)            113.9774         calculate D2E/DX2 analytically  !
 ! A36   A(4,16,17)            103.8065         calculate D2E/DX2 analytically  !
 ! A37   A(4,16,18)            107.4355         calculate D2E/DX2 analytically  !
 ! A38   A(4,16,19)            113.528          calculate D2E/DX2 analytically  !
 ! A39   A(17,16,18)           104.7136         calculate D2E/DX2 analytically  !
 ! A40   A(17,16,19)           112.7391         calculate D2E/DX2 analytically  !
 ! A41   A(18,16,19)           113.754          calculate D2E/DX2 analytically  !
 ! A42   A(16,17,37)           105.7973         calculate D2E/DX2 analytically  !
 ! A43   A(16,19,83)           119.1822         calculate D2E/DX2 analytically  !
 ! A44   A(13,20,21)           111.9543         calculate D2E/DX2 analytically  !
 ! A45   A(13,20,22)           111.363          calculate D2E/DX2 analytically  !
 ! A46   A(13,20,23)           106.7784         calculate D2E/DX2 analytically  !
 ! A47   A(21,20,22)           108.8592         calculate D2E/DX2 analytically  !
 ! A48   A(21,20,23)           108.7221         calculate D2E/DX2 analytically  !
 ! A49   A(22,20,23)           109.0813         calculate D2E/DX2 analytically  !
 ! A50   A(14,24,25)           111.0393         calculate D2E/DX2 analytically  !
 ! A51   A(14,24,26)           111.5368         calculate D2E/DX2 analytically  !
 ! A52   A(14,24,27)           106.5656         calculate D2E/DX2 analytically  !
 ! A53   A(25,24,26)           109.0752         calculate D2E/DX2 analytically  !
 ! A54   A(25,24,27)           108.8707         calculate D2E/DX2 analytically  !
 ! A55   A(26,24,27)           109.6919         calculate D2E/DX2 analytically  !
 ! A56   A(15,28,29)           110.7432         calculate D2E/DX2 analytically  !
 ! A57   A(15,28,30)           110.5134         calculate D2E/DX2 analytically  !
 ! A58   A(15,28,31)           106.7746         calculate D2E/DX2 analytically  !
 ! A59   A(29,28,30)           109.7605         calculate D2E/DX2 analytically  !
 ! A60   A(29,28,31)           109.771          calculate D2E/DX2 analytically  !
 ! A61   A(30,28,31)           109.2224         calculate D2E/DX2 analytically  !
 ! A62   A(33,32,36)           108.1618         calculate D2E/DX2 analytically  !
 ! A63   A(33,32,39)           109.832          calculate D2E/DX2 analytically  !
 ! A64   A(33,32,45)           111.2358         calculate D2E/DX2 analytically  !
 ! A65   A(36,32,39)           109.4216         calculate D2E/DX2 analytically  !
 ! A66   A(36,32,45)           107.8987         calculate D2E/DX2 analytically  !
 ! A67   A(39,32,45)           110.2307         calculate D2E/DX2 analytically  !
 ! A68   A(32,33,34)           110.9145         calculate D2E/DX2 analytically  !
 ! A69   A(32,33,38)           108.2431         calculate D2E/DX2 analytically  !
 ! A70   A(32,33,44)           109.4747         calculate D2E/DX2 analytically  !
 ! A71   A(34,33,38)           104.8189         calculate D2E/DX2 analytically  !
 ! A72   A(34,33,44)           113.0567         calculate D2E/DX2 analytically  !
 ! A73   A(38,33,44)           110.1524         calculate D2E/DX2 analytically  !
 ! A74   A(33,34,37)           120.4193         calculate D2E/DX2 analytically  !
 ! A75   A(33,34,42)           120.3504         calculate D2E/DX2 analytically  !
 ! A76   A(33,34,53)            98.6285         calculate D2E/DX2 analytically  !
 ! A77   A(37,34,42)           113.9623         calculate D2E/DX2 analytically  !
 ! A78   A(37,34,53)            94.2901         calculate D2E/DX2 analytically  !
 ! A79   A(42,34,53)            99.9965         calculate D2E/DX2 analytically  !
 ! A80   A(36,35,40)           108.7057         calculate D2E/DX2 analytically  !
 ! A81   A(36,35,42)           113.9621         calculate D2E/DX2 analytically  !
 ! A82   A(36,35,47)           111.821          calculate D2E/DX2 analytically  !
 ! A83   A(40,35,42)           105.7331         calculate D2E/DX2 analytically  !
 ! A84   A(40,35,47)           109.453          calculate D2E/DX2 analytically  !
 ! A85   A(42,35,47)           106.9335         calculate D2E/DX2 analytically  !
 ! A86   A(32,36,35)           112.6351         calculate D2E/DX2 analytically  !
 ! A87   A(32,36,41)           108.827          calculate D2E/DX2 analytically  !
 ! A88   A(32,36,46)           111.5288         calculate D2E/DX2 analytically  !
 ! A89   A(35,36,41)           108.288          calculate D2E/DX2 analytically  !
 ! A90   A(35,36,46)           105.1067         calculate D2E/DX2 analytically  !
 ! A91   A(41,36,46)           110.376          calculate D2E/DX2 analytically  !
 ! A92   A(17,37,34)           145.5976         calculate D2E/DX2 analytically  !
 ! A93   A(34,42,35)           120.7883         calculate D2E/DX2 analytically  !
 ! A94   A(33,44,63)           115.1802         calculate D2E/DX2 analytically  !
 ! A95   A(32,45,67)           114.1212         calculate D2E/DX2 analytically  !
 ! A96   A(36,46,71)           114.2508         calculate D2E/DX2 analytically  !
 ! A97   A(35,47,48)           107.0772         calculate D2E/DX2 analytically  !
 ! A98   A(35,47,49)           109.1525         calculate D2E/DX2 analytically  !
 ! A99   A(35,47,50)           113.9515         calculate D2E/DX2 analytically  !
 ! A100  A(48,47,49)           108.6363         calculate D2E/DX2 analytically  !
 ! A101  A(48,47,50)           106.711          calculate D2E/DX2 analytically  !
 ! A102  A(49,47,50)           111.0894         calculate D2E/DX2 analytically  !
 ! A103  A(47,50,75)           114.677          calculate D2E/DX2 analytically  !
 ! A104  A(43,51,52)           117.1211         calculate D2E/DX2 analytically  !
 ! A105  A(43,51,53)           111.8851         calculate D2E/DX2 analytically  !
 ! A106  A(43,51,54)           106.1024         calculate D2E/DX2 analytically  !
 ! A107  A(52,51,53)           109.8827         calculate D2E/DX2 analytically  !
 ! A108  A(52,51,54)           107.3224         calculate D2E/DX2 analytically  !
 ! A109  A(53,51,54)           103.4377         calculate D2E/DX2 analytically  !
 ! A110  A(34,53,51)           118.0311         calculate D2E/DX2 analytically  !
 ! A111  A(51,54,55)           118.9447         calculate D2E/DX2 analytically  !
 ! A112  A(51,54,56)           119.7933         calculate D2E/DX2 analytically  !
 ! A113  A(55,54,56)           121.2264         calculate D2E/DX2 analytically  !
 ! A114  A(54,55,57)           119.1379         calculate D2E/DX2 analytically  !
 ! A115  A(54,55,58)           119.7363         calculate D2E/DX2 analytically  !
 ! A116  A(57,55,58)           121.0811         calculate D2E/DX2 analytically  !
 ! A117  A(54,56,59)           118.971          calculate D2E/DX2 analytically  !
 ! A118  A(54,56,60)           120.3523         calculate D2E/DX2 analytically  !
 ! A119  A(59,56,60)           120.6403         calculate D2E/DX2 analytically  !
 ! A120  A(55,57,61)           120.6302         calculate D2E/DX2 analytically  !
 ! A121  A(55,57,93)           118.6287         calculate D2E/DX2 analytically  !
 ! A122  A(61,57,93)           120.496          calculate D2E/DX2 analytically  !
 ! A123  A(56,59,61)           120.7505         calculate D2E/DX2 analytically  !
 ! A124  A(56,59,97)           120.7916         calculate D2E/DX2 analytically  !
 ! A125  A(61,59,97)           118.4096         calculate D2E/DX2 analytically  !
 ! A126  A(57,61,59)           119.2619         calculate D2E/DX2 analytically  !
 ! A127  A(57,61,62)           120.3558         calculate D2E/DX2 analytically  !
 ! A128  A(59,61,62)           120.3812         calculate D2E/DX2 analytically  !
 ! A129  A(44,63,64)           111.628          calculate D2E/DX2 analytically  !
 ! A130  A(44,63,65)           111.0865         calculate D2E/DX2 analytically  !
 ! A131  A(44,63,66)           106.3375         calculate D2E/DX2 analytically  !
 ! A132  A(64,63,65)           108.8631         calculate D2E/DX2 analytically  !
 ! A133  A(64,63,66)           109.2993         calculate D2E/DX2 analytically  !
 ! A134  A(65,63,66)           109.5793         calculate D2E/DX2 analytically  !
 ! A135  A(45,67,68)           110.8822         calculate D2E/DX2 analytically  !
 ! A136  A(45,67,69)           111.3742         calculate D2E/DX2 analytically  !
 ! A137  A(45,67,70)           106.5495         calculate D2E/DX2 analytically  !
 ! A138  A(68,67,69)           109.1477         calculate D2E/DX2 analytically  !
 ! A139  A(68,67,70)           109.0597         calculate D2E/DX2 analytically  !
 ! A140  A(69,67,70)           109.7747         calculate D2E/DX2 analytically  !
 ! A141  A(46,71,72)           111.2951         calculate D2E/DX2 analytically  !
 ! A142  A(46,71,73)           111.0002         calculate D2E/DX2 analytically  !
 ! A143  A(46,71,74)           106.4752         calculate D2E/DX2 analytically  !
 ! A144  A(72,71,73)           109.3376         calculate D2E/DX2 analytically  !
 ! A145  A(72,71,74)           109.6214         calculate D2E/DX2 analytically  !
 ! A146  A(73,71,74)           109.0478         calculate D2E/DX2 analytically  !
 ! A147  A(50,75,76)           105.9391         calculate D2E/DX2 analytically  !
 ! A148  A(50,75,77)           112.9784         calculate D2E/DX2 analytically  !
 ! A149  A(50,75,78)           110.3119         calculate D2E/DX2 analytically  !
 ! A150  A(76,75,77)           109.6736         calculate D2E/DX2 analytically  !
 ! A151  A(76,75,78)           108.6071         calculate D2E/DX2 analytically  !
 ! A152  A(77,75,78)           109.2092         calculate D2E/DX2 analytically  !
 ! A153  A(12,79,80)           106.7854         calculate D2E/DX2 analytically  !
 ! A154  A(12,79,81)           111.5483         calculate D2E/DX2 analytically  !
 ! A155  A(12,79,82)           110.5918         calculate D2E/DX2 analytically  !
 ! A156  A(80,79,81)           109.8519         calculate D2E/DX2 analytically  !
 ! A157  A(80,79,82)           109.2296         calculate D2E/DX2 analytically  !
 ! A158  A(81,79,82)           108.7991         calculate D2E/DX2 analytically  !
 ! A159  A(19,83,84)           109.4448         calculate D2E/DX2 analytically  !
 ! A160  A(83,84,85)           123.3733         calculate D2E/DX2 analytically  !
 ! A161  A(83,84,89)           124.7288         calculate D2E/DX2 analytically  !
 ! A162  A(85,84,89)           111.8978         calculate D2E/DX2 analytically  !
 ! A163  A(84,85,86)           110.0082         calculate D2E/DX2 analytically  !
 ! A164  A(84,85,87)           107.2474         calculate D2E/DX2 analytically  !
 ! A165  A(84,85,88)           110.7361         calculate D2E/DX2 analytically  !
 ! A166  A(86,85,87)           109.7725         calculate D2E/DX2 analytically  !
 ! A167  A(86,85,88)           109.8326         calculate D2E/DX2 analytically  !
 ! A168  A(87,85,88)           109.2011         calculate D2E/DX2 analytically  !
 ! A169  A(84,89,90)           110.6825         calculate D2E/DX2 analytically  !
 ! A170  A(84,89,91)           107.3538         calculate D2E/DX2 analytically  !
 ! A171  A(84,89,92)           110.2239         calculate D2E/DX2 analytically  !
 ! A172  A(90,89,91)           109.5495         calculate D2E/DX2 analytically  !
 ! A173  A(90,89,92)           109.3551         calculate D2E/DX2 analytically  !
 ! A174  A(91,89,92)           109.6482         calculate D2E/DX2 analytically  !
 ! A175  A(57,93,94)           111.9648         calculate D2E/DX2 analytically  !
 ! A176  A(57,93,95)           112.6196         calculate D2E/DX2 analytically  !
 ! A177  A(57,93,96)           110.7621         calculate D2E/DX2 analytically  !
 ! A178  A(94,93,95)           107.9616         calculate D2E/DX2 analytically  !
 ! A179  A(94,93,96)           106.3226         calculate D2E/DX2 analytically  !
 ! A180  A(95,93,96)           106.8756         calculate D2E/DX2 analytically  !
 ! A181  A(59,97,98)           112.4387         calculate D2E/DX2 analytically  !
 ! A182  A(59,97,99)           111.0454         calculate D2E/DX2 analytically  !
 ! A183  A(59,97,100)          111.7923         calculate D2E/DX2 analytically  !
 ! A184  A(98,97,99)           107.1164         calculate D2E/DX2 analytically  !
 ! A185  A(98,97,100)          107.6214         calculate D2E/DX2 analytically  !
 ! A186  A(99,97,100)          106.5153         calculate D2E/DX2 analytically  !
 ! D1    D(5,1,2,3)            -48.0914         calculate D2E/DX2 analytically  !
 ! D2    D(5,1,2,7)             68.6714         calculate D2E/DX2 analytically  !
 ! D3    D(5,1,2,13)          -172.9059         calculate D2E/DX2 analytically  !
 ! D4    D(8,1,2,3)             70.8226         calculate D2E/DX2 analytically  !
 ! D5    D(8,1,2,7)           -172.4146         calculate D2E/DX2 analytically  !
 ! D6    D(8,1,2,13)           -53.9919         calculate D2E/DX2 analytically  !
 ! D7    D(14,1,2,3)          -168.2473         calculate D2E/DX2 analytically  !
 ! D8    D(14,1,2,7)           -51.4846         calculate D2E/DX2 analytically  !
 ! D9    D(14,1,2,13)           66.9381         calculate D2E/DX2 analytically  !
 ! D10   D(2,1,5,4)             52.2293         calculate D2E/DX2 analytically  !
 ! D11   D(2,1,5,10)           -66.6364         calculate D2E/DX2 analytically  !
 ! D12   D(2,1,5,15)           174.0723         calculate D2E/DX2 analytically  !
 ! D13   D(8,1,5,4)            -67.0872         calculate D2E/DX2 analytically  !
 ! D14   D(8,1,5,10)           174.0471         calculate D2E/DX2 analytically  !
 ! D15   D(8,1,5,15)            54.7558         calculate D2E/DX2 analytically  !
 ! D16   D(14,1,5,4)           173.7489         calculate D2E/DX2 analytically  !
 ! D17   D(14,1,5,10)           54.8831         calculate D2E/DX2 analytically  !
 ! D18   D(14,1,5,15)          -64.4082         calculate D2E/DX2 analytically  !
 ! D19   D(2,1,14,24)          -95.3404         calculate D2E/DX2 analytically  !
 ! D20   D(5,1,14,24)          142.9843         calculate D2E/DX2 analytically  !
 ! D21   D(8,1,14,24)           24.9382         calculate D2E/DX2 analytically  !
 ! D22   D(1,2,3,6)            166.4103         calculate D2E/DX2 analytically  !
 ! D23   D(1,2,3,11)            51.5869         calculate D2E/DX2 analytically  !
 ! D24   D(1,2,3,12)           -72.598          calculate D2E/DX2 analytically  !
 ! D25   D(7,2,3,6)             49.0255         calculate D2E/DX2 analytically  !
 ! D26   D(7,2,3,11)           -65.7979         calculate D2E/DX2 analytically  !
 ! D27   D(7,2,3,12)           170.0171         calculate D2E/DX2 analytically  !
 ! D28   D(13,2,3,6)           -71.9972         calculate D2E/DX2 analytically  !
 ! D29   D(13,2,3,11)          173.1794         calculate D2E/DX2 analytically  !
 ! D30   D(13,2,3,12)           48.9944         calculate D2E/DX2 analytically  !
 ! D31   D(1,2,13,20)         -169.8958         calculate D2E/DX2 analytically  !
 ! D32   D(3,2,13,20)           66.3005         calculate D2E/DX2 analytically  !
 ! D33   D(7,2,13,20)          -52.8901         calculate D2E/DX2 analytically  !
 ! D34   D(2,3,11,4)           -62.0446         calculate D2E/DX2 analytically  !
 ! D35   D(6,3,11,4)           178.9684         calculate D2E/DX2 analytically  !
 ! D36   D(12,3,11,4)           59.4371         calculate D2E/DX2 analytically  !
 ! D37   D(2,3,12,79)         -168.128          calculate D2E/DX2 analytically  !
 ! D38   D(6,3,12,79)          -46.6373         calculate D2E/DX2 analytically  !
 ! D39   D(11,3,12,79)          69.462          calculate D2E/DX2 analytically  !
 ! D40   D(9,4,5,1)             59.6902         calculate D2E/DX2 analytically  !
 ! D41   D(9,4,5,10)           179.2893         calculate D2E/DX2 analytically  !
 ! D42   D(9,4,5,15)           -61.7723         calculate D2E/DX2 analytically  !
 ! D43   D(11,4,5,1)           -58.525          calculate D2E/DX2 analytically  !
 ! D44   D(11,4,5,10)           61.0741         calculate D2E/DX2 analytically  !
 ! D45   D(11,4,5,15)         -179.9875         calculate D2E/DX2 analytically  !
 ! D46   D(16,4,5,1)          -178.8836         calculate D2E/DX2 analytically  !
 ! D47   D(16,4,5,10)          -59.2845         calculate D2E/DX2 analytically  !
 ! D48   D(16,4,5,15)           59.6539         calculate D2E/DX2 analytically  !
 ! D49   D(5,4,11,3)            65.3299         calculate D2E/DX2 analytically  !
 ! D50   D(9,4,11,3)           -53.1365         calculate D2E/DX2 analytically  !
 ! D51   D(16,4,11,3)         -169.5745         calculate D2E/DX2 analytically  !
 ! D52   D(5,4,16,17)          149.0928         calculate D2E/DX2 analytically  !
 ! D53   D(5,4,16,18)           38.5248         calculate D2E/DX2 analytically  !
 ! D54   D(5,4,16,19)          -88.1471         calculate D2E/DX2 analytically  !
 ! D55   D(9,4,16,17)          -88.4299         calculate D2E/DX2 analytically  !
 ! D56   D(9,4,16,18)          161.0021         calculate D2E/DX2 analytically  !
 ! D57   D(9,4,16,19)           34.3302         calculate D2E/DX2 analytically  !
 ! D58   D(11,4,16,17)          29.031          calculate D2E/DX2 analytically  !
 ! D59   D(11,4,16,18)         -81.5369         calculate D2E/DX2 analytically  !
 ! D60   D(11,4,16,19)         151.7911         calculate D2E/DX2 analytically  !
 ! D61   D(1,5,15,28)           96.2913         calculate D2E/DX2 analytically  !
 ! D62   D(4,5,15,28)         -141.6528         calculate D2E/DX2 analytically  !
 ! D63   D(10,5,15,28)         -23.2289         calculate D2E/DX2 analytically  !
 ! D64   D(3,12,79,80)        -177.7466         calculate D2E/DX2 analytically  !
 ! D65   D(3,12,79,81)         -57.7156         calculate D2E/DX2 analytically  !
 ! D66   D(3,12,79,82)          63.5144         calculate D2E/DX2 analytically  !
 ! D67   D(2,13,20,21)         -70.7172         calculate D2E/DX2 analytically  !
 ! D68   D(2,13,20,22)          51.4169         calculate D2E/DX2 analytically  !
 ! D69   D(2,13,20,23)         170.4013         calculate D2E/DX2 analytically  !
 ! D70   D(1,14,24,25)         -58.4549         calculate D2E/DX2 analytically  !
 ! D71   D(1,14,24,26)          63.4315         calculate D2E/DX2 analytically  !
 ! D72   D(1,14,24,27)        -176.8767         calculate D2E/DX2 analytically  !
 ! D73   D(5,15,28,29)         -59.1872         calculate D2E/DX2 analytically  !
 ! D74   D(5,15,28,30)          62.6633         calculate D2E/DX2 analytically  !
 ! D75   D(5,15,28,31)        -178.6557         calculate D2E/DX2 analytically  !
 ! D76   D(4,16,17,37)         115.9412         calculate D2E/DX2 analytically  !
 ! D77   D(18,16,17,37)       -131.5057         calculate D2E/DX2 analytically  !
 ! D78   D(19,16,17,37)         -7.3376         calculate D2E/DX2 analytically  !
 ! D79   D(4,16,19,83)          37.4365         calculate D2E/DX2 analytically  !
 ! D80   D(17,16,19,83)        155.1271         calculate D2E/DX2 analytically  !
 ! D81   D(18,16,19,83)        -85.8389         calculate D2E/DX2 analytically  !
 ! D82   D(16,17,37,34)         40.4758         calculate D2E/DX2 analytically  !
 ! D83   D(16,19,83,84)       -161.1898         calculate D2E/DX2 analytically  !
 ! D84   D(36,32,33,34)        -52.6411         calculate D2E/DX2 analytically  !
 ! D85   D(36,32,33,38)         61.8315         calculate D2E/DX2 analytically  !
 ! D86   D(36,32,33,44)       -178.0808         calculate D2E/DX2 analytically  !
 ! D87   D(39,32,33,34)         66.7208         calculate D2E/DX2 analytically  !
 ! D88   D(39,32,33,38)       -178.8065         calculate D2E/DX2 analytically  !
 ! D89   D(39,32,33,44)        -58.7189         calculate D2E/DX2 analytically  !
 ! D90   D(45,32,33,34)       -170.9671         calculate D2E/DX2 analytically  !
 ! D91   D(45,32,33,38)        -56.4945         calculate D2E/DX2 analytically  !
 ! D92   D(45,32,33,44)         63.5932         calculate D2E/DX2 analytically  !
 ! D93   D(33,32,36,35)         54.5852         calculate D2E/DX2 analytically  !
 ! D94   D(33,32,36,41)        -65.5055         calculate D2E/DX2 analytically  !
 ! D95   D(33,32,36,46)        172.4923         calculate D2E/DX2 analytically  !
 ! D96   D(39,32,36,35)        -65.0355         calculate D2E/DX2 analytically  !
 ! D97   D(39,32,36,41)        174.8738         calculate D2E/DX2 analytically  !
 ! D98   D(39,32,36,46)         52.8716         calculate D2E/DX2 analytically  !
 ! D99   D(45,32,36,35)        175.0184         calculate D2E/DX2 analytically  !
 ! D100  D(45,32,36,41)         54.9277         calculate D2E/DX2 analytically  !
 ! D101  D(45,32,36,46)        -67.0745         calculate D2E/DX2 analytically  !
 ! D102  D(33,32,45,67)        -94.8694         calculate D2E/DX2 analytically  !
 ! D103  D(36,32,45,67)        146.6463         calculate D2E/DX2 analytically  !
 ! D104  D(39,32,45,67)         27.2119         calculate D2E/DX2 analytically  !
 ! D105  D(32,33,34,37)       -163.7231         calculate D2E/DX2 analytically  !
 ! D106  D(32,33,34,42)         43.4589         calculate D2E/DX2 analytically  !
 ! D107  D(32,33,34,53)        -63.5374         calculate D2E/DX2 analytically  !
 ! D108  D(38,33,34,37)         79.6767         calculate D2E/DX2 analytically  !
 ! D109  D(38,33,34,42)        -73.1414         calculate D2E/DX2 analytically  !
 ! D110  D(38,33,34,53)        179.8623         calculate D2E/DX2 analytically  !
 ! D111  D(44,33,34,37)        -40.3181         calculate D2E/DX2 analytically  !
 ! D112  D(44,33,34,42)        166.8638         calculate D2E/DX2 analytically  !
 ! D113  D(44,33,34,53)         59.8675         calculate D2E/DX2 analytically  !
 ! D114  D(32,33,44,63)       -161.2842         calculate D2E/DX2 analytically  !
 ! D115  D(34,33,44,63)         74.5198         calculate D2E/DX2 analytically  !
 ! D116  D(38,33,44,63)        -42.3717         calculate D2E/DX2 analytically  !
 ! D117  D(33,34,37,17)       -102.3217         calculate D2E/DX2 analytically  !
 ! D118  D(42,34,37,17)         52.1223         calculate D2E/DX2 analytically  !
 ! D119  D(53,34,37,17)        155.0567         calculate D2E/DX2 analytically  !
 ! D120  D(33,34,42,35)        -32.2237         calculate D2E/DX2 analytically  !
 ! D121  D(37,34,42,35)        173.3129         calculate D2E/DX2 analytically  !
 ! D122  D(53,34,42,35)         74.0211         calculate D2E/DX2 analytically  !
 ! D123  D(33,34,53,51)       -103.0269         calculate D2E/DX2 analytically  !
 ! D124  D(37,34,53,51)         18.6374         calculate D2E/DX2 analytically  !
 ! D125  D(42,34,53,51)        133.9007         calculate D2E/DX2 analytically  !
 ! D126  D(40,35,36,32)         74.5813         calculate D2E/DX2 analytically  !
 ! D127  D(40,35,36,41)       -165.0177         calculate D2E/DX2 analytically  !
 ! D128  D(40,35,36,46)        -47.0457         calculate D2E/DX2 analytically  !
 ! D129  D(42,35,36,32)        -43.0488         calculate D2E/DX2 analytically  !
 ! D130  D(42,35,36,41)         77.3522         calculate D2E/DX2 analytically  !
 ! D131  D(42,35,36,46)       -164.6758         calculate D2E/DX2 analytically  !
 ! D132  D(47,35,36,32)       -164.4671         calculate D2E/DX2 analytically  !
 ! D133  D(47,35,36,41)        -44.0661         calculate D2E/DX2 analytically  !
 ! D134  D(47,35,36,46)         73.9059         calculate D2E/DX2 analytically  !
 ! D135  D(36,35,42,34)         31.1807         calculate D2E/DX2 analytically  !
 ! D136  D(40,35,42,34)        -88.1479         calculate D2E/DX2 analytically  !
 ! D137  D(47,35,42,34)        155.2722         calculate D2E/DX2 analytically  !
 ! D138  D(36,35,47,48)        -66.4282         calculate D2E/DX2 analytically  !
 ! D139  D(36,35,47,49)        176.1472         calculate D2E/DX2 analytically  !
 ! D140  D(36,35,47,50)         51.3218         calculate D2E/DX2 analytically  !
 ! D141  D(40,35,47,48)         54.0887         calculate D2E/DX2 analytically  !
 ! D142  D(40,35,47,49)        -63.3359         calculate D2E/DX2 analytically  !
 ! D143  D(40,35,47,50)        171.8388         calculate D2E/DX2 analytically  !
 ! D144  D(42,35,47,48)        168.1767         calculate D2E/DX2 analytically  !
 ! D145  D(42,35,47,49)         50.7522         calculate D2E/DX2 analytically  !
 ! D146  D(42,35,47,50)        -74.0732         calculate D2E/DX2 analytically  !
 ! D147  D(32,36,46,71)         99.5209         calculate D2E/DX2 analytically  !
 ! D148  D(35,36,46,71)       -138.1335         calculate D2E/DX2 analytically  !
 ! D149  D(41,36,46,71)        -21.5831         calculate D2E/DX2 analytically  !
 ! D150  D(33,44,63,64)        -66.9978         calculate D2E/DX2 analytically  !
 ! D151  D(33,44,63,65)         54.7136         calculate D2E/DX2 analytically  !
 ! D152  D(33,44,63,66)        173.8772         calculate D2E/DX2 analytically  !
 ! D153  D(32,45,67,68)        -56.8432         calculate D2E/DX2 analytically  !
 ! D154  D(32,45,67,69)         64.913          calculate D2E/DX2 analytically  !
 ! D155  D(32,45,67,70)       -175.3968         calculate D2E/DX2 analytically  !
 ! D156  D(36,46,71,72)        -63.467          calculate D2E/DX2 analytically  !
 ! D157  D(36,46,71,73)         58.5595         calculate D2E/DX2 analytically  !
 ! D158  D(36,46,71,74)        177.1189         calculate D2E/DX2 analytically  !
 ! D159  D(35,47,50,75)         83.8722         calculate D2E/DX2 analytically  !
 ! D160  D(48,47,50,75)       -158.1673         calculate D2E/DX2 analytically  !
 ! D161  D(49,47,50,75)        -39.9131         calculate D2E/DX2 analytically  !
 ! D162  D(47,50,75,76)        170.7264         calculate D2E/DX2 analytically  !
 ! D163  D(47,50,75,77)        -69.181          calculate D2E/DX2 analytically  !
 ! D164  D(47,50,75,78)         53.3683         calculate D2E/DX2 analytically  !
 ! D165  D(43,51,53,34)        -16.5074         calculate D2E/DX2 analytically  !
 ! D166  D(52,51,53,34)       -148.3966         calculate D2E/DX2 analytically  !
 ! D167  D(54,51,53,34)         97.2764         calculate D2E/DX2 analytically  !
 ! D168  D(43,51,54,55)        -17.1974         calculate D2E/DX2 analytically  !
 ! D169  D(43,51,54,56)        160.656          calculate D2E/DX2 analytically  !
 ! D170  D(52,51,54,55)        108.752          calculate D2E/DX2 analytically  !
 ! D171  D(52,51,54,56)        -73.3946         calculate D2E/DX2 analytically  !
 ! D172  D(53,51,54,55)       -135.0929         calculate D2E/DX2 analytically  !
 ! D173  D(53,51,54,56)         42.7605         calculate D2E/DX2 analytically  !
 ! D174  D(51,54,55,57)        176.1028         calculate D2E/DX2 analytically  !
 ! D175  D(51,54,55,58)         -1.4911         calculate D2E/DX2 analytically  !
 ! D176  D(56,54,55,57)         -1.7188         calculate D2E/DX2 analytically  !
 ! D177  D(56,54,55,58)       -179.3126         calculate D2E/DX2 analytically  !
 ! D178  D(51,54,56,59)       -176.4704         calculate D2E/DX2 analytically  !
 ! D179  D(51,54,56,60)          1.352          calculate D2E/DX2 analytically  !
 ! D180  D(55,54,56,59)          1.3329         calculate D2E/DX2 analytically  !
 ! D181  D(55,54,56,60)        179.1553         calculate D2E/DX2 analytically  !
 ! D182  D(54,55,57,61)          0.8183         calculate D2E/DX2 analytically  !
 ! D183  D(54,55,57,93)       -173.5224         calculate D2E/DX2 analytically  !
 ! D184  D(58,55,57,61)        178.3787         calculate D2E/DX2 analytically  !
 ! D185  D(58,55,57,93)          4.038          calculate D2E/DX2 analytically  !
 ! D186  D(54,56,59,61)         -0.0397         calculate D2E/DX2 analytically  !
 ! D187  D(54,56,59,97)        177.3931         calculate D2E/DX2 analytically  !
 ! D188  D(60,56,59,61)       -177.8556         calculate D2E/DX2 analytically  !
 ! D189  D(60,56,59,97)         -0.4228         calculate D2E/DX2 analytically  !
 ! D190  D(55,57,61,59)          0.4359         calculate D2E/DX2 analytically  !
 ! D191  D(55,57,61,62)       -179.174          calculate D2E/DX2 analytically  !
 ! D192  D(93,57,61,59)        174.6707         calculate D2E/DX2 analytically  !
 ! D193  D(93,57,61,62)         -4.9393         calculate D2E/DX2 analytically  !
 ! D194  D(55,57,93,94)        -38.6772         calculate D2E/DX2 analytically  !
 ! D195  D(55,57,93,95)       -160.5658         calculate D2E/DX2 analytically  !
 ! D196  D(55,57,93,96)         79.8116         calculate D2E/DX2 analytically  !
 ! D197  D(61,57,93,94)        146.9742         calculate D2E/DX2 analytically  !
 ! D198  D(61,57,93,95)         25.0856         calculate D2E/DX2 analytically  !
 ! D199  D(61,57,93,96)        -94.537          calculate D2E/DX2 analytically  !
 ! D200  D(56,59,61,57)         -0.8289         calculate D2E/DX2 analytically  !
 ! D201  D(56,59,61,62)        178.7809         calculate D2E/DX2 analytically  !
 ! D202  D(97,59,61,57)       -178.3217         calculate D2E/DX2 analytically  !
 ! D203  D(97,59,61,62)          1.2882         calculate D2E/DX2 analytically  !
 ! D204  D(56,59,97,98)          2.3339         calculate D2E/DX2 analytically  !
 ! D205  D(56,59,97,99)       -117.6711         calculate D2E/DX2 analytically  !
 ! D206  D(56,59,97,100)       123.5214         calculate D2E/DX2 analytically  !
 ! D207  D(61,59,97,98)        179.8256         calculate D2E/DX2 analytically  !
 ! D208  D(61,59,97,99)         59.8206         calculate D2E/DX2 analytically  !
 ! D209  D(61,59,97,100)       -58.987          calculate D2E/DX2 analytically  !
 ! D210  D(19,83,84,85)        100.686          calculate D2E/DX2 analytically  !
 ! D211  D(19,83,84,89)        -79.3333         calculate D2E/DX2 analytically  !
 ! D212  D(83,84,85,86)       -117.0823         calculate D2E/DX2 analytically  !
 ! D213  D(83,84,85,87)          2.2592         calculate D2E/DX2 analytically  !
 ! D214  D(83,84,85,88)        121.3214         calculate D2E/DX2 analytically  !
 ! D215  D(89,84,85,86)         62.9348         calculate D2E/DX2 analytically  !
 ! D216  D(89,84,85,87)       -177.7237         calculate D2E/DX2 analytically  !
 ! D217  D(89,84,85,88)        -58.6615         calculate D2E/DX2 analytically  !
 ! D218  D(83,84,89,90)       -112.5025         calculate D2E/DX2 analytically  !
 ! D219  D(83,84,89,91)          7.0159         calculate D2E/DX2 analytically  !
 ! D220  D(83,84,89,92)        126.3926         calculate D2E/DX2 analytically  !
 ! D221  D(85,84,89,90)         67.4801         calculate D2E/DX2 analytically  !
 ! D222  D(85,84,89,91)       -173.0015         calculate D2E/DX2 analytically  !
 ! D223  D(85,84,89,92)        -53.6248         calculate D2E/DX2 analytically  !
 --------------------------------------------------------------------------------
 Trust Radius=3.00D-02 FncErr=1.00D-07 GrdErr=1.00D-06 EigMax=2.50D+02 EigMin=1.00D-04
 Number of steps in this run=    521 maximum allowed number of steps=    600.
 Search for a saddle point of order  1.
 Step   0 in ReCalcFC=30 IGetFC= 4 compute analytic Hessian.
 GradGradGradGradGradGradGradGradGradGradGradGradGradGradGradGradGradGrad

 Leave Link  103 at Tue May  7 15:56:26 2019, MaxMem=  6442450944 cpu:               6.5 elap:               0.3
 (Enter /home/ekwan/sw/g16/l202.exe)
 Stoichiometry    C30H47F6NaO15S
 Framework group  C1[X(C30H47F6NaO15S)]
 Deg. of freedom   294
 Full point group                 C1      NOp   1
 Largest Abelian subgroup         C1      NOp   1
 Largest concise Abelian subgroup C1      NOp   1
                         Standard orientation:                         
 ---------------------------------------------------------------------
 Center     Atomic      Atomic             Coordinates (Angstroms)
 Number     Number       Type             X           Y           Z
 ---------------------------------------------------------------------
      1          6           0       -5.466057   -0.242835   -0.509248
      2          6           0       -5.645624   -1.393355    0.485627
      3          6           0       -4.312333   -1.778478    1.152976
      4          6           0       -3.343612    0.364634    0.704847
      5          6           0       -4.654789    0.895825    0.114676
      6          1           0       -4.482748   -2.424158    2.024254
      7          1           0       -6.311226   -1.040417    1.289481
      8          1           0       -4.918334   -0.613839   -1.386469
      9          1           0       -2.750812   -0.106877   -0.088434
     10          1           0       -5.234966    1.350718    0.928608
     11          8           0       -3.687601   -0.629695    1.689032
     12          8           0       -3.518712   -2.444728    0.207556
     13          8           0       -6.254475   -2.467047   -0.207184
     14          8           0       -6.729850    0.275621   -0.908989
     15          8           0       -4.384274    1.895260   -0.878220
     16          6           0       -2.444796    1.421351    1.391045
     17          1           0       -1.923705    0.847215    2.193091
     18          1           0       -3.114420    2.125767    1.936615
     19          8           0       -1.573118    2.041451    0.530495
     20          6           0       -6.692534   -3.525454    0.629052
     21          1           0       -5.850896   -4.091747    1.049459
     22          1           0       -7.317246   -3.152143    1.453856
     23          1           0       -7.288486   -4.194937    0.004386
     24          6           0       -7.237886   -0.265106   -2.121350
     25          1           0       -6.540004   -0.091958   -2.954111
     26          1           0       -7.429872   -1.338820   -2.032990
     27          1           0       -8.173625    0.260546   -2.329098
     28          6           0       -5.305274    2.989516   -0.867458
     29          1           0       -6.325173    2.638176   -1.035616
     30          1           0       -5.251081    3.528692    0.087571
     31          1           0       -5.007017    3.661131   -1.677595
     32          6           0        2.611911    1.968689   -0.273870
     33          6           0        1.236212    1.333695   -0.076971
     34          6           0        0.768285    1.490099    1.355849
     35          6           0        2.056312    3.492989    1.687071
     36          6           0        2.550844    3.404440    0.239055
     37          1           0       -0.040175    0.889044    1.733577
     38          1           0        0.508816    1.898521   -0.672902
     39          1           0        3.363549    1.410580    0.294498
     40          1           0        2.859559    3.162368    2.353209
     41          1           0        1.864786    3.976997   -0.393995
     42          8           0        0.919294    2.627404    1.978645
     43          8           0        0.317001   -1.177759    2.754898
     44          8           0        1.273501   -0.007889   -0.501396
     45          8           0        2.967022    2.010950   -1.648350
     46          8           0        3.834628    4.008853    0.249098
     47          6           0        1.640494    4.912886    2.058399
     48          1           0        2.545851    5.526420    2.045611
     49          1           0        1.230154    4.913468    3.078142
     50          8           0        0.736027    5.503559    1.145554
     51         16           0        1.779691   -0.970976    2.695682
     52          8           0        2.554860   -1.309326    3.901149
     53          8           0        2.139675    0.448814    2.223312
     54          6           0        2.376950   -2.017282    1.365047
     55          6           0        1.565690   -3.040718    0.900762
     56          6           0        3.620454   -1.762395    0.788231
     57          6           0        1.991236   -3.805238   -0.188690
     58          1           0        0.599729   -3.210257    1.359259
     59          6           0        4.034034   -2.536500   -0.289770
     60          1           0        4.236728   -0.950639    1.153212
     61          6           0        3.219581   -3.557290   -0.791618
     62          1           0        3.539390   -4.144262   -1.644805
     63          6           0        0.004476   -0.594048   -0.768140
     64          1           0       -0.588927   -0.701694    0.142979
     65          1           0       -0.561679    0.003655   -1.491045
     66          1           0        0.204391   -1.581239   -1.186913
     67          6           0        3.762618    0.909264   -2.078585
     68          1           0        4.679688    0.831603   -1.480247
     69          1           0        3.210089   -0.031315   -2.011505
     70          1           0        4.031131    1.106845   -3.119081
     71          6           0        4.089879    4.857845   -0.864634
     72          1           0        4.083625    4.294753   -1.803487
     73          1           0        3.348635    5.667368   -0.920840
     74          1           0        5.079851    5.291360   -0.703360
     75          6           0       -0.638839    5.168070    1.364409
     76          1           0       -1.216515    5.820718    0.702467
     77          1           0       -0.864918    4.118860    1.137828
     78          1           0       -0.923455    5.383110    2.405297
     79          6           0       -2.379906   -3.080265    0.786026
     80          1           0       -1.817885   -3.527908   -0.035088
     81          1           0       -1.747988   -2.363382    1.322191
     82          1           0       -2.691060   -3.869844    1.484552
     83         11           0       -2.219122    2.499864   -1.460132
     84          8           0       -0.385147    2.856059   -2.796194
     85          6           0        0.132992    1.876832   -3.695273
     86          1           0        1.150193    1.598188   -3.400228
     87          1           0       -0.521114    1.004206   -3.635717
     88          1           0        0.134858    2.257137   -4.725385
     89          6           0        0.370046    4.065035   -2.833772
     90          1           0        0.248238    4.568603   -3.802357
     91          1           0       -0.007080    4.709649   -2.036711
     92          1           0        1.431386    3.853831   -2.665426
     93          6           0        1.043563   -4.811562   -0.775513
     94          9           0        0.324339   -5.442787    0.176445
     95          9           0        1.672630   -5.748371   -1.510189
     96          9           0        0.141729   -4.204102   -1.597179
     97          6           0        5.340607   -2.259579   -0.979698
     98          9           0        6.025605   -1.251943   -0.400135
     99          9           0        5.142967   -1.913826   -2.277144
    100          9           0        6.142417   -3.346261   -0.989835
 ---------------------------------------------------------------------
 Rotational constants (GHZ):           0.0565502           0.0409059           0.0295870
 Leave Link  202 at Tue May  7 15:56:26 2019, MaxMem=  6442450944 cpu:               6.4 elap:               0.3
 (Enter /home/ekwan/sw/g16/l301.exe)
 Standard basis: 6-31G(d) (6D, 7F)
 Ernie: Thresh=  0.10000D-02 Tol=  0.10000D-05 Strict=F.
 There are   897 symmetry adapted cartesian basis functions of A   symmetry.
 There are   897 symmetry adapted basis functions of A   symmetry.
   897 basis functions,  1720 primitive gaussians,   897 cartesian basis functions
   214 alpha electrons      214 beta electrons
       nuclear repulsion energy      9442.2679356474 Hartrees.
 IExCor=  402 DFT=T Ex+Corr=B3LYP ExCW=0 ScaHFX=  0.200000
 ScaDFX=  0.800000  0.720000  1.000000  0.810000 ScalE2=  1.000000  1.000000
 IRadAn=      5 IRanWt=     -1 IRanGd=            0 ICorTp=0 IEmpDi=141
 NAtoms=  100 NActive=  100 NUniq=  100 SFac= 1.00D+00 NAtFMM=   60 NAOKFM=T Big=T
 Integral buffers will be    131072 words long.
 Raffenetti 2 integral format.
 Two-electron integral symmetry is turned on.
 R6Disp:  Grimme-D3(BJ) Dispersion energy=       -0.2322842989 Hartrees.
 Nuclear repulsion after empirical dispersion term =     9442.0356513486 Hartrees.
 Force inversion solution in PCM.
 ------------------------------------------------------------------------------
 Polarizable Continuum Model (PCM)
 =================================
 Model                : PCM.
 Atomic radii         : UFF (Universal Force Field).
 Polarization charges : Total charges.
 Charge compensation  : None.
 Solution method      : Matrix inversion.
 Cavity type          : Scaled VdW (van der Waals Surface) (Alpha=1.100).
 Cavity algorithm     : GePol (No added spheres)
                        Default sphere list used, NSphG=  100.
                        Lebedev-Laikov grids with approx.  5.0 points / Ang**2.
                        Smoothing algorithm: York/Karplus (Gamma=1.0000).
                        Polarization charges: spherical gaussians, with
                                              point-specific exponents (IZeta= 3).
                        Self-potential: point-specific (ISelfS= 7).
                        Self-field    : sphere-specific E.n sum rule (ISelfD= 2).
 1st derivatives      : Analytical E(r).r(x)/FMM algorithm (CHGder, D1EAlg=3).
                        Cavity 1st derivative terms included.
 2nd derivatives      : Analytical E(r).r(xy)/FMM algorithm (CHGder, D2EAlg=3).
                        Cavity 2nd derivative terms included.
 Solvent              : TetraHydroFuran, Eps=   7.425700 Eps(inf)=   1.974025
 ------------------------------------------------------------------------------
 GePol: Number of generator spheres                  =     100
 GePol: Total number of spheres                      =     100
 GePol: Number of exposed spheres                    =     100 (100.00%)
 GePol: Number of points                             =    6112
 GePol: Average weight of points                     =       0.12
 GePol: Minimum weight of points                     =   0.11D-10
 GePol: Maximum weight of points                     =    0.21593
 GePol: Number of points with low weight             =     459
 GePol: Fraction of low-weight points (<1% of avg)   =       7.51%
 GePol: Cavity surface area                          =    752.748 Ang**2
 GePol: Cavity volume                                =    972.470 Ang**3
 Leave Link  301 at Tue May  7 15:56:27 2019, MaxMem=  6442450944 cpu:              11.7 elap:               0.5
 (Enter /home/ekwan/sw/g16/l302.exe)
 NPDir=0 NMtPBC=     1 NCelOv=     1 NCel=       1 NClECP=     1 NCelD=      1
         NCelK=      1 NCelE2=     1 NClLst=     1 CellRange=     0.0.
 One-electron integrals computed using PRISM.
 One-electron integral symmetry used in STVInt
 NBasis=   897 RedAO= T EigKep=  3.96D-04  NBF=   897
 NBsUse=   897 1.00D-06 EigRej= -1.00D+00 NBFU=   897
 Precomputing XC quadrature grid using
 IXCGrd= 4 IRadAn=           5 IRanWt=          -1 IRanGd=           0 AccXCQ= 0.00D+00.
 Generated NRdTot=       0 NPtTot=           0 NUsed=           0 NTot=          32
 NSgBfM=   854   849   850   854   854 MxSgAt=   100 MxSgA2=   100.
 Leave Link  302 at Tue May  7 15:56:45 2019, MaxMem=  6442450944 cpu:             536.0 elap:              18.0
 (Enter /home/ekwan/sw/g16/l303.exe)
 DipDrv:  MaxL=1.
 Leave Link  303 at Tue May  7 15:56:46 2019, MaxMem=  6442450944 cpu:              19.7 elap:               0.8
 (Enter /home/ekwan/sw/g16/l401.exe)
 ExpMin= 2.60D-02 ExpMax= 2.19D+04 ExpMxC= 3.30D+03 IAcc=3 IRadAn=         5 AccDes= 0.00D+00
 Harris functional with IExCor=  402 and IRadAn=       5 diagonalized for initial guess.
 HarFok:  IExCor=  402 AccDes= 0.00D+00 IRadAn=         5 IDoV= 1 UseB2=F ITyADJ=14
 ICtDFT=  3500011 ScaDFX=  1.000000  1.000000  1.000000  1.000000
 FoFCou: FMM=F IPFlag=           0 FMFlag=      100000 FMFlg1=        2001
         NFxFlg=           0 DoJE=T BraDBF=F KetDBF=T FulRan=T
         wScrn=  0.000000 ICntrl=       500 IOpCl=  0 I1Cent=   200000004 NGrid=           0
         NMat0=    1 NMatS0=      1 NMatT0=    0 NMatD0=    1 NMtDS0=    0 NMtDT0=    0
 Petite list used in FoFCou.
 Harris En= -3459.36450929068    
 JPrj=0 DoOrth=F DoCkMO=F.
 Leave Link  401 at Tue May  7 15:57:10 2019, MaxMem=  6442450944 cpu:             713.5 elap:              23.9
 (Enter /home/ekwan/sw/g16/l502.exe)
 Integral symmetry usage will be decided dynamically.
 Closed shell SCF:
 Using DIIS extrapolation, IDIIS=  1040.
 NGot=  6442450944 LenX=  6440803163 LenY=  6439997657
 Requested convergence on RMS density matrix=1.00D-08 within 128 cycles.
 Requested convergence on MAX density matrix=1.00D-06.
 Requested convergence on             energy=1.00D-06.
 No special actions if energy rises.
 Fock matrices will be formed incrementally for  20 cycles.

 Cycle   1  Pass 1  IDiag  1:
 FoFJK:  IHMeth= 1 ICntrl=       0 DoSepK=F KAlg= 0 I1Cent=           0 FoldK=F
 IRaf= 840000000 NMat=       1 IRICut=       1 DoRegI=T DoRafI=F ISym2E= 0 IDoP0=0 IntGTp=1.
 FoFCou: FMM=T IPFlag=           0 FMFlag=      100000 FMFlg1=        2001
         NFxFlg=           0 DoJE=F BraDBF=F KetDBF=F FulRan=T
         wScrn=  0.000000 ICntrl=         0 IOpCl=  0 I1Cent=           0 NGrid=           0
         NMat0=    1 NMatS0=      1 NMatT0=    0 NMatD0=    1 NMtDS0=    0 NMtDT0=    0
 Symmetry not used in FoFCou.
 FMM levels:  10  Number of levels for PrismC:   9
 Inv3:  Mode=1 IEnd=   112069632.
 Iteration    1 A*A^-1 deviation from unit magnitude is 4.88D-15 for   6098.
 Iteration    1 A*A^-1 deviation from orthogonality  is 2.31D-15 for   5706   4064.
 Iteration    1 A^-1*A deviation from unit magnitude is 4.66D-15 for   6098.
 Iteration    1 A^-1*A deviation from orthogonality  is 1.91D-14 for   5093   5032.
 E= -3458.30912356604    
 DIIS: error= 2.17D-02 at cycle   1 NSaved=   1.
 NSaved= 1 IEnMin= 1 EnMin= -3458.30912356604     IErMin= 1 ErrMin= 2.17D-02
 ErrMax= 2.17D-02  0.00D+00 EMaxC= 1.00D-01 BMatC= 1.37D+00 BMatP= 1.37D+00
 IDIUse=3 WtCom= 7.83D-01 WtEn= 2.17D-01
 Coeff-Com:  0.100D+01
 Coeff-En:   0.100D+01
 Coeff:      0.100D+01
 Gap=     0.171 Goal=   None    Shift=    0.000
[...]
 -0.00080372,-0.00129135,0.00039473,0.00001058,-0.00006940,0.00002067,-
 0.00000291,0.00004161,0.00003303,0.00000193,0.00000721,-0.00000625,-0.
 00001353,-0.00002134,0.00001125,-0.00003948,-0.00001902,0.00001436,0.0
 0002563,-0.00105855,0.00073632,-0.00004529,0.00017873,-0.00028179,0.00
 006262,0.00067035,0.00011617,0.00078668,0.00058290,-0.00073332,0.00006
 874,0.00038538,-0.00042958,0.00156906,-0.00253201,-0.00037261,-0.00067
 858,-0.00012140,-0.00003972,0.00001000,0.00002628,0.00002148,0.0008839
 9,0.00842523,-0.01486951,0.00005194,0.00008043,-0.00014931,0.00010329,
 0.00015435,0.00042238,-0.00008597,0.00021354,0.00003123,0.00009606,-0.
 00008851,0.00003033,-0.00005271,-0.00000326,0.00000792,-0.00000634,0.0
 0002645,0.00000087,-0.00001104,0.00000288,-0.00004366,-0.00043295,0.00
 018500,0.00107716,-0.00082205,0.00013410,-0.00035681,0.00058489,-0.001
 16435,0.00014729,0.00008265,0.00007690,-0.00010158,0.00000671,0.000063
 47,-0.00001638,-0.00001172,0.00001332,0.00003586,-0.00001328,-0.000019
 21,0.00000474,0.00001053,-0.00000913,0.00000730,0.00003425,-0.00000275
 ,-0.00000746,-0.00000344,0.00000056,-0.00000105,0.00000053,-0.00000116
 ,-0.00000235,-0.00000407,-0.00000109,0.00000698,-0.00004256,-0.0000047
 0,-0.00001070,-0.00001552,0.00000394,-0.00001128,-0.00000758,-0.000013
 53,0.00000722,0.00000210,0.,0.00000148,0.00003580,-0.00000683,-0.00001
 785,-0.00006239,-0.00002544,0.00001190,0.00008367,0.00003447,0.0000027
 2,0.00000031,-0.00001173,0.00002337,-0.00001331,0.00000293,-0.00000155
 ,-0.00001499,-0.00000670,-0.00001038,0.00005861,0.00000848,0.00000524,
 -0.00001518,-0.00000593,-0.00001119,-0.00000773,-0.00000388,0.00000449
 ,-0.00001225,0.00003069,0.00001694,-0.00051445,0.00030223,-0.00029026,
 0.00016355,-0.00013321,-0.00000878,0.00007731,-0.00013070,0.00009851,0
 .00021265,0.00000487,0.00015120,0.00214670,-0.08367378,-0.04359888,0.0
 0914606,0.00977141,0.03396432,0.01398077,0.09690249,-0.00001234,-0.000
 00337,-0.00003501,-0.00002687,0.00001800,-0.00002234,-0.00006711,-0.00
 003250,0.00005087,-0.00000747,-0.00001184,-0.00002389,-0.00000775,-0.0
 0003660,-0.00003179,0.00000178,0.00000237,-0.00000122,0.00000781,0.000
 00280,0.00000571,0.00000112,-0.00000180,0.00000382,-0.00000926,0.00000
 277,-0.00001112,0.00000105,0.00000219,0.00000457,0.00004391,0.00002797
 ,0.00001694,0.00017880,0.00005877,0.00001605,0.00002517,-0.00000989,0.
 00002209,0.00003451,0.00000421,0.00004824,0.00002061,0.00003041,0.0000
 4496,-0.00007105,-0.00000862,0.00000167,0.00000120,0.00000536,0.000027
 93,0.00003211,0.00000965,-0.00000941,0.00016719,0.00009067,0.00008467,
 -0.00001293,-0.00000200,-0.00000466,0.00000361,0.00000423,0.00000033,-
 0.00000040,-0.00000079,-0.00000119,0.00000428,-0.00000293,0.00000185,-
 0.00000193,0.00000894,-0.00003749,-0.00000500,0.00000019,0.00000811,-0
 .00000050,-0.00000237,0.00000074,0.00000286,-0.00000050,0.00000362,-0.
 00001290,-0.00001926,-0.00000725,0.00000411,0.00000180,-0.00000152,0.0
 0000105,-0.00000029,0.00000240,-0.00000096,0.00000754,0.00000329,0.000
 10918,-0.00019647,-0.00094280,0.00011339,-0.00012387,0.00007759,-0.000
 81087,-0.00093914,-0.00045814,0.00014095,-0.00023462,-0.00010744,-0.00
 000685,0.00000651,0.00008284,-0.00000040,-0.00000908,0.00007253,0.0000
 2218,0.00003129,0.00002612,0.00007638,-0.00003841,0.00003205,-0.000017
 10,0.00000086,0.00003294,0.00000948,0.00003590,-0.00000308,0.00000958,
 0.00054843,-0.00002246,0.00096788,0.00061880,-0.00080108,0.00009130,0.
 00028729,0.00034106,-0.00038107,-0.00072467,0.00087121,-0.00006515,0.0
 0008039,0.00010391,-0.00005102,-0.00003494,0.00001808,0.00000206,0.000
 01875,-0.00000409,-0.00000338,-0.00001145,0.00000844,0.00003056,0.0000
 3529,0.00003057,-0.00044655,-0.00258809,0.00241629,-0.00006709,0.00042
 633,-0.00095324,0.00040491,0.00166975,0.00006516,0.00159678,0.00141961
 ,0.00020573,0.00055787,-0.00034692,-0.00045142,0.00231137,-0.00429820,
 0.00011387,0.00188113,0.00030235,0.00019394,-0.00007995,-0.00017932,0.
 00000885,0.00457345,-0.01135815,-0.03961329,-0.00086660,-0.00066181,-0
 .00011493,-0.00094568,0.00287453,-0.00148185,-0.00033029,-0.00139493,-
 0.00015523,-0.00003772,-0.00002496,-0.00002402,-0.00007869,-0.00005832
 ,0.00002747,0.00006296,0.00012541,0.00004342,-0.00002302,-0.00003023,-
 0.00015732,-0.00013729,0.00159508,-0.00031526,-0.00000459,0.00003398,-
 0.00027696,0.00098610,0.00001233,-0.00040810,0.00008718,0.00026075,0.0
 0020158,0.00002106,-0.00002941,-0.00012573,-0.00000536,0.00000698,0.00
 004233,0.00000024,0.00000066,0.00001600,0.00000034,-0.00000148,0.00000
 941,-0.00000664,-0.00001349,0.00000084,0.00000666,0.00001416,0.0000040
 9,-0.00000492,-0.00000882,-0.00001106,0.00000135,-0.00000167,0.0000011
 3,-0.00016380,0.00001108,-0.00005068,-0.00006994,0.00002468,-0.0000475
 6,-0.00003061,-0.00005589,0.00004694,0.00001939,-0.00001006,0.00000011
 ,-0.00001195,-0.00003537,-0.00008500,-0.00006610,-0.00006917,0.0001163
 7,0.00010162,0.00008553,-0.00005630,-0.00001184,0.00000645,-0.00001802
 ,0.00000109,0.00000045,-0.00001225,-0.00000643,0.00000583,0.00001187,0
 .00002468,0.00000388,0.00000132,0.00000165,0.00000255,0.00000291,-0.00
 001162,-0.00001416,0.00000457,-0.00000164,0.00001572,-0.00001018,-0.00
 133623,0.00160665,-0.00154733,0.00053913,-0.00053431,0.00005977,0.0001
 3039,-0.00061325,0.00051825,0.00074224,-0.00011972,0.00070050,0.000008
 05,-0.04770963,-0.23394136,-0.02960365,0.02226750,-0.05452721,0.044225
 15,0.07156908,0.34579920,0.00003348,0.00000646,0.00001589,0.00003700,-
 0.00002291,0.00001545,0.00010209,0.00002470,-0.00008541,0.00003718,0.0
 0000427,-0.00002331,0.00001753,0.00003403,0.00002494,-0.00000661,0.000
 00647,0.00001133,-0.00001421,-0.00000283,-0.00000068,0.00000054,-0.000
 00149,0.00000581,0.00000560,-0.00001338,0.00003188,-0.00000879,-0.0000
 0742,0.00000061,-0.00007381,-0.00000139,0.00002010,-0.00020131,-0.0000
 4566,0.00001788,-0.00004344,0.00002799,0.00000039,-0.00005287,-0.00000
 543,-0.00003238,-0.00004568,-0.00004381,-0.00002531,0.00012478,-0.0000
 2513,-0.00007498,0.00000518,0.00000610,-0.00001762,-0.00006263,-0.0000
 2022,0.00003184,-0.00028505,-0.00010359,0.00001133,0.00002366,-0.00001
 478,-0.00001507,-0.00000223,-0.00000191,0.00000075,-0.00000333,-0.0000
 0082,0.00000674,-0.00000362,0.00000414,-0.00000205,0.00001250,-0.00001
 005,0.00002143,-0.00000023,0.00000303,-0.00000258,0.00000168,0.0000040
 3,-0.00000295,-0.00000637,-0.00000182,-0.00000379,0.00003219,0.0000407
 5,-0.00000036,-0.00000739,-0.00000286,0.00000017,-0.00000135,-0.000004
 26,0.00000357,-0.00000060,-0.00000611,-0.00000296,0.00005109,0.0000632
 5,0.00001940,-0.00008684,0.00034912,-0.00005809,0.00071973,0.00093235,
 0.00018708,-0.00015054,0.00015751,0.00000880,-0.00012280,0.00015238,-0
 .00002581,0.00001417,-0.00000016,-0.00004016,-0.00000780,-0.00005799,-
 0.00001647,-0.00006865,0.00008785,-0.00002329,0.00002277,-0.00000125,-
 0.00001164,0.00001210,-0.00002450,0.00000327,0.00000758,-0.00060574,0.
 00014756,-0.00095234,-0.00063498,0.00080718,-0.00030628,-0.00038654,-0
 .00014852,-0.00015694,-0.00041353,0.00000824,0.00016305,-0.00017824,-0
 .00006346,0.00004520,0.00008502,0.00000256,0.00000249,-0.00002266,-0.0
 0000457,-0.00001681,-0.00001242,0.00000817,-0.00005413,-0.00006159,0.0
 0000521,0.00042873,0.00280394,-0.00277323,0.00028619,-0.00042150,0.001
 29682,-0.00035409,-0.00150960,0.00016482,-0.00071623,0.00058193,0.0027
 0686,-0.00079285,-0.00039811,0.00068615,-0.00498734,0.00304341,-0.0024
 6662,0.00008591,0.00051642,0.00058524,-0.00003305,-0.00006378,-0.00017
 616,-0.02803380,-0.03713784,0.00956031,-0.00011369,-0.00053767,-0.0006
 3096,0.00084039,-0.00116422,0.00151476,-0.00050132,-0.00027062,-0.0004
 1592,0.00020689,-0.00000214,0.00004750,0.00003348,0.00005413,0.0000028
 9,-0.00007045,-0.00012270,-0.00006723,0.00004728,0.00000305,0.00013512
 ,-0.00000403,0.00046496,-0.00000003,-0.00014016,0.00008020,-0.00000951
 ,0.00029873,-0.00006539,0.00012504,0.00000881,-0.00005631,-0.00006811,
 -0.00002218,0.00009725,0.00008977,-0.00001357,0.00000566,-0.00000160,-
 0.00000923,-0.00001824,-0.00001162,0.00001943,-0.00002217,-0.00000438,
 0.00003276,0.00002037,-0.00001670,-0.00000843,-0.00001473,-0.00000510,
 0.00000769,0.00001330,0.00000529,-0.00000488,-0.00000341,0.00001172,0.
 00017679,-0.00003060,0.00002975,0.00007325,-0.00004018,0.00004947,0.00
 003462,0.00005528,-0.00006534,-0.00003747,0.00002362,0.00000963,0.0000
 8663,0.00006599,0.00004618,-0.00002921,-0.00007978,-0.00005802,0.00003
 541,0.00002615,0.00002145,-0.00001727,0.00000339,0.00002355,0.00001501
 ,-0.00000222,0.00001454,-0.00001091,-0.00001990,-0.00002174,0.00000195
 ,0.00006854,0.00000995,-0.00000775,-0.00001425,-0.00001999,-0.00000050
 ,-0.00000149,0.00000918,-0.00000626,0.00001549,0.00001797,0.00142790,-
 0.00190551,0.00110046,-0.00058949,0.00063557,0.00006134,-0.00013262,0.
 00070383,-0.00045234,-0.00068406,0.00022497,-0.00051876,-0.16268860,-0
 .09050385,0.00972170,0.02148191,0.00272744,0.00155337,-0.00529344,-0.0
 2692511,-0.02446841,0.18094424,0.00001727,-0.00000104,0.00000478,0.000
 01852,-0.00001512,0.00000646,0.00004603,-0.00001328,-0.00002584,0.0000
 2183,-0.00000896,-0.00002147,0.00001196,0.00001032,0.00000890,-0.00000
 420,0.00000633,0.00000584,-0.00000586,-0.00000028,-0.00000012,0.000000
 67,-0.00000143,0.00000290,0.00000307,-0.00000878,0.00001834,-0.0000051
 7,-0.00000348,0.00000099,-0.00004514,0.00002691,0.00001321,-0.00007215
 ,0.00000029,0.00000756,-0.00002278,0.00002377,0.00000195,-0.00002728,0
 .00000241,-0.00001413,-0.00002817,-0.00001325,-0.00000746,0.00008278,-
 0.00003462,-0.00006224,0.00000384,0.00000695,-0.00000273,-0.00003875,-
 0.00000932,0.00002135,-0.00019311,-0.00003151,0.00003072,0.00001003,-0
 .00001366,-0.00001150,0.00000058,0.00000007,0.00000196,-0.00000126,0.0
 0000037,0.00000336,-0.00000248,0.00000237,-0.00000096,0.00000782,-0.00
 000693,0.00000925,-0.00000084,0.00000130,-0.00000051,-0.00000003,0.000
 00285,-0.00000155,-0.00000298,-0.00000091,-0.00000196,0.00001729,0.000
 01926,-0.00000079,-0.00000438,-0.00000164,-0.00000035,0.00000010,-0.00
 000231,0.00000143,-0.00000025,-0.00000225,-0.00000022,0.00022228,0.000
 05379,-0.00026758,0.00000106,0.00011403,-0.00000449,0.00028633,0.00036
 147,-0.00000722,-0.00001321,0.00000872,-0.00003413,-0.00007134,0.00012
 338,-0.00000977,0.00000922,-0.00001199,-0.00000022,-0.00000502,-0.0000
 1558,-0.00000327,-0.00002357,0.00005246,-0.00003129,0.00000839,0.00000
 124,-0.00000789,0.00000742,-0.00001804,-0.00000190,-0.00002581,-0.0002
 1341,0.00008828,-0.00041060,-0.00016072,0.00034004,-0.00024993,-0.0000
 8139,-0.00000953,-0.00054781,-0.00068806,0.00020100,0.00005757,-0.0001
 4824,-0.00002578,0.00003199,0.00007736,0.00001814,0.00000157,-0.000005
 78,-0.00000635,-0.00001721,-0.00001884,0.00001114,-0.00006932,-0.00005
 032,0.00000805,0.00025489,0.00068046,-0.00120560,0.00009702,-0.0000588
 6,0.00050796,-0.00020687,-0.00042684,0.00017486,0.00027351,0.00000466,
 0.00052402,-0.00027417,0.00034231,-0.00039604,-0.00145336,0.00093171,-
 0.00003934,-0.00101297,0.00112169,0.00092959,-0.00005822,-0.00000373,-
 0.00014609,-0.01307183,-0.00438093,0.00181240,0.00023140,-0.00001631,-
 0.00077852,0.00147247,-0.00139539,0.00146913,-0.00070598,0.00007174,-0
 .00120955,0.00016806,-0.00005672,0.00004078,-0.00001394,0.00002308,0.0
 0000837,-0.00004268,-0.00004764,-0.00003373,0.00001762,0.00000255,0.00
 004158,0.00056553,0.00057852,0.00021212,-0.00028016,0.00058128,0.00002
 683,0.00037117,-0.00009461,0.00003350,-0.00005555,-0.00006099,-0.00010
 299,-0.00000477,0.00009953,0.00005133,-0.00000573,0.00000904,0.0000167
 7,-0.00001931,-0.00002584,-0.00000398,0.00001413,-0.00000775,-0.000000
 90,0.00004838,0.00000843,-0.00001522,-0.00000826,-0.00000859,-0.000003
 96,0.00000490,0.00000610,0.00000234,-0.00000616,-0.00000214,0.00001153
 ,0.00006508,-0.00002436,0.00000917,0.00002780,-0.00001979,0.00001728,0
 .00001419,0.00002076,-0.00002938,-0.00001959,0.00001354,0.00000731,0.0
 0007078,0.00002791,0.00001726,-0.00005457,-0.00005195,-0.00002752,0.00
 006432,0.00002951,0.00001498,-0.00000807,-0.00000485,0.00002427,0.,0.0
 0000159,0.00000771,-0.00001211,-0.00001380,-0.00001699,0.00003473,0.00
 003839,0.00000887,-0.00001133,-0.00000998,-0.00001684,-0.00000311,-0.0
 0000181,0.00000766,-0.00001111,0.00002207,0.00001791,0.00032135,-0.000
 94330,0.00054321,-0.00025581,0.00032087,0.00002235,0.00004200,0.000358
 46,-0.00021998,-0.00022593,0.00014388,-0.00019836,-0.09440661,-0.17330
 942,0.00848643,-0.01193397,-0.07316670,0.02233783,-0.02881860,-0.02819
 405,-0.03367991,0.14984246,0.27757379,-0.00000727,-0.00000172,-0.00001
 243,-0.00001211,0.00000848,-0.00000882,-0.00003111,-0.00001234,0.00002
 418,-0.00000655,-0.00000466,-0.00000390,-0.00000423,-0.00001413,-0.000
 01258,0.00000125,0.00000012,-0.00000155,0.00000382,0.00000108,0.000001
 95,0.00000017,-0.00000033,0.00000061,-0.00000346,0.00000243,-0.0000071
 0,0.00000133,0.00000142,0.00000136,0.00002103,0.00000836,0.00000282,0.
 00007613,0.00002186,0.00000351,0.00001219,-0.00000647,0.00000693,0.000
 01609,0.00000160,0.00001836,0.00001090,0.00001348,0.00001617,-0.000033
 62,0.00000136,0.00000972,-0.00000005,0.00000069,0.00000944,0.00001594,
 0.00000472,-0.00000650,0.00007910,0.00003675,0.00002071,-0.00000626,0.
 00000118,0.00000003,0.00000128,0.00000146,-0.00000013,0.00000012,-0.00
 000031,-0.00000099,0.00000183,-0.00000136,0.00000080,-0.00000196,0.000
 00401,-0.00001392,-0.00000153,-0.00000021,0.00000282,-0.00000026,-0.00
 000122,0.00000052,0.00000151,0.,0.00000149,-0.00000722,-0.00000986,-0.
 00000219,0.00000203,0.00000087,-0.00000050,0.00000046,0.00000033,0.000
 00043,-0.00000017,0.00000290,0.00000123,0.00001579,-0.00006123,-0.0002
 7480,0.00004133,-0.00008400,0.00003275,-0.00029293,-0.00034677,-0.0001
 3718,0.00005342,-0.00008048,-0.00002960,0.00001369,-0.00001787,0.00002
 871,-0.00000237,-0.00000131,0.00002446,0.00000827,0.00001715,0.0000075
 6,0.00003360,-0.00001746,0.00001452,-0.00000697,0.00000043,0.00001036,
 0.00000144,0.00001388,-0.00000137,0.00000195,0.00021195,-0.00002364,0.
 00028405,0.00022107,-0.00023344,0.00006743,0.00013111,0.00010224,-0.00
 008363,-0.00017407,0.00020978,-0.00003758,0.00004547,0.00003745,-0.000
 01947,-0.00002012,0.00000359,0.00000028,0.00000750,-0.00000068,0.00000
 093,-0.00000152,0.00000146,0.00001567,0.00001732,0.00000854,-0.0002285
 8,-0.00096691,0.00085378,-0.00003518,0.00016947,-0.00035650,0.00016360
 ,0.00057851,-0.00001430,-0.00003535,-0.00094361,-0.00070902,0.00045527
 ,0.00000182,-0.00015416,0.00029738,-0.00073840,0.00079064,0.00013085,-
 0.00064484,-0.00073955,0.00002823,0.00005415,0.00012815,0.01531417,0.0
 1259260,0.00726267,0.00006908,0.00034934,0.00054432,0.00015098,0.00107
 403,-0.00090225,0.00059707,-0.00009517,0.00054146,-0.00003293,-0.00000
 848,-0.00000580,-0.00002606,-0.00002486,0.00000898,0.00002669,0.000054
 27,0.00002082,-0.00001279,-0.00000455,-0.00006561,-0.00010031,0.000390
 58,-0.00001359,-0.00000990,-0.00005947,-0.00011052,0.00024603,-0.00005
 294,-0.00010300,0.00002725,0.00006442,0.00004996,0.00000902,-0.0000210
 2,-0.00004781,0.00000015,0.00000097,0.00001235,0.00000132,0.00000266,0
 .00000600,-0.00000225,0.00000222,0.00000304,-0.00000631,-0.00000591,0.
 00000177,0.00000298,0.00000569,0.00000178,-0.00000220,-0.00000398,-0.0
 0000371,0.00000102,-0.00000018,-0.00000091,-0.00006855,0.00000811,-0.0
 0001944,-0.00003030,0.00001227,-0.00002132,-0.00001303,-0.00002430,0.0
 0002359,0.00001013,-0.00000569,-0.00000112,-0.00001445,-0.00001776,-0.
 00002984,-0.00001467,-0.00000976,0.00004061,0.00002351,0.00002086,-0.0
 0001907,-0.00000098,0.00000066,-0.00000846,-0.00000172,0.00000027,-0.0
 0000559,-0.00000030,0.00000451,0.00000640,0.00000654,-0.00000736,-0.00
 000112,0.00000154,0.00000257,0.00000339,-0.00000329,-0.00000386,0.0000
 0021,0.00000036,0.00000236,-0.00000524,-0.00053483,0.00061812,-0.00059
 399,0.00023155,-0.00022107,0.00004354,0.00003821,-0.00024975,0.0001949
 0,0.00025108,-0.00005994,0.00021642,0.01002507,0.00885993,-0.07063266,
 0.00605771,0.02543095,0.00562627,-0.03513199,-0.04654823,-0.01574684,0
 .00191485,0.00049516,0.07409716\\0.00000025,0.00000202,-0.00000084,0.0
 0000085,0.00000257,-0.00000246,0.00000084,0.00000243,-0.00000153,0.000
 00021,0.00000264,-0.00000100,-0.00000064,0.00000175,-0.00000091,0.0000
 0070,0.00000230,-0.00000183,0.00000003,0.00000372,-0.00000195,0.000000
 75,0.00000153,-0.00000194,-0.00000022,0.00000075,-0.00000089,-0.000000
 46,0.00000258,-0.00000096,0.00000029,0.00000171,-0.00000123,0.00000142
 ,0.00000242,-0.00000184,0.00000179,0.00000329,-0.00000237,0.00000034,0
 .00000271,-0.00000172,-0.00000036,0.00000208,0.00000020,-0.00000225,0.
 00000077,-0.00000015,0.00000037,0.00000304,0.00000074,-0.00000161,0.00
 000186,-0.00000086,-0.00000109,0.00000295,-0.00000011,0.00000160,0.000
 00322,-0.00000337,0.00000180,0.00000269,-0.00000274,0.00000121,0.00000
 374,-0.00000288,0.00000246,0.00000318,-0.00000307,0.00000129,0.0000031
 2,-0.00000198,0.00000098,0.00000243,-0.00000153,0.00000109,0.00000276,
 -0.00000234,0.00000055,0.00000295,-0.00000232,-0.00000110,0.00000148,-
 0.00000122,-0.00000079,0.00000252,-0.00000116,-0.00000171,0.00000255,-
 0.00000015,-0.00000088,0.00000115,0.00000004,0.00000108,-0.00000150,0.
 00000087,0.00000445,0.00000345,0.00000324,-0.00000805,-0.00001000,0.00
 000151,-0.00000016,-0.00000237,0.00000049,-0.00000184,-0.00000185,0.00
 000044,-0.00000279,-0.00000343,-0.00000254,-0.00000075,-0.00000121,0.0
 0000213,-0.00000163,-0.00000179,0.00000208,-0.00000254,-0.00000035,0.0
 0000190,-0.00000199,-0.00000099,0.00000209,0.00000080,0.00001274,-0.00
 000137,-0.00000165,0.00000047,0.00000089,-0.00000023,-0.00000147,-0.00
 000038,-0.00000007,-0.00000165,0.00000181,-0.00000217,-0.00000205,0.00
 000225,-0.00000320,-0.00000024,0.00000237,-0.00000296,-0.00000062,0.00
 000224,-0.00000311,-0.00000027,0.00000163,-0.00000276,-0.00000117,0.00
 000174,0.00000241,-0.00000752,-0.00000378,-0.00000037,0.00000080,0.000
 00076,0.00000112,0.00000179,0.00000379,0.00000031,-0.00000163,-0.00000
 020,0.00000228,-0.00000178,-0.00000073,0.00000051,-0.00000077,0.000001
 20,0.00000215,-0.00000152,-0.00000050,0.00000118,-0.00000006,-0.000000
 59,0.00000164,-0.00000246,0.00000002,0.00000044,-0.00000228,0.00000087
 ,0.00000230,-0.00000187,0.00000053,0.00000284,-0.00000223,-0.00000043,
 0.00000123,-0.00000027,-0.00000097,0.00000077,0.00000014,-0.00000017,0
 .00000106,-0.00000031,-0.00000047,0.00000094,-0.00000095,-0.00000053,-
 0.00000009,-0.00000259,0.00000096,0.00000052,-0.00000282,0.00000185,0.
 00000090,-0.00000243,0.00000096,0.00000057,-0.00000310,0.00000144,-0.0
 0000151,-0.00000188,0.00000225,-0.00000129,-0.00000286,0.00000254,-0.0
 0000258,-0.00000240,0.00000236,-0.00000228,-0.00000289,0.00000290,-0.0
 0000276,0.00000133,0.00000141,-0.00000276,0.00000072,0.00000135,-0.000
 00250,0.00000050,0.00000038,-0.00000299,0.00000101,0.00000113,0.000001
 19,0.00000101,-0.00000120,0.00000137,0.00000089,-0.00000141,0.00000065
 ,0.00000139,-0.00000121,0.00000173,0.00000143,-0.00000186,0.00000031,0
 .00000057,0.00000036,-0.00000175,0.00000002,0.00000274,0.00000038,-0.0
 0000164,0.00000054,-0.00000009,-0.00000204,0.00000062,0.00000079,-0.00
 000084,0.00000004,-0.00000003,-0.00000155,0.00000055,-0.00000136,-0.00
 000102,0.00000083,-0.00000028,-0.00000094,0.00000108,-0.00000205,-0.00
 000154,0.00000039,-0.00000097,-0.00000161,0.00000219,0.00000264,-0.000
 00078,0.00000013,0.00000339,-0.00000038,-0.00000177,0.00000364,-0.0000
 0140,-0.00000208,0.00000211,-0.00000071,-0.00000122,0.00000149,-0.0000
 0253,0.00000120,0.00000102,-0.00000394,0.00000136,0.00000158,-0.000003
 01,0.00000030,0.00000211,-0.00000367,0.00000106\\\@


 One man practicing sportsmanship is far better than 50 preaching it.
 -- Knute K. Rockne
 Job cpu time:       5 days  9 hours 59 minutes 32.5 seconds.
 Elapsed time:       0 days  4 hours 12 minutes 28.3 seconds.
 File lengths (MBytes):  RWF=   9763 Int=      0 D2E=      0 Chk=     85 Scr=      1
 Normal termination of Gaussian 16 at Wed May  8 00:31:28 2019.
