 Entering Gaussian System, Link 0=g16
 Input=clay_new-glu_gluC6-ORG2-Na_1Me2O-bisCF3-ts-b3lyp_d3bj-631gd-pcm_thf.gjf
 Output=clay_new-glu_gluC6-ORG2-Na_1Me2O-bisCF3-ts-b3lyp_d3bj-631gd-pcm_thf.out
 Initial command:
 /home/ekwan/sw/g16/l1.exe "/scratch/users/ekwan/clay_new-glu_gluC6-ORG2-Na_1Me2O-bisCF3-ts-b3lyp_d3bj-631gd-pcm_thf/Gau-36250.inp" -scrdir="/scratch/users/ekwan/clay_new-glu_gluC6-ORG2-Na_1Me2O-bisCF3-ts-b3lyp_d3bj-631gd-pcm_thf/"
 Entering Link 1 = /home/ekwan/sw/g16/l1.exe PID=     36251.
  
 Copyright (c) 1988,1990,1992,1993,1995,1998,2003,2009,2016,
            Gaussian, Inc.  All Rights Reserved.
  
 This is part of the Gaussian(R) 16 program.  It is based on
 the Gaussian(R) 09 system (copyright 2009, Gaussian, Inc.),
 the Gaussian(R) 03 system (copyright 2003, Gaussian, Inc.),
 the Gaussian(R) 98 system (copyright 1998, Gaussian, Inc.),
 the Gaussian(R) 94 system (copyright 1995, Gaussian, Inc.),
 the Gaussian 92(TM) system (copyright 1992, Gaussian, Inc.),
 the Gaussian 90(TM) system (copyright 1990, Gaussian, Inc.),
 the Gaussian 88(TM) system (copyright 1988, Gaussian, Inc.),
 the Gaussian 86(TM) system (copyright 1986, Carnegie Mellon
 University), and the Gaussian 82(TM) system (copyright 1983,
 Carnegie Mellon University). Gaussian is a federally registered
 trademark of Gaussian, Inc.
  
 This software contains proprietary and confidential information,
 including trade secrets, belonging to Gaussian, Inc.
  
 This software is provided under written license and may be
 used, copied, transmitted, or stored only in accord with that
 written license.
  
 The following legend is applicable only to US Government
 contracts under FAR:
  
                    RESTRICTED RIGHTS LEGEND
  
 Use, reproduction and disclosure by the US Government is
 subject to restrictions as set forth in subparagraphs (a)
 and (c) of the Commercial Computer Software - Restricted
 Rights clause in FAR 52.227-19.
  
 Gaussian, Inc.
 340 Quinnipiac St., Bldg. 40, Wallingford CT 06492
  
  
 ---------------------------------------------------------------
 Warning -- This program may not be used in any manner that
 competes with the business of Gaussian, Inc. or will provide
 assistance to any competitor of Gaussian, Inc.  The licensee
 of this program is prohibited from giving any competitor of
 Gaussian, Inc. access to this program.  By using this program,
 the user acknowledges that Gaussian, Inc. is engaged in the
 business of creating and licensing software in the field of
 computational chemistry and represents and warrants to the
 licensee that it is not a competitor of Gaussian, Inc. and that
 it will not use this program in any manner prohibited above.
 ---------------------------------------------------------------
  

 Cite this work as:
 Gaussian 16, Revision A.03,
 M. J. Frisch, G. W. Trucks, H. B. Schlegel, G. E. Scuseria, 
 M. A. Robb, J. R. Cheeseman, G. Scalmani, V. Barone, 
 G. A. Petersson, H. Nakatsuji, X. Li, M. Caricato, A. V. Marenich, 
 J. Bloino, B. G. Janesko, R. Gomperts, B. Mennucci, H. P. Hratchian, 
 J. V. Ortiz, A. F. Izmaylov, J. L. Sonnenberg, D. Williams-Young, 
 F. Ding, F. Lipparini, F. Egidi, J. Goings, B. Peng, A. Petrone, 
 T. Henderson, D. Ranasinghe, V. G. Zakrzewski, J. Gao, N. Rega, 
 G. Zheng, W. Liang, M. Hada, M. Ehara, K. Toyota, R. Fukuda, 
 J. Hasegawa, M. Ishida, T. Nakajima, Y. Honda, O. Kitao, H. Nakai, 
 T. Vreven, K. Throssell, J. A. Montgomery, Jr., J. E. Peralta, 
 F. Ogliaro, M. J. Bearpark, J. J. Heyd, E. N. Brothers, K. N. Kudin, 
 V. N. Staroverov, T. A. Keith, R. Kobayashi, J. Normand, 
 K. Raghavachari, A. P. Rendell, J. C. Burant, S. S. Iyengar, 
 J. Tomasi, M. Cossi, J. M. Millam, M. Klene, C. Adamo, R. Cammi, 
 J. W. Ochterski, R. L. Martin, K. Morokuma, O. Farkas, 
 J. B. Foresman, and D. J. Fox, Gaussian, Inc., Wallingford CT, 2016.
 
 ******************************************
 Gaussian 16:  AS64L-G16RevA.03 25-Dec-2016
                 8-May-2019 
 ******************************************
 %mem=48GB
 %nprocshared=32
 Will use up to   32 processors via shared memory.
 ----------------------------------------------------------------------
 #p opt=(ts,noeigentest,calcfc,maxstep=3,modredundant,recalc=30) freq=n
 oraman b3lyp 6-31g* pop=none scrf=(solvent=tetrahydrofuran,pcm) empiri
 caldispersion=gd3bj
 ----------------------------------------------------------------------
 1/5=1,8=3,10=4,11=1,18=120,26=3,38=1,71=30/1,3;
 2/9=110,12=2,17=6,18=5,40=1/2;
 3/5=1,6=6,7=1,11=2,25=1,30=1,70=2201,71=2,72=20,74=-5,124=41,140=1/1,2,3;
 4//1;
 5/5=2,38=5,53=20/2;
 8/6=4,10=90,11=11/1;
 11/6=1,8=1,9=11,15=111,16=1/1,2,10;
 10/6=1,13=1/2;
 7/10=1,18=20,25=1/1,2,3,16;
 1/5=1,8=3,10=4,11=1,18=20,26=3,71=30/3(2);
 2/9=110/2;
 99//99;
 2/9=110/2;
 3/5=1,6=6,7=1,11=2,25=1,30=1,70=2205,71=1,72=20,74=-5,124=41/1,2,3;
 4/5=5,16=3,69=1/1;
 5/5=2,38=5,53=20/2;
 7//1,2,3,16;
 1/5=1,8=3,11=1,18=20,26=3,71=30/3(-5);
 2/9=110/2;
 99/9=1/99;
 Leave Link    1 at Wed May  8 08:00:44 2019, MaxMem=  6442450944 cpu:               5.8 elap:               0.2
 (Enter /home/ekwan/sw/g16/l101.exe)
 -----
 title
 -----
 Symbolic Z-matrix:
 Charge =  0 Multiplicity = 1
 C                    -4.38614  -0.51186   0.65912 
 C                    -5.19373  -1.2748   -0.39441 
 C                    -4.27426  -1.67101  -1.5611 
 C                    -2.35976  -1.86134  -0.11283 
 C                    -3.1514   -1.31713   1.08468 
 H                    -4.80032  -2.30996  -2.28376 
 H                    -5.57038  -2.22158   0.02404 
 H                    -4.0385    0.41624   0.20604 
 H                    -1.84249  -1.01161  -0.57469 
 H                    -3.45642  -2.15928   1.72484 
 O                    -3.22202  -2.4818   -1.08628 
 O                    -3.84162  -0.49338  -2.18723 
 O                    -6.27809  -0.4509   -0.77373 
 O                    -5.16914  -0.0857    1.77453 
 O                    -2.2171   -0.50101   1.7949 
 C                    -1.30403  -2.91767   0.3005 
 H                    -1.79413  -3.90057   0.12898 
 H                    -1.20315  -2.84664   1.40585 
 O                    -0.09796  -2.78263  -0.33603 
 C                    -7.23224  -1.09174  -1.6037 
 H                    -6.84864  -1.26632  -2.61814 
 H                    -7.55353  -2.05373  -1.17691 
 H                    -8.09479  -0.42397  -1.66634 
 C                    -6.00715  -1.06229   2.37129 
 H                    -6.85585  -1.31574   1.72324 
 H                    -5.46872  -1.98413   2.63056 
 H                    -6.38846  -0.61532   3.29263 
 C                    -2.47231  -0.33045   3.18643 
 H                    -3.34362   0.30768   3.35523 
 H                    -2.63874  -1.30181   3.67353 
 H                    -1.57456   0.12969   3.60504 
 C                     3.28937  -1.96283   1.30585 
 C                     1.82372  -2.08902   1.723 
 C                     0.95243  -0.94507   1.21758 
 C                     2.68194  -0.11191  -0.25435 
 C                     3.40509  -1.45339  -0.12897 
 H                    -0.11436  -0.95215   1.38374 
 H                     1.37887  -2.93846   1.17921 
 H                     3.78878  -1.24208   1.96627 
 H                     3.19058   0.59681   0.40253 
 H                     2.99097  -2.19466  -0.82466 
 O                     1.29901  -0.20194   0.20351 
 O                     3.17879   1.38936   2.50162 
 O                     1.79395  -2.29711   3.11408 
 O                     3.92575  -3.22958   1.37247 
 O                     4.75252  -1.16735  -0.46465 
 C                     2.63415   0.45611  -1.67167 
 H                     3.59308   0.23145  -2.14526 
 H                     2.51668   1.54181  -1.63921 
 O                     1.59556  -0.1081   -2.47355 
 S                     1.74827   1.57346   2.84013 
 O                     1.46184   2.32995   4.07253 
 O                     0.96668   0.26322   2.82331 
 C                     1.0432    2.49299   1.46128 
 C                     1.8715    3.30906   0.6959 
 C                    -0.30959   2.35476   1.15823 
 C                     1.33144   3.99711  -0.39081 
 H                     2.92651   3.37985   0.93164 
 C                    -0.83467   3.06222   0.07754 
 H                    -0.93575   1.67229   1.72023 
 C                    -0.02289   3.88545  -0.70094 
 H                    -0.43764   4.42168  -1.54589 
 C                     0.57137  -2.81092   3.62185 
 H                    -0.23743  -2.07603   3.54893 
 H                     0.27474  -3.72723   3.09361 
 H                     0.74773  -3.03917   4.67531 
 C                     4.61847  -3.48196   2.591 
 H                     5.38705  -2.71734   2.77058 
 H                     3.93235  -3.50849   3.44277 
 H                     5.10255  -4.45479   2.47545 
 C                     5.43437  -2.22255  -1.13774 
 H                     5.52052  -3.10747  -0.50121 
 H                     4.91183  -2.49228  -2.06348 
 H                     6.42842  -1.84062  -1.38132 
 C                     0.46822   0.7621   -2.63609 
 H                    -0.18198   0.29919  -3.38228 
 H                    -0.07872   0.88242  -1.69825 
 H                     0.79262   1.74309  -3.00223 
 C                    -3.06442  -0.71991  -3.35223 
 H                    -2.84613   0.26113  -3.77878 
 H                    -2.12448  -1.23168  -3.1134 
 H                    -3.61737  -1.3237   -4.08662 
 Na                    0.70291  -2.28442  -2.2166 
 O                     2.59907  -3.09623  -3.22236 
 C                     2.96718  -4.47146  -3.17023 
 H                     4.0579   -4.57886  -3.11056 
 H                     2.51241  -4.89108  -2.2707 
 H                     2.60044  -5.00835  -4.05507 
 C                     3.13555  -2.42309  -4.35864 
 H                     2.77467  -2.88068  -5.28956 
 H                     2.79852  -1.38715  -4.29599 
 H                     4.23281  -2.45568  -4.34611 
 C                    -2.26692   2.84169  -0.32056 
 F                    -2.38344   1.74922  -1.12041 
 F                    -2.76996   3.8859   -1.01103 
 F                    -3.06287   2.63186   0.74715 
 C                     2.23252   4.76836  -1.31215 
 F                     1.61612   5.84261  -1.84542 
 F                     2.62793   3.98855  -2.35718 
 F                     3.35197   5.19493  -0.69766 
 
 Add virtual bond connecting atoms O53        and C34        Dist= 3.80D+00.
 Add virtual bond connecting atoms H37        and O15        Dist= 4.14D+00.
 Add virtual bond connecting atoms H37        and H18        Dist= 4.13D+00.
 Add virtual bond connecting atoms H38        and O19        Dist= 4.01D+00.
 The following ModRedundant input section has been read:
 
 ITRead=  0  0  0  0  0  0  0  0  0  0  0  0  0  0  0  0  0  0  0  0
 ITRead=  0  0  0  0  0  0  0  0  0  0  0  0  0  0  0  0  0  0  0  0
 ITRead=  0  0  0  0  0  0  0  0  0  0  0  0  0  0  0  0  0  0  0  0
 ITRead=  0  0  0  0  0  0  0  0  0  0  0  0  0  0  0  0  0  0  0  0
 ITRead=  0  0  0  0  0  0  0  0  0  0  0  0  0  0  0  0  0  0  0  0
 MicOpt= -1 -1 -1 -1 -1 -1 -1 -1 -1 -1 -1 -1 -1 -1 -1 -1 -1 -1 -1 -1
 MicOpt= -1 -1 -1 -1 -1 -1 -1 -1 -1 -1 -1 -1 -1 -1 -1 -1 -1 -1 -1 -1
 MicOpt= -1 -1 -1 -1 -1 -1 -1 -1 -1 -1 -1 -1 -1 -1 -1 -1 -1 -1 -1 -1
 MicOpt= -1 -1 -1 -1 -1 -1 -1 -1 -1 -1 -1 -1 -1 -1 -1 -1 -1 -1 -1 -1
 MicOpt= -1 -1 -1 -1 -1 -1 -1 -1 -1 -1 -1 -1 -1 -1 -1 -1 -1 -1 -1 -1
 NAtoms=    100 NQM=      100 NQMF=       0 NMMI=      0 NMMIF=      0
                NMic=       0 NMicF=      0.
                    Isotopes and Nuclear Properties:
 (Nuclear quadrupole moments (NQMom) in fm**2, nuclear magnetic moments (NMagM)
  in nuclear magnetons)

  Atom         1           2           3           4           5           6           7           8           9          10
 IAtWgt=          12          12          12          12          12           1           1           1           1           1
 AtmWgt=  12.0000000  12.0000000  12.0000000  12.0000000  12.0000000   1.0078250   1.0078250   1.0078250   1.0078250   1.0078250
 NucSpn=           0           0           0           0           0           1           1           1           1           1
 AtZEff=   0.0000000   0.0000000   0.0000000   0.0000000   0.0000000   0.0000000   0.0000000   0.0000000   0.0000000   0.0000000
 NQMom=    0.0000000   0.0000000   0.0000000   0.0000000   0.0000000   0.0000000   0.0000000   0.0000000   0.0000000   0.0000000
 NMagM=    0.0000000   0.0000000   0.0000000   0.0000000   0.0000000   2.7928460   2.7928460   2.7928460   2.7928460   2.7928460
 AtZNuc=   6.0000000   6.0000000   6.0000000   6.0000000   6.0000000   1.0000000   1.0000000   1.0000000   1.0000000   1.0000000

  Atom        11          12          13          14          15          16          17          18          19          20
 IAtWgt=          16          16          16          16          16          12           1           1          16          12
 AtmWgt=  15.9949146  15.9949146  15.9949146  15.9949146  15.9949146  12.0000000   1.0078250   1.0078250  15.9949146  12.0000000
 NucSpn=           0           0           0           0           0           0           1           1           0           0
 AtZEff=   0.0000000   0.0000000   0.0000000   0.0000000   0.0000000   0.0000000   0.0000000   0.0000000   0.0000000   0.0000000
 NQMom=    0.0000000   0.0000000   0.0000000   0.0000000   0.0000000   0.0000000   0.0000000   0.0000000   0.0000000   0.0000000
 NMagM=    0.0000000   0.0000000   0.0000000   0.0000000   0.0000000   0.0000000   2.7928460   2.7928460   0.0000000   0.0000000
 AtZNuc=   8.0000000   8.0000000   8.0000000   8.0000000   8.0000000   6.0000000   1.0000000   1.0000000   8.0000000   6.0000000

  Atom        21          22          23          24          25          26          27          28          29          30
 IAtWgt=           1           1           1          12           1           1           1          12           1           1
 AtmWgt=   1.0078250   1.0078250   1.0078250  12.0000000   1.0078250   1.0078250   1.0078250  12.0000000   1.0078250   1.0078250
 NucSpn=           1           1           1           0           1           1           1           0           1           1
 AtZEff=   0.0000000   0.0000000   0.0000000   0.0000000   0.0000000   0.0000000   0.0000000   0.0000000   0.0000000   0.0000000
 NQMom=    0.0000000   0.0000000   0.0000000   0.0000000   0.0000000   0.0000000   0.0000000   0.0000000   0.0000000   0.0000000
 NMagM=    2.7928460   2.7928460   2.7928460   0.0000000   2.7928460   2.7928460   2.7928460   0.0000000   2.7928460   2.7928460
 AtZNuc=   1.0000000   1.0000000   1.0000000   6.0000000   1.0000000   1.0000000   1.0000000   6.0000000   1.0000000   1.0000000

  Atom        31          32          33          34          35          36          37          38          39          40
 IAtWgt=           1          12          12          12          12          12           1           1           1           1
 AtmWgt=   1.0078250  12.0000000  12.0000000  12.0000000  12.0000000  12.0000000   1.0078250   1.0078250   1.0078250   1.0078250
 NucSpn=           1           0           0           0           0           0           1           1           1           1
 AtZEff=   0.0000000   0.0000000   0.0000000   0.0000000   0.0000000   0.0000000   0.0000000   0.0000000   0.0000000   0.0000000
 NQMom=    0.0000000   0.0000000   0.0000000   0.0000000   0.0000000   0.0000000   0.0000000   0.0000000   0.0000000   0.0000000
 NMagM=    2.7928460   0.0000000   0.0000000   0.0000000   0.0000000   0.0000000   2.7928460   2.7928460   2.7928460   2.7928460
 AtZNuc=   1.0000000   6.0000000   6.0000000   6.0000000   6.0000000   6.0000000   1.0000000   1.0000000   1.0000000   1.0000000

  Atom        41          42          43          44          45          46          47          48          49          50
 IAtWgt=           1          16          16          16          16          16          12           1           1          16
 AtmWgt=   1.0078250  15.9949146  15.9949146  15.9949146  15.9949146  15.9949146  12.0000000   1.0078250   1.0078250  15.9949146
 NucSpn=           1           0           0           0           0           0           0           1           1           0
 AtZEff=   0.0000000   0.0000000   0.0000000   0.0000000   0.0000000   0.0000000   0.0000000   0.0000000   0.0000000   0.0000000
 NQMom=    0.0000000   0.0000000   0.0000000   0.0000000   0.0000000   0.0000000   0.0000000   0.0000000   0.0000000   0.0000000
 NMagM=    2.7928460   0.0000000   0.0000000   0.0000000   0.0000000   0.0000000   0.0000000   2.7928460   2.7928460   0.0000000
 AtZNuc=   1.0000000   8.0000000   8.0000000   8.0000000   8.0000000   8.0000000   6.0000000   1.0000000   1.0000000   8.0000000

  Atom        51          52          53          54          55          56          57          58          59          60
 IAtWgt=          32          16          16          12          12          12          12           1          12           1
 AtmWgt=  31.9720718  15.9949146  15.9949146  12.0000000  12.0000000  12.0000000  12.0000000   1.0078250  12.0000000   1.0078250
 NucSpn=           0           0           0           0           0           0           0           1           0           1
 AtZEff=   0.0000000   0.0000000   0.0000000   0.0000000   0.0000000   0.0000000   0.0000000   0.0000000   0.0000000   0.0000000
 NQMom=    0.0000000   0.0000000   0.0000000   0.0000000   0.0000000   0.0000000   0.0000000   0.0000000   0.0000000   0.0000000
 NMagM=    0.0000000   0.0000000   0.0000000   0.0000000   0.0000000   0.0000000   0.0000000   2.7928460   0.0000000   2.7928460
 AtZNuc=  16.0000000   8.0000000   8.0000000   6.0000000   6.0000000   6.0000000   6.0000000   1.0000000   6.0000000   1.0000000

  Atom        61          62          63          64          65          66          67          68          69          70
 IAtWgt=          12           1          12           1           1           1          12           1           1           1
 AtmWgt=  12.0000000   1.0078250  12.0000000   1.0078250   1.0078250   1.0078250  12.0000000   1.0078250   1.0078250   1.0078250
 NucSpn=           0           1           0           1           1           1           0           1           1           1
 AtZEff=   0.0000000   0.0000000   0.0000000   0.0000000   0.0000000   0.0000000   0.0000000   0.0000000   0.0000000   0.0000000
 NQMom=    0.0000000   0.0000000   0.0000000   0.0000000   0.0000000   0.0000000   0.0000000   0.0000000   0.0000000   0.0000000
 NMagM=    0.0000000   2.7928460   0.0000000   2.7928460   2.7928460   2.7928460   0.0000000   2.7928460   2.7928460   2.7928460
 AtZNuc=   6.0000000   1.0000000   6.0000000   1.0000000   1.0000000   1.0000000   6.0000000   1.0000000   1.0000000   1.0000000

  Atom        71          72          73          74          75          76          77          78          79          80
 IAtWgt=          12           1           1           1          12           1           1           1          12           1
 AtmWgt=  12.0000000   1.0078250   1.0078250   1.0078250  12.0000000   1.0078250   1.0078250   1.0078250  12.0000000   1.0078250
 NucSpn=           0           1           1           1           0           1           1           1           0           1
 AtZEff=   0.0000000   0.0000000   0.0000000   0.0000000   0.0000000   0.0000000   0.0000000   0.0000000   0.0000000   0.0000000
 NQMom=    0.0000000   0.0000000   0.0000000   0.0000000   0.0000000   0.0000000   0.0000000   0.0000000   0.0000000   0.0000000
 NMagM=    0.0000000   2.7928460   2.7928460   2.7928460   0.0000000   2.7928460   2.7928460   2.7928460   0.0000000   2.7928460
 AtZNuc=   6.0000000   1.0000000   1.0000000   1.0000000   6.0000000   1.0000000   1.0000000   1.0000000   6.0000000   1.0000000

  Atom        81          82          83          84          85          86          87          88          89          90
 IAtWgt=           1           1          23          16          12           1           1           1          12           1
 AtmWgt=   1.0078250   1.0078250  22.9897697  15.9949146  12.0000000   1.0078250   1.0078250   1.0078250  12.0000000   1.0078250
 NucSpn=           1           1           3           0           0           1           1           1           0           1
 AtZEff=   0.0000000   0.0000000   0.0000000   0.0000000   0.0000000   0.0000000   0.0000000   0.0000000   0.0000000   0.0000000
 NQMom=    0.0000000   0.0000000  10.4000000   0.0000000   0.0000000   0.0000000   0.0000000   0.0000000   0.0000000   0.0000000
 NMagM=    2.7928460   2.7928460   2.2175200   0.0000000   0.0000000   2.7928460   2.7928460   2.7928460   0.0000000   2.7928460
 AtZNuc=   1.0000000   1.0000000  11.0000000   8.0000000   6.0000000   1.0000000   1.0000000   1.0000000   6.0000000   1.0000000

  Atom        91          92          93          94          95          96          97          98          99         100
 IAtWgt=           1           1          12          19          19          19          12          19          19          19
 AtmWgt=   1.0078250   1.0078250  12.0000000  18.9984033  18.9984033  18.9984033  12.0000000  18.9984033  18.9984033  18.9984033
 NucSpn=           1           1           0           1           1           1           0           1           1           1
 AtZEff=   0.0000000   0.0000000   0.0000000   0.0000000   0.0000000   0.0000000   0.0000000   0.0000000   0.0000000   0.0000000
 NQMom=    0.0000000   0.0000000   0.0000000   0.0000000   0.0000000   0.0000000   0.0000000   0.0000000   0.0000000   0.0000000
 NMagM=    2.7928460   2.7928460   0.0000000   2.6288670   2.6288670   2.6288670   0.0000000   2.6288670   2.6288670   2.6288670
 AtZNuc=   1.0000000   1.0000000   6.0000000   9.0000000   9.0000000   9.0000000   6.0000000   9.0000000   9.0000000   9.0000000
 Leave Link  101 at Wed May  8 08:00:45 2019, MaxMem=  6442450944 cpu:              18.2 elap:               0.7
 (Enter /home/ekwan/sw/g16/l103.exe)

 GradGradGradGradGradGradGradGradGradGradGradGradGradGradGradGradGradGrad
 Berny optimization.
 Initialization pass.
                           ----------------------------
                           !    Initial Parameters    !
                           ! (Angstroms and Degrees)  !
 --------------------------                            --------------------------
 ! Name  Definition              Value          Derivative Info.                !
 --------------------------------------------------------------------------------
 ! R1    R(1,2)                  1.5311         calculate D2E/DX2 analytically  !
 ! R2    R(1,5)                  1.5343         calculate D2E/DX2 analytically  !
 ! R3    R(1,8)                  1.0897         calculate D2E/DX2 analytically  !
 ! R4    R(1,14)                 1.4279         calculate D2E/DX2 analytically  !
 ! R5    R(2,3)                  1.5374         calculate D2E/DX2 analytically  !
 ! R6    R(2,7)                  1.1015         calculate D2E/DX2 analytically  !
 ! R7    R(2,13)                 1.4137         calculate D2E/DX2 analytically  !
 ! R8    R(3,6)                  1.0987         calculate D2E/DX2 analytically  !
 ! R9    R(3,11)                 1.4107         calculate D2E/DX2 analytically  !
 ! R10   R(3,12)                 1.4022         calculate D2E/DX2 analytically  !
 ! R11   R(4,5)                  1.5352         calculate D2E/DX2 analytically  !
 ! R12   R(4,9)                  1.0968         calculate D2E/DX2 analytically  !
 ! R13   R(4,11)                 1.4409         calculate D2E/DX2 analytically  !
 ! R14   R(4,16)                 1.5496         calculate D2E/DX2 analytically  !
 ! R15   R(5,10)                 1.1009         calculate D2E/DX2 analytically  !
 ! R16   R(5,15)                 1.4295         calculate D2E/DX2 analytically  !
 ! R17   R(12,79)                1.4187         calculate D2E/DX2 analytically  !
 ! R18   R(13,20)                1.4177         calculate D2E/DX2 analytically  !
 ! R19   R(14,24)                1.4185         calculate D2E/DX2 analytically  !
 ! R20   R(15,28)                1.425          calculate D2E/DX2 analytically  !
 ! R21   R(15,37)                2.1895         calculate D2E/DX2 analytically  !
 ! R22   R(16,17)                1.1116         calculate D2E/DX2 analytically  !
 ! R23   R(16,18)                1.1122         calculate D2E/DX2 analytically  !
 ! R24   R(16,19)                1.3704         calculate D2E/DX2 analytically  !
 ! R25   R(18,37)                2.1852         calculate D2E/DX2 analytically  !
 ! R26   R(19,38)                2.1216         calculate D2E/DX2 analytically  !
 ! R27   R(19,83)                2.1038         calculate D2E/DX2 analytically  !
 ! R28   R(20,21)                1.0985         calculate D2E/DX2 analytically  !
 ! R29   R(20,22)                1.1004         calculate D2E/DX2 analytically  !
 ! R30   R(20,23)                1.0926         calculate D2E/DX2 analytically  !
 ! R31   R(24,25)                1.0975         calculate D2E/DX2 analytically  !
 ! R32   R(24,26)                1.0986         calculate D2E/DX2 analytically  !
 ! R33   R(24,27)                1.0927         calculate D2E/DX2 analytically  !
 ! R34   R(28,29)                1.0931         calculate D2E/DX2 analytically  !
 ! R35   R(28,30)                1.0993         calculate D2E/DX2 analytically  !
 ! R36   R(28,31)                1.0922         calculate D2E/DX2 analytically  !
 ! R37   R(32,33)                1.5291         calculate D2E/DX2 analytically  !
 ! R38   R(32,36)                1.527          calculate D2E/DX2 analytically  !
 ! R39   R(32,39)                1.0977         calculate D2E/DX2 analytically  !
 ! R40   R(32,45)                1.4192         calculate D2E/DX2 analytically  !
 ! R41   R(33,34)                1.5242         calculate D2E/DX2 analytically  !
 ! R42   R(33,38)                1.1023         calculate D2E/DX2 analytically  !
 ! R43   R(33,44)                1.4069         calculate D2E/DX2 analytically  !
 ! R44   R(34,37)                1.0797         calculate D2E/DX2 analytically  !
 ! R45   R(34,42)                1.3041         calculate D2E/DX2 analytically  !
 ! R46   R(34,53)                2.0096         calculate D2E/DX2 analytically  !
 ! R47   R(35,36)                1.5291         calculate D2E/DX2 analytically  !
 ! R48   R(35,40)                1.092          calculate D2E/DX2 analytically  !
 ! R49   R(35,42)                1.4595         calculate D2E/DX2 analytically  !
 ! R50   R(35,47)                1.5277         calculate D2E/DX2 analytically  !
 ! R51   R(36,41)                1.0977         calculate D2E/DX2 analytically  !
 ! R52   R(36,46)                1.4178         calculate D2E/DX2 analytically  !
 ! R53   R(43,51)                1.4815         calculate D2E/DX2 analytically  !
 ! R54   R(44,63)                1.42           calculate D2E/DX2 analytically  !
 ! R55   R(45,67)                1.4242         calculate D2E/DX2 analytically  !
 ! R56   R(46,71)                1.4253         calculate D2E/DX2 analytically  !
 ! R57   R(47,48)                1.0928         calculate D2E/DX2 analytically  !
 ! R58   R(47,49)                1.0925         calculate D2E/DX2 analytically  !
 ! R59   R(47,50)                1.4283         calculate D2E/DX2 analytically  !
 ! R60   R(50,75)                1.4334         calculate D2E/DX2 analytically  !
 ! R61   R(51,52)                1.4742         calculate D2E/DX2 analytically  !
 ! R62   R(51,53)                1.5257         calculate D2E/DX2 analytically  !
 ! R63   R(51,54)                1.8011         calculate D2E/DX2 analytically  !
 ! R64   R(54,55)                1.3921         calculate D2E/DX2 analytically  !
 ! R65   R(54,56)                1.3932         calculate D2E/DX2 analytically  !
 ! R66   R(55,57)                1.395          calculate D2E/DX2 analytically  !
 ! R67   R(55,58)                1.0833         calculate D2E/DX2 analytically  !
 ! R68   R(56,59)                1.3943         calculate D2E/DX2 analytically  !
 ! R69   R(56,60)                1.0834         calculate D2E/DX2 analytically  !
 ! R70   R(57,61)                1.3939         calculate D2E/DX2 analytically  !
 ! R71   R(57,97)                1.5019         calculate D2E/DX2 analytically  !
 ! R72   R(59,61)                1.3938         calculate D2E/DX2 analytically  !
 ! R73   R(59,93)                1.5028         calculate D2E/DX2 analytically  !
 ! R74   R(61,62)                1.0833         calculate D2E/DX2 analytically  !
 ! R75   R(63,64)                1.0952         calculate D2E/DX2 analytically  !
 ! R76   R(63,65)                1.0985         calculate D2E/DX2 analytically  !
 ! R77   R(63,66)                1.0922         calculate D2E/DX2 analytically  !
 ! R78   R(67,68)                1.0989         calculate D2E/DX2 analytically  !
 ! R79   R(67,69)                1.0941         calculate D2E/DX2 analytically  !
 ! R80   R(67,70)                1.0927         calculate D2E/DX2 analytically  !
 ! R81   R(71,72)                1.0935         calculate D2E/DX2 analytically  !
 ! R82   R(71,73)                1.0967         calculate D2E/DX2 analytically  !
 ! R83   R(71,74)                1.0924         calculate D2E/DX2 analytically  !
 ! R84   R(75,76)                1.0926         calculate D2E/DX2 analytically  !
 ! R85   R(75,77)                1.0923         calculate D2E/DX2 analytically  !
 ! R86   R(75,78)                1.0962         calculate D2E/DX2 analytically  !
 ! R87   R(79,80)                1.0918         calculate D2E/DX2 analytically  !
 ! R88   R(79,81)                1.0966         calculate D2E/DX2 analytically  !
 ! R89   R(79,82)                1.0998         calculate D2E/DX2 analytically  !
 ! R90   R(83,84)                2.2948         calculate D2E/DX2 analytically  !
 ! R91   R(84,85)                1.4246         calculate D2E/DX2 analytically  !
 ! R92   R(84,89)                1.4255         calculate D2E/DX2 analytically  !
 ! R93   R(85,86)                1.0976         calculate D2E/DX2 analytically  !
 ! R94   R(85,87)                1.0918         calculate D2E/DX2 analytically  !
 ! R95   R(85,88)                1.098          calculate D2E/DX2 analytically  !
 ! R96   R(89,90)                1.0983         calculate D2E/DX2 analytically  !
 ! R97   R(89,91)                1.0912         calculate D2E/DX2 analytically  !
 ! R98   R(89,92)                1.0978         calculate D2E/DX2 analytically  !
 ! R99   R(93,94)                1.359          calculate D2E/DX2 analytically  !
 ! R100  R(93,95)                1.3491         calculate D2E/DX2 analytically  !
 ! R101  R(93,96)                1.3482         calculate D2E/DX2 analytically  !
 ! R102  R(97,98)                1.3485         calculate D2E/DX2 analytically  !
 ! R103  R(97,99)                1.3626         calculate D2E/DX2 analytically  !
 ! R104  R(97,100)               1.3464         calculate D2E/DX2 analytically  !
 ! A1    A(2,1,5)              110.7198         calculate D2E/DX2 analytically  !
 ! A2    A(2,1,8)              107.8529         calculate D2E/DX2 analytically  !
 ! A3    A(2,1,14)             113.3905         calculate D2E/DX2 analytically  !
 ! A4    A(5,1,8)              107.7931         calculate D2E/DX2 analytically  !
 ! A5    A(5,1,14)             112.4125         calculate D2E/DX2 analytically  !
 ! A6    A(8,1,14)             104.2138         calculate D2E/DX2 analytically  !
 ! A7    A(1,2,3)              109.5811         calculate D2E/DX2 analytically  !
 ! A8    A(1,2,7)              110.3202         calculate D2E/DX2 analytically  !
 ! A9    A(1,2,13)             107.3858         calculate D2E/DX2 analytically  !
 ! A10   A(3,2,7)              105.7398         calculate D2E/DX2 analytically  !
 ! A11   A(3,2,13)             113.9109         calculate D2E/DX2 analytically  !
 ! A12   A(7,2,13)             109.9123         calculate D2E/DX2 analytically  !
 ! A13   A(2,3,6)              111.2632         calculate D2E/DX2 analytically  !
 ! A14   A(2,3,11)             109.8033         calculate D2E/DX2 analytically  !
 ! A15   A(2,3,12)             107.8763         calculate D2E/DX2 analytically  !
 ! A16   A(6,3,11)             104.1388         calculate D2E/DX2 analytically  !
 ! A17   A(6,3,12)             110.0259         calculate D2E/DX2 analytically  !
 ! A18   A(11,3,12)            113.7573         calculate D2E/DX2 analytically  !
 ! A19   A(5,4,9)              107.2796         calculate D2E/DX2 analytically  !
 ! A20   A(5,4,11)             111.7806         calculate D2E/DX2 analytically  !
 ! A21   A(5,4,16)             112.6379         calculate D2E/DX2 analytically  !
 ! A22   A(9,4,11)             109.351          calculate D2E/DX2 analytically  !
 ! A23   A(9,4,16)             108.6106         calculate D2E/DX2 analytically  !
 ! A24   A(11,4,16)            107.1198         calculate D2E/DX2 analytically  !
 ! A25   A(1,5,4)              112.6234         calculate D2E/DX2 analytically  !
 ! A26   A(1,5,10)             109.8638         calculate D2E/DX2 analytically  !
 ! A27   A(1,5,15)             111.3552         calculate D2E/DX2 analytically  !
 ! A28   A(4,5,10)             108.9815         calculate D2E/DX2 analytically  !
 ! A29   A(4,5,15)             104.6494         calculate D2E/DX2 analytically  !
 ! A30   A(10,5,15)            109.2022         calculate D2E/DX2 analytically  !
 ! A31   A(3,11,4)             115.2317         calculate D2E/DX2 analytically  !
 ! A32   A(3,12,79)            113.6805         calculate D2E/DX2 analytically  !
 ! A33   A(2,13,20)            114.1967         calculate D2E/DX2 analytically  !
 ! A34   A(1,14,24)            116.5591         calculate D2E/DX2 analytically  !
 ! A35   A(5,15,28)            115.8782         calculate D2E/DX2 analytically  !
 ! A36   A(5,15,37)            114.6298         calculate D2E/DX2 analytically  !
 ! A37   A(28,15,37)           112.3358         calculate D2E/DX2 analytically  !
 ! A38   A(4,16,17)            105.1424         calculate D2E/DX2 analytically  !
 ! A39   A(4,16,18)            106.4603         calculate D2E/DX2 analytically  !
 ! A40   A(4,16,19)            114.1131         calculate D2E/DX2 analytically  !
 ! A41   A(17,16,18)           104.4653         calculate D2E/DX2 analytically  !
 ! A42   A(17,16,19)           113.7955         calculate D2E/DX2 analytically  !
 ! A43   A(18,16,19)           112.0547         calculate D2E/DX2 analytically  !
 ! A44   A(16,18,37)            95.1924         calculate D2E/DX2 analytically  !
 ! A45   A(16,19,38)           105.8815         calculate D2E/DX2 analytically  !
 ! A46   A(16,19,83)           140.6732         calculate D2E/DX2 analytically  !
 ! A47   A(38,19,83)           113.005          calculate D2E/DX2 analytically  !
 ! A48   A(13,20,21)           112.1756         calculate D2E/DX2 analytically  !
 ! A49   A(13,20,22)           111.3848         calculate D2E/DX2 analytically  !
 ! A50   A(13,20,23)           106.7745         calculate D2E/DX2 analytically  !
 ! A51   A(21,20,22)           108.7355         calculate D2E/DX2 analytically  !
 ! A52   A(21,20,23)           108.6541         calculate D2E/DX2 analytically  !
 ! A53   A(22,20,23)           109.0281         calculate D2E/DX2 analytically  !
 ! A54   A(14,24,25)           111.5571         calculate D2E/DX2 analytically  !
 ! A55   A(14,24,26)           112.7954         calculate D2E/DX2 analytically  !
 ! A56   A(14,24,27)           106.216          calculate D2E/DX2 analytically  !
 ! A57   A(25,24,26)           108.9404         calculate D2E/DX2 analytically  !
 ! A58   A(25,24,27)           108.8129         calculate D2E/DX2 analytically  !
 ! A59   A(26,24,27)           108.3766         calculate D2E/DX2 analytically  !
 ! A60   A(15,28,29)           111.3104         calculate D2E/DX2 analytically  !
 ! A61   A(15,28,30)           110.7347         calculate D2E/DX2 analytically  !
 ! A62   A(15,28,31)           106.1103         calculate D2E/DX2 analytically  !
 ! A63   A(29,28,30)           109.0704         calculate D2E/DX2 analytically  !
 ! A64   A(29,28,31)           110.4908         calculate D2E/DX2 analytically  !
 ! A65   A(30,28,31)           109.079          calculate D2E/DX2 analytically  !
 ! A66   A(33,32,36)           110.887          calculate D2E/DX2 analytically  !
 ! A67   A(33,32,39)           109.034          calculate D2E/DX2 analytically  !
 ! A68   A(33,32,45)           110.0807         calculate D2E/DX2 analytically  !
 ! A69   A(36,32,39)           108.1668         calculate D2E/DX2 analytically  !
 ! A70   A(36,32,45)           107.9341         calculate D2E/DX2 analytically  !
 ! A71   A(39,32,45)           110.7201         calculate D2E/DX2 analytically  !
 ! A72   A(32,33,34)           113.2986         calculate D2E/DX2 analytically  !
 ! A73   A(32,33,38)           108.411          calculate D2E/DX2 analytically  !
 ! A74   A(32,33,44)           107.5924         calculate D2E/DX2 analytically  !
 ! A75   A(34,33,38)           100.6068         calculate D2E/DX2 analytically  !
 ! A76   A(34,33,44)           115.2635         calculate D2E/DX2 analytically  !
 ! A77   A(38,33,44)           111.4233         calculate D2E/DX2 analytically  !
 ! A78   A(33,34,37)           120.5882         calculate D2E/DX2 analytically  !
 ! A79   A(33,34,42)           122.249          calculate D2E/DX2 analytically  !
 ! A80   A(33,34,53)           100.5008         calculate D2E/DX2 analytically  !
 ! A81   A(37,34,42)           112.7054         calculate D2E/DX2 analytically  !
 ! A82   A(37,34,53)            83.5688         calculate D2E/DX2 analytically  !
 ! A83   A(42,34,53)           106.07           calculate D2E/DX2 analytically  !
 ! A84   A(36,35,40)           107.4434         calculate D2E/DX2 analytically  !
 ! A85   A(36,35,42)           111.6085         calculate D2E/DX2 analytically  !
 ! A86   A(36,35,47)           114.6496         calculate D2E/DX2 analytically  !
 ! A87   A(40,35,42)           107.0177         calculate D2E/DX2 analytically  !
 ! A88   A(40,35,47)           109.3496         calculate D2E/DX2 analytically  !
 ! A89   A(42,35,47)           106.5194         calculate D2E/DX2 analytically  !
 ! A90   A(32,36,35)           109.5053         calculate D2E/DX2 analytically  !
 ! A91   A(32,36,41)           109.9766         calculate D2E/DX2 analytically  !
 ! A92   A(32,36,46)           111.2119         calculate D2E/DX2 analytically  !
 ! A93   A(35,36,41)           111.2256         calculate D2E/DX2 analytically  !
 ! A94   A(35,36,46)           104.6579         calculate D2E/DX2 analytically  !
 ! A95   A(41,36,46)           110.165          calculate D2E/DX2 analytically  !
 ! A96   A(15,37,18)            72.4361         calculate D2E/DX2 analytically  !
 ! A97   A(18,37,34)           119.9704         calculate D2E/DX2 analytically  !
 ! A98   A(19,38,33)           125.2138         calculate D2E/DX2 analytically  !
 ! A99   A(34,42,35)           122.0662         calculate D2E/DX2 analytically  !
 ! A100  A(33,44,63)           115.1693         calculate D2E/DX2 analytically  !
 ! A101  A(32,45,67)           114.6103         calculate D2E/DX2 analytically  !
 ! A102  A(36,46,71)           114.6525         calculate D2E/DX2 analytically  !
 ! A103  A(35,47,48)           107.3471         calculate D2E/DX2 analytically  !
 ! A104  A(35,47,49)           110.2007         calculate D2E/DX2 analytically  !
 ! A105  A(35,47,50)           113.3748         calculate D2E/DX2 analytically  !
 ! A106  A(48,47,49)           108.1506         calculate D2E/DX2 analytically  !
 ! A107  A(48,47,50)           108.2731         calculate D2E/DX2 analytically  !
 ! A108  A(49,47,50)           109.3329         calculate D2E/DX2 analytically  !
 ! A109  A(47,50,75)           113.3124         calculate D2E/DX2 analytically  !
 ! A110  A(43,51,52)           116.2571         calculate D2E/DX2 analytically  !
 ! A111  A(43,51,53)           112.6691         calculate D2E/DX2 analytically  !
 ! A112  A(43,51,54)           105.4573         calculate D2E/DX2 analytically  !
 ! A113  A(52,51,53)           110.5096         calculate D2E/DX2 analytically  !
 ! A114  A(52,51,54)           107.5753         calculate D2E/DX2 analytically  !
 ! A115  A(53,51,54)           103.265          calculate D2E/DX2 analytically  !
 ! A116  A(34,53,51)           121.9226         calculate D2E/DX2 analytically  !
 ! A117  A(51,54,55)           119.1624         calculate D2E/DX2 analytically  !
 ! A118  A(51,54,56)           119.7354         calculate D2E/DX2 analytically  !
 ! A119  A(55,54,56)           121.0857         calculate D2E/DX2 analytically  !
 ! A120  A(54,55,57)           119.1504         calculate D2E/DX2 analytically  !
 ! A121  A(54,55,58)           119.8748         calculate D2E/DX2 analytically  !
 ! A122  A(57,55,58)           120.951          calculate D2E/DX2 analytically  !
 ! A123  A(54,56,59)           118.942          calculate D2E/DX2 analytically  !
 ! A124  A(54,56,60)           120.7217         calculate D2E/DX2 analytically  !
 ! A125  A(59,56,60)           120.2681         calculate D2E/DX2 analytically  !
 ! A126  A(55,57,61)           120.6617         calculate D2E/DX2 analytically  !
 ! A127  A(55,57,97)           119.9274         calculate D2E/DX2 analytically  !
 ! A128  A(61,57,97)           119.1829         calculate D2E/DX2 analytically  !
 ! A129  A(56,59,61)           120.88           calculate D2E/DX2 analytically  !
 ! A130  A(56,59,93)           119.3254         calculate D2E/DX2 analytically  !
 ! A131  A(61,59,93)           119.5896         calculate D2E/DX2 analytically  !
 ! A132  A(57,61,59)           119.2713         calculate D2E/DX2 analytically  !
 ! A133  A(57,61,62)           120.3906         calculate D2E/DX2 analytically  !
 ! A134  A(59,61,62)           120.3328         calculate D2E/DX2 analytically  !
 ! A135  A(44,63,64)           111.666          calculate D2E/DX2 analytically  !
 ! A136  A(44,63,65)           111.2451         calculate D2E/DX2 analytically  !
 ! A137  A(44,63,66)           106.3483         calculate D2E/DX2 analytically  !
 ! A138  A(64,63,65)           109.1645         calculate D2E/DX2 analytically  !
 ! A139  A(64,63,66)           108.8854         calculate D2E/DX2 analytically  !
 ! A140  A(65,63,66)           109.4569         calculate D2E/DX2 analytically  !
 ! A141  A(45,67,68)           110.8977         calculate D2E/DX2 analytically  !
 ! A142  A(45,67,69)           111.4306         calculate D2E/DX2 analytically  !
 ! A143  A(45,67,70)           106.4252         calculate D2E/DX2 analytically  !
 ! A144  A(68,67,69)           109.1631         calculate D2E/DX2 analytically  !
 ! A145  A(68,67,70)           109.0803         calculate D2E/DX2 analytically  !
 ! A146  A(69,67,70)           109.7882         calculate D2E/DX2 analytically  !
 ! A147  A(46,71,72)           111.2184         calculate D2E/DX2 analytically  !
 ! A148  A(46,71,73)           110.6569         calculate D2E/DX2 analytically  !
 ! A149  A(46,71,74)           106.3672         calculate D2E/DX2 analytically  !
 ! A150  A(72,71,73)           109.2607         calculate D2E/DX2 analytically  !
 ! A151  A(72,71,74)           109.9405         calculate D2E/DX2 analytically  !
 ! A152  A(73,71,74)           109.3504         calculate D2E/DX2 analytically  !
 ! A153  A(50,75,76)           106.7536         calculate D2E/DX2 analytically  !
 ! A154  A(50,75,77)           111.304          calculate D2E/DX2 analytically  !
 ! A155  A(50,75,78)           110.3908         calculate D2E/DX2 analytically  !
 ! A156  A(76,75,77)           109.5755         calculate D2E/DX2 analytically  !
 ! A157  A(76,75,78)           109.0957         calculate D2E/DX2 analytically  !
 ! A158  A(77,75,78)           109.6564         calculate D2E/DX2 analytically  !
 ! A159  A(12,79,80)           106.6715         calculate D2E/DX2 analytically  !
 ! A160  A(12,79,81)           111.4236         calculate D2E/DX2 analytically  !
 ! A161  A(12,79,82)           111.1352         calculate D2E/DX2 analytically  !
 ! A162  A(80,79,81)           109.4553         calculate D2E/DX2 analytically  !
 ! A163  A(80,79,82)           109.4472         calculate D2E/DX2 analytically  !
 ! A164  A(81,79,82)           108.6728         calculate D2E/DX2 analytically  !
 ! A165  A(19,83,84)           128.502          calculate D2E/DX2 analytically  !
 ! A166  A(83,84,85)           122.614          calculate D2E/DX2 analytically  !
 ! A167  A(83,84,89)           119.5564         calculate D2E/DX2 analytically  !
 ! A168  A(85,84,89)           112.8159         calculate D2E/DX2 analytically  !
 ! A169  A(84,85,86)           110.684          calculate D2E/DX2 analytically  !
 ! A170  A(84,85,87)           107.0692         calculate D2E/DX2 analytically  !
 ! A171  A(84,85,88)           110.8675         calculate D2E/DX2 analytically  !
 ! A172  A(86,85,87)           109.3613         calculate D2E/DX2 analytically  !
 ! A173  A(86,85,88)           109.1396         calculate D2E/DX2 analytically  !
 ! A174  A(87,85,88)           109.6871         calculate D2E/DX2 analytically  !
 ! A175  A(84,89,90)           110.808          calculate D2E/DX2 analytically  !
 ! A176  A(84,89,91)           106.6367         calculate D2E/DX2 analytically  !
 ! A177  A(84,89,92)           110.6735         calculate D2E/DX2 analytically  !
 ! A178  A(90,89,91)           110.0427         calculate D2E/DX2 analytically  !
 ! A179  A(90,89,92)           109.0093         calculate D2E/DX2 analytically  !
 ! A180  A(91,89,92)           109.6474         calculate D2E/DX2 analytically  !
 ! A181  A(59,93,94)           110.8296         calculate D2E/DX2 analytically  !
 ! A182  A(59,93,95)           112.1697         calculate D2E/DX2 analytically  !
 ! A183  A(59,93,96)           112.0684         calculate D2E/DX2 analytically  !
 ! A184  A(94,93,95)           106.7985         calculate D2E/DX2 analytically  !
 ! A185  A(94,93,96)           106.8812         calculate D2E/DX2 analytically  !
 ! A186  A(95,93,96)           107.7973         calculate D2E/DX2 analytically  !
 ! A187  A(57,97,98)           112.1755         calculate D2E/DX2 analytically  !
 ! A188  A(57,97,99)           110.5312         calculate D2E/DX2 analytically  !
 ! A189  A(57,97,100)          112.4304         calculate D2E/DX2 analytically  !
 ! A190  A(98,97,99)           106.5756         calculate D2E/DX2 analytically  !
 ! A191  A(98,97,100)          107.9485         calculate D2E/DX2 analytically  !
 ! A192  A(99,97,100)          106.8629         calculate D2E/DX2 analytically  !
 ! A193  L(15,37,34,18,-1)     192.4065         calculate D2E/DX2 analytically  !
 ! A194  L(15,37,34,18,-2)     181.2796         calculate D2E/DX2 analytically  !
 ! D1    D(5,1,2,3)            -53.4621         calculate D2E/DX2 analytically  !
 ! D2    D(5,1,2,7)             62.5622         calculate D2E/DX2 analytically  !
 ! D3    D(5,1,2,13)          -177.6679         calculate D2E/DX2 analytically  !
 ! D4    D(8,1,2,3)             64.2527         calculate D2E/DX2 analytically  !
 ! D5    D(8,1,2,7)           -179.723          calculate D2E/DX2 analytically  !
 ! D6    D(8,1,2,13)           -59.953          calculate D2E/DX2 analytically  !
 ! D7    D(14,1,2,3)           179.1109         calculate D2E/DX2 analytically  !
 ! D8    D(14,1,2,7)           -64.8648         calculate D2E/DX2 analytically  !
 ! D9    D(14,1,2,13)           54.9051         calculate D2E/DX2 analytically  !
 ! D10   D(2,1,5,4)             48.0191         calculate D2E/DX2 analytically  !
 ! D11   D(2,1,5,10)           -73.6646         calculate D2E/DX2 analytically  !
 ! D12   D(2,1,5,15)           165.2209         calculate D2E/DX2 analytically  !
 ! D13   D(8,1,5,4)            -69.7323         calculate D2E/DX2 analytically  !
 ! D14   D(8,1,5,10)           168.584          calculate D2E/DX2 analytically  !
 ! D15   D(8,1,5,15)            47.4695         calculate D2E/DX2 analytically  !
 ! D16   D(14,1,5,4)           175.9808         calculate D2E/DX2 analytically  !
 ! D17   D(14,1,5,10)           54.2971         calculate D2E/DX2 analytically  !
 ! D18   D(14,1,5,15)          -66.8174         calculate D2E/DX2 analytically  !
 ! D19   D(2,1,14,24)           48.6195         calculate D2E/DX2 analytically  !
 ! D20   D(5,1,14,24)          -77.9191         calculate D2E/DX2 analytically  !
 ! D21   D(8,1,14,24)          165.6286         calculate D2E/DX2 analytically  !
 ! D22   D(1,2,3,6)            174.0823         calculate D2E/DX2 analytically  !
 ! D23   D(1,2,3,11)            59.3287         calculate D2E/DX2 analytically  !
 ! D24   D(1,2,3,12)           -65.1463         calculate D2E/DX2 analytically  !
 ! D25   D(7,2,3,6)             55.1881         calculate D2E/DX2 analytically  !
 ! D26   D(7,2,3,11)           -59.5655         calculate D2E/DX2 analytically  !
 ! D27   D(7,2,3,12)           175.9594         calculate D2E/DX2 analytically  !
 ! D28   D(13,2,3,6)           -65.6108         calculate D2E/DX2 analytically  !
 ! D29   D(13,2,3,11)          179.6356         calculate D2E/DX2 analytically  !
 ! D30   D(13,2,3,12)           55.1605         calculate D2E/DX2 analytically  !
 ! D31   D(1,2,13,20)         -171.3606         calculate D2E/DX2 analytically  !
 ! D32   D(3,2,13,20)           67.1072         calculate D2E/DX2 analytically  !
 ! D33   D(7,2,13,20)          -51.3308         calculate D2E/DX2 analytically  !
 ! D34   D(2,3,11,4)           -61.1864         calculate D2E/DX2 analytically  !
 ! D35   D(6,3,11,4)           179.5915         calculate D2E/DX2 analytically  !
 ! D36   D(12,3,11,4)           59.8085         calculate D2E/DX2 analytically  !
 ! D37   D(2,3,12,79)         -175.3386         calculate D2E/DX2 analytically  !
 ! D38   D(6,3,12,79)          -53.7963         calculate D2E/DX2 analytically  !
 ! D39   D(11,3,12,79)          62.5948         calculate D2E/DX2 analytically  !
 ! D40   D(9,4,5,1)             72.9701         calculate D2E/DX2 analytically  !
 ! D41   D(9,4,5,10)          -164.847          calculate D2E/DX2 analytically  !
 ! D42   D(9,4,5,15)           -48.1407         calculate D2E/DX2 analytically  !
 ! D43   D(11,4,5,1)           -46.8972         calculate D2E/DX2 analytically  !
 ! D44   D(11,4,5,10)           75.2857         calculate D2E/DX2 analytically  !
 ! D45   D(11,4,5,15)         -168.008          calculate D2E/DX2 analytically  !
 ! D46   D(16,4,5,1)          -167.5677         calculate D2E/DX2 analytically  !
 ! D47   D(16,4,5,10)          -45.3849         calculate D2E/DX2 analytically  !
 ! D48   D(16,4,5,15)           71.3214         calculate D2E/DX2 analytically  !
 ! D49   D(5,4,11,3)            54.8182         calculate D2E/DX2 analytically  !
 ! D50   D(9,4,11,3)           -63.8249         calculate D2E/DX2 analytically  !
 ! D51   D(16,4,11,3)          178.6524         calculate D2E/DX2 analytically  !
 ! D52   D(5,4,16,17)           96.827          calculate D2E/DX2 analytically  !
 ! D53   D(5,4,16,18)          -13.6477         calculate D2E/DX2 analytically  !
 ! D54   D(5,4,16,19)         -137.7877         calculate D2E/DX2 analytically  !
 ! D55   D(9,4,16,17)         -144.4862         calculate D2E/DX2 analytically  !
 ! D56   D(9,4,16,18)          105.0391         calculate D2E/DX2 analytically  !
 ! D57   D(9,4,16,19)          -19.1009         calculate D2E/DX2 analytically  !
 ! D58   D(11,4,16,17)         -26.4798         calculate D2E/DX2 analytically  !
 ! D59   D(11,4,16,18)        -136.9544         calculate D2E/DX2 analytically  !
 ! D60   D(11,4,16,19)          98.9056         calculate D2E/DX2 analytically  !
 ! D61   D(1,5,15,28)           83.4879         calculate D2E/DX2 analytically  !
 ! D62   D(1,5,15,37)         -143.1137         calculate D2E/DX2 analytically  !
 ! D63   D(4,5,15,28)         -154.5664         calculate D2E/DX2 analytically  !
 ! D64   D(4,5,15,37)          -21.168          calculate D2E/DX2 analytically  !
 ! D65   D(10,5,15,28)         -38.0125         calculate D2E/DX2 analytically  !
 ! D66   D(10,5,15,37)          95.386          calculate D2E/DX2 analytically  !
 ! D67   D(3,12,79,80)         176.4239         calculate D2E/DX2 analytically  !
 ! D68   D(3,12,79,81)         -64.17           calculate D2E/DX2 analytically  !
 ! D69   D(3,12,79,82)          57.1898         calculate D2E/DX2 analytically  !
 ! D70   D(2,13,20,21)         -71.545          calculate D2E/DX2 analytically  !
 ! D71   D(2,13,20,22)          50.6033         calculate D2E/DX2 analytically  !
 ! D72   D(2,13,20,23)         169.5331         calculate D2E/DX2 analytically  !
 ! D73   D(1,14,24,25)         -71.0311         calculate D2E/DX2 analytically  !
 ! D74   D(1,14,24,26)          51.966          calculate D2E/DX2 analytically  !
 ! D75   D(1,14,24,27)         170.5448         calculate D2E/DX2 analytically  !
 ! D76   D(5,15,28,29)         -71.2386         calculate D2E/DX2 analytically  !
 ! D77   D(5,15,28,30)          50.273          calculate D2E/DX2 analytically  !
 ! D78   D(5,15,28,31)         168.5111         calculate D2E/DX2 analytically  !
 ! D79   D(37,15,28,29)        154.3277         calculate D2E/DX2 analytically  !
 ! D80   D(37,15,28,30)        -84.1606         calculate D2E/DX2 analytically  !
 ! D81   D(37,15,28,31)         34.0774         calculate D2E/DX2 analytically  !
 ! D82   D(5,15,37,18)         -37.2506         calculate D2E/DX2 analytically  !
 ! D83   D(28,15,37,18)         97.7775         calculate D2E/DX2 analytically  !
 ! D84   D(4,16,18,37)         -72.9598         calculate D2E/DX2 analytically  !
 ! D85   D(17,16,18,37)        176.0922         calculate D2E/DX2 analytically  !
 ! D86   D(19,16,18,37)         52.4439         calculate D2E/DX2 analytically  !
 ! D87   D(4,16,19,38)         133.3832         calculate D2E/DX2 analytically  !
 ! D88   D(4,16,19,83)         -37.8865         calculate D2E/DX2 analytically  !
 ! D89   D(17,16,19,38)       -105.9428         calculate D2E/DX2 analytically  !
 ! D90   D(17,16,19,83)         82.7876         calculate D2E/DX2 analytically  !
 ! D91   D(18,16,19,38)         12.2997         calculate D2E/DX2 analytically  !
 ! D92   D(18,16,19,83)       -158.97           calculate D2E/DX2 analytically  !
 ! D93   D(16,18,37,15)         98.4782         calculate D2E/DX2 analytically  !
 ! D94   D(16,18,37,34)        -82.8014         calculate D2E/DX2 analytically  !
 ! D95   D(16,19,38,33)        -93.2221         calculate D2E/DX2 analytically  !
 ! D96   D(83,19,38,33)         80.7794         calculate D2E/DX2 analytically  !
 ! D97   D(16,19,83,84)       -146.6651         calculate D2E/DX2 analytically  !
 ! D98   D(38,19,83,84)         42.4608         calculate D2E/DX2 analytically  !
 ! D99   D(36,32,33,34)        -39.7577         calculate D2E/DX2 analytically  !
 ! D100  D(36,32,33,38)         71.0092         calculate D2E/DX2 analytically  !
 ! D101  D(36,32,33,44)       -168.3676         calculate D2E/DX2 analytically  !
 ! D102  D(39,32,33,34)         79.2328         calculate D2E/DX2 analytically  !
 ! D103  D(39,32,33,38)       -170.0003         calculate D2E/DX2 analytically  !
 ! D104  D(39,32,33,44)        -49.3771         calculate D2E/DX2 analytically  !
 ! D105  D(45,32,33,34)       -159.1255         calculate D2E/DX2 analytically  !
 ! D106  D(45,32,33,38)        -48.3586         calculate D2E/DX2 analytically  !
 ! D107  D(45,32,33,44)         72.2647         calculate D2E/DX2 analytically  !
 ! D108  D(33,32,36,35)         57.1607         calculate D2E/DX2 analytically  !
 ! D109  D(33,32,36,41)        -65.3486         calculate D2E/DX2 analytically  !
 ! D110  D(33,32,36,46)        172.3393         calculate D2E/DX2 analytically  !
 ! D111  D(39,32,36,35)        -62.3509         calculate D2E/DX2 analytically  !
 ! D112  D(39,32,36,41)        175.1398         calculate D2E/DX2 analytically  !
 ! D113  D(39,32,36,46)         52.8277         calculate D2E/DX2 analytically  !
 ! D114  D(45,32,36,35)        177.8089         calculate D2E/DX2 analytically  !
 ! D115  D(45,32,36,41)         55.2997         calculate D2E/DX2 analytically  !
 ! D116  D(45,32,36,46)        -67.0125         calculate D2E/DX2 analytically  !
 ! D117  D(33,32,45,67)        -95.0518         calculate D2E/DX2 analytically  !
 ! D118  D(36,32,45,67)        143.7966         calculate D2E/DX2 analytically  !
 ! D119  D(39,32,45,67)         25.5808         calculate D2E/DX2 analytically  !
 ! D120  D(32,33,34,37)        175.6181         calculate D2E/DX2 analytically  !
 ! D121  D(32,33,34,42)         21.0457         calculate D2E/DX2 analytically  !
 ! D122  D(32,33,34,53)        -95.6865         calculate D2E/DX2 analytically  !
 ! D123  D(38,33,34,37)         60.1192         calculate D2E/DX2 analytically  !
 ! D124  D(38,33,34,42)        -94.4532         calculate D2E/DX2 analytically  !
 ! D125  D(38,33,34,53)        148.8146         calculate D2E/DX2 analytically  !
 ! D126  D(44,33,34,37)        -59.8332         calculate D2E/DX2 analytically  !
 ! D127  D(44,33,34,42)        145.5944         calculate D2E/DX2 analytically  !
 ! D128  D(44,33,34,53)         28.8622         calculate D2E/DX2 analytically  !
 ! D129  D(32,33,38,19)       -111.5066         calculate D2E/DX2 analytically  !
 ! D130  D(34,33,38,19)          7.6003         calculate D2E/DX2 analytically  !
 ! D131  D(44,33,38,19)        130.2774         calculate D2E/DX2 analytically  !
 ! D132  D(32,33,44,63)       -162.7904         calculate D2E/DX2 analytically  !
 ! D133  D(34,33,44,63)         69.7326         calculate D2E/DX2 analytically  !
 ! D134  D(38,33,44,63)        -44.0837         calculate D2E/DX2 analytically  !
 ! D135  D(33,34,37,18)        -33.2829         calculate D2E/DX2 analytically  !
 ! D136  D(42,34,37,18)        123.5358         calculate D2E/DX2 analytically  !
 ! D137  D(53,34,37,18)       -131.7023         calculate D2E/DX2 analytically  !
 ! D138  D(33,34,42,35)        -19.7363         calculate D2E/DX2 analytically  !
 ! D139  D(37,34,42,35)       -176.116          calculate D2E/DX2 analytically  !
 ! D140  D(53,34,42,35)         94.2177         calculate D2E/DX2 analytically  !
 ! D141  D(33,34,53,51)        107.5505         calculate D2E/DX2 analytically  !
 ! D142  D(37,34,53,51)       -132.455          calculate D2E/DX2 analytically  !
 ! D143  D(42,34,53,51)        -20.6307         calculate D2E/DX2 analytically  !
 ! D144  D(40,35,36,32)         62.6253         calculate D2E/DX2 analytically  !
 ! D145  D(40,35,36,41)       -175.6129         calculate D2E/DX2 analytically  !
 ! D146  D(40,35,36,46)        -56.6765         calculate D2E/DX2 analytically  !
 ! D147  D(42,35,36,32)        -54.4026         calculate D2E/DX2 analytically  !
 ! D148  D(42,35,36,41)         67.3592         calculate D2E/DX2 analytically  !
 ! D149  D(42,35,36,46)       -173.7044         calculate D2E/DX2 analytically  !
 ! D150  D(47,35,36,32)       -175.6182         calculate D2E/DX2 analytically  !
 ! D151  D(47,35,36,41)        -53.8564         calculate D2E/DX2 analytically  !
 ! D152  D(47,35,36,46)         65.0801         calculate D2E/DX2 analytically  !
 ! D153  D(36,35,42,34)         36.4813         calculate D2E/DX2 analytically  !
 ! D154  D(40,35,42,34)        -80.804          calculate D2E/DX2 analytically  !
 ! D155  D(47,35,42,34)        162.3114         calculate D2E/DX2 analytically  !
 ! D156  D(36,35,47,48)        -37.945          calculate D2E/DX2 analytically  !
 ! D157  D(36,35,47,49)       -155.5054         calculate D2E/DX2 analytically  !
 ! D158  D(36,35,47,50)         81.5843         calculate D2E/DX2 analytically  !
 ! D159  D(40,35,47,48)         82.7661         calculate D2E/DX2 analytically  !
 ! D160  D(40,35,47,49)        -34.7943         calculate D2E/DX2 analytically  !
 ! D161  D(40,35,47,50)       -157.7046         calculate D2E/DX2 analytically  !
 ! D162  D(42,35,47,48)       -161.9127         calculate D2E/DX2 analytically  !
 ! D163  D(42,35,47,49)         80.5269         calculate D2E/DX2 analytically  !
 ! D164  D(42,35,47,50)        -42.3834         calculate D2E/DX2 analytically  !
 ! D165  D(32,36,46,71)         95.5601         calculate D2E/DX2 analytically  !
 ! D166  D(35,36,46,71)       -146.2937         calculate D2E/DX2 analytically  !
 ! D167  D(41,36,46,71)        -26.643          calculate D2E/DX2 analytically  !
 ! D168  D(33,44,63,64)        -68.632          calculate D2E/DX2 analytically  !
 ! D169  D(33,44,63,65)         53.6062         calculate D2E/DX2 analytically  !
 ! D170  D(33,44,63,66)        172.7161         calculate D2E/DX2 analytically  !
 ! D171  D(32,45,67,68)        -58.1412         calculate D2E/DX2 analytically  !
 ! D172  D(32,45,67,69)         63.6845         calculate D2E/DX2 analytically  !
 ! D173  D(32,45,67,70)       -176.6541         calculate D2E/DX2 analytically  !
 ! D174  D(36,46,71,72)        -63.5638         calculate D2E/DX2 analytically  !
 ! D175  D(36,46,71,73)         58.0735         calculate D2E/DX2 analytically  !
 ! D176  D(36,46,71,74)        176.7453         calculate D2E/DX2 analytically  !
 ! D177  D(35,47,50,75)        103.6222         calculate D2E/DX2 analytically  !
 ! D178  D(48,47,50,75)       -137.3795         calculate D2E/DX2 analytically  !
 ! D179  D(49,47,50,75)        -19.7657         calculate D2E/DX2 analytically  !
 ! D180  D(47,50,75,76)        171.365          calculate D2E/DX2 analytically  !
 ! D181  D(47,50,75,77)        -69.0998         calculate D2E/DX2 analytically  !
 ! D182  D(47,50,75,78)         52.9153         calculate D2E/DX2 analytically  !
 ! D183  D(43,51,53,34)        -54.5519         calculate D2E/DX2 analytically  !
 ! D184  D(52,51,53,34)        173.5255         calculate D2E/DX2 analytically  !
 ! D185  D(54,51,53,34)         58.7276         calculate D2E/DX2 analytically  !
 ! D186  D(43,51,54,55)        -25.8901         calculate D2E/DX2 analytically  !
 ! D187  D(43,51,54,56)        152.6496         calculate D2E/DX2 analytically  !
 ! D188  D(52,51,54,55)         98.7949         calculate D2E/DX2 analytically  !
 ! D189  D(52,51,54,56)        -82.6655         calculate D2E/DX2 analytically  !
 ! D190  D(53,51,54,55)       -144.316          calculate D2E/DX2 analytically  !
 ! D191  D(53,51,54,56)         34.2236         calculate D2E/DX2 analytically  !
 ! D192  D(51,54,55,57)        178.5342         calculate D2E/DX2 analytically  !
 ! D193  D(51,54,55,58)          0.2893         calculate D2E/DX2 analytically  !
 ! D194  D(56,54,55,57)          0.0149         calculate D2E/DX2 analytically  !
 ! D195  D(56,54,55,58)       -178.23           calculate D2E/DX2 analytically  !
 ! D196  D(51,54,56,59)       -179.2504         calculate D2E/DX2 analytically  !
 ! D197  D(51,54,56,60)         -2.2457         calculate D2E/DX2 analytically  !
 ! D198  D(55,54,56,59)         -0.7395         calculate D2E/DX2 analytically  !
 ! D199  D(55,54,56,60)        176.2652         calculate D2E/DX2 analytically  !
 ! D200  D(54,55,57,61)          0.7819         calculate D2E/DX2 analytically  !
 ! D201  D(54,55,57,97)       -173.6877         calculate D2E/DX2 analytically  !
 ! D202  D(58,55,57,61)        179.0073         calculate D2E/DX2 analytically  !
 ! D203  D(58,55,57,97)          4.5378         calculate D2E/DX2 analytically  !
 ! D204  D(54,56,59,61)          0.6854         calculate D2E/DX2 analytically  !
 ! D205  D(54,56,59,93)        175.4627         calculate D2E/DX2 analytically  !
 ! D206  D(60,56,59,61)       -176.3333         calculate D2E/DX2 analytically  !
 ! D207  D(60,56,59,93)         -1.556          calculate D2E/DX2 analytically  !
 ! D208  D(55,57,61,59)         -0.8341         calculate D2E/DX2 analytically  !
 ! D209  D(55,57,61,62)       -179.9965         calculate D2E/DX2 analytically  !
 ! D210  D(97,57,61,59)        173.6762         calculate D2E/DX2 analytically  !
 ! D211  D(97,57,61,62)         -5.4862         calculate D2E/DX2 analytically  !
 ! D212  D(55,57,97,98)       -149.2417         calculate D2E/DX2 analytically  !
 ! D213  D(55,57,97,99)         91.9678         calculate D2E/DX2 analytically  !
 ! D214  D(55,57,97,100)       -27.3533         calculate D2E/DX2 analytically  !
 ! D215  D(61,57,97,98)         36.2069         calculate D2E/DX2 analytically  !
 ! D216  D(61,57,97,99)        -82.5835         calculate D2E/DX2 analytically  !
 ! D217  D(61,57,97,100)       158.0953         calculate D2E/DX2 analytically  !
 ! D218  D(56,59,61,57)          0.0909         calculate D2E/DX2 analytically  !
 ! D219  D(56,59,61,62)        179.2539         calculate D2E/DX2 analytically  !
 ! D220  D(93,59,61,57)       -174.6727         calculate D2E/DX2 analytically  !
 ! D221  D(93,59,61,62)          4.4902         calculate D2E/DX2 analytically  !
 ! D222  D(56,59,93,94)        -83.406          calculate D2E/DX2 analytically  !
 ! D223  D(56,59,93,95)        157.3239         calculate D2E/DX2 analytically  !
 ! D224  D(56,59,93,96)         35.9017         calculate D2E/DX2 analytically  !
 ! D225  D(61,59,93,94)         91.4396         calculate D2E/DX2 analytically  !
 ! D226  D(61,59,93,95)        -27.8305         calculate D2E/DX2 analytically  !
 ! D227  D(61,59,93,96)       -149.2527         calculate D2E/DX2 analytically  !
 ! D228  D(19,83,84,85)         40.8687         calculate D2E/DX2 analytically  !
 ! D229  D(19,83,84,89)       -165.9953         calculate D2E/DX2 analytically  !
 ! D230  D(83,84,85,86)       -144.4958         calculate D2E/DX2 analytically  !
 ! D231  D(83,84,85,87)        -25.3771         calculate D2E/DX2 analytically  !
 ! D232  D(83,84,85,88)         94.2397         calculate D2E/DX2 analytically  !
 ! D233  D(89,84,85,86)         60.7459         calculate D2E/DX2 analytically  !
 ! D234  D(89,84,85,87)        179.8647         calculate D2E/DX2 analytically  !
 ! D235  D(89,84,85,88)        -60.5185         calculate D2E/DX2 analytically  !
 ! D236  D(83,84,89,90)        -95.0906         calculate D2E/DX2 analytically  !
 ! D237  D(83,84,89,91)         24.6588         calculate D2E/DX2 analytically  !
 ! D238  D(83,84,89,92)        143.8566         calculate D2E/DX2 analytically  !
 ! D239  D(85,84,89,90)         60.5203         calculate D2E/DX2 analytically  !
 ! D240  D(85,84,89,91)       -179.7304         calculate D2E/DX2 analytically  !
 ! D241  D(85,84,89,92)        -60.5326         calculate D2E/DX2 analytically  !
 --------------------------------------------------------------------------------
 Trust Radius=3.00D-02 FncErr=1.00D-07 GrdErr=1.00D-06 EigMax=2.50D+02 EigMin=1.00D-04
 Number of steps in this run=    549 maximum allowed number of steps=    600.
 Search for a saddle point of order  1.
 Step   0 in ReCalcFC=30 IGetFC= 4 compute analytic Hessian.
 GradGradGradGradGradGradGradGradGradGradGradGradGradGradGradGradGradGrad

 Leave Link  103 at Wed May  8 08:00:45 2019, MaxMem=  6442450944 cpu:               5.8 elap:               0.2
 (Enter /home/ekwan/sw/g16/l202.exe)
 Stoichiometry    C30H47F6NaO15S
 Framework group  C1[X(C30H47F6NaO15S)]
 Deg. of freedom   294
 Full point group                 C1      NOp   1
 Largest Abelian subgroup         C1      NOp   1
 Largest concise Abelian subgroup C1      NOp   1
                         Standard orientation:                         
 ---------------------------------------------------------------------
 Center     Atomic      Atomic             Coordinates (Angstroms)
 Number     Number       Type             X           Y           Z
 ---------------------------------------------------------------------
      1          6           0       -4.386142   -0.511860    0.659118
      2          6           0       -5.193730   -1.274799   -0.394407
      3          6           0       -4.274264   -1.671010   -1.561102
      4          6           0       -2.359763   -1.861340   -0.112825
      5          6           0       -3.151399   -1.317127    1.084676
      6          1           0       -4.800322   -2.309962   -2.283762
      7          1           0       -5.570378   -2.221582    0.024039
      8          1           0       -4.038496    0.416242    0.206035
      9          1           0       -1.842490   -1.011610   -0.574692
     10          1           0       -3.456417   -2.159277    1.724838
     11          8           0       -3.222025   -2.481802   -1.086278
     12          8           0       -3.841617   -0.493378   -2.187226
     13          8           0       -6.278091   -0.450895   -0.773732
     14          8           0       -5.169138   -0.085703    1.774527
     15          8           0       -2.217097   -0.501012    1.794898
     16          6           0       -1.304032   -2.917667    0.300496
     17          1           0       -1.794129   -3.900572    0.128981
     18          1           0       -1.203147   -2.846644    1.405848
     19          8           0       -0.097959   -2.782634   -0.336030
     20          6           0       -7.232238   -1.091740   -1.603701
     21          1           0       -6.848639   -1.266323   -2.618143
     22          1           0       -7.553531   -2.053730   -1.176913
     23          1           0       -8.094794   -0.423974   -1.666343
     24          6           0       -6.007151   -1.062291    2.371285
     25          1           0       -6.855854   -1.315736    1.723236
     26          1           0       -5.468720   -1.984132    2.630560
     27          1           0       -6.388462   -0.615322    3.292628
     28          6           0       -2.472305   -0.330449    3.186433
     29          1           0       -3.343620    0.307684    3.355226
     30          1           0       -2.638735   -1.301810    3.673534
     31          1           0       -1.574558    0.129689    3.605038
     32          6           0        3.289369   -1.962828    1.305850
     33          6           0        1.823722   -2.089021    1.723003
     34          6           0        0.952427   -0.945074    1.217584
     35          6           0        2.681938   -0.111914   -0.254349
     36          6           0        3.405090   -1.453391   -0.128966
     37          1           0       -0.114364   -0.952154    1.383736
     38          1           0        1.378866   -2.938459    1.179212
     39          1           0        3.788781   -1.242081    1.966273
     40          1           0        3.190581    0.596814    0.402526
     41          1           0        2.990972   -2.194662   -0.824657
     42          8           0        1.299012   -0.201940    0.203512
     43          8           0        3.178792    1.389357    2.501621
     44          8           0        1.793950   -2.297106    3.114079
     45          8           0        3.925753   -3.229581    1.372474
     46          8           0        4.752521   -1.167352   -0.464652
     47          6           0        2.634146    0.456113   -1.671669
     48          1           0        3.593083    0.231445   -2.145256
     49          1           0        2.516679    1.541805   -1.639213
     50          8           0        1.595558   -0.108101   -2.473553
     51         16           0        1.748273    1.573455    2.840125
     52          8           0        1.461841    2.329946    4.072529
     53          8           0        0.966683    0.263221    2.823310
     54          6           0        1.043199    2.492985    1.461277
     55          6           0        1.871496    3.309060    0.695895
     56          6           0       -0.309592    2.354765    1.158229
     57          6           0        1.331442    3.997112   -0.390812
     58          1           0        2.926507    3.379847    0.931644
     59          6           0       -0.834673    3.062222    0.077540
     60          1           0       -0.935748    1.672287    1.720230
     61          6           0       -0.022889    3.885446   -0.700942
     62          1           0       -0.437640    4.421681   -1.545894
     63          6           0        0.571369   -2.810920    3.621849
     64          1           0       -0.237434   -2.076032    3.548927
     65          1           0        0.274741   -3.727231    3.093607
     66          1           0        0.747731   -3.039168    4.675311
     67          6           0        4.618469   -3.481960    2.590995
     68          1           0        5.387048   -2.717344    2.770578
     69          1           0        3.932352   -3.508491    3.442765
     70          1           0        5.102545   -4.454791    2.475452
     71          6           0        5.434371   -2.222545   -1.137744
     72          1           0        5.520517   -3.107471   -0.501209
     73          1           0        4.911827   -2.492275   -2.063482
     74          1           0        6.428421   -1.840624   -1.381315
     75          6           0        0.468220    0.762101   -2.636092
     76          1           0       -0.181983    0.299186   -3.382277
     77          1           0       -0.078716    0.882419   -1.698249
     78          1           0        0.792624    1.743093   -3.002231
     79          6           0       -3.064422   -0.719905   -3.352232
     80          1           0       -2.846134    0.261126   -3.778775
     81          1           0       -2.124476   -1.231681   -3.113403
     82          1           0       -3.617374   -1.323697   -4.086625
     83         11           0        0.702914   -2.284422   -2.216599
     84          8           0        2.599067   -3.096228   -3.222361
     85          6           0        2.967182   -4.471464   -3.170227
     86          1           0        4.057900   -4.578856   -3.110556
     87          1           0        2.512407   -4.891075   -2.270699
     88          1           0        2.600435   -5.008349   -4.055073
     89          6           0        3.135548   -2.423090   -4.358635
     90          1           0        2.774668   -2.880679   -5.289564
     91          1           0        2.798524   -1.387152   -4.295987
     92          1           0        4.232813   -2.455677   -4.346107
     93          6           0       -2.266920    2.841694   -0.320561
     94          9           0       -2.383435    1.749217   -1.120414
     95          9           0       -2.769960    3.885898   -1.011033
     96          9           0       -3.062870    2.631862    0.747149
     97          6           0        2.232519    4.768359   -1.312150
     98          9           0        1.616117    5.842609   -1.845420
     99          9           0        2.627931    3.988550   -2.357184
    100          9           0        3.351972    5.194928   -0.697660
 ---------------------------------------------------------------------
 Rotational constants (GHZ):           0.0580162           0.0443796           0.0378710
 Leave Link  202 at Wed May  8 08:00:46 2019, MaxMem=  6442450944 cpu:               5.5 elap:               0.2
 (Enter /home/ekwan/sw/g16/l301.exe)
 Standard basis: 6-31G(d) (6D, 7F)
 Ernie: Thresh=  0.10000D-02 Tol=  0.10000D-05 Strict=F.
 There are   897 symmetry adapted cartesian basis functions of A   symmetry.
 There are   897 symmetry adapted basis functions of A   symmetry.
   897 basis functions,  1720 primitive gaussians,   897 cartesian basis functions
   214 alpha electrons      214 beta electrons
       nuclear repulsion energy      9770.8418255515 Hartrees.
 IExCor=  402 DFT=T Ex+Corr=B3LYP ExCW=0 ScaHFX=  0.200000
 ScaDFX=  0.800000  0.720000  1.000000  0.810000 ScalE2=  1.000000  1.000000
 IRadAn=      5 IRanWt=     -1 IRanGd=            0 ICorTp=0 IEmpDi=141
 NAtoms=  100 NActive=  100 NUniq=  100 SFac= 1.00D+00 NAtFMM=   60 NAOKFM=T Big=T
 Integral buffers will be    131072 words long.
 Raffenetti 2 integral format.
 Two-electron integral symmetry is turned on.
 R6Disp:  Grimme-D3(BJ) Dispersion energy=       -0.2392925918 Hartrees.
 Nuclear repulsion after empirical dispersion term =     9770.6025329597 Hartrees.
 Force inversion solution in PCM.
 ------------------------------------------------------------------------------
 Polarizable Continuum Model (PCM)
 =================================
 Model                : PCM.
 Atomic radii         : UFF (Universal Force Field).
 Polarization charges : Total charges.
 Charge compensation  : None.
 Solution method      : Matrix inversion.
 Cavity type          : Scaled VdW (van der Waals Surface) (Alpha=1.100).
 Cavity algorithm     : GePol (No added spheres)
                        Default sphere list used, NSphG=  100.
                        Lebedev-Laikov grids with approx.  5.0 points / Ang**2.
                        Smoothing algorithm: York/Karplus (Gamma=1.0000).
                        Polarization charges: spherical gaussians, with
                                              point-specific exponents (IZeta= 3).
                        Self-potential: point-specific (ISelfS= 7).
                        Self-field    : sphere-specific E.n sum rule (ISelfD= 2).
 1st derivatives      : Analytical E(r).r(x)/FMM algorithm (CHGder, D1EAlg=3).
                        Cavity 1st derivative terms included.
 2nd derivatives      : Analytical E(r).r(xy)/FMM algorithm (CHGder, D2EAlg=3).
                        Cavity 2nd derivative terms included.
 Solvent              : TetraHydroFuran, Eps=   7.425700 Eps(inf)=   1.974025
 ------------------------------------------------------------------------------
 GePol: Number of generator spheres                  =     100
 GePol: Total number of spheres                      =     100
 GePol: Number of exposed spheres                    =     100 (100.00%)
 GePol: Number of points                             =    5919
 GePol: Average weight of points                     =       0.12
 GePol: Minimum weight of points                     =   0.37D-11
 GePol: Maximum weight of points                     =    0.21593
 GePol: Number of points with low weight             =     461
 GePol: Fraction of low-weight points (<1% of avg)   =       7.79%
 GePol: Cavity surface area                          =    731.001 Ang**2
 GePol: Cavity volume                                =    967.369 Ang**3
 Leave Link  301 at Wed May  8 08:00:46 2019, MaxMem=  6442450944 cpu:               8.1 elap:               0.3
 (Enter /home/ekwan/sw/g16/l302.exe)
 NPDir=0 NMtPBC=     1 NCelOv=     1 NCel=       1 NClECP=     1 NCelD=      1
         NCelK=      1 NCelE2=     1 NClLst=     1 CellRange=     0.0.
 One-electron integrals computed using PRISM.
 One-electron integral symmetry used in STVInt
 NBasis=   897 RedAO= T EigKep=  3.87D-04  NBF=   897
 NBsUse=   897 1.00D-06 EigRej= -1.00D+00 NBFU=   897
 Precomputing XC quadrature grid using
 IXCGrd= 4 IRadAn=           5 IRanWt=          -1 IRanGd=           0 AccXCQ= 0.00D+00.
 Generated NRdTot=       0 NPtTot=           0 NUsed=           0 NTot=          32
 NSgBfM=   830   830   830   830   830 MxSgAt=   100 MxSgA2=   100.
 Leave Link  302 at Wed May  8 08:01:01 2019, MaxMem=  6442450944 cpu:             449.3 elap:              14.7
 (Enter /home/ekwan/sw/g16/l303.exe)
 DipDrv:  MaxL=1.
 Leave Link  303 at Wed May  8 08:01:01 2019, MaxMem=  6442450944 cpu:              17.2 elap:               0.7
 (Enter /home/ekwan/sw/g16/l401.exe)
 ExpMin= 2.60D-02 ExpMax= 2.19D+04 ExpMxC= 3.30D+03 IAcc=3 IRadAn=         5 AccDes= 0.00D+00
 Harris functional with IExCor=  402 and IRadAn=       5 diagonalized for initial guess.
[...]
 000,0.00012852,0.00010414,-0.00015028,0.00017558,0.00015695,-0.0001399
 8,0.00003604,-0.00017057,0.00214114,0.00080670,0.00005104,-0.00018684,
 -0.00004174,0.00066957,-0.00182073,-0.00007257,-0.00051704,-0.00125793
 ,-0.00027796,0.00008176,-0.00038958,-0.00011620,-0.00003050,0.00012933
 ,0.00005947,0.00008244,0.00034688,0.00016224,0.00007952,0.00027676,-0.
 00059735,0.00034096,0.00034503,-0.00030464,-0.00029700,-0.00009628,-0.
 00002027,-0.00223596,0.00884924,0.00138347,0.00001814,-0.00022664,0.00
 010085,0.00030372,-0.00016290,0.00002652,0.00002868,0.00001125,-0.0000
 2398,0.00017630,0.00054736,0.00048870,-0.00025340,-0.00023394,-0.00000
 453,0.00005666,0.00003248,-0.00002204,-0.00001011,-0.00000364,-0.00000
 506,-0.00000905,-0.00000293,-0.00000300,-0.00000464,-0.00000787,0.0000
 1390,-0.00006650,-0.00000427,-0.00009695,0.00000981,0.00000766,0.00000
 940,0.00000215,-0.00000140,0.00002077,0.00001436,-0.00001238,0.0000149
 4,-0.00010788,0.00013225,0.00007696,0.00001280,-0.00003546,-0.00000070
 ,0.00000336,-0.00000321,-0.00000987,0.00001954,-0.00000313,-0.00001559
 ,0.00022587,0.00086673,-0.00067734,-0.00010636,-0.00022114,0.00003933,
 -0.00002807,-0.00005366,0.00004440,0.00030972,-0.00025920,0.00062849,0
 .00005210,-0.00001779,-0.00002174,0.00001938,-0.00001236,0.00000968,-0
 .00002220,0.00003282,-0.00001666,-0.00002013,-0.00000426,-0.00000177,0
 .00012278,0.00032034,-0.00000785,0.00001679,-0.00013540,-0.00003014,-0
 .00002098,0.00010683,-0.00000919,0.00001197,-0.00000952,-0.00000007,-0
 .00000028,-0.00000813,0.00000719,0.00000129,-0.00002047,-0.00001171,-0
 .00002047,0.00006613,0.00001748,-0.00000265,-0.00002586,-0.00001377,-0
 .00000136,0.00000095,0.00005241,0.00000737,-0.00000376,0.00000447,0.00
 016834,-0.00024251,-0.00012734,-0.00005235,0.00012093,0.00007844,-0.00
 003884,0.00009080,-0.00002374,0.00000391,0.00003372,0.00001713,0.02524
 869,-0.10422497,-0.05852636,0.03885589,-0.05642829,-0.02840243,-0.0490
 0055,0.16940862,-0.00004173,-0.00003444,0.00004609,-0.00002673,-0.0000
 1360,-0.00003832,-0.00002470,0.00003927,-0.00006025,-0.00005020,-0.000
 05768,-0.00007566,-0.00011158,-0.00011947,-0.00013356,0.00000932,0.000
 00589,0.00001535,0.00001090,0.00001004,0.00000912,-0.00003449,-0.00001
 484,-0.00001897,0.00002422,0.00000208,-0.00002610,0.00002939,0.0000434
 9,0.00000478,0.00006161,0.00003098,0.00009651,-0.00003193,0.00000651,0
 .00012557,0.00005501,0.00001497,0.00004648,0.00007541,0.00005166,-0.00
 000885,0.00017581,0.00025457,-0.00000102,-0.00000763,-0.00003056,-0.00
 000665,0.00002353,0.00002677,-0.00000204,-0.00000520,-0.00001384,0.000
 01982,0.00001165,0.00011348,0.00019966,-0.00002537,-0.00002487,-0.0000
 3324,0.00000016,0.00000630,0.00001061,0.00000262,0.00000583,0.00000238
 ,0.00000580,-0.00000019,0.00000211,-0.00004641,-0.00004215,0.00001530,
 0.00001408,0.00000917,0.00000432,-0.00000120,0.00000467,-0.00000162,0.
 00000283,0.00000144,-0.00000352,-0.00007193,-0.00003960,0.00008562,-0.
 00000036,-0.00000927,-0.00000561,0.00002369,0.00004391,-0.00001187,0.0
 0000583,-0.00001467,0.00006834,0.00011002,-0.00007886,-0.00010012,0.00
 008769,-0.00002237,0.00008301,-0.00006064,-0.00077357,-0.00088505,0.00
 036821,-0.00025855,-0.00054269,0.00002415,-0.00001022,0.00011061,-0.00
 002582,-0.00001155,0.00007071,-0.00003923,0.00002669,-0.00002716,0.000
 02206,-0.00001777,0.00001489,0.00005791,-0.00009441,-0.00004891,-0.000
 02229,0.00003482,-0.00000672,-0.00034378,0.00013128,0.00058363,-0.0008
 2292,0.00062507,-0.00041709,-0.00002876,0.00011236,-0.00000972,-0.0000
 6015,0.00004730,0.00005778,-0.00010204,-0.00001283,0.00012748,-0.00013
 389,0.00090508,0.00037340,-0.00002447,0.00004646,0.00001251,0.00050670
 ,0.00106400,-0.00150729,-0.00011380,-0.00048002,0.00025572,0.00118361,
 -0.00193296,0.00256362,-0.00015908,0.00021975,-0.00100700,0.00013608,0
 .00153885,-0.00034834,0.00017099,0.00188593,0.00067755,0.00245301,-0.0
 0078944,0.00109562,0.00096664,0.00000890,-0.00047123,0.02284388,-0.016
 32921,-0.03243089,0.00002918,-0.00099145,-0.00036842,0.00091322,0.0025
 1370,-0.00016893,-0.00001028,-0.00029050,-0.00007485,-0.00279737,0.000
 24075,-0.00274441,0.00044251,-0.00099648,-0.00048096,-0.00001718,-0.00
 006989,0.00003254,-0.00002026,-0.00000923,0.00000402,0.00000333,0.0000
 2091,0.00000805,-0.00000473,0.00000491,-0.00000876,0.00000947,-0.00001
 453,0.00000716,0.00000170,-0.00000167,-0.00000670,0.00000105,-0.000008
 19,0.00000740,-0.00000331,0.00000719,0.00000119,-0.00000136,-0.0000128
 2,-0.00004054,0.00000396,-0.00000628,0.00000810,0.00000812,0.00001800,
 0.00000902,-0.00001704,0.00000834,-0.00000401,0.00021118,0.00092088,-0
 .00067150,-0.00008054,-0.00013431,0.00008902,-0.00010103,-0.00022435,0
 .00004368,0.00049902,0.00017391,0.00033783,0.00006875,-0.00001574,-0.0
 0010544,0.00000877,-0.00001450,-0.00000280,-0.00001776,0.00001483,-0.0
 0000859,-0.00000584,0.00001037,0.00001521,0.00006528,0.00016044,-0.000
 13773,-0.00001339,-0.00011384,0.00006115,-0.00001466,0.00006627,-0.000
 00717,0.00000681,-0.00000663,-0.00000365,-0.00000360,-0.00001248,0.000
 00854,0.00000319,-0.00000922,-0.00000399,0.00001047,0.00009334,-0.0000
 4360,-0.00000590,-0.00001241,0.00000321,0.00001977,-0.00000035,0.00000
 923,-0.00000536,0.00000295,0.00000601,-0.00248877,-0.00012408,-0.00120
 646,0.00063614,0.00060004,0.00069433,0.00068561,-0.00020994,0.00039501
 ,0.00082467,0.00013403,-0.00009645,0.04961213,-0.06179608,-0.17896732,
 0.00654699,-0.01407107,0.01543214,-0.06185781,0.12632317,0.24045815,0.
 00005913,0.00003208,-0.00007986,0.00003718,0.00001055,0.00002597,0.000
 05913,0.00006323,-0.00000694,0.00006487,0.00008048,0.00002894,0.000069
 00,0.00008816,0.00008168,-0.00001209,-0.00001630,-0.00001255,-0.000016
 80,-0.00001445,-0.00000140,0.00003342,0.00001524,0.00001229,-0.0000197
 3,-0.00000374,0.00003073,-0.00002346,-0.00003933,0.00000717,-0.0000591
 2,-0.00006097,-0.00003768,-0.00004720,-0.00007672,-0.00002533,-0.00006
 522,-0.00001985,-0.00002337,-0.00008797,-0.00004686,0.00005301,-0.0001
 3749,-0.00019157,0.00007470,0.00004559,0.00003252,-0.00003223,-0.00003
 204,-0.00003578,0.00000433,-0.00000115,0.00000996,0.00000802,-0.000045
 52,-0.00015241,-0.00007638,0.00003698,0.00002837,0.00001947,-0.0000033
 3,-0.00000286,-0.00000365,-0.00000368,-0.00001141,0.00000142,-0.000005
 25,0.00000255,-0.00000330,0.00005019,0.00005024,-0.00002675,-0.0000116
 4,-0.00000950,-0.00000283,0.00000106,-0.00000775,0.00000100,-0.0000073
 8,-0.00000084,0.00000800,0.00005725,0.00002173,-0.00013115,-0.00000683
 ,0.00000836,0.00000924,-0.00002136,-0.00003830,0.00001738,0.00000024,0
 .00001227,-0.00004959,-0.00008386,0.00004577,-0.00003239,-0.00004995,0
 .00005147,-0.00011108,0.00009009,0.00062159,0.00022536,-0.00020394,-0.
 00002501,0.00005191,-0.00020508,0.00004225,0.00005787,0.00002276,0.000
 01380,-0.00003131,0.00002402,-0.00001454,0.00001410,-0.00000750,0.0000
 0490,0.00000329,-0.00008927,0.00001606,0.00002634,0.00001765,0.0000012
 0,0.00000605,0.00017125,-0.00029579,-0.00005277,0.00089099,-0.00032816
 ,0.00038269,0.00001764,-0.00010381,0.00008755,0.00012599,-0.00010075,0
 .00006386,0.00020090,-0.00002896,-0.00003799,-0.00010040,0.00023072,0.
 00000859,0.00003216,-0.00010031,-0.00004755,-0.00011040,0.00011151,0.0
 0001619,0.00025499,-0.00028982,-0.00002554,-0.00143510,0.00115150,-0.0
 0214357,0.00024195,-0.00004307,0.00092374,0.00006972,-0.00086874,0.000
 41112,-0.00016733,-0.00023958,0.00096776,-0.00172199,0.00220502,-0.002
 14464,-0.00032535,-0.00031188,0.00019265,-0.03561694,-0.01800150,-0.01
 809242,0.00054009,-0.00159626,0.00116545,-0.00229843,0.00064658,-0.000
 00453,0.00018094,0.00000195,-0.00002126,0.00009069,-0.00553057,0.00531
 856,0.00086505,0.00008380,-0.00034169,0.00002769,0.00006225,-0.0000347
 0,0.00001117,0.00000230,-0.00000880,-0.00000623,-0.00001158,-0.0000052
 4,0.00000240,-0.00001013,0.00001567,-0.00006411,-0.00000728,-0.0000713
 5,0.00001454,0.00001214,0.00001213,0.00000080,0.00000607,0.00000501,0.
 00000978,-0.00000806,0.00000880,-0.00005198,0.00004841,0.00003860,0.00
 000251,-0.00000980,-0.00000395,0.00000160,-0.00000576,-0.00000074,0.00
 002974,-0.00001030,-0.00001316,-0.00022296,0.00028729,-0.00003006,0.00
 000987,-0.00009373,-0.00004274,0.00006625,0.00009741,-0.00001125,-0.00
 000095,0.00000706,0.00016961,0.00000141,0.00003313,0.00003356,0.000009
 65,-0.00000847,0.00002023,-0.00000408,0.00001525,-0.00000697,-0.000016
 44,-0.00001655,-0.00001085,-0.00001093,0.00011975,0.00005202,0.0000401
 3,-0.00003480,-0.00002292,-0.00001959,0.00003424,-0.00000517,0.0000095
 4,-0.00000413,-0.00000007,-0.00000020,-0.00000086,-0.00000036,0.000000
 50,-0.00000601,-0.00000201,-0.00003120,0.00000939,0.00001725,0.0000029
 5,-0.00000205,-0.00000359,-0.00001385,-0.00000106,0.00001742,0.0000150
 3,-0.00001016,0.00000005,0.00218747,0.00022141,0.00109743,-0.00051732,
 -0.00046980,-0.00044341,-0.00059508,0.00014031,-0.00024677,-0.00116208
 ,-0.00023119,0.00031366,-0.22088027,-0.06693376,-0.05362188,-0.0446051
 1,0.01903701,-0.03644325,0.00980382,-0.01403891,-0.02019162,0.29462738
 ,0.00004111,0.00001081,-0.00004832,0.00002997,0.00000179,0.00001848,0.
 00004788,0.00002594,0.00000176,0.00004658,0.00005511,0.00002102,0.0000
 4429,0.00005178,0.00004734,-0.00000858,-0.00000928,-0.00000820,-0.0000
 1009,-0.00000704,-0.00000116,0.00002008,0.00000721,0.00000577,-0.00000
 974,-0.00000453,0.00002037,-0.00001460,-0.00002307,0.00000447,-0.00005
 405,-0.00003144,-0.00002927,-0.00003827,-0.00003702,-0.00001609,-0.000
 04707,-0.00000465,-0.00001676,-0.00006043,-0.00002112,0.00003421,-0.00
 009673,-0.00010498,0.00004920,0.00006683,0.00001959,-0.00003495,-0.000
 02999,-0.00002663,0.00000453,-0.00000316,0.00000789,0.00000957,-0.0000
 7729,-0.00011870,-0.00004897,0.00002313,0.00001593,0.00001279,-0.00000
 177,-0.00000257,-0.00000221,-0.00000197,-0.00000581,-0.00000018,-0.000
 00498,0.00000147,-0.00000214,0.00003179,0.00002808,-0.00001522,-0.0000
 0740,-0.00000613,-0.00000200,-0.00000014,-0.00000281,0.00000004,-0.000
 00479,-0.00000076,0.00000605,0.00003858,0.00001060,-0.00008392,-0.0000
 0821,0.00000509,0.00000701,-0.00001239,-0.00002128,0.00001076,0.000003
 50,0.00000351,-0.00003196,-0.00004243,0.00005149,-0.00004166,-0.000020
 56,0.00003628,-0.00009169,0.00008845,0.00044826,0.00006938,-0.00001756
 ,0.00000873,-0.00003437,-0.00013357,0.00004524,0.00005160,0.00002677,-
 0.00000214,-0.00001482,0.00001653,-0.00000903,0.00001403,-0.00000681,0
 .00000340,-0.00000352,-0.00005283,0.00004288,-0.00000811,0.00000831,-0
 .00000822,0.00000348,0.00000793,-0.00026203,0.00007191,0.00042390,-0.0
 0024171,0.00033711,-0.00001445,-0.00008213,0.00008422,0.00008501,-0.00
 009897,0.00006897,0.00012361,-0.00007155,-0.00002169,-0.00000304,0.000
 36925,0.00010724,0.00000860,-0.00005212,-0.00002044,0.00001204,0.00013
 790,-0.00007721,0.00000083,-0.00028698,-0.00007821,-0.00055589,0.00077
 076,-0.00150716,0.00008041,0.00000967,0.00063398,-0.00003837,-0.000555
 13,0.00027304,-0.00046976,0.00012410,-0.00008163,-0.00056066,-0.000679
 71,-0.00022699,-0.00017995,-0.00024019,0.00023294,-0.02617798,-0.00042
 986,-0.00959956,-0.00124491,-0.00107915,0.00027911,-0.00177765,0.00023
 136,-0.00063252,0.00001272,0.00002223,-0.00003001,-0.00051746,-0.00304
 111,0.00425019,-0.00004014,-0.00000467,-0.00013569,0.00004107,0.000050
 65,-0.00003040,0.00000374,0.00000165,-0.00000619,-0.00000705,-0.000009
 97,-0.00000473,0.00000009,-0.00000800,0.00001329,-0.00004376,0.0000056
 7,-0.00006270,0.00000641,0.00000573,0.00000810,-0.00000033,0.00000274,
 0.00000830,0.00000924,-0.00000938,0.00000727,-0.00005488,0.00007067,0.
 00004739,0.00000475,-0.00001732,-0.00000128,0.00000137,-0.00000603,-0.
 00000727,0.00001412,-0.00000312,-0.00000911,-0.00004843,0.00022274,-0.
 00006977,-0.00001464,-0.00007992,-0.00002741,0.00003345,0.00004877,0.0
 0000116,0.00007417,0.00007406,0.00017385,0.00001014,0.00000988,0.00002
 041,0.00000966,-0.00000554,0.00001161,-0.00000733,0.00001474,-0.000007
 76,-0.00001206,-0.00000968,-0.00000716,0.00002879,0.00012278,0.0000404
 1,0.00001449,-0.00005342,-0.00002197,-0.00001219,0.00004567,-0.0000017
 4,0.00000620,-0.00000329,0.00000029,0.00000029,-0.00000229,0.00000195,
 -0.00000012,-0.00000837,-0.00000547,-0.00001284,0.00001995,0.00001302,
 -0.00000096,-0.00000866,-0.00000657,-0.00000175,-0.00000017,0.00001929
 ,0.00000548,-0.00000216,0.00000185,0.00142501,-0.00011991,0.00063979,-
 0.00038133,-0.00028258,-0.00030737,-0.00038658,0.00014701,-0.00018554,
 -0.00068212,-0.00009450,0.00019933,-0.06321960,-0.10109182,-0.01866830
 ,0.03200785,0.01304246,0.01713343,-0.02245798,-0.01690741,-0.03825856,
 0.08470448,0.10986458,-0.00000595,-0.00000727,0.00000298,-0.00000589,-
 0.00000101,-0.00001149,-0.00000109,0.00003105,-0.00002725,-0.00000899,
 -0.00000832,-0.00002519,-0.00002951,-0.00002880,-0.00003344,0.00000161
 ,-0.00000088,0.00000389,0.00000116,0.00000062,0.00000358,-0.00000849,-
 0.00000411,-0.00000683,0.00000506,0.00000034,-0.00000455,0.00000630,0.
 00000850,0.00000286,0.00001736,-0.00000145,0.00003263,-0.00001877,-0.0
 0001524,0.00004544,0.00001129,-0.00000023,0.00001534,0.00001403,0.0000
 1006,0.00000748,0.00004179,0.00005780,0.00001606,-0.00000325,-0.000005
 51,-0.00000570,0.00000543,0.00000463,-0.00000045,-0.00000172,-0.000003
 81,0.00000845,0.00000708,0.00002071,0.00006492,-0.00000321,-0.00000395
 ,-0.00001031,-0.00000077,0.00000233,0.00000373,0.00000027,-0.00000035,
 0.00000165,0.00000190,0.00000047,0.00000014,-0.00000885,-0.00000625,0.
 00000005,0.00000348,0.00000196,0.00000137,-0.00000002,-0.00000017,-0.0
 0000036,-0.00000049,0.00000055,0.,-0.00001633,-0.00001127,0.00000419,-
 0.00000115,-0.00000199,-0.00000028,0.00000421,0.00000866,-0.00000078,0
 .00000139,-0.00000221,0.00001646,0.00002332,-0.00002970,-0.00004513,0.
 00002378,0.00000141,0.00001502,-0.00001598,-0.00019385,-0.00030379,0.0
 0010123,-0.00011973,-0.00018456,-0.00002843,0.00000229,0.00005398,-0.0
 0000876,0.00000440,0.00002197,-0.00001119,0.00000790,-0.00000931,0.000
 00915,-0.00000690,0.00000806,0.00000543,-0.00004197,-0.00001942,-0.000
 00493,0.00001531,-0.00000081,-0.00007527,0.00000463,0.00019544,-0.0000
 7291,0.00023888,-0.00014035,-0.00000223,0.00002630,0.00000940,0.000001
 63,0.00000635,0.00003311,-0.00000150,-0.00000065,0.00004455,-0.0000740
 4,0.00039007,0.00006657,0.00000240,-0.00001538,-0.00000322,0.00012318,
 0.00018077,-0.00029275,-0.00000688,-0.00023841,0.00008272,-0.00010265,
 -0.00069890,0.00063904,0.00001723,0.00010723,-0.00019913,0.00013049,0.
 00041913,0.00000234,0.00025703,-0.00047448,0.00094732,-0.00012048,0.00
 257664,-0.00215106,0.00064869,0.00011002,0.00010404,0.00937890,0.00435
 502,0.01017200,0.00197956,0.00011124,0.00027116,0.00097907,0.00002263,
 -0.00060897,0.00009333,-0.00003918,0.00005147,-0.00032443,0.00150317,-
 0.00059226,0.00032245,0.00012061,0.00022399,-0.00000660,-0.00001776,0.
 00000739,-0.00000512,-0.00000311,-0.00000034,0.00000079,0.00000690,0.0
 0000284,-0.00000108,-0.00000026,-0.00000079,-0.00000983,-0.00001030,-0
 .00000946,0.00000496,0.00000246,-0.00000053,0.00000055,-0.00000210,0.0
 0000319,0.00000006,0.00000249,0.00000212,-0.00000563,-0.00000323,-0.00
 001335,0.00000141,-0.00000269,0.00000212,0.00000371,0.00000659,0.00000
 500,-0.00000036,0.00000086,-0.00000434,0.00004821,0.00033296,-0.000217
 13,-0.00002375,-0.00005236,0.00002540,-0.00002351,-0.00006345,0.000011
 29,0.00014981,0.00007042,0.00016859,0.00002460,0.00000375,-0.00003557,
 0.00000370,-0.00000718,0.00000286,-0.00000616,0.00000664,-0.00000349,-
 0.00000447,0.00000103,0.00000423,0.00001575,0.00007082,-0.00004505,0.0
 0000419,-0.00004454,0.00002192,-0.00000939,0.00002737,-0.00000437,0.00
 000442,-0.00000315,-0.00000159,-0.00000172,-0.00000473,0.00000281,0.00
 000144,-0.00000374,-0.00000096,-0.00000249,0.00003488,-0.00001491,-0.0
 0000111,-0.00000355,0.00000167,0.00000346,-0.00000101,0.00000513,0.000
 00134,-0.00000151,0.00000201,-0.00057165,-0.00010670,-0.00048906,0.000
 15026,0.00014260,0.00015480,0.00015640,-0.00008542,0.00014223,0.000251
 94,0.00007107,0.00001376,-0.06183593,-0.02365535,-0.09910635,-0.040799
 15,0.01016408,-0.01366061,-0.03348689,-0.04082710,-0.04102777,0.122712
 75,0.04556462,0.14556028\\0.00000087,0.00000123,0.00000185,-0.00000041
 ,0.00000266,0.00000109,-0.00000005,0.00000284,0.00000022,-0.00000043,0
 .00000120,-0.00000107,0.00000017,0.00000053,0.00000130,-0.00000132,0.0
 0000241,0.00000073,-0.00000109,0.00000189,0.00000085,-0.00000015,0.000
 00017,0.00000222,-0.00000062,0.00000104,-0.00000013,-0.00000033,0.0000
 0053,-0.00000008,-0.00000116,0.00000096,0.00000115,-0.00000202,0.00000
 288,0.00000086,0.00000007,0.00000309,0.00000115,0.00000075,0.00000190,
 0.00000197,-0.00000008,-0.00000046,0.00000079,-0.00000197,0.00000076,0
 .00000050,-0.00000078,-0.00000002,-0.00000146,-0.00000009,0.00000112,-
 0.00000086,0.00000020,0.00000144,-0.00000023,-0.00000053,0.00000345,0.
 00000212,-0.00000078,0.00000373,0.00000131,-0.00000104,0.00000337,0.00
 000148,-0.00000053,0.00000392,0.00000220,0.00000074,0.00000067,0.00000
 117,0.00000033,0.00000226,0.00000185,-0.00000014,0.00000173,0.00000084
 ,0.00000085,0.00000149,0.00000192,0.00000043,-0.00000075,0.00000045,0.
 00000178,0.00000045,0.00000112,0.00000028,0.00000004,0.00000026,0.0000
 0234,-0.00000110,0.00000094,0.00000038,-0.00000304,-0.00000154,-0.0000
 0090,0.00000225,-0.00000003,-0.00001001,-0.00000035,0.00000437,-0.0000
 0130,0.00000335,-0.00000458,-0.00000216,-0.00000210,-0.00000074,0.0000
 0145,-0.00000242,-0.00000474,0.00000039,-0.00000327,-0.00000038,0.0000
 0114,-0.00000268,-0.00000110,0.00000548,-0.00000375,0.00000180,0.00000
 134,-0.00000100,-0.00000147,0.00000180,-0.00000570,0.00000014,-0.00000
 387,-0.00000062,-0.00000208,0.00000046,-0.00000385,-0.00000253,-0.0000
 0113,-0.00000246,-0.00000242,-0.00000102,-0.00000017,-0.00000318,0.000
 00041,-0.00000083,-0.00000030,0.00000028,-0.00000070,-0.00000107,-0.00
 000018,-0.00000104,-0.00000011,-0.00000097,-0.00000061,-0.00000117,0.0
 0000315,-0.00000437,0.00000453,0.00000198,-0.00000152,0.00000066,0.000
 00652,0.00000316,0.00000152,0.00000336,0.00000018,0.00000046,0.0000013
 4,-0.00000045,0.00000150,0.00000108,-0.00000089,0.00000180,0.00000251,
 -0.00000084,0.00000091,0.00000235,-0.00000147,0.00000073,0.00000253,0.
 00000061,0.00000055,0.00000162,-0.00000009,0.00000064,0.00000140,-0.00
 000086,0.00000199,0.00000177,0.00000049,0.00000204,0.00000038,-0.00000
 198,-0.00000156,0.00000048,-0.00000102,-0.00000029,-0.00000042,-0.0000
 0163,-0.00000124,0.00000031,-0.00000212,-0.00000089,-0.00000088,-0.000
 00325,-0.00000199,0.00000006,-0.00000307,-0.00000219,-0.00000014,-0.00
 000286,-0.00000228,-0.00000064,-0.00000332,-0.00000290,-0.00000150,-0.
 00000222,-0.00000111,-0.00000149,-0.00000221,-0.00000268,-0.00000124,-
 0.00000139,-0.00000244,-0.00000043,-0.00000232,-0.00000197,0.00000023,
 -0.00000050,-0.00000017,-0.00000011,0.00000171,0.,0.00000101,-0.000000
 08,-0.00000024,0.00000042,0.00000116,0.00000058,-0.00000064,0.00000237
 ,0.00000075,-0.00000058,0.00000266,0.00000109,-0.00000138,0.00000141,0
 .00000026,-0.00000135,0.00000298,0.00000072,-0.00000120,0.00000072,-0.
 00000031,-0.00000082,0.00000031,-0.00000124,-0.00000225,0.00000028,-0.
 00000196,-0.00000282,-0.00000053,-0.00000250,-0.00000274,-0.00000034,-
 0.00000259,-0.00000308,0.00000010,-0.00000258,-0.00000301,-0.00000030,
 -0.00000112,-0.00000265,0.00000080,-0.00000175,-0.00000129,0.00000059,
 -0.00000121,-0.00000217,-0.00000010,-0.00000173,0.00000135,0.00000206,
 0.00000295,0.00000104,0.00000117,0.00000032,0.00000166,0.00000092,0.00
 000226,0.00000175,0.00000167,0.00000127,0.00000223,-0.00000066,0.00000
 162,0.00000231,0.00000049,0.00000232,0.00000056,0.00000024,0.00000112,
 0.00000255,-0.00000205,0.00000097\\\@


 HE THAT FOLLOWS NATURE IS NEVER LOST.

                             -- BACON
 Job cpu time:       4 days 20 hours  3 minutes 57.3 seconds.
 Elapsed time:       0 days  3 hours 55 minutes 28.8 seconds.
 File lengths (MBytes):  RWF=   9726 Int=      0 D2E=      0 Chk=     85 Scr=      1
 Normal termination of Gaussian 16 at Wed May  8 15:47:47 2019.
