 Entering Gaussian System, Link 0=g16
 Input=clay_new-glu_gluC6-DCDL-Na_1Me2O-bisCF3-ts-b3lyp_d3bj-631gd-pcm_thf.gjf
 Output=clay_new-glu_gluC6-DCDL-Na_1Me2O-bisCF3-ts-b3lyp_d3bj-631gd-pcm_thf.out
 Initial command:
 /home/ekwan/sw/g16/l1.exe "/scratch/users/ekwan/clay_new-glu_gluC6-DCDL-Na_1Me2O-bisCF3-ts-b3lyp_d3bj-631gd-pcm_thf/Gau-39429.inp" -scrdir="/scratch/users/ekwan/clay_new-glu_gluC6-DCDL-Na_1Me2O-bisCF3-ts-b3lyp_d3bj-631gd-pcm_thf/"
 Entering Link 1 = /home/ekwan/sw/g16/l1.exe PID=     39432.
  
 Copyright (c) 1988,1990,1992,1993,1995,1998,2003,2009,2016,
            Gaussian, Inc.  All Rights Reserved.
  
 This is part of the Gaussian(R) 16 program.  It is based on
 the Gaussian(R) 09 system (copyright 2009, Gaussian, Inc.),
 the Gaussian(R) 03 system (copyright 2003, Gaussian, Inc.),
 the Gaussian(R) 98 system (copyright 1998, Gaussian, Inc.),
 the Gaussian(R) 94 system (copyright 1995, Gaussian, Inc.),
 the Gaussian 92(TM) system (copyright 1992, Gaussian, Inc.),
 the Gaussian 90(TM) system (copyright 1990, Gaussian, Inc.),
 the Gaussian 88(TM) system (copyright 1988, Gaussian, Inc.),
 the Gaussian 86(TM) system (copyright 1986, Carnegie Mellon
 University), and the Gaussian 82(TM) system (copyright 1983,
 Carnegie Mellon University). Gaussian is a federally registered
 trademark of Gaussian, Inc.
  
 This software contains proprietary and confidential information,
 including trade secrets, belonging to Gaussian, Inc.
  
 This software is provided under written license and may be
 used, copied, transmitted, or stored only in accord with that
 written license.
  
 The following legend is applicable only to US Government
 contracts under FAR:
  
                    RESTRICTED RIGHTS LEGEND
  
 Use, reproduction and disclosure by the US Government is
 subject to restrictions as set forth in subparagraphs (a)
 and (c) of the Commercial Computer Software - Restricted
 Rights clause in FAR 52.227-19.
  
 Gaussian, Inc.
 340 Quinnipiac St., Bldg. 40, Wallingford CT 06492
  
  
 ---------------------------------------------------------------
 Warning -- This program may not be used in any manner that
 competes with the business of Gaussian, Inc. or will provide
 assistance to any competitor of Gaussian, Inc.  The licensee
 of this program is prohibited from giving any competitor of
 Gaussian, Inc. access to this program.  By using this program,
 the user acknowledges that Gaussian, Inc. is engaged in the
 business of creating and licensing software in the field of
 computational chemistry and represents and warrants to the
 licensee that it is not a competitor of Gaussian, Inc. and that
 it will not use this program in any manner prohibited above.
 ---------------------------------------------------------------
  

 Cite this work as:
 Gaussian 16, Revision A.03,
 M. J. Frisch, G. W. Trucks, H. B. Schlegel, G. E. Scuseria, 
 M. A. Robb, J. R. Cheeseman, G. Scalmani, V. Barone, 
 G. A. Petersson, H. Nakatsuji, X. Li, M. Caricato, A. V. Marenich, 
 J. Bloino, B. G. Janesko, R. Gomperts, B. Mennucci, H. P. Hratchian, 
 J. V. Ortiz, A. F. Izmaylov, J. L. Sonnenberg, D. Williams-Young, 
 F. Ding, F. Lipparini, F. Egidi, J. Goings, B. Peng, A. Petrone, 
 T. Henderson, D. Ranasinghe, V. G. Zakrzewski, J. Gao, N. Rega, 
 G. Zheng, W. Liang, M. Hada, M. Ehara, K. Toyota, R. Fukuda, 
 J. Hasegawa, M. Ishida, T. Nakajima, Y. Honda, O. Kitao, H. Nakai, 
 T. Vreven, K. Throssell, J. A. Montgomery, Jr., J. E. Peralta, 
 F. Ogliaro, M. J. Bearpark, J. J. Heyd, E. N. Brothers, K. N. Kudin, 
 V. N. Staroverov, T. A. Keith, R. Kobayashi, J. Normand, 
 K. Raghavachari, A. P. Rendell, J. C. Burant, S. S. Iyengar, 
 J. Tomasi, M. Cossi, J. M. Millam, M. Klene, C. Adamo, R. Cammi, 
 J. W. Ochterski, R. L. Martin, K. Morokuma, O. Farkas, 
 J. B. Foresman, and D. J. Fox, Gaussian, Inc., Wallingford CT, 2016.
 
 ******************************************
 Gaussian 16:  AS64L-G16RevA.03 25-Dec-2016
                 7-May-2019 
 ******************************************
 %mem=48GB
 %nprocshared=32
 Will use up to   32 processors via shared memory.
 ----------------------------------------------------------------------
 #p opt=(ts,noeigentest,calcfc,maxstep=3,modredundant,recalc=30) freq=n
 oraman b3lyp 6-31g* pop=none scrf=(solvent=tetrahydrofuran,pcm) empiri
 caldispersion=gd3bj
 ----------------------------------------------------------------------
 1/5=1,8=3,10=4,11=1,18=120,26=3,38=1,71=30/1,3;
 2/9=110,12=2,17=6,18=5,40=1/2;
 3/5=1,6=6,7=1,11=2,25=1,30=1,70=2201,71=2,72=20,74=-5,124=41,140=1/1,2,3;
 4//1;
 5/5=2,38=5,53=20/2;
 8/6=4,10=90,11=11/1;
 11/6=1,8=1,9=11,15=111,16=1/1,2,10;
 10/6=1,13=1/2;
 7/10=1,18=20,25=1/1,2,3,16;
 1/5=1,8=3,10=4,11=1,18=20,26=3,71=30/3(2);
 2/9=110/2;
 99//99;
 2/9=110/2;
 3/5=1,6=6,7=1,11=2,25=1,30=1,70=2205,71=1,72=20,74=-5,124=41/1,2,3;
 4/5=5,16=3,69=1/1;
 5/5=2,38=5,53=20/2;
 7//1,2,3,16;
 1/5=1,8=3,11=1,18=20,26=3,71=30/3(-5);
 2/9=110/2;
 99/9=1/99;
 Leave Link    1 at Tue May  7 16:19:21 2019, MaxMem=  6442450944 cpu:               5.7 elap:               0.2
 (Enter /home/ekwan/sw/g16/l101.exe)
 -----
 title
 -----
 Symbolic Z-matrix:
 Charge =  0 Multiplicity = 1
 C                     4.67901  -1.11359  -0.64417 
 C                     3.49176  -1.98987  -1.04594 
 C                     3.04084  -2.85214   0.13779 
 C                     3.70755  -1.16993   1.73907 
 C                     4.36479  -0.33024   0.63489 
 H                     2.12878  -3.41174  -0.0949 
 H                     2.6553   -1.32916  -1.30913 
 H                     5.5578   -1.74756  -0.4707 
 H                     4.47511  -1.80274   2.20493 
 H                     3.67283   0.47559   0.37356 
 O                     2.66373  -2.01464   1.21585 
 O                     4.08984  -3.72284   0.47281 
 O                     3.84603  -2.77698  -2.17289 
 O                     4.96241  -0.15539  -1.66762 
 O                     5.54242   0.22296   1.22324 
 C                     3.03743  -0.2843    2.80849 
 H                     3.87183   0.14356   3.40569 
 H                     2.51793  -0.99518   3.48801 
 O                     2.19246   0.67456   2.29563 
 C                     2.72227  -3.17035  -2.94947 
 H                     2.02586  -3.80441  -2.38639 
 H                     2.1636   -2.29684  -3.3131 
 H                     3.10943  -3.73492  -3.80126 
 C                     5.94669  -0.56704  -2.60566 
 H                     6.90525  -0.77685  -2.10743 
 H                     5.62939  -1.45727  -3.15689 
 H                     6.08564   0.2663   -3.30018 
 C                     5.96711   1.46102   0.67995 
 H                     6.40397   1.3501   -0.31772 
 H                     5.13011   2.17334   0.60594 
 H                     6.71831   1.86616   1.3648 
 C                    -1.13804   1.75029   0.07718 
 C                    -0.36147   0.79826   0.98071 
 C                     0.80239   0.16365   0.27012 
 C                     0.98302   1.95304  -1.32713 
 C                    -0.16572   2.69489  -0.6355 
 H                     1.26214  -0.74258   0.63462 
 H                     0.1215    1.39002   1.76597 
 H                    -1.68887   1.1775   -0.6759 
 H                     0.58901   1.47748  -2.22761 
 H                     0.24122   3.39256   0.10755 
 O                     1.54816   0.86886  -0.53234 
 O                    -0.29405  -2.97618  -0.01653 
 O                    -1.23614  -0.1355    1.55897 
 O                    -2.02489   2.55999   0.83466 
 O                    -0.8566    3.39368  -1.65907 
 C                     2.22068   2.81482  -1.62351 
 H                     2.93959   2.2033   -2.18942 
 H                     2.68931   3.0724   -0.66782 
 O                     1.95292   4.03352  -2.27243 
 S                    -0.81177  -2.17835  -1.14759 
 O                    -0.79724  -2.82599  -2.4749 
 O                    -0.17766  -0.79149  -1.23085 
 C                    -2.53267  -1.81398  -0.77756 
 C                    -3.04823  -2.13471   0.47018 
 C                    -3.2963   -1.12018  -1.71368 
 C                    -4.34234  -1.72998   0.79691 
 H                    -2.43222  -2.67308   1.17858 
 C                    -4.59307  -0.73356  -1.3784 
 H                    -2.88335  -0.8803   -2.6868 
 C                    -5.12064  -1.0278   -0.11975 
 H                    -6.12305  -0.71184   0.14101 
 C                    -0.68302  -0.88206   2.64836 
 H                    -0.05622  -1.70093   2.28227 
 H                    -0.08234  -0.23722   3.29658 
 H                    -1.53776  -1.28573   3.19539 
 C                    -3.35211   2.04725   0.93448 
 H                    -3.79404   1.91147  -0.06045 
 H                    -3.37498   1.09654   1.47472 
 H                    -3.92925   2.79608   1.48266 
 C                    -1.11528   4.76184  -1.37259 
 H                    -1.75468   4.8668   -0.48949 
 H                    -0.17789   5.31251  -1.22502 
 H                    -1.63287   5.16667  -2.24556 
 C                     1.58454   3.88877  -3.64037 
 H                     1.57137   4.89382  -4.06791 
 H                     2.31919   3.27539  -4.1811 
 H                     0.58899   3.44337  -3.73984 
 C                     3.72001  -4.68653   1.45177 
 H                     4.58236  -5.34185   1.59188 
 H                     3.46217  -4.21184   2.40579 
 H                     2.86134  -5.28188   1.11045 
 Na                    2.54684   2.77899   2.25007 
 O                     0.54541   3.72471   2.85683 
 C                    -0.22867   2.99568   3.81029 
 H                    -1.19261   2.70926   3.37425 
 H                     0.34278   2.0993    4.05924 
 H                    -0.39353   3.59749   4.71386 
 C                    -0.10934   4.91768   2.43519 
 H                    -0.26738   5.59484   3.28529 
 H                     0.54073   5.40268   1.703 
 H                    -1.07195   4.67687   1.9708 
 C                    -4.83301  -1.96176   2.19646 
 F                    -4.51038  -3.19252   2.64777 
 F                    -6.16953  -1.82059   2.30646 
 F                    -4.26817  -1.07412   3.0585 
 C                    -5.39207   0.09572  -2.34306 
 F                    -5.09499  -0.19305  -3.62673 
 F                    -5.14563   1.42156  -2.17431 
 F                    -6.72105  -0.07532  -2.17977 
 
 Add virtual bond connecting atoms H37        and O11        Dist= 3.74D+00.
 Add virtual bond connecting atoms O53        and C34        Dist= 3.84D+00.
 The following ModRedundant input section has been read:
 
 ITRead=  0  0  0  0  0  0  0  0  0  0  0  0  0  0  0  0  0  0  0  0
 ITRead=  0  0  0  0  0  0  0  0  0  0  0  0  0  0  0  0  0  0  0  0
 ITRead=  0  0  0  0  0  0  0  0  0  0  0  0  0  0  0  0  0  0  0  0
 ITRead=  0  0  0  0  0  0  0  0  0  0  0  0  0  0  0  0  0  0  0  0
 ITRead=  0  0  0  0  0  0  0  0  0  0  0  0  0  0  0  0  0  0  0  0
 MicOpt= -1 -1 -1 -1 -1 -1 -1 -1 -1 -1 -1 -1 -1 -1 -1 -1 -1 -1 -1 -1
 MicOpt= -1 -1 -1 -1 -1 -1 -1 -1 -1 -1 -1 -1 -1 -1 -1 -1 -1 -1 -1 -1
 MicOpt= -1 -1 -1 -1 -1 -1 -1 -1 -1 -1 -1 -1 -1 -1 -1 -1 -1 -1 -1 -1
 MicOpt= -1 -1 -1 -1 -1 -1 -1 -1 -1 -1 -1 -1 -1 -1 -1 -1 -1 -1 -1 -1
 MicOpt= -1 -1 -1 -1 -1 -1 -1 -1 -1 -1 -1 -1 -1 -1 -1 -1 -1 -1 -1 -1
 NAtoms=    100 NQM=      100 NQMF=       0 NMMI=      0 NMMIF=      0
                NMic=       0 NMicF=      0.
                    Isotopes and Nuclear Properties:
 (Nuclear quadrupole moments (NQMom) in fm**2, nuclear magnetic moments (NMagM)
  in nuclear magnetons)

  Atom         1           2           3           4           5           6           7           8           9          10
 IAtWgt=          12          12          12          12          12           1           1           1           1           1
 AtmWgt=  12.0000000  12.0000000  12.0000000  12.0000000  12.0000000   1.0078250   1.0078250   1.0078250   1.0078250   1.0078250
 NucSpn=           0           0           0           0           0           1           1           1           1           1
 AtZEff=   0.0000000   0.0000000   0.0000000   0.0000000   0.0000000   0.0000000   0.0000000   0.0000000   0.0000000   0.0000000
 NQMom=    0.0000000   0.0000000   0.0000000   0.0000000   0.0000000   0.0000000   0.0000000   0.0000000   0.0000000   0.0000000
 NMagM=    0.0000000   0.0000000   0.0000000   0.0000000   0.0000000   2.7928460   2.7928460   2.7928460   2.7928460   2.7928460
 AtZNuc=   6.0000000   6.0000000   6.0000000   6.0000000   6.0000000   1.0000000   1.0000000   1.0000000   1.0000000   1.0000000

  Atom        11          12          13          14          15          16          17          18          19          20
 IAtWgt=          16          16          16          16          16          12           1           1          16          12
 AtmWgt=  15.9949146  15.9949146  15.9949146  15.9949146  15.9949146  12.0000000   1.0078250   1.0078250  15.9949146  12.0000000
 NucSpn=           0           0           0           0           0           0           1           1           0           0
 AtZEff=   0.0000000   0.0000000   0.0000000   0.0000000   0.0000000   0.0000000   0.0000000   0.0000000   0.0000000   0.0000000
 NQMom=    0.0000000   0.0000000   0.0000000   0.0000000   0.0000000   0.0000000   0.0000000   0.0000000   0.0000000   0.0000000
 NMagM=    0.0000000   0.0000000   0.0000000   0.0000000   0.0000000   0.0000000   2.7928460   2.7928460   0.0000000   0.0000000
 AtZNuc=   8.0000000   8.0000000   8.0000000   8.0000000   8.0000000   6.0000000   1.0000000   1.0000000   8.0000000   6.0000000

  Atom        21          22          23          24          25          26          27          28          29          30
 IAtWgt=           1           1           1          12           1           1           1          12           1           1
 AtmWgt=   1.0078250   1.0078250   1.0078250  12.0000000   1.0078250   1.0078250   1.0078250  12.0000000   1.0078250   1.0078250
 NucSpn=           1           1           1           0           1           1           1           0           1           1
 AtZEff=   0.0000000   0.0000000   0.0000000   0.0000000   0.0000000   0.0000000   0.0000000   0.0000000   0.0000000   0.0000000
 NQMom=    0.0000000   0.0000000   0.0000000   0.0000000   0.0000000   0.0000000   0.0000000   0.0000000   0.0000000   0.0000000
 NMagM=    2.7928460   2.7928460   2.7928460   0.0000000   2.7928460   2.7928460   2.7928460   0.0000000   2.7928460   2.7928460
 AtZNuc=   1.0000000   1.0000000   1.0000000   6.0000000   1.0000000   1.0000000   1.0000000   6.0000000   1.0000000   1.0000000

  Atom        31          32          33          34          35          36          37          38          39          40
 IAtWgt=           1          12          12          12          12          12           1           1           1           1
 AtmWgt=   1.0078250  12.0000000  12.0000000  12.0000000  12.0000000  12.0000000   1.0078250   1.0078250   1.0078250   1.0078250
 NucSpn=           1           0           0           0           0           0           1           1           1           1
 AtZEff=   0.0000000   0.0000000   0.0000000   0.0000000   0.0000000   0.0000000   0.0000000   0.0000000   0.0000000   0.0000000
 NQMom=    0.0000000   0.0000000   0.0000000   0.0000000   0.0000000   0.0000000   0.0000000   0.0000000   0.0000000   0.0000000
 NMagM=    2.7928460   0.0000000   0.0000000   0.0000000   0.0000000   0.0000000   2.7928460   2.7928460   2.7928460   2.7928460
 AtZNuc=   1.0000000   6.0000000   6.0000000   6.0000000   6.0000000   6.0000000   1.0000000   1.0000000   1.0000000   1.0000000

  Atom        41          42          43          44          45          46          47          48          49          50
 IAtWgt=           1          16          16          16          16          16          12           1           1          16
 AtmWgt=   1.0078250  15.9949146  15.9949146  15.9949146  15.9949146  15.9949146  12.0000000   1.0078250   1.0078250  15.9949146
 NucSpn=           1           0           0           0           0           0           0           1           1           0
 AtZEff=   0.0000000   0.0000000   0.0000000   0.0000000   0.0000000   0.0000000   0.0000000   0.0000000   0.0000000   0.0000000
 NQMom=    0.0000000   0.0000000   0.0000000   0.0000000   0.0000000   0.0000000   0.0000000   0.0000000   0.0000000   0.0000000
 NMagM=    2.7928460   0.0000000   0.0000000   0.0000000   0.0000000   0.0000000   0.0000000   2.7928460   2.7928460   0.0000000
 AtZNuc=   1.0000000   8.0000000   8.0000000   8.0000000   8.0000000   8.0000000   6.0000000   1.0000000   1.0000000   8.0000000

  Atom        51          52          53          54          55          56          57          58          59          60
 IAtWgt=          32          16          16          12          12          12          12           1          12           1
 AtmWgt=  31.9720718  15.9949146  15.9949146  12.0000000  12.0000000  12.0000000  12.0000000   1.0078250  12.0000000   1.0078250
 NucSpn=           0           0           0           0           0           0           0           1           0           1
 AtZEff=   0.0000000   0.0000000   0.0000000   0.0000000   0.0000000   0.0000000   0.0000000   0.0000000   0.0000000   0.0000000
 NQMom=    0.0000000   0.0000000   0.0000000   0.0000000   0.0000000   0.0000000   0.0000000   0.0000000   0.0000000   0.0000000
 NMagM=    0.0000000   0.0000000   0.0000000   0.0000000   0.0000000   0.0000000   0.0000000   2.7928460   0.0000000   2.7928460
 AtZNuc=  16.0000000   8.0000000   8.0000000   6.0000000   6.0000000   6.0000000   6.0000000   1.0000000   6.0000000   1.0000000

  Atom        61          62          63          64          65          66          67          68          69          70
 IAtWgt=          12           1          12           1           1           1          12           1           1           1
 AtmWgt=  12.0000000   1.0078250  12.0000000   1.0078250   1.0078250   1.0078250  12.0000000   1.0078250   1.0078250   1.0078250
 NucSpn=           0           1           0           1           1           1           0           1           1           1
 AtZEff=   0.0000000   0.0000000   0.0000000   0.0000000   0.0000000   0.0000000   0.0000000   0.0000000   0.0000000   0.0000000
 NQMom=    0.0000000   0.0000000   0.0000000   0.0000000   0.0000000   0.0000000   0.0000000   0.0000000   0.0000000   0.0000000
 NMagM=    0.0000000   2.7928460   0.0000000   2.7928460   2.7928460   2.7928460   0.0000000   2.7928460   2.7928460   2.7928460
 AtZNuc=   6.0000000   1.0000000   6.0000000   1.0000000   1.0000000   1.0000000   6.0000000   1.0000000   1.0000000   1.0000000

  Atom        71          72          73          74          75          76          77          78          79          80
 IAtWgt=          12           1           1           1          12           1           1           1          12           1
 AtmWgt=  12.0000000   1.0078250   1.0078250   1.0078250  12.0000000   1.0078250   1.0078250   1.0078250  12.0000000   1.0078250
 NucSpn=           0           1           1           1           0           1           1           1           0           1
 AtZEff=   0.0000000   0.0000000   0.0000000   0.0000000   0.0000000   0.0000000   0.0000000   0.0000000   0.0000000   0.0000000
 NQMom=    0.0000000   0.0000000   0.0000000   0.0000000   0.0000000   0.0000000   0.0000000   0.0000000   0.0000000   0.0000000
 NMagM=    0.0000000   2.7928460   2.7928460   2.7928460   0.0000000   2.7928460   2.7928460   2.7928460   0.0000000   2.7928460
 AtZNuc=   6.0000000   1.0000000   1.0000000   1.0000000   6.0000000   1.0000000   1.0000000   1.0000000   6.0000000   1.0000000

  Atom        81          82          83          84          85          86          87          88          89          90
 IAtWgt=           1           1          23          16          12           1           1           1          12           1
 AtmWgt=   1.0078250   1.0078250  22.9897697  15.9949146  12.0000000   1.0078250   1.0078250   1.0078250  12.0000000   1.0078250
 NucSpn=           1           1           3           0           0           1           1           1           0           1
 AtZEff=   0.0000000   0.0000000   0.0000000   0.0000000   0.0000000   0.0000000   0.0000000   0.0000000   0.0000000   0.0000000
 NQMom=    0.0000000   0.0000000  10.4000000   0.0000000   0.0000000   0.0000000   0.0000000   0.0000000   0.0000000   0.0000000
 NMagM=    2.7928460   2.7928460   2.2175200   0.0000000   0.0000000   2.7928460   2.7928460   2.7928460   0.0000000   2.7928460
 AtZNuc=   1.0000000   1.0000000  11.0000000   8.0000000   6.0000000   1.0000000   1.0000000   1.0000000   6.0000000   1.0000000

  Atom        91          92          93          94          95          96          97          98          99         100
 IAtWgt=           1           1          12          19          19          19          12          19          19          19
 AtmWgt=   1.0078250   1.0078250  12.0000000  18.9984033  18.9984033  18.9984033  12.0000000  18.9984033  18.9984033  18.9984033
 NucSpn=           1           1           0           1           1           1           0           1           1           1
 AtZEff=   0.0000000   0.0000000   0.0000000   0.0000000   0.0000000   0.0000000   0.0000000   0.0000000   0.0000000   0.0000000
 NQMom=    0.0000000   0.0000000   0.0000000   0.0000000   0.0000000   0.0000000   0.0000000   0.0000000   0.0000000   0.0000000
 NMagM=    2.7928460   2.7928460   0.0000000   2.6288670   2.6288670   2.6288670   0.0000000   2.6288670   2.6288670   2.6288670
 AtZNuc=   1.0000000   1.0000000   6.0000000   9.0000000   9.0000000   9.0000000   6.0000000   9.0000000   9.0000000   9.0000000
 Leave Link  101 at Tue May  7 16:19:22 2019, MaxMem=  6442450944 cpu:              17.8 elap:               0.7
 (Enter /home/ekwan/sw/g16/l103.exe)

 GradGradGradGradGradGradGradGradGradGradGradGradGradGradGradGradGradGrad
 Berny optimization.
 Initialization pass.
                           ----------------------------
                           !    Initial Parameters    !
                           ! (Angstroms and Degrees)  !
 --------------------------                            --------------------------
 ! Name  Definition              Value          Derivative Info.                !
 --------------------------------------------------------------------------------
 ! R1    R(1,2)                  1.5293         calculate D2E/DX2 analytically  !
 ! R2    R(1,5)                  1.5324         calculate D2E/DX2 analytically  !
 ! R3    R(1,8)                  1.0974         calculate D2E/DX2 analytically  !
 ! R4    R(1,14)                 1.4304         calculate D2E/DX2 analytically  !
 ! R5    R(2,3)                  1.5323         calculate D2E/DX2 analytically  !
 ! R6    R(2,7)                  1.0979         calculate D2E/DX2 analytically  !
 ! R7    R(2,13)                 1.4195         calculate D2E/DX2 analytically  !
 ! R8    R(3,6)                  1.0951         calculate D2E/DX2 analytically  !
 ! R9    R(3,11)                 1.4163         calculate D2E/DX2 analytically  !
 ! R10   R(3,12)                 1.4038         calculate D2E/DX2 analytically  !
 ! R11   R(4,5)                  1.535          calculate D2E/DX2 analytically  !
 ! R12   R(4,9)                  1.0985         calculate D2E/DX2 analytically  !
 ! R13   R(4,11)                 1.4411         calculate D2E/DX2 analytically  !
 ! R14   R(4,16)                 1.5418         calculate D2E/DX2 analytically  !
 ! R15   R(5,10)                 1.0938         calculate D2E/DX2 analytically  !
 ! R16   R(5,15)                 1.4279         calculate D2E/DX2 analytically  !
 ! R17   R(11,37)                1.98           calculate D2E/DX2 analytically  !
 ! R18   R(12,79)                1.4226         calculate D2E/DX2 analytically  !
 ! R19   R(13,20)                1.4215         calculate D2E/DX2 analytically  !
 ! R20   R(14,24)                1.4206         calculate D2E/DX2 analytically  !
 ! R21   R(15,28)                1.4172         calculate D2E/DX2 analytically  !
 ! R22   R(16,17)                1.1117         calculate D2E/DX2 analytically  !
 ! R23   R(16,18)                1.1122         calculate D2E/DX2 analytically  !
 ! R24   R(16,19)                1.3771         calculate D2E/DX2 analytically  !
 ! R25   R(19,83)                2.1345         calculate D2E/DX2 analytically  !
 ! R26   R(20,21)                1.0973         calculate D2E/DX2 analytically  !
 ! R27   R(20,22)                1.0988         calculate D2E/DX2 analytically  !
 ! R28   R(20,23)                1.0928         calculate D2E/DX2 analytically  !
 ! R29   R(24,25)                1.1005         calculate D2E/DX2 analytically  !
 ! R30   R(24,26)                1.0941         calculate D2E/DX2 analytically  !
 ! R31   R(24,27)                1.0937         calculate D2E/DX2 analytically  !
 ! R32   R(28,29)                1.0948         calculate D2E/DX2 analytically  !
 ! R33   R(28,30)                1.1016         calculate D2E/DX2 analytically  !
 ! R34   R(28,31)                1.0943         calculate D2E/DX2 analytically  !
 ! R35   R(32,33)                1.5251         calculate D2E/DX2 analytically  !
 ! R36   R(32,36)                1.5315         calculate D2E/DX2 analytically  !
 ! R37   R(32,39)                1.0948         calculate D2E/DX2 analytically  !
 ! R38   R(32,45)                1.4198         calculate D2E/DX2 analytically  !
 ! R39   R(33,34)                1.5041         calculate D2E/DX2 analytically  !
 ! R40   R(33,38)                1.0955         calculate D2E/DX2 analytically  !
 ! R41   R(33,44)                1.404          calculate D2E/DX2 analytically  !
 ! R42   R(34,37)                1.0796         calculate D2E/DX2 analytically  !
 ! R43   R(34,42)                1.3029         calculate D2E/DX2 analytically  !
 ! R44   R(34,53)                2.0312         calculate D2E/DX2 analytically  !
 ! R45   R(35,36)                1.5324         calculate D2E/DX2 analytically  !
 ! R46   R(35,40)                1.0919         calculate D2E/DX2 analytically  !
 ! R47   R(35,42)                1.4583         calculate D2E/DX2 analytically  !
 ! R48   R(35,47)                1.537          calculate D2E/DX2 analytically  !
 ! R49   R(36,41)                1.0975         calculate D2E/DX2 analytically  !
 ! R50   R(36,46)                1.4189         calculate D2E/DX2 analytically  !
 ! R51   R(43,51)                1.4778         calculate D2E/DX2 analytically  !
 ! R52   R(44,63)                1.4318         calculate D2E/DX2 analytically  !
 ! R53   R(45,67)                1.4263         calculate D2E/DX2 analytically  !
 ! R54   R(46,71)                1.4216         calculate D2E/DX2 analytically  !
 ! R55   R(47,48)                1.1005         calculate D2E/DX2 analytically  !
 ! R56   R(47,49)                1.0951         calculate D2E/DX2 analytically  !
 ! R57   R(47,50)                1.4064         calculate D2E/DX2 analytically  !
 ! R58   R(50,75)                1.4241         calculate D2E/DX2 analytically  !
 ! R59   R(51,52)                1.477          calculate D2E/DX2 analytically  !
 ! R60   R(51,53)                1.5272         calculate D2E/DX2 analytically  !
 ! R61   R(51,54)                1.7976         calculate D2E/DX2 analytically  !
 ! R62   R(54,55)                1.3876         calculate D2E/DX2 analytically  !
 ! R63   R(54,56)                1.3931         calculate D2E/DX2 analytically  !
 ! R64   R(55,57)                1.3947         calculate D2E/DX2 analytically  !
 ! R65   R(55,58)                1.0822         calculate D2E/DX2 analytically  !
 ! R66   R(56,59)                1.3941         calculate D2E/DX2 analytically  !
 ! R67   R(56,60)                1.084          calculate D2E/DX2 analytically  !
 ! R68   R(57,61)                1.3925         calculate D2E/DX2 analytically  !
 ! R69   R(57,93)                1.5011         calculate D2E/DX2 analytically  !
 ! R70   R(59,61)                1.3961         calculate D2E/DX2 analytically  !
 ! R71   R(59,97)                1.5022         calculate D2E/DX2 analytically  !
 ! R72   R(61,62)                1.0829         calculate D2E/DX2 analytically  !
 ! R73   R(63,64)                1.0943         calculate D2E/DX2 analytically  !
 ! R74   R(63,65)                1.094          calculate D2E/DX2 analytically  !
 ! R75   R(63,66)                1.0921         calculate D2E/DX2 analytically  !
 ! R76   R(67,68)                1.0971         calculate D2E/DX2 analytically  !
 ! R77   R(67,69)                1.0937         calculate D2E/DX2 analytically  !
 ! R78   R(67,70)                1.0929         calculate D2E/DX2 analytically  !
 ! R79   R(71,72)                1.0953         calculate D2E/DX2 analytically  !
 ! R80   R(71,73)                1.0971         calculate D2E/DX2 analytically  !
 ! R81   R(71,74)                1.0926         calculate D2E/DX2 analytically  !
 ! R82   R(75,76)                1.0923         calculate D2E/DX2 analytically  !
 ! R83   R(75,77)                1.0992         calculate D2E/DX2 analytically  !
 ! R84   R(75,78)                1.0952         calculate D2E/DX2 analytically  !
 ! R85   R(79,80)                1.0921         calculate D2E/DX2 analytically  !
 ! R86   R(79,81)                1.0963         calculate D2E/DX2 analytically  !
 ! R87   R(79,82)                1.0992         calculate D2E/DX2 analytically  !
 ! R88   R(83,84)                2.2953         calculate D2E/DX2 analytically  !
 ! R89   R(84,85)                1.4282         calculate D2E/DX2 analytically  !
 ! R90   R(84,89)                1.4247         calculate D2E/DX2 analytically  !
 ! R91   R(85,86)                1.0961         calculate D2E/DX2 analytically  !
 ! R92   R(85,87)                1.0918         calculate D2E/DX2 analytically  !
 ! R93   R(85,88)                1.0981         calculate D2E/DX2 analytically  !
 ! R94   R(89,90)                1.0983         calculate D2E/DX2 analytically  !
 ! R95   R(89,91)                1.0927         calculate D2E/DX2 analytically  !
 ! R96   R(89,92)                1.0956         calculate D2E/DX2 analytically  !
 ! R97   R(93,94)                1.35           calculate D2E/DX2 analytically  !
 ! R98   R(93,95)                1.3484         calculate D2E/DX2 analytically  !
 ! R99   R(93,96)                1.3602         calculate D2E/DX2 analytically  !
 ! R100  R(97,98)                1.3489         calculate D2E/DX2 analytically  !
 ! R101  R(97,99)                1.3591         calculate D2E/DX2 analytically  !
 ! R102  R(97,100)               1.3498         calculate D2E/DX2 analytically  !
 ! A1    A(2,1,5)              110.6699         calculate D2E/DX2 analytically  !
 ! A2    A(2,1,8)              109.4016         calculate D2E/DX2 analytically  !
 ! A3    A(2,1,14)             110.4681         calculate D2E/DX2 analytically  !
 ! A4    A(5,1,8)              109.1214         calculate D2E/DX2 analytically  !
 ! A5    A(5,1,14)             107.1816         calculate D2E/DX2 analytically  !
 ! A6    A(8,1,14)             109.9652         calculate D2E/DX2 analytically  !
 ! A7    A(1,2,3)              110.3611         calculate D2E/DX2 analytically  !
 ! A8    A(1,2,7)              108.0354         calculate D2E/DX2 analytically  !
 ! A9    A(1,2,13)             109.4223         calculate D2E/DX2 analytically  !
 ! A10   A(3,2,7)              107.4346         calculate D2E/DX2 analytically  !
 ! A11   A(3,2,13)             112.0062         calculate D2E/DX2 analytically  !
 ! A12   A(7,2,13)             109.481          calculate D2E/DX2 analytically  !
 ! A13   A(2,3,6)              111.6235         calculate D2E/DX2 analytically  !
 ! A14   A(2,3,11)             109.4886         calculate D2E/DX2 analytically  !
 ! A15   A(2,3,12)             108.2687         calculate D2E/DX2 analytically  !
 ! A16   A(6,3,11)             104.0147         calculate D2E/DX2 analytically  !
 ! A17   A(6,3,12)             110.8624         calculate D2E/DX2 analytically  !
 ! A18   A(11,3,12)            112.5862         calculate D2E/DX2 analytically  !
 ! A19   A(5,4,9)              108.724          calculate D2E/DX2 analytically  !
 ! A20   A(5,4,11)             111.6905         calculate D2E/DX2 analytically  !
 ! A21   A(5,4,16)             111.7663         calculate D2E/DX2 analytically  !
 ! A22   A(9,4,11)             108.8095         calculate D2E/DX2 analytically  !
 ! A23   A(9,4,16)             109.905          calculate D2E/DX2 analytically  !
 ! A24   A(11,4,16)            105.8859         calculate D2E/DX2 analytically  !
 ! A25   A(1,5,4)              114.1147         calculate D2E/DX2 analytically  !
 ! A26   A(1,5,10)             107.8718         calculate D2E/DX2 analytically  !
 ! A27   A(1,5,15)             111.8903         calculate D2E/DX2 analytically  !
 ! A28   A(4,5,10)             107.6982         calculate D2E/DX2 analytically  !
 ! A29   A(4,5,15)             105.5843         calculate D2E/DX2 analytically  !
 ! A30   A(10,5,15)            109.5564         calculate D2E/DX2 analytically  !
 ! A31   A(3,11,4)             115.4754         calculate D2E/DX2 analytically  !
 ! A32   A(3,11,37)            110.1783         calculate D2E/DX2 analytically  !
 ! A33   A(4,11,37)            104.0472         calculate D2E/DX2 analytically  !
 ! A34   A(3,12,79)            112.9615         calculate D2E/DX2 analytically  !
 ! A35   A(2,13,20)            112.9461         calculate D2E/DX2 analytically  !
 ! A36   A(1,14,24)            114.5582         calculate D2E/DX2 analytically  !
 ! A37   A(5,15,28)            115.3182         calculate D2E/DX2 analytically  !
 ! A38   A(4,16,17)            105.5135         calculate D2E/DX2 analytically  !
 ! A39   A(4,16,18)            105.0491         calculate D2E/DX2 analytically  !
 ! A40   A(4,16,19)            114.1            calculate D2E/DX2 analytically  !
 ! A41   A(17,16,18)           105.567          calculate D2E/DX2 analytically  !
 ! A42   A(17,16,19)           113.117          calculate D2E/DX2 analytically  !
 ! A43   A(18,16,19)           112.7046         calculate D2E/DX2 analytically  !
 ! A44   A(16,19,83)           126.3373         calculate D2E/DX2 analytically  !
 ! A45   A(13,20,21)           112.4139         calculate D2E/DX2 analytically  !
 ! A46   A(13,20,22)           111.2691         calculate D2E/DX2 analytically  !
 ! A47   A(13,20,23)           106.7817         calculate D2E/DX2 analytically  !
 ! A48   A(21,20,22)           107.8478         calculate D2E/DX2 analytically  !
 ! A49   A(21,20,23)           109.0441         calculate D2E/DX2 analytically  !
 ! A50   A(22,20,23)           109.444          calculate D2E/DX2 analytically  !
 ! A51   A(14,24,25)           111.0879         calculate D2E/DX2 analytically  !
 ! A52   A(14,24,26)           111.5624         calculate D2E/DX2 analytically  !
 ! A53   A(14,24,27)           106.6514         calculate D2E/DX2 analytically  !
 ! A54   A(25,24,26)           109.0001         calculate D2E/DX2 analytically  !
 ! A55   A(25,24,27)           108.7905         calculate D2E/DX2 analytically  !
 ! A56   A(26,24,27)           109.6874         calculate D2E/DX2 analytically  !
 ! A57   A(15,28,29)           112.3607         calculate D2E/DX2 analytically  !
 ! A58   A(15,28,30)           111.2832         calculate D2E/DX2 analytically  !
 ! A59   A(15,28,31)           106.8124         calculate D2E/DX2 analytically  !
 ! A60   A(29,28,30)           107.9086         calculate D2E/DX2 analytically  !
 ! A61   A(29,28,31)           109.507          calculate D2E/DX2 analytically  !
 ! A62   A(30,28,31)           108.9193         calculate D2E/DX2 analytically  !
 ! A63   A(33,32,36)           109.7209         calculate D2E/DX2 analytically  !
 ! A64   A(33,32,39)           109.7015         calculate D2E/DX2 analytically  !
 ! A65   A(33,32,45)           110.9768         calculate D2E/DX2 analytically  !
 ! A66   A(36,32,39)           108.7847         calculate D2E/DX2 analytically  !
 ! A67   A(36,32,45)           107.0422         calculate D2E/DX2 analytically  !
 ! A68   A(39,32,45)           110.553          calculate D2E/DX2 analytically  !
 ! A69   A(32,33,34)           112.18           calculate D2E/DX2 analytically  !
 ! A70   A(32,33,38)           108.1775         calculate D2E/DX2 analytically  !
 ! A71   A(32,33,44)           109.9961         calculate D2E/DX2 analytically  !
 ! A72   A(34,33,38)           103.0278         calculate D2E/DX2 analytically  !
 ! A73   A(34,33,44)           113.3305         calculate D2E/DX2 analytically  !
 ! A74   A(38,33,44)           109.7957         calculate D2E/DX2 analytically  !
 ! A75   A(33,34,37)           121.6145         calculate D2E/DX2 analytically  !
 ! A76   A(33,34,42)           120.367          calculate D2E/DX2 analytically  !
 ! A77   A(33,34,53)           100.0297         calculate D2E/DX2 analytically  !
 ! A78   A(37,34,42)           114.7438         calculate D2E/DX2 analytically  !
 ! A79   A(37,34,53)            93.4541         calculate D2E/DX2 analytically  !
 ! A80   A(42,34,53)            94.3343         calculate D2E/DX2 analytically  !
 ! A81   A(36,35,40)           108.2132         calculate D2E/DX2 analytically  !
 ! A82   A(36,35,42)           113.8557         calculate D2E/DX2 analytically  !
 ! A83   A(36,35,47)           114.7867         calculate D2E/DX2 analytically  !
 ! A84   A(40,35,42)           105.3972         calculate D2E/DX2 analytically  !
 ! A85   A(40,35,47)           112.0706         calculate D2E/DX2 analytically  !
 ! A86   A(42,35,47)           102.1161         calculate D2E/DX2 analytically  !
 ! A87   A(32,36,35)           112.7905         calculate D2E/DX2 analytically  !
 ! A88   A(32,36,41)           108.206          calculate D2E/DX2 analytically  !
 ! A89   A(32,36,46)           109.2876         calculate D2E/DX2 analytically  !
 ! A90   A(35,36,41)           109.5948         calculate D2E/DX2 analytically  !
 ! A91   A(35,36,46)           106.1305         calculate D2E/DX2 analytically  !
 ! A92   A(41,36,46)           110.8465         calculate D2E/DX2 analytically  !
 ! A93   A(11,37,34)           160.0286         calculate D2E/DX2 analytically  !
 ! A94   A(34,42,35)           121.0842         calculate D2E/DX2 analytically  !
 ! A95   A(33,44,63)           114.801          calculate D2E/DX2 analytically  !
 ! A96   A(32,45,67)           114.428          calculate D2E/DX2 analytically  !
 ! A97   A(36,46,71)           114.6587         calculate D2E/DX2 analytically  !
 ! A98   A(35,47,48)           108.2786         calculate D2E/DX2 analytically  !
 ! A99   A(35,47,49)           107.9501         calculate D2E/DX2 analytically  !
 ! A100  A(35,47,50)           114.9305         calculate D2E/DX2 analytically  !
 ! A101  A(48,47,49)           107.453          calculate D2E/DX2 analytically  !
 ! A102  A(48,47,50)           111.6308         calculate D2E/DX2 analytically  !
 ! A103  A(49,47,50)           106.2783         calculate D2E/DX2 analytically  !
 ! A104  A(47,50,75)           113.8525         calculate D2E/DX2 analytically  !
 ! A105  A(43,51,52)           116.5921         calculate D2E/DX2 analytically  !
 ! A106  A(43,51,53)           112.7387         calculate D2E/DX2 analytically  !
 ! A107  A(43,51,54)           106.6952         calculate D2E/DX2 analytically  !
 ! A108  A(52,51,53)           110.1893         calculate D2E/DX2 analytically  !
 ! A109  A(52,51,54)           106.457          calculate D2E/DX2 analytically  !
 ! A110  A(53,51,54)           102.9822         calculate D2E/DX2 analytically  !
 ! A111  A(34,53,51)           125.9493         calculate D2E/DX2 analytically  !
 ! A112  A(51,54,55)           119.5999         calculate D2E/DX2 analytically  !
 ! A113  A(51,54,56)           119.1697         calculate D2E/DX2 analytically  !
 ! A114  A(55,54,56)           121.0419         calculate D2E/DX2 analytically  !
 ! A115  A(54,55,57)           119.2292         calculate D2E/DX2 analytically  !
 ! A116  A(54,55,58)           119.4792         calculate D2E/DX2 analytically  !
 ! A117  A(57,55,58)           121.2764         calculate D2E/DX2 analytically  !
 ! A118  A(54,56,59)           119.1033         calculate D2E/DX2 analytically  !
 ! A119  A(54,56,60)           120.3054         calculate D2E/DX2 analytically  !
 ! A120  A(59,56,60)           120.5903         calculate D2E/DX2 analytically  !
 ! A121  A(55,57,61)           120.7117         calculate D2E/DX2 analytically  !
 ! A122  A(55,57,93)           118.4838         calculate D2E/DX2 analytically  !
 ! A123  A(61,57,93)           120.5915         calculate D2E/DX2 analytically  !
 ! A124  A(56,59,61)           120.6558         calculate D2E/DX2 analytically  !
 ! A125  A(56,59,97)           119.5646         calculate D2E/DX2 analytically  !
 ! A126  A(61,59,97)           119.6225         calculate D2E/DX2 analytically  !
 ! A127  A(57,61,59)           119.2441         calculate D2E/DX2 analytically  !
 ! A128  A(57,61,62)           120.3981         calculate D2E/DX2 analytically  !
 ! A129  A(59,61,62)           120.3577         calculate D2E/DX2 analytically  !
 ! A130  A(44,63,64)           110.9113         calculate D2E/DX2 analytically  !
 ! A131  A(44,63,65)           110.8298         calculate D2E/DX2 analytically  !
 ! A132  A(44,63,66)           105.7521         calculate D2E/DX2 analytically  !
 ! A133  A(64,63,65)           108.9536         calculate D2E/DX2 analytically  !
 ! A134  A(64,63,66)           109.8325         calculate D2E/DX2 analytically  !
 ! A135  A(65,63,66)           110.5363         calculate D2E/DX2 analytically  !
 ! A136  A(45,67,68)           110.846          calculate D2E/DX2 analytically  !
 ! A137  A(45,67,69)           111.5            calculate D2E/DX2 analytically  !
 ! A138  A(45,67,70)           106.2716         calculate D2E/DX2 analytically  !
 ! A139  A(68,67,69)           109.387          calculate D2E/DX2 analytically  !
 ! A140  A(68,67,70)           109.0851         calculate D2E/DX2 analytically  !
 ! A141  A(69,67,70)           109.6817         calculate D2E/DX2 analytically  !
 ! A142  A(46,71,72)           111.1572         calculate D2E/DX2 analytically  !
 ! A143  A(46,71,73)           110.7746         calculate D2E/DX2 analytically  !
 ! A144  A(46,71,74)           106.366          calculate D2E/DX2 analytically  !
 ! A145  A(72,71,73)           110.0121         calculate D2E/DX2 analytically  !
 ! A146  A(72,71,74)           109.3979         calculate D2E/DX2 analytically  !
 ! A147  A(73,71,74)           109.0407         calculate D2E/DX2 analytically  !
 ! A148  A(50,75,76)           106.5934         calculate D2E/DX2 analytically  !
 ! A149  A(50,75,77)           110.8771         calculate D2E/DX2 analytically  !
 ! A150  A(50,75,78)           111.3302         calculate D2E/DX2 analytically  !
 ! A151  A(76,75,77)           109.2052         calculate D2E/DX2 analytically  !
 ! A152  A(76,75,78)           109.1295         calculate D2E/DX2 analytically  !
 ! A153  A(77,75,78)           109.6284         calculate D2E/DX2 analytically  !
 ! A154  A(12,79,80)           106.8273         calculate D2E/DX2 analytically  !
 ! A155  A(12,79,81)           111.5089         calculate D2E/DX2 analytically  !
 ! A156  A(12,79,82)           110.8731         calculate D2E/DX2 analytically  !
 ! A157  A(80,79,81)           109.5035         calculate D2E/DX2 analytically  !
 ! A158  A(80,79,82)           109.3699         calculate D2E/DX2 analytically  !
 ! A159  A(81,79,82)           108.7232         calculate D2E/DX2 analytically  !
 ! A160  A(19,83,84)           104.8213         calculate D2E/DX2 analytically  !
 ! A161  A(83,84,85)           116.0255         calculate D2E/DX2 analytically  !
 ! A162  A(83,84,89)           131.877          calculate D2E/DX2 analytically  !
 ! A163  A(85,84,89)           112.0812         calculate D2E/DX2 analytically  !
 ! A164  A(84,85,86)           110.1493         calculate D2E/DX2 analytically  !
 ! A165  A(84,85,87)           106.7154         calculate D2E/DX2 analytically  !
 ! A166  A(84,85,88)           110.5459         calculate D2E/DX2 analytically  !
 ! A167  A(86,85,87)           109.6623         calculate D2E/DX2 analytically  !
 ! A168  A(86,85,88)           109.7879         calculate D2E/DX2 analytically  !
 ! A169  A(87,85,88)           109.9325         calculate D2E/DX2 analytically  !
 ! A170  A(84,89,90)           110.6923         calculate D2E/DX2 analytically  !
 ! A171  A(84,89,91)           107.2525         calculate D2E/DX2 analytically  !
 ! A172  A(84,89,92)           110.1945         calculate D2E/DX2 analytically  !
 ! A173  A(90,89,91)           109.3058         calculate D2E/DX2 analytically  !
 ! A174  A(90,89,92)           109.7054         calculate D2E/DX2 analytically  !
 ! A175  A(91,89,92)           109.6492         calculate D2E/DX2 analytically  !
 ! A176  A(57,93,94)           111.9835         calculate D2E/DX2 analytically  !
 ! A177  A(57,93,95)           112.5742         calculate D2E/DX2 analytically  !
 ! A178  A(57,93,96)           110.7564         calculate D2E/DX2 analytically  !
 ! A179  A(94,93,95)           107.7607         calculate D2E/DX2 analytically  !
 ! A180  A(94,93,96)           106.489          calculate D2E/DX2 analytically  !
 ! A181  A(95,93,96)           106.9528         calculate D2E/DX2 analytically  !
 ! A182  A(59,97,98)           112.0731         calculate D2E/DX2 analytically  !
 ! A183  A(59,97,99)           111.2454         calculate D2E/DX2 analytically  !
 ! A184  A(59,97,100)          112.0879         calculate D2E/DX2 analytically  !
 ! A185  A(98,97,99)           106.6828         calculate D2E/DX2 analytically  !
 ! A186  A(98,97,100)          107.748          calculate D2E/DX2 analytically  !
 ! A187  A(99,97,100)          106.6855         calculate D2E/DX2 analytically  !
 ! D1    D(5,1,2,3)            -51.9801         calculate D2E/DX2 analytically  !
 ! D2    D(5,1,2,7)             65.2096         calculate D2E/DX2 analytically  !
 ! D3    D(5,1,2,13)          -175.6668         calculate D2E/DX2 analytically  !
 ! D4    D(8,1,2,3)             68.2885         calculate D2E/DX2 analytically  !
 ! D5    D(8,1,2,7)           -174.5218         calculate D2E/DX2 analytically  !
 ! D6    D(8,1,2,13)           -55.3982         calculate D2E/DX2 analytically  !
 ! D7    D(14,1,2,3)          -170.523          calculate D2E/DX2 analytically  !
 ! D8    D(14,1,2,7)           -53.3333         calculate D2E/DX2 analytically  !
 ! D9    D(14,1,2,13)           65.7903         calculate D2E/DX2 analytically  !
 ! D10   D(2,1,5,4)             45.2631         calculate D2E/DX2 analytically  !
 ! D11   D(2,1,5,10)           -74.3601         calculate D2E/DX2 analytically  !
 ! D12   D(2,1,5,15)           165.0697         calculate D2E/DX2 analytically  !
 ! D13   D(8,1,5,4)            -75.1727         calculate D2E/DX2 analytically  !
 ! D14   D(8,1,5,10)           165.2041         calculate D2E/DX2 analytically  !
 ! D15   D(8,1,5,15)            44.6339         calculate D2E/DX2 analytically  !
 ! D16   D(14,1,5,4)           165.7841         calculate D2E/DX2 analytically  !
 ! D17   D(14,1,5,10)           46.1609         calculate D2E/DX2 analytically  !
 ! D18   D(14,1,5,15)          -74.4093         calculate D2E/DX2 analytically  !
 ! D19   D(2,1,14,24)          -93.5687         calculate D2E/DX2 analytically  !
 ! D20   D(5,1,14,24)          145.7822         calculate D2E/DX2 analytically  !
 ! D21   D(8,1,14,24)           27.2845         calculate D2E/DX2 analytically  !
 ! D22   D(1,2,3,6)            174.151          calculate D2E/DX2 analytically  !
 ! D23   D(1,2,3,11)            59.5296         calculate D2E/DX2 analytically  !
 ! D24   D(1,2,3,12)           -63.5542         calculate D2E/DX2 analytically  !
 ! D25   D(7,2,3,6)             56.5902         calculate D2E/DX2 analytically  !
 ! D26   D(7,2,3,11)           -58.0311         calculate D2E/DX2 analytically  !
 ! D27   D(7,2,3,12)           178.8851         calculate D2E/DX2 analytically  !
 ! D28   D(13,2,3,6)           -63.671          calculate D2E/DX2 analytically  !
 ! D29   D(13,2,3,11)         -178.2923         calculate D2E/DX2 analytically  !
 ! D30   D(13,2,3,12)           58.6239         calculate D2E/DX2 analytically  !
 ! D31   D(1,2,13,20)         -154.8537         calculate D2E/DX2 analytically  !
 ! D32   D(3,2,13,20)           82.4338         calculate D2E/DX2 analytically  !
 ! D33   D(7,2,13,20)          -36.6279         calculate D2E/DX2 analytically  !
 ! D34   D(2,3,11,4)           -61.5063         calculate D2E/DX2 analytically  !
 ! D35   D(2,3,11,37)           55.98           calculate D2E/DX2 analytically  !
 ! D36   D(6,3,11,4)           179.0725         calculate D2E/DX2 analytically  !
 ! D37   D(6,3,11,37)          -63.4412         calculate D2E/DX2 analytically  !
 ! D38   D(12,3,11,4)           58.9818         calculate D2E/DX2 analytically  !
 ! D39   D(12,3,11,37)         176.4681         calculate D2E/DX2 analytically  !
 ! D40   D(2,3,12,79)         -172.5546         calculate D2E/DX2 analytically  !
 ! D41   D(6,3,12,79)          -49.7958         calculate D2E/DX2 analytically  !
 ! D42   D(11,3,12,79)          66.2586         calculate D2E/DX2 analytically  !
 ! D43   D(9,4,5,1)             75.6024         calculate D2E/DX2 analytically  !
 ! D44   D(9,4,5,10)          -164.6767         calculate D2E/DX2 analytically  !
 ! D45   D(9,4,5,15)           -47.6904         calculate D2E/DX2 analytically  !
 ! D46   D(11,4,5,1)           -44.4771         calculate D2E/DX2 analytically  !
 ! D47   D(11,4,5,10)           75.2438         calculate D2E/DX2 analytically  !
 ! D48   D(11,4,5,15)         -167.7699         calculate D2E/DX2 analytically  !
 ! D49   D(16,4,5,1)          -162.9026         calculate D2E/DX2 analytically  !
 ! D50   D(16,4,5,10)          -43.1817         calculate D2E/DX2 analytically  !
 ! D51   D(16,4,5,15)           73.8046         calculate D2E/DX2 analytically  !
 ! D52   D(5,4,11,3)            53.6628         calculate D2E/DX2 analytically  !
 ! D53   D(5,4,11,37)          -67.2064         calculate D2E/DX2 analytically  !
 ! D54   D(9,4,11,3)           -66.3665         calculate D2E/DX2 analytically  !
 ! D55   D(9,4,11,37)          172.7643         calculate D2E/DX2 analytically  !
 ! D56   D(16,4,11,3)          175.5416         calculate D2E/DX2 analytically  !
 ! D57   D(16,4,11,37)          54.6724         calculate D2E/DX2 analytically  !
 ! D58   D(5,4,16,17)          -74.1334         calculate D2E/DX2 analytically  !
 ! D59   D(5,4,16,18)          174.5799         calculate D2E/DX2 analytically  !
 ! D60   D(5,4,16,19)           50.6537         calculate D2E/DX2 analytically  !
 ! D61   D(9,4,16,17)           46.6768         calculate D2E/DX2 analytically  !
 ! D62   D(9,4,16,18)          -64.6099         calculate D2E/DX2 analytically  !
 ! D63   D(9,4,16,19)          171.464          calculate D2E/DX2 analytically  !
 ! D64   D(11,4,16,17)         164.0365         calculate D2E/DX2 analytically  !
 ! D65   D(11,4,16,18)          52.7498         calculate D2E/DX2 analytically  !
 ! D66   D(11,4,16,19)         -71.1764         calculate D2E/DX2 analytically  !
 ! D67   D(1,5,15,28)           83.5453         calculate D2E/DX2 analytically  !
 ! D68   D(4,5,15,28)         -151.7614         calculate D2E/DX2 analytically  !
 ! D69   D(10,5,15,28)         -36.0395         calculate D2E/DX2 analytically  !
 ! D70   D(3,11,37,34)         -95.1146         calculate D2E/DX2 analytically  !
 ! D71   D(4,11,37,34)          29.2407         calculate D2E/DX2 analytically  !
 ! D72   D(3,12,79,80)         176.6964         calculate D2E/DX2 analytically  !
 ! D73   D(3,12,79,81)         -63.6935         calculate D2E/DX2 analytically  !
 ! D74   D(3,12,79,82)          57.6075         calculate D2E/DX2 analytically  !
 ! D75   D(2,13,20,21)         -62.4288         calculate D2E/DX2 analytically  !
 ! D76   D(2,13,20,22)          58.657          calculate D2E/DX2 analytically  !
 ! D77   D(2,13,20,23)         178.0303         calculate D2E/DX2 analytically  !
 ! D78   D(1,14,24,25)         -59.6637         calculate D2E/DX2 analytically  !
 ! D79   D(1,14,24,26)          62.1785         calculate D2E/DX2 analytically  !
 ! D80   D(1,14,24,27)        -178.0671         calculate D2E/DX2 analytically  !
 ! D81   D(5,15,28,29)         -72.7189         calculate D2E/DX2 analytically  !
 ! D82   D(5,15,28,30)          48.4181         calculate D2E/DX2 analytically  !
 ! D83   D(5,15,28,31)         167.1823         calculate D2E/DX2 analytically  !
 ! D84   D(4,16,19,83)        -108.8359         calculate D2E/DX2 analytically  !
 ! D85   D(17,16,19,83)         11.7974         calculate D2E/DX2 analytically  !
 ! D86   D(18,16,19,83)        131.4617         calculate D2E/DX2 analytically  !
 ! D87   D(16,19,83,84)       -137.256          calculate D2E/DX2 analytically  !
 ! D88   D(36,32,33,34)        -48.4412         calculate D2E/DX2 analytically  !
 ! D89   D(36,32,33,38)         64.5187         calculate D2E/DX2 analytically  !
 ! D90   D(36,32,33,44)       -175.5601         calculate D2E/DX2 analytically  !
 ! D91   D(39,32,33,34)         71.0116         calculate D2E/DX2 analytically  !
 ! D92   D(39,32,33,38)       -176.0285         calculate D2E/DX2 analytically  !
 ! D93   D(39,32,33,44)        -56.1074         calculate D2E/DX2 analytically  !
 ! D94   D(45,32,33,34)       -166.532          calculate D2E/DX2 analytically  !
 ! D95   D(45,32,33,38)        -53.572          calculate D2E/DX2 analytically  !
 ! D96   D(45,32,33,44)         66.3491         calculate D2E/DX2 analytically  !
 ! D97   D(33,32,36,35)         50.9087         calculate D2E/DX2 analytically  !
 ! D98   D(33,32,36,41)        -70.4994         calculate D2E/DX2 analytically  !
 ! D99   D(33,32,36,46)        168.7038         calculate D2E/DX2 analytically  !
 ! D100  D(39,32,36,35)        -69.1045         calculate D2E/DX2 analytically  !
 ! D101  D(39,32,36,41)        169.4875         calculate D2E/DX2 analytically  !
 ! D102  D(39,32,36,46)         48.6906         calculate D2E/DX2 analytically  !
 ! D103  D(45,32,36,35)        171.4157         calculate D2E/DX2 analytically  !
 ! D104  D(45,32,36,41)         50.0076         calculate D2E/DX2 analytically  !
 ! D105  D(45,32,36,46)        -70.7892         calculate D2E/DX2 analytically  !
 ! D106  D(33,32,45,67)        -94.0407         calculate D2E/DX2 analytically  !
 ! D107  D(36,32,45,67)        146.2557         calculate D2E/DX2 analytically  !
 ! D108  D(39,32,45,67)         27.9204         calculate D2E/DX2 analytically  !
 ! D109  D(32,33,34,37)       -160.428          calculate D2E/DX2 analytically  !
 ! D110  D(32,33,34,42)         41.0867         calculate D2E/DX2 analytically  !
 ! D111  D(32,33,34,53)        -60.0167         calculate D2E/DX2 analytically  !
 ! D112  D(38,33,34,37)         83.4603         calculate D2E/DX2 analytically  !
 ! D113  D(38,33,34,42)        -75.025          calculate D2E/DX2 analytically  !
 ! D114  D(38,33,34,53)       -176.1284         calculate D2E/DX2 analytically  !
 ! D115  D(44,33,34,37)        -35.1181         calculate D2E/DX2 analytically  !
 ! D116  D(44,33,34,42)        166.3966         calculate D2E/DX2 analytically  !
 ! D117  D(44,33,34,53)         65.2932         calculate D2E/DX2 analytically  !
 ! D118  D(32,33,44,63)       -166.519          calculate D2E/DX2 analytically  !
 ! D119  D(34,33,44,63)         67.0073         calculate D2E/DX2 analytically  !
 ! D120  D(38,33,44,63)        -47.5848         calculate D2E/DX2 analytically  !
 ! D121  D(33,34,37,11)       -130.1282         calculate D2E/DX2 analytically  !
 ! D122  D(42,34,37,11)         29.4814         calculate D2E/DX2 analytically  !
 ! D123  D(53,34,37,11)        125.8651         calculate D2E/DX2 analytically  !
 ! D124  D(33,34,42,35)        -33.3711         calculate D2E/DX2 analytically  !
 ! D125  D(37,34,42,35)        166.7428         calculate D2E/DX2 analytically  !
 ! D126  D(53,34,42,35)         70.9194         calculate D2E/DX2 analytically  !
 ! D127  D(33,34,53,51)        -85.2408         calculate D2E/DX2 analytically  !
 ! D128  D(37,34,53,51)         37.7142         calculate D2E/DX2 analytically  !
 ! D129  D(42,34,53,51)        152.8712         calculate D2E/DX2 analytically  !
 ! D130  D(40,35,36,32)         74.4323         calculate D2E/DX2 analytically  !
 ! D131  D(40,35,36,41)       -164.9506         calculate D2E/DX2 analytically  !
 ! D132  D(40,35,36,46)        -45.2032         calculate D2E/DX2 analytically  !
 ! D133  D(42,35,36,32)        -42.3838         calculate D2E/DX2 analytically  !
 ! D134  D(42,35,36,41)         78.2332         calculate D2E/DX2 analytically  !
 ! D135  D(42,35,36,46)       -162.0194         calculate D2E/DX2 analytically  !
 ! D136  D(47,35,36,32)       -159.5772         calculate D2E/DX2 analytically  !
 ! D137  D(47,35,36,41)        -38.9602         calculate D2E/DX2 analytically  !
 ! D138  D(47,35,36,46)         80.7872         calculate D2E/DX2 analytically  !
 ! D139  D(36,35,42,34)         33.4047         calculate D2E/DX2 analytically  !
 ! D140  D(40,35,42,34)        -85.0364         calculate D2E/DX2 analytically  !
 ! D141  D(47,35,42,34)        157.7224         calculate D2E/DX2 analytically  !
 ! D142  D(36,35,47,48)       -175.4311         calculate D2E/DX2 analytically  !
 ! D143  D(36,35,47,49)         68.5272         calculate D2E/DX2 analytically  !
 ! D144  D(36,35,47,50)        -49.8652         calculate D2E/DX2 analytically  !
 ! D145  D(40,35,47,48)        -51.4633         calculate D2E/DX2 analytically  !
 ! D146  D(40,35,47,49)       -167.5051         calculate D2E/DX2 analytically  !
 ! D147  D(40,35,47,50)         74.1026         calculate D2E/DX2 analytically  !
 ! D148  D(42,35,47,48)         60.875          calculate D2E/DX2 analytically  !
 ! D149  D(42,35,47,49)        -55.1668         calculate D2E/DX2 analytically  !
 ! D150  D(42,35,47,50)       -173.5592         calculate D2E/DX2 analytically  !
 ! D151  D(32,36,46,71)        106.6993         calculate D2E/DX2 analytically  !
 ! D152  D(35,36,46,71)       -131.4015         calculate D2E/DX2 analytically  !
 ! D153  D(41,36,46,71)        -12.4745         calculate D2E/DX2 analytically  !
 ! D154  D(33,44,63,64)        -80.0396         calculate D2E/DX2 analytically  !
 ! D155  D(33,44,63,65)         41.1177         calculate D2E/DX2 analytically  !
 ! D156  D(33,44,63,66)        160.9387         calculate D2E/DX2 analytically  !
 ! D157  D(32,45,67,68)        -58.0748         calculate D2E/DX2 analytically  !
 ! D158  D(32,45,67,69)         64.0495         calculate D2E/DX2 analytically  !
 ! D159  D(32,45,67,70)       -176.4744         calculate D2E/DX2 analytically  !
 ! D160  D(36,46,71,72)        -61.7803         calculate D2E/DX2 analytically  !
 ! D161  D(36,46,71,73)         60.8549         calculate D2E/DX2 analytically  !
 ! D162  D(36,46,71,74)        179.2186         calculate D2E/DX2 analytically  !
 ! D163  D(35,47,50,75)        -72.4181         calculate D2E/DX2 analytically  !
 ! D164  D(48,47,50,75)         51.3888         calculate D2E/DX2 analytically  !
 ! D165  D(49,47,50,75)        168.2554         calculate D2E/DX2 analytically  !
 ! D166  D(47,50,75,76)       -170.5992         calculate D2E/DX2 analytically  !
 ! D167  D(47,50,75,77)        -51.8472         calculate D2E/DX2 analytically  !
 ! D168  D(47,50,75,78)         70.4897         calculate D2E/DX2 analytically  !
 ! D169  D(43,51,53,34)        -18.5888         calculate D2E/DX2 analytically  !
 ! D170  D(52,51,53,34)       -150.752          calculate D2E/DX2 analytically  !
 ! D171  D(54,51,53,34)         96.0112         calculate D2E/DX2 analytically  !
 ! D172  D(43,51,54,55)          8.0016         calculate D2E/DX2 analytically  !
 ! D173  D(43,51,54,56)       -176.9352         calculate D2E/DX2 analytically  !
 ! D174  D(52,51,54,55)        133.164          calculate D2E/DX2 analytically  !
 ! D175  D(52,51,54,56)        -51.7728         calculate D2E/DX2 analytically  !
 ! D176  D(53,51,54,55)       -110.8975         calculate D2E/DX2 analytically  !
 ! D177  D(53,51,54,56)         64.1657         calculate D2E/DX2 analytically  !
 ! D178  D(51,54,55,57)        173.6572         calculate D2E/DX2 analytically  !
 ! D179  D(51,54,55,58)         -4.9424         calculate D2E/DX2 analytically  !
 ! D180  D(56,54,55,57)         -1.3113         calculate D2E/DX2 analytically  !
 ! D181  D(56,54,55,58)       -179.9109         calculate D2E/DX2 analytically  !
 ! D182  D(51,54,56,59)       -174.3151         calculate D2E/DX2 analytically  !
 ! D183  D(51,54,56,60)          5.3281         calculate D2E/DX2 analytically  !
 ! D184  D(55,54,56,59)          0.6747         calculate D2E/DX2 analytically  !
 ! D185  D(55,54,56,60)       -179.6821         calculate D2E/DX2 analytically  !
 ! D186  D(54,55,57,61)          0.8738         calculate D2E/DX2 analytically  !
 ! D187  D(54,55,57,93)       -173.8554         calculate D2E/DX2 analytically  !
 ! D188  D(58,55,57,61)        179.4474         calculate D2E/DX2 analytically  !
 ! D189  D(58,55,57,93)          4.7182         calculate D2E/DX2 analytically  !
 ! D190  D(54,56,59,61)          0.4119         calculate D2E/DX2 analytically  !
 ! D191  D(54,56,59,97)        175.8393         calculate D2E/DX2 analytically  !
 ! D192  D(60,56,59,61)       -179.2302         calculate D2E/DX2 analytically  !
 ! D193  D(60,56,59,97)         -3.8029         calculate D2E/DX2 analytically  !
 ! D194  D(55,57,61,59)          0.1861         calculate D2E/DX2 analytically  !
 ! D195  D(55,57,61,62)       -179.7028         calculate D2E/DX2 analytically  !
 ! D196  D(93,57,61,59)        174.8039         calculate D2E/DX2 analytically  !
 ! D197  D(93,57,61,62)         -5.0849         calculate D2E/DX2 analytically  !
 ! D198  D(55,57,93,94)        -43.9784         calculate D2E/DX2 analytically  !
 ! D199  D(55,57,93,95)       -165.5849         calculate D2E/DX2 analytically  !
 ! D200  D(55,57,93,96)         74.7284         calculate D2E/DX2 analytically  !
 ! D201  D(61,57,93,94)        141.2858         calculate D2E/DX2 analytically  !
 ! D202  D(61,57,93,95)         19.6793         calculate D2E/DX2 analytically  !
 ! D203  D(61,57,93,96)       -100.0074         calculate D2E/DX2 analytically  !
 ! D204  D(56,59,61,57)         -0.8349         calculate D2E/DX2 analytically  !
 ! D205  D(56,59,61,62)        179.054          calculate D2E/DX2 analytically  !
 ! D206  D(97,59,61,57)       -176.2596         calculate D2E/DX2 analytically  !
 ! D207  D(97,59,61,62)          3.6293         calculate D2E/DX2 analytically  !
 ! D208  D(56,59,97,98)         32.67           calculate D2E/DX2 analytically  !
 ! D209  D(56,59,97,99)        -86.6721         calculate D2E/DX2 analytically  !
 ! D210  D(56,59,97,100)       153.9723         calculate D2E/DX2 analytically  !
 ! D211  D(61,59,97,98)       -151.8549         calculate D2E/DX2 analytically  !
 ! D212  D(61,59,97,99)         88.803          calculate D2E/DX2 analytically  !
 ! D213  D(61,59,97,100)       -30.5526         calculate D2E/DX2 analytically  !
 ! D214  D(19,83,84,85)         34.0552         calculate D2E/DX2 analytically  !
 ! D215  D(19,83,84,89)       -144.3368         calculate D2E/DX2 analytically  !
 ! D216  D(83,84,85,86)       -118.5276         calculate D2E/DX2 analytically  !
 ! D217  D(83,84,85,87)          0.4465         calculate D2E/DX2 analytically  !
 ! D218  D(83,84,85,88)        119.9638         calculate D2E/DX2 analytically  !
 ! D219  D(89,84,85,86)         60.1805         calculate D2E/DX2 analytically  !
 ! D220  D(89,84,85,87)        179.1545         calculate D2E/DX2 analytically  !
 ! D221  D(89,84,85,88)        -61.3281         calculate D2E/DX2 analytically  !
 ! D222  D(83,84,89,90)       -119.9993         calculate D2E/DX2 analytically  !
 ! D223  D(83,84,89,91)         -0.8321         calculate D2E/DX2 analytically  !
 ! D224  D(83,84,89,92)        118.4686         calculate D2E/DX2 analytically  !
 ! D225  D(85,84,89,90)         61.5599         calculate D2E/DX2 analytically  !
 ! D226  D(85,84,89,91)       -179.2729         calculate D2E/DX2 analytically  !
 ! D227  D(85,84,89,92)        -59.9721         calculate D2E/DX2 analytically  !
 --------------------------------------------------------------------------------
 Trust Radius=3.00D-02 FncErr=1.00D-07 GrdErr=1.00D-06 EigMax=2.50D+02 EigMin=1.00D-04
 Number of steps in this run=    526 maximum allowed number of steps=    600.
 Search for a saddle point of order  1.
 Step   0 in ReCalcFC=30 IGetFC= 4 compute analytic Hessian.
 GradGradGradGradGradGradGradGradGradGradGradGradGradGradGradGradGradGrad

 Leave Link  103 at Tue May  7 16:19:22 2019, MaxMem=  6442450944 cpu:               4.6 elap:               0.2
 (Enter /home/ekwan/sw/g16/l202.exe)
 Stoichiometry    C30H47F6NaO15S
 Framework group  C1[X(C30H47F6NaO15S)]
 Deg. of freedom   294
 Full point group                 C1      NOp   1
 Largest Abelian subgroup         C1      NOp   1
 Largest concise Abelian subgroup C1      NOp   1
                         Standard orientation:                         
 ---------------------------------------------------------------------
 Center     Atomic      Atomic             Coordinates (Angstroms)
 Number     Number       Type             X           Y           Z
 ---------------------------------------------------------------------
      1          6           0        4.679010   -1.113592   -0.644169
      2          6           0        3.491760   -1.989872   -1.045935
      3          6           0        3.040836   -2.852141    0.137791
      4          6           0        3.707545   -1.169931    1.739074
      5          6           0        4.364785   -0.330244    0.634894
      6          1           0        2.128776   -3.411742   -0.094902
      7          1           0        2.655299   -1.329159   -1.309127
      8          1           0        5.557800   -1.747561   -0.470697
      9          1           0        4.475113   -1.802739    2.204930
     10          1           0        3.672831    0.475594    0.373558
     11          8           0        2.663734   -2.014643    1.215846
     12          8           0        4.089840   -3.722841    0.472813
     13          8           0        3.846025   -2.776975   -2.172891
     14          8           0        4.962411   -0.155385   -1.667623
     15          8           0        5.542421    0.222961    1.223240
     16          6           0        3.037430   -0.284296    2.808492
     17          1           0        3.871828    0.143564    3.405692
     18          1           0        2.517929   -0.995180    3.488009
     19          8           0        2.192459    0.674556    2.295629
     20          6           0        2.722274   -3.170348   -2.949466
     21          1           0        2.025863   -3.804405   -2.386391
     22          1           0        2.163599   -2.296841   -3.313101
     23          1           0        3.109429   -3.734924   -3.801256
     24          6           0        5.946687   -0.567035   -2.605657
     25          1           0        6.905248   -0.776853   -2.107430
     26          1           0        5.629387   -1.457269   -3.156887
     27          1           0        6.085639    0.266304   -3.300178
     28          6           0        5.967110    1.461020    0.679948
     29          1           0        6.403967    1.350095   -0.317724
     30          1           0        5.130112    2.173340    0.605942
     31          1           0        6.718307    1.866164    1.364800
     32          6           0       -1.138038    1.750288    0.077179
     33          6           0       -0.361474    0.798255    0.980706
     34          6           0        0.802392    0.163645    0.270116
     35          6           0        0.983023    1.953043   -1.327133
     36          6           0       -0.165720    2.694885   -0.635495
     37          1           0        1.262142   -0.742583    0.634616
     38          1           0        0.121497    1.390021    1.765974
     39          1           0       -1.688870    1.177503   -0.675902
     40          1           0        0.589014    1.477481   -2.227613
     41          1           0        0.241215    3.392561    0.107547
     42          8           0        1.548156    0.868863   -0.532341
     43          8           0       -0.294046   -2.976184   -0.016530
     44          8           0       -1.236143   -0.135498    1.558974
     45          8           0       -2.024886    2.559991    0.834658
     46          8           0       -0.856599    3.393681   -1.659066
     47          6           0        2.220682    2.814820   -1.623508
     48          1           0        2.939591    2.203296   -2.189421
     49          1           0        2.689309    3.072405   -0.667819
     50          8           0        1.952918    4.033521   -2.272425
     51         16           0       -0.811769   -2.178347   -1.147592
     52          8           0       -0.797242   -2.825993   -2.474897
     53          8           0       -0.177658   -0.791486   -1.230852
     54          6           0       -2.532670   -1.813975   -0.777564
     55          6           0       -3.048228   -2.134713    0.470176
     56          6           0       -3.296302   -1.120175   -1.713675
     57          6           0       -4.342335   -1.729977    0.796911
     58          1           0       -2.432220   -2.673077    1.178581
     59          6           0       -4.593072   -0.733564   -1.378400
     60          1           0       -2.883346   -0.880301   -2.686799
     61          6           0       -5.120643   -1.027801   -0.119747
     62          1           0       -6.123050   -0.711839    0.141008
     63          6           0       -0.683021   -0.882059    2.648358
     64          1           0       -0.056218   -1.700927    2.282270
     65          1           0       -0.082336   -0.237217    3.296576
     66          1           0       -1.537759   -1.285725    3.195388
     67          6           0       -3.352112    2.047249    0.934476
     68          1           0       -3.794042    1.911469   -0.060451
     69          1           0       -3.374978    1.096540    1.474720
     70          1           0       -3.929247    2.796075    1.482663
     71          6           0       -1.115278    4.761843   -1.372589
     72          1           0       -1.754675    4.866802   -0.489488
     73          1           0       -0.177891    5.312511   -1.225020
     74          1           0       -1.632874    5.166665   -2.245562
     75          6           0        1.584535    3.888766   -3.640374
     76          1           0        1.571366    4.893817   -4.067909
     77          1           0        2.319185    3.275391   -4.181104
     78          1           0        0.588992    3.443369   -3.739843
     79          6           0        3.720008   -4.686532    1.451765
     80          1           0        4.582356   -5.341852    1.591877
     81          1           0        3.462172   -4.211844    2.405787
     82          1           0        2.861338   -5.281880    1.110447
     83         11           0        2.546844    2.778986    2.250074
     84          8           0        0.545412    3.724706    2.856828
     85          6           0       -0.228673    2.995684    3.810289
     86          1           0       -1.192614    2.709259    3.374245
     87          1           0        0.342784    2.099301    4.059236
     88          1           0       -0.393532    3.597493    4.713862
     89          6           0       -0.109338    4.917675    2.435187
     90          1           0       -0.267379    5.594841    3.285294
     91          1           0        0.540730    5.402680    1.702997
     92          1           0       -1.071948    4.676872    1.970799
     93          6           0       -4.833012   -1.961757    2.196463
     94          9           0       -4.510382   -3.192518    2.647774
     95          9           0       -6.169532   -1.820586    2.306456
     96          9           0       -4.268169   -1.074124    3.058499
     97          6           0       -5.392073    0.095722   -2.343057
     98          9           0       -5.094990   -0.193045   -3.626733
     99          9           0       -5.145634    1.421556   -2.174308
    100          9           0       -6.721046   -0.075316   -2.179774
 ---------------------------------------------------------------------
 Rotational constants (GHZ):           0.0658525           0.0386443           0.0348636
 Leave Link  202 at Tue May  7 16:19:23 2019, MaxMem=  6442450944 cpu:               5.4 elap:               0.2
 (Enter /home/ekwan/sw/g16/l301.exe)
 Standard basis: 6-31G(d) (6D, 7F)
 Ernie: Thresh=  0.10000D-02 Tol=  0.10000D-05 Strict=F.
 There are   897 symmetry adapted cartesian basis functions of A   symmetry.
 There are   897 symmetry adapted basis functions of A   symmetry.
   897 basis functions,  1720 primitive gaussians,   897 cartesian basis functions
   214 alpha electrons      214 beta electrons
       nuclear repulsion energy      9680.5379465244 Hartrees.
 IExCor=  402 DFT=T Ex+Corr=B3LYP ExCW=0 ScaHFX=  0.200000
 ScaDFX=  0.800000  0.720000  1.000000  0.810000 ScalE2=  1.000000  1.000000
 IRadAn=      5 IRanWt=     -1 IRanGd=            0 ICorTp=0 IEmpDi=141
 NAtoms=  100 NActive=  100 NUniq=  100 SFac= 1.00D+00 NAtFMM=   60 NAOKFM=T Big=T
 Integral buffers will be    131072 words long.
 Raffenetti 2 integral format.
 Two-electron integral symmetry is turned on.
 R6Disp:  Grimme-D3(BJ) Dispersion energy=       -0.2388951666 Hartrees.
 Nuclear repulsion after empirical dispersion term =     9680.2990513578 Hartrees.
 Force inversion solution in PCM.
 ------------------------------------------------------------------------------
 Polarizable Continuum Model (PCM)
 =================================
 Model                : PCM.
 Atomic radii         : UFF (Universal Force Field).
 Polarization charges : Total charges.
 Charge compensation  : None.
 Solution method      : Matrix inversion.
 Cavity type          : Scaled VdW (van der Waals Surface) (Alpha=1.100).
 Cavity algorithm     : GePol (No added spheres)
                        Default sphere list used, NSphG=  100.
                        Lebedev-Laikov grids with approx.  5.0 points / Ang**2.
                        Smoothing algorithm: York/Karplus (Gamma=1.0000).
                        Polarization charges: spherical gaussians, with
                                              point-specific exponents (IZeta= 3).
                        Self-potential: point-specific (ISelfS= 7).
                        Self-field    : sphere-specific E.n sum rule (ISelfD= 2).
 1st derivatives      : Analytical E(r).r(x)/FMM algorithm (CHGder, D1EAlg=3).
                        Cavity 1st derivative terms included.
 2nd derivatives      : Analytical E(r).r(xy)/FMM algorithm (CHGder, D2EAlg=3).
                        Cavity 2nd derivative terms included.
 Solvent              : TetraHydroFuran, Eps=   7.425700 Eps(inf)=   1.974025
 ------------------------------------------------------------------------------
 GePol: Number of generator spheres                  =     100
 GePol: Total number of spheres                      =     100
 GePol: Number of exposed spheres                    =     100 (100.00%)
 GePol: Number of points                             =    6061
 GePol: Average weight of points                     =       0.12
 GePol: Minimum weight of points                     =   0.20D-11
 GePol: Maximum weight of points                     =    0.21593
 GePol: Number of points with low weight             =     457
 GePol: Fraction of low-weight points (<1% of avg)   =       7.54%
 GePol: Cavity surface area                          =    744.089 Ang**2
 GePol: Cavity volume                                =    969.435 Ang**3
 Leave Link  301 at Tue May  7 16:19:23 2019, MaxMem=  6442450944 cpu:               8.0 elap:               0.3
 (Enter /home/ekwan/sw/g16/l302.exe)
 NPDir=0 NMtPBC=     1 NCelOv=     1 NCel=       1 NClECP=     1 NCelD=      1
         NCelK=      1 NCelE2=     1 NClLst=     1 CellRange=     0.0.
 One-electron integrals computed using PRISM.
 One-electron integral symmetry used in STVInt
 NBasis=   897 RedAO= T EigKep=  4.07D-04  NBF=   897
 NBsUse=   897 1.00D-06 EigRej= -1.00D+00 NBFU=   897
 Precomputing XC quadrature grid using
 IXCGrd= 4 IRadAn=           5 IRanWt=          -1 IRanGd=           0 AccXCQ= 0.00D+00.
 Generated NRdTot=       0 NPtTot=           0 NUsed=           0 NTot=          32
 NSgBfM=   839   839   839   839   839 MxSgAt=   100 MxSgA2=   100.
 Leave Link  302 at Tue May  7 16:19:38 2019, MaxMem=  6442450944 cpu:             447.0 elap:              14.5
 (Enter /home/ekwan/sw/g16/l303.exe)
 DipDrv:  MaxL=1.
 Leave Link  303 at Tue May  7 16:19:38 2019, MaxMem=  6442450944 cpu:              15.2 elap:               0.6
 (Enter /home/ekwan/sw/g16/l401.exe)
 ExpMin= 2.60D-02 ExpMax= 2.19D+04 ExpMxC= 3.30D+03 IAcc=3 IRadAn=         5 AccDes= 0.00D+00
 Harris functional with IExCor=  402 and IRadAn=       5 diagonalized for initial guess.
 HarFok:  IExCor=  402 AccDes= 0.00D+00 IRadAn=         5 IDoV= 1 UseB2=F ITyADJ=14
 ICtDFT=  3500011 ScaDFX=  1.000000  1.000000  1.000000  1.000000
 FoFCou: FMM=F IPFlag=           0 FMFlag=      100000 FMFlg1=        2001
         NFxFlg=           0 DoJE=T BraDBF=F KetDBF=T FulRan=T
         wScrn=  0.000000 ICntrl=       500 IOpCl=  0 I1Cent=   200000004 NGrid=           0
         NMat0=    1 NMatS0=      1 NMatT0=    0 NMatD0=    1 NMtDS0=    0 NMtDT0=    0
 Petite list used in FoFCou.
 Harris En= -3459.35934874776    
 JPrj=0 DoOrth=F DoCkMO=F.
 Leave Link  401 at Tue May  7 16:19:58 2019, MaxMem=  6442450944 cpu:             610.6 elap:              19.8
 (Enter /home/ekwan/sw/g16/l502.exe)
 Integral symmetry usage will be decided dynamically.
 Closed shell SCF:
 Using DIIS extrapolation, IDIIS=  1040.
 NGot=  6442450944 LenX=  6440803163 LenY=  6439997657
 Requested convergence on RMS density matrix=1.00D-08 within 128 cycles.
 Requested convergence on MAX density matrix=1.00D-06.
 Requested convergence on             energy=1.00D-06.
 No special actions if energy rises.
 Fock matrices will be formed incrementally for  20 cycles.

 Cycle   1  Pass 1  IDiag  1:
 FoFJK:  IHMeth= 1 ICntrl=       0 DoSepK=F KAlg= 0 I1Cent=           0 FoldK=F
 IRaf= 890000000 NMat=       1 IRICut=       1 DoRegI=T DoRafI=F ISym2E= 0 IDoP0=0 IntGTp=1.
 FoFCou: FMM=T IPFlag=           0 FMFlag=      100000 FMFlg1=        2001
         NFxFlg=           0 DoJE=F BraDBF=F KetDBF=F FulRan=T
         wScrn=  0.000000 ICntrl=         0 IOpCl=  0 I1Cent=           0 NGrid=           0
         NMat0=    1 NMatS0=      1 NMatT0=    0 NMatD0=    1 NMtDS0=    0 NMtDT0=    0
 Symmetry not used in FoFCou.
 FMM levels:  10  Number of levels for PrismC:   9
 Inv3:  Mode=1 IEnd=   110207163.
 Iteration    1 A*A^-1 deviation from unit magnitude is 2.56D-14 for   6048.
 Iteration    1 A*A^-1 deviation from orthogonality  is 6.93D-15 for   6060   4356.
 Iteration    1 A^-1*A deviation from unit magnitude is 2.56D-14 for   6048.
[...]
 58,-0.00041788,0.00014091,0.00026515,0.00058471,0.00010269,-0.00139886
 ,0.00011214,-0.00019904,-0.00031584,0.00010758,-0.00014007,0.00000082,
 -0.00003987,0.00004388,-0.00002269,0.00000048,0.00001353,-0.00000140,-
 0.00000046,-0.00000891,-0.00006204,0.00007283,-0.00005147,-0.00367831,
 -0.00019111,0.00132154,0.00089752,-0.00024330,-0.00068750,0.00149703,0
 .00132303,0.00004095,0.00146895,0.00064681,0.00171940,0.00009052,-0.00
 093851,0.00027442,-0.00258534,-0.00044478,0.00231923,0.00154603,0.0003
 2894,0.00193041,-0.00014909,-0.00007445,-0.00003510,0.00028987,-0.0434
 8370,0.00505185,-0.00048606,-0.00083932,-0.00066034,0.00278025,-0.0011
 0847,-0.00250845,-0.00065888,-0.00083560,-0.00051114,-0.00006785,0.000
 02822,-0.00008748,-0.00005594,0.00001291,-0.00003718,0.00003505,0.0000
 3663,0.00003262,-0.00000820,-0.00000797,-0.00009828,0.00135365,0.00058
 281,0.00178849,0.00044051,-0.00047276,0.00005837,-0.00015585,-0.000070
 99,-0.00057052,-0.00007066,-0.00000392,-0.00023360,0.00010537,-0.00000
 612,-0.00001676,0.00001165,0.00004795,0.00005421,-0.00005955,-0.000007
 26,-0.00000726,0.00002019,0.00005896,-0.00004336,0.00006157,0.00001458
 ,0.00002785,0.00000504,0.00000357,-0.00000660,-0.00002430,0.00000354,0
 .00000163,-0.00000287,-0.00002306,-0.00001426,-0.00001521,0.00000221,-
 0.00002230,0.00000774,-0.00000574,0.00000197,-0.00000492,-0.00000058,0
 .00000159,0.00000305,0.00000750,0.00000752,0.00001263,-0.00006777,0.00
 000348,-0.00005802,0.00007718,-0.00004704,0.00003432,-0.00001408,0.000
 03633,0.00000164,-0.00001549,0.00002639,-0.00001873,0.00000225,-0.0000
 1939,-0.00000193,0.00000337,-0.00000726,0.00008571,-0.00004413,0.00004
 810,-0.00001288,0.00000278,-0.00001096,-0.00000078,0.00000594,0.000000
 88,-0.00002635,0.00001966,0.00000829,0.00130116,0.00011023,-0.00265154
 ,-0.00012474,-0.00048947,0.00077816,-0.00058297,-0.00001233,0.00062995
 ,-0.00002081,0.00046874,0.00115398,-0.01595108,-0.24026697,-0.00425603
 ,0.00129432,-0.03609264,-0.04367232,0.05516847,0.35068346,0.00001502,0
 .00001657,-0.00001959,0.00001972,-0.00002479,-0.00002916,0.00005870,-0
 .00003748,-0.00001876,0.00002706,0.00001988,0.00001521,0.00002405,0.00
 000777,0.00000266,0.00001031,-0.00001837,-0.00000043,0.00000277,0.0000
 0816,-0.00001064,-0.00000633,-0.00000182,0.00000247,-0.00001180,0.0000
 0468,-0.00000166,0.00000619,0.00000641,-0.00000575,-0.00006421,0.00002
 469,0.00000678,-0.00004337,0.00003309,-0.00000780,-0.00001575,0.000018
 41,0.00003804,-0.00002492,-0.00000954,0.00003449,-0.00003095,-0.000017
 94,0.00000506,0.00005152,-0.00006985,0.00003084,-0.00002752,0.00000930
 ,-0.00001919,-0.00000014,0.00001074,-0.00000356,-0.00014055,0.00000675
 ,-0.00007533,-0.00000440,0.00000549,-0.00001821,0.00000539,-0.00001771
 ,0.00000564,0.00000543,0.00000529,-0.00000592,-0.00000820,0.00000352,0
 .00000661,0.00001626,-0.00000584,-0.00001715,-0.00000287,0.00000150,0.
 00000159,-0.00000087,0.00000386,0.00000046,-0.00000333,-0.00000272,0.0
 0000325,0.00000956,0.00001585,-0.00000969,-0.00000251,-0.00000160,0.00
 000400,0.00000088,-0.00000021,0.00000124,-0.00000254,-0.00000307,-0.00
 000079,0.00032131,-0.00017545,-0.00009828,0.00003115,0.00010545,-0.000
 04176,0.00032748,0.00022385,0.00008701,-0.00001207,0.00000802,-0.00006
 450,-0.00001822,0.00013071,-0.00010504,0.00001337,-0.00004022,0.000013
 56,-0.00000999,-0.00003016,0.00001112,0.00003657,0.00003695,-0.0000263
 0,0.00000007,0.00000389,0.00000019,-0.00000080,-0.00001678,0.00001352,
 -0.00015065,-0.00014438,0.00010504,-0.00046043,0.00023753,0.00001833,-
 0.00022914,-0.00009494,-0.00012278,-0.00108102,-0.00028685,-0.00017643
 ,0.00003610,-0.00011213,0.00010177,0.00002519,0.00007045,-0.00002094,-
 0.00001795,-0.00001131,0.00000723,0.,-0.00000593,0.00000367,0.00000037
 ,-0.00003632,0.00007361,0.00136170,-0.00028545,-0.00079617,-0.00029503
 ,0.00018124,0.00039456,-0.00053500,-0.00029262,0.00009124,-0.00085922,
 -0.00021942,-0.00123466,-0.00062741,0.00046981,0.00018019,0.00192242,0
 .00096403,-0.00110888,-0.00032493,-0.00062361,0.00018403,0.00005887,-0
 .00000108,0.00003236,-0.00236331,0.02170087,0.00798376,-0.00018676,0.0
 0046213,0.00016083,-0.00041870,-0.00043784,0.00074381,0.00015886,0.000
 15505,0.00012236,0.00006784,-0.00009100,0.00015078,0.00000310,0.000014
 72,-0.00000341,-0.00001983,-0.00001169,-0.00002739,0.00000926,0.000010
 41,0.00002481,0.00084541,0.00031698,0.00098685,-0.00081463,-0.00013475
 ,-0.00200437,-0.00004277,-0.00003523,-0.00021067,-0.00005112,-0.000084
 81,-0.00024381,0.00000168,0.00007471,-0.00002116,-0.00000670,0.0000191
 1,0.00000179,-0.00000732,-0.00001217,0.00000110,0.00000615,-0.00002042
 ,0.00001425,-0.00001558,-0.00000698,-0.00005722,-0.00000092,-0.0000045
 4,0.00000545,-0.00000354,0.00000381,0.00000618,0.00000449,0.00000397,-
 0.00000656,0.00000055,-0.00001242,0.00000918,-0.00000393,0.00000362,-0
 .00000152,0.00000298,0.00000101,0.00000126,0.00000205,-0.00000119,-0.0
 0000290,0.00004656,0.00002699,-0.00000202,-0.00003225,-0.00004457,-0.0
 0001136,0.00003982,0.00002223,0.00001345,-0.00001900,0.00000333,0.0000
 2379,0.00000232,0.00000011,0.00000702,-0.00000794,-0.00001375,-0.00001
 057,0.00002727,0.00002966,0.00000429,-0.00000556,-0.00000914,-0.000011
 75,-0.00000657,-0.00000238,0.00000491,-0.00001310,0.00002512,0.0000063
 2,-0.00039447,-0.00027048,0.00090449,0.00003467,0.00020229,-0.00025295
 ,0.00022395,0.00004511,-0.00021718,0.00005022,-0.00002790,-0.00029789,
 -0.00191654,-0.00210707,-0.07104973,-0.00059990,-0.05952684,-0.0254948
 8,0.00646901,0.03941151,0.07885121,0.00004005,0.00002757,-0.00002030,0
 .00005461,-0.00005180,-0.00002482,0.00013973,-0.00007743,0.00001391,0.
 00007130,0.00004360,0.00004759,0.00005637,0.00001992,0.00002038,0.0000
 2299,-0.00004970,-0.00000224,-0.00000002,0.00002218,-0.00001958,-0.000
 01928,-0.00000302,0.00000210,-0.00002797,0.00001077,-0.00000699,0.0000
 1159,0.00001596,-0.00000868,-0.00013975,0.00003614,-0.00002939,-0.0001
 0422,0.00009427,-0.00005518,-0.00007606,0.00003312,0.00001539,-0.00006
 442,-0.00001308,0.00004031,-0.00007535,-0.00004437,-0.00000796,0.00009
 839,-0.00014939,0.00007651,-0.00005989,0.00001910,-0.00004455,0.000002
 69,0.00003015,-0.00001576,-0.00026607,-0.00000996,-0.00021299,0.000043
 70,-0.00001657,0.00000485,0.00001108,-0.00003589,0.00000943,0.00000442
 ,0.00003258,-0.00001709,-0.00001847,0.00000570,0.00001278,0.00004375,-
 0.00001093,-0.00002566,-0.00001318,0.00000416,-0.00000416,0.00000280,0
 .00000225,-0.00000008,-0.00000079,-0.00000108,0.00000588,0.00001994,0.
 00003495,-0.00001444,-0.00000093,-0.00000464,0.00000693,0.00000080,0.0
 0000075,0.00000636,-0.00000868,-0.00000787,-0.00000420,0.00012278,0.00
 015905,0.00021789,0.00001880,0.00010166,-0.00011626,0.00072078,0.00058
 420,0.00053454,0.00001436,0.00010010,-0.00003102,0.00005253,0.00009760
 ,-0.00006780,0.00004071,-0.00010105,-0.00000886,-0.00001542,-0.0000363
 4,-0.00000477,0.00002242,0.00003787,-0.00004524,0.00002317,0.00000497,
 -0.00002318,-0.00002707,-0.00004590,0.00000355,-0.00029693,-0.00028256
 ,0.00007756,-0.00128897,0.00060757,-0.00034750,-0.00029293,-0.00018302
 ,-0.00027617,-0.00029425,-0.00025940,-0.00021037,-0.00002599,-0.000250
 95,0.00002636,0.00007870,0.00008984,-0.00003258,-0.00001594,-0.0000114
 6,0.00001527,-0.00001252,-0.00001934,-0.00001214,-0.00004955,-0.000069
 83,0.00004621,0.00327259,-0.00015005,-0.00128600,-0.00075109,0.0004028
 2,0.00073039,-0.00126423,-0.00081090,-0.00004158,-0.00182001,0.0013580
 5,0.00090749,-0.00015391,0.00026170,-0.00021395,-0.00045909,0.00221071
 ,-0.00753661,0.00005223,0.00132137,-0.00076488,0.00011067,-0.00016122,
 -0.00015015,-0.04433315,-0.00150260,0.00275896,0.00061509,-0.00063985,
 0.00006997,-0.00145059,-0.00009751,0.00384418,0.00016249,-0.00017666,-
 0.00239280,0.00010008,-0.00014270,0.00025941,0.00002065,0.00001281,0.0
 0001017,-0.00004052,-0.00002801,-0.00004516,0.00002028,0.00002514,0.00
 004399,0.00035373,0.00022762,0.00045354,0.00004897,0.00013818,0.000062
 71,-0.00001590,0.00001070,0.00002104,-0.00002518,-0.00012375,-0.000132
 07,-0.00001410,0.00020619,0.00003572,0.00000529,0.00000283,-0.00001238
 ,-0.00002842,-0.00003311,-0.00001656,0.00001164,-0.00000196,0.00000401
 ,0.00004454,0.00002098,-0.00003136,-0.00000359,-0.00001536,0.00000776,
 -0.00000662,0.00000682,0.00000549,-0.00001311,-0.00000074,-0.00000777,
 -0.00000534,-0.00004056,0.00004389,-0.00000867,0.00001043,-0.00000507,
 0.00000731,0.00000031,-0.00000368,0.00000540,-0.00000101,-0.00000605,0
 .00006780,0.00006372,0.00002628,-0.00001394,-0.00006307,-0.00004797,0.
 00001619,0.00001385,0.00003334,-0.00002393,0.00001049,0.00002565,0.000
 00855,0.00000172,0.00001803,-0.00000748,-0.00002387,-0.00001860,0.0000
 1479,0.00004620,0.00000329,-0.00000598,-0.00001496,-0.00002090,0.00000
 315,0.00000228,0.00000662,-0.00001767,0.00002336,0.00001559,-0.0012888
 1,-0.00031842,0.00192878,0.00013850,0.00040552,-0.00061546,0.00070146,
 0.00002494,-0.00045375,0.00012184,-0.00015213,-0.00076833,-0.26346736,
 -0.00462782,-0.00156572,-0.03420228,0.00396212,0.04297745,-0.03321832,
 -0.04380898,-0.00044106,0.37821224,-0.00001229,-0.00001500,0.00001043,
 -0.00000939,0.00000760,0.00001069,-0.00004278,0.00000022,-0.00000736,-
 0.00002395,-0.00001817,-0.00001338,-0.00001121,-0.00001097,-0.00000491
 ,-0.00000779,0.00001877,0.00000139,-0.00000366,-0.00000742,0.00000513,
 0.00000354,0.00000192,-0.00000082,0.00000654,-0.00000041,0.00000163,-0
 .00000211,-0.00000188,0.00000244,0.00003754,0.00001064,0.00000980,0.00
 003182,-0.00000980,0.00001014,0.00002210,0.00000185,-0.00000671,0.0000
 1487,0.00001321,-0.00001733,0.00001890,0.00002040,-0.00000027,-0.00001
 541,0.00001663,-0.00000992,0.00001151,-0.00000221,0.00000879,0.0000001
 3,-0.00000154,-0.00000114,0.00004606,0.00003039,0.00003701,-0.00001326
 ,-0.00000953,0.00000482,-0.00000259,0.00001522,-0.00000669,-0.00000376
 ,-0.00000680,0.00000491,0.00000528,-0.00000122,-0.00000310,-0.00000897
 ,0.00000053,0.00000729,0.00000181,-0.00000081,-0.00000038,-0.00000031,
 -0.00000116,0.00000113,0.00000188,0.00000172,-0.00000255,-0.00000267,-
 0.00001642,0.00000602,0.00000063,0.00000114,-0.00000213,-0.00000261,0.
 00000220,-0.00000062,0.00000196,0.00000216,0.00000039,0.00014220,-0.00
 012486,-0.00005671,-0.00003644,-0.00010229,0.00009058,-0.00025694,-0.0
 0025654,-0.00020064,0.00003211,-0.00009872,0.00004382,0.00004080,-0.00
 004317,0.00007098,-0.00001265,0.00002479,0.00001677,0.00001096,0.00002
 596,-0.00000065,0.00000668,-0.00005228,0.00002038,-0.00000363,-0.00000
 048,0.00000237,-0.00000271,0.00000835,-0.00001085,0.00010131,0.0001744
 9,-0.00007118,0.00048359,-0.00010675,0.00008025,0.00010113,0.00017372,
 0.00005335,-0.00028862,0.00006344,-0.00002967,-0.00009223,0.00004955,-
 0.00005141,-0.00000384,-0.00002125,0.00001577,-0.00000421,0.00000164,0
 .00000299,-0.00000025,0.00000074,-0.00000291,-0.00001738,0.00002663,-0
 .00002485,-0.00137008,-0.00025206,0.00049852,0.00031736,-0.00007062,-0
 .00030105,0.00050432,0.00043457,0.00000411,0.00051226,-0.00134920,0.00
 022691,0.00060444,-0.00023809,-0.00019515,0.00002473,0.00047942,0.0024
 2937,-0.00001280,-0.00000720,-0.00038081,0.00001021,0.00004842,0.00000
 945,0.01923997,0.00850719,0.00111291,-0.00002081,0.00032487,-0.0000557
 3,0.00066694,-0.00039448,0.00105304,0.00075443,-0.00051144,0.00030670,
 -0.00002355,0.00001992,-0.00004439,-0.00001753,0.00000205,-0.00001082,
 0.00001223,0.00001178,0.00001370,-0.00000374,-0.00000440,-0.00002932,0
 .00030585,0.00007645,0.00037293,0.00008520,-0.00005662,0.00014466,-0.0
 0003126,-0.00001853,-0.00013149,-0.00001437,0.00001553,-0.00003727,0.0
 0002974,-0.00001643,-0.00000406,0.00000356,0.00001122,0.00001515,-0.00
 001533,-0.00000009,-0.00000168,0.00000428,0.00001836,-0.00001381,0.000
 01915,0.00000453,0.00001567,0.00000168,0.00000185,-0.00000272,-0.00000
 636,0.00000056,-0.00000037,-0.00000145,-0.00000705,-0.00000303,-0.0000
 0526,0.00000172,-0.00000833,0.00000289,-0.00000224,0.00000079,-0.00000
 187,-0.00000023,0.00000045,0.00000090,0.00000259,0.00000277,-0.0000020
 7,-0.00002420,0.00000055,-0.00001432,0.00002884,-0.00001139,0.00000576
 ,-0.00000654,0.00000847,0.00000282,-0.00000515,0.00000401,-0.00000586,
 0.00000069,-0.00000670,0.00000061,0.00000288,-0.00000048,0.00002220,-0
 .00001733,0.00001367,-0.00000284,0.00000221,-0.00000130,0.00000034,0.0
 0000188,-0.00000040,-0.00000594,0.00000233,0.00000109,0.00021287,0.000
 06713,-0.00087375,-0.00002426,-0.00013651,0.00023742,-0.00014697,-0.00
 001153,0.00020307,0.00002011,0.00011117,0.00032078,-0.00950620,-0.0722
 3092,0.00306557,0.00577393,0.01165751,-0.00221773,-0.05983154,-0.02778
 679,0.00027609,0.04168395,0.08152775,0.00001248,0.00001554,-0.00001440
 ,0.00001531,-0.00001926,-0.00002414,0.00005168,-0.00001912,-0.00000630
 ,0.00002334,0.00001752,0.00001313,0.00001612,0.00000768,0.00000213,0.0
 0001027,-0.00001992,-0.00000174,0.00000347,0.00000822,-0.00000792,-0.0
 0000481,-0.00000188,0.00000157,-0.00000869,0.00000230,-0.00000164,0.00
 000406,0.00000390,-0.00000379,-0.00004857,0.00000789,0.00000098,-0.000
 03829,0.00002306,-0.00000880,-0.00001509,0.00001234,0.00002864,-0.0000
 1887,-0.00001005,0.00002679,-0.00002249,-0.00001593,0.00000354,0.00003
 143,-0.00004096,0.00001837,-0.00001754,0.00000537,-0.00001275,-0.00000
 032,0.00000573,-0.00000116,-0.00008432,-0.00001091,-0.00005205,-0.0000
 0078,0.00000668,-0.00001466,0.00000449,-0.00001699,0.00000557,0.000004
 25,0.00000556,-0.00000532,-0.00000789,0.00000283,0.00000564,0.00001200
 ,-0.00000415,-0.00001299,-0.00000197,0.00000108,0.00000136,-0.00000053
 ,0.00000296,0.,-0.00000276,-0.00000226,0.00000263,0.00000599,0.0000134
 4,-0.00000749,-0.00000173,-0.00000121,0.00000295,0.00000115,-0.0000007
 9,0.00000077,-0.00000181,-0.00000234,-0.00000043,0.00000774,0.00003249
 ,0.00001921,0.00002831,0.00008782,-0.00005898,0.00028459,0.00024748,0.
 00017047,-0.00001900,0.00006030,-0.00005312,-0.00001165,0.00005238,-0.
 00005932,0.00001422,-0.00003265,-0.00000654,-0.00000659,-0.00002094,-0
 .00000036,0.00000804,0.00003488,-0.00002044,0.00000446,0.00000098,-0.0
 0000267,-0.00000238,-0.00001106,0.00000885,-0.00012375,-0.00015656,0.0
 0007747,-0.00055857,0.00022807,-0.00007578,-0.00011438,-0.00010437,-0.
 00007639,-0.00006729,-0.00007905,0.00000368,0.00003281,-0.00005781,0.0
 0005469,0.00001744,0.00003441,-0.00001838,-0.00000623,-0.00000460,0.00
 000199,-0.00000004,-0.00000288,0.00000360,0.00000417,-0.00002478,0.000
 04635,0.00145136,-0.00000221,-0.00077271,-0.00031848,0.00015271,0.0004
 2288,-0.00056900,-0.00040724,0.00005574,-0.00133837,0.00077688,0.00030
 905,-0.00052440,0.00026126,0.00001104,-0.00027070,0.00120154,-0.003443
 09,-0.00037445,-0.00018051,0.00087499,-0.00006276,0.00000072,0.0000341
 7,-0.02066976,0.00142612,0.00941159,-0.00038793,0.00002459,0.00007023,
 -0.00071851,0.00005090,-0.00261282,-0.00217152,0.00069162,-0.00003130,
 0.00003496,-0.00003822,0.00007079,0.00001059,0.00000270,0.00000752,-0.
 00001219,-0.00001152,-0.00001589,0.00000821,0.00000279,0.00002419,0.00
 004781,0.00005606,-0.00002682,0.00001964,0.00005158,-0.00002217,0.0000
 1966,0.00000078,0.00006561,0.00000124,-0.00002070,-0.00000180,-0.00000
 511,0.00003067,-0.00000690,-0.00000204,0.00000212,-0.00000063,-0.00000
 039,-0.00000445,0.00000022,0.00000349,-0.00001184,0.00000615,-0.000012
 75,-0.00000597,-0.00003462,-0.00000060,-0.00000239,0.00000330,-0.00000
 136,0.00000206,0.00000333,0.00000356,0.00000344,-0.00000272,0.00000138
 ,-0.00000868,0.00000831,-0.00000328,0.00000283,-0.00000135,0.00000239,
 0.00000095,0.00000073,0.00000136,-0.00000141,-0.00000263,0.00002185,0.
 00002150,-0.00000224,-0.00001121,-0.00002742,0.00000208,0.00001304,0.0
 0001250,0.00000031,-0.00000781,0.00000320,0.00000209,0.00000373,-0.000
 00001,0.00000577,-0.00000175,-0.00000597,-0.00000251,0.00000202,0.0000
 1683,-0.00000345,0.00000055,-0.00000350,-0.00000281,-0.00000257,-0.000
 00160,0.00000264,-0.00000190,0.00000489,0.00000069,-0.00016086,-0.0003
 1003,0.00103712,0.00000421,0.00024835,-0.00028238,0.00014625,0.0000660
 1,-0.00025673,-0.00002219,-0.00008560,-0.00036472,0.00643575,0.0036594
 5,-0.07702535,0.05803898,-0.00168877,-0.02261483,-0.00082190,-0.000218
 26,0.01246306,-0.03720971,-0.00599916,0.08268402\\0.00000095,0.0000015
 1,-0.00000115,0.00000086,0.00000127,-0.00000023,0.00000247,0.00000219,
 0.00000059,0.00000097,0.00000184,-0.00000015,0.00000048,0.00000167,-0.
 00000095,0.00000136,0.00000037,0.00000044,0.00000022,0.00000065,-0.000
 00001,0.00000059,0.00000249,-0.00000060,0.00000138,0.00000280,-0.00000
 072,-0.00000040,0.00000199,-0.00000084,0.00000173,0.00000151,-0.000000
 52,0.00000203,0.00000168,0.00000046,0.00000120,0.00000130,0.00000039,-
 0.00000047,0.00000173,-0.00000078,0.00000083,0.00000369,-0.00000133,0.
 00000045,0.00000222,-0.00000013,0.00000116,0.00000260,-0.00000086,0.00
 000172,0.00000202,-0.00000010,0.00000187,0.00000079,-0.00000113,0.0000
 0035,0.00000020,0.00000021,0.00000152,0.00000018,0.00000072,0.00000041
 ,-0.00000034,0.00000043,0.00000099,0.00000003,0.00000045,0.,0.00000102
 ,-0.00000102,-0.00000035,0.00000265,-0.00000164,-0.00000009,0.00000188
 ,-0.00000073,-0.00000090,0.00000225,-0.00000184,-0.00000063,0.00000255
 ,-0.00000184,-0.00000073,0.00000287,-0.00000182,-0.00000137,0.00000204
 ,-0.00000169,-0.00000046,0.00000347,-0.00000227,-0.00000039,-0.0000013
 1,-0.00000030,0.00000094,0.00000125,0.00000105,0.,-0.00000111,-0.00000
 064,-0.00000134,-0.00000019,-0.00000063,-0.00000160,-0.00000099,-0.000
 00036,-0.00000030,0.00000050,0.00000079,-0.00000084,0.00000008,-0.0000
 0002,-0.00000070,-0.00000099,0.00000063,-0.00000148,-0.00000099,-0.000
 00068,-0.00000187,0.00000022,-0.00000077,-0.00000039,0.00000080,0.0000
 0017,0.00000175,-0.00000073,0.00000135,0.00000071,-0.00000049,0.000000
 36,-0.00000073,-0.00000091,-0.00000016,-0.00000206,-0.00000100,-0.0000
 0096,-0.00000243,0.00000057,-0.00000082,-0.00000127,0.00000042,-0.0000
 0162,-0.00000169,0.00000065,-0.00000249,-0.00000256,-0.00000015,-0.000
 00150,0.00000140,-0.00000074,0.00000181,0.00000057,-0.00000140,0.00000
 074,0.00000078,-0.00000102,-0.00000033,0.00000011,-0.00000183,0.000001
 46,0.00000135,-0.00000138,0.00000139,0.00000071,-0.00000261,0.00000085
 ,0.00000138,-0.00000268,0.00000204,0.00000183,-0.00000130,0.00000190,0
 .00000028,-0.00000303,0.00000132,-0.00000047,-0.00000270,0.00000188,0.
 00000054,-0.00000302,0.00000228,0.00000051,-0.00000336,0.00000217,0.00
 000068,-0.00000012,0.00000114,0.00000166,0.00000024,0.00000079,0.00000
 132,0.00000071,0.00000040,0.00000205,0.00000008,0.00000086,-0.00000064
 ,-0.00000189,0.00000112,-0.00000101,-0.00000220,0.00000037,0.00000002,
 -0.00000158,0.00000089,-0.00000092,-0.00000181,0.00000059,-0.00000328,
 -0.00000158,-0.00000017,-0.00000219,-0.00000135,-0.00000101,-0.0000026
 8,-0.00000063,-0.00000139,-0.00000316,-0.00000172,-0.00000109,-0.00000
 258,0.00000004,-0.00000123,-0.00000353,-0.00000094,-0.00000160,-0.0000
 0269,-0.00000044,-0.00000138,-0.00000286,-0.00000126,-0.00000087,0.000
 00339,0.00000177,0.00000039,0.00000322,0.00000260,0.00000051,0.0000028
 8,0.00000230,0.00000065,0.00000300,0.00000149,0.00000090,0.00000081,0.
 00000193,-0.00000079,-0.00000112,0.00000065,-0.00000070,-0.00000076,0.
 00000083,-0.00000085,0.00000015,0.00000009,-0.00000013,0.00000024,0.00
 000089,-0.00000025,-0.00000035,0.00000089,-0.00000077,-0.00000144,0.00
 000010,-0.00000093,-0.00000175,0.00000068,-0.00000118,-0.00000197,0.00
 000064,-0.00000149,-0.00000185,-0.00000029,-0.00000080,0.00000167,-0.0
 0000195,0.00000235,0.00000245,-0.00000183,0.00000235,0.00000186,-0.000
 00275,0.00000253,0.00000148,-0.00000161,0.00000167,-0.00000085,-0.0000
 0354,0.00000161,-0.00000081,-0.00000395,0.00000205,-0.00000119,-0.0000
 0384,0.00000104,-0.00000014,-0.00000433,0.00000219\\\@


 BULLDOZER: SOMEONE WHO SLEEPS THROUGH SPEECHES.
 Job cpu time:       4 days 20 hours 37 minutes 26.7 seconds.
 Elapsed time:       0 days  3 hours 49 minutes 21.7 seconds.
 File lengths (MBytes):  RWF=   9753 Int=      0 D2E=      0 Chk=     85 Scr=      1
 Normal termination of Gaussian 16 at Tue May  7 23:56:36 2019.
