 Entering Gaussian System, Link 0=g16
 Input=clay_new-glu_gluC6-BDDL-Na1a_1Me2O-bisCF3-ts-b3lyp_d3bj-631gd-pcm_thf.gjf
 Output=clay_new-glu_gluC6-BDDL-Na1a_1Me2O-bisCF3-ts-b3lyp_d3bj-631gd-pcm_thf.out
 Initial command:
 /home/ekwan/sw/g16/l1.exe "/scratch/users/ekwan/clay_new-glu_gluC6-BDDL-Na1a_1Me2O-bisCF3-ts-b3lyp_d3bj-631gd-pcm_thf/Gau-47917.inp" -scrdir="/scratch/users/ekwan/clay_new-glu_gluC6-BDDL-Na1a_1Me2O-bisCF3-ts-b3lyp_d3bj-631gd-pcm_thf/"
 Entering Link 1 = /home/ekwan/sw/g16/l1.exe PID=     47918.
  
 Copyright (c) 1988,1990,1992,1993,1995,1998,2003,2009,2016,
            Gaussian, Inc.  All Rights Reserved.
  
 This is part of the Gaussian(R) 16 program.  It is based on
 the Gaussian(R) 09 system (copyright 2009, Gaussian, Inc.),
 the Gaussian(R) 03 system (copyright 2003, Gaussian, Inc.),
 the Gaussian(R) 98 system (copyright 1998, Gaussian, Inc.),
 the Gaussian(R) 94 system (copyright 1995, Gaussian, Inc.),
 the Gaussian 92(TM) system (copyright 1992, Gaussian, Inc.),
 the Gaussian 90(TM) system (copyright 1990, Gaussian, Inc.),
 the Gaussian 88(TM) system (copyright 1988, Gaussian, Inc.),
 the Gaussian 86(TM) system (copyright 1986, Carnegie Mellon
 University), and the Gaussian 82(TM) system (copyright 1983,
 Carnegie Mellon University). Gaussian is a federally registered
 trademark of Gaussian, Inc.
  
 This software contains proprietary and confidential information,
 including trade secrets, belonging to Gaussian, Inc.
  
 This software is provided under written license and may be
 used, copied, transmitted, or stored only in accord with that
 written license.
  
 The following legend is applicable only to US Government
 contracts under FAR:
  
                    RESTRICTED RIGHTS LEGEND
  
 Use, reproduction and disclosure by the US Government is
 subject to restrictions as set forth in subparagraphs (a)
 and (c) of the Commercial Computer Software - Restricted
 Rights clause in FAR 52.227-19.
  
 Gaussian, Inc.
 340 Quinnipiac St., Bldg. 40, Wallingford CT 06492
  
  
 ---------------------------------------------------------------
 Warning -- This program may not be used in any manner that
 competes with the business of Gaussian, Inc. or will provide
 assistance to any competitor of Gaussian, Inc.  The licensee
 of this program is prohibited from giving any competitor of
 Gaussian, Inc. access to this program.  By using this program,
 the user acknowledges that Gaussian, Inc. is engaged in the
 business of creating and licensing software in the field of
 computational chemistry and represents and warrants to the
 licensee that it is not a competitor of Gaussian, Inc. and that
 it will not use this program in any manner prohibited above.
 ---------------------------------------------------------------
  

 Cite this work as:
 Gaussian 16, Revision A.03,
 M. J. Frisch, G. W. Trucks, H. B. Schlegel, G. E. Scuseria, 
 M. A. Robb, J. R. Cheeseman, G. Scalmani, V. Barone, 
 G. A. Petersson, H. Nakatsuji, X. Li, M. Caricato, A. V. Marenich, 
 J. Bloino, B. G. Janesko, R. Gomperts, B. Mennucci, H. P. Hratchian, 
 J. V. Ortiz, A. F. Izmaylov, J. L. Sonnenberg, D. Williams-Young, 
 F. Ding, F. Lipparini, F. Egidi, J. Goings, B. Peng, A. Petrone, 
 T. Henderson, D. Ranasinghe, V. G. Zakrzewski, J. Gao, N. Rega, 
 G. Zheng, W. Liang, M. Hada, M. Ehara, K. Toyota, R. Fukuda, 
 J. Hasegawa, M. Ishida, T. Nakajima, Y. Honda, O. Kitao, H. Nakai, 
 T. Vreven, K. Throssell, J. A. Montgomery, Jr., J. E. Peralta, 
 F. Ogliaro, M. J. Bearpark, J. J. Heyd, E. N. Brothers, K. N. Kudin, 
 V. N. Staroverov, T. A. Keith, R. Kobayashi, J. Normand, 
 K. Raghavachari, A. P. Rendell, J. C. Burant, S. S. Iyengar, 
 J. Tomasi, M. Cossi, J. M. Millam, M. Klene, C. Adamo, R. Cammi, 
 J. W. Ochterski, R. L. Martin, K. Morokuma, O. Farkas, 
 J. B. Foresman, and D. J. Fox, Gaussian, Inc., Wallingford CT, 2016.
 
 ******************************************
 Gaussian 16:  AS64L-G16RevA.03 25-Dec-2016
                 2-Jun-2019 
 ******************************************
 %mem=48GB
 %nprocshared=32
 Will use up to   32 processors via shared memory.
 ----------------------------------------------------------------------
 #p opt=(ts,noeigentest,calcfc,maxstep=10) freq=noraman b3lyp 6-31g* po
 p=none scrf=(solvent=tetrahydrofuran,pcm) empiricaldispersion=gd3bj
 ----------------------------------------------------------------------
 1/5=1,8=10,10=4,11=1,18=20,26=3,38=1/1,3;
 2/9=110,12=2,17=6,18=5,40=1/2;
 3/5=1,6=6,7=1,11=2,25=1,30=1,70=2201,71=2,72=20,74=-5,124=41,140=1/1,2,3;
 4//1;
 5/5=2,38=5,53=20/2;
 8/6=4,10=90,11=11/1;
 11/6=1,8=1,9=11,15=111,16=1/1,2,10;
 10/6=1,13=1/2;
 7/10=1,18=20,25=1/1,2,3,16;
 1/5=1,8=10,10=4,11=1,18=20,26=3/3(2);
 2/9=110/2;
 99//99;
 2/9=110/2;
 3/5=1,6=6,7=1,11=2,25=1,30=1,70=2205,71=1,72=20,74=-5,124=41/1,2,3;
 4/5=5,16=3,69=1/1;
 5/5=2,38=5,53=20/2;
 7//1,2,3,16;
 1/5=1,8=10,11=1,18=20,26=3/3(-5);
 2/9=110/2;
 99/9=1/99;
 Leave Link    1 at Sun Jun  2 09:15:34 2019, MaxMem=  6442450944 cpu:              36.8 elap:               1.3
 (Enter /home/ekwan/sw/g16/l101.exe)
 -----
 title
 -----
 Symbolic Z-matrix:
 Charge =  0 Multiplicity = 1
 C                    -5.35809  -1.44331  -1.01439 
 C                    -6.25769  -0.303    -1.49395 
 C                    -5.51656   1.04553  -1.47591 
 C                    -3.35266  -0.01445  -1.55121 
 C                    -3.98121  -1.40849  -1.68425 
 H                    -6.05849   1.80459  -2.05712 
 H                    -6.53075  -0.50399  -2.5421 
 H                    -5.20223  -1.34087   0.06583 
 H                    -3.20452   0.21971  -0.49038 
 H                    -4.08558  -1.63908  -2.75331 
 O                    -4.27653   0.9316   -2.13431 
 O                    -5.40357   1.45787  -0.14069 
 O                    -7.41766  -0.3149   -0.68145 
 O                    -5.96629  -2.69997  -1.29797 
 O                    -3.15242  -2.40326  -1.06698 
 C                    -2.02385   0.20025  -2.30801 
 H                    -1.91339   1.31163  -2.34817 
 H                    -2.20581  -0.09765  -3.36513 
 O                    -0.93276  -0.41551  -1.75625 
 C                    -8.44622   0.55576  -1.12303 
 H                    -8.18102   1.61083  -0.97389 
 H                    -8.68015   0.39353  -2.18552 
 H                    -9.33121   0.32811  -0.52414 
 C                    -6.64888  -3.28327  -0.19676 
 H                    -5.9667   -3.4449    0.65093 
 H                    -7.48698  -2.65974   0.13127 
 H                    -7.02416  -4.25164  -0.53826 
 C                    -3.09687  -3.64258  -1.77787 
 H                    -4.09848  -4.05331  -1.91913 
 H                    -2.60839  -3.50676  -2.75242 
 H                    -2.50243  -4.32592  -1.16513 
 C                    -0.00741   2.86781   1.02039 
 C                     0.17525   1.98859  -0.21807 
 C                     0.1985    0.52988   0.13532 
 C                    -0.99543   0.83362   2.18201 
 C                    -1.17499   2.31677   1.84234 
 H                     0.65955  -0.17139  -0.5276 
 H                    -0.72455   2.1213   -0.8394 
 H                     0.90596   2.84678   1.6263 
 H                    -0.14424   0.71948   2.85766 
 H                    -2.09726   2.43705   1.26502 
 O                    -0.67211   0.03899   0.99738 
 O                     1.79127  -1.81086   0.40159 
 O                     1.32586   2.34957  -0.94798 
 O                    -0.33954   4.19365   0.6521 
 O                    -1.26989   2.99113   3.08554 
 C                    -2.22138   0.21      2.81009 
 H                    -2.35849   0.66018   3.80352 
 H                    -2.05129  -0.86938   2.94618 
 O                    -3.34079   0.44493   1.98546 
 S                     2.50177  -0.84083   1.27845 
 O                     2.81488  -1.32767   2.63289 
 O                     1.79425   0.51807   1.30362 
 C                     4.0617   -0.4734    0.46927 
 C                     5.11629  -1.37006   0.61539 
 C                     4.18063   0.67308  -0.31548 
 C                     6.31407  -1.11904  -0.05433 
 H                     5.01066  -2.2408    1.25208 
 C                     5.38924   0.90996  -0.96923 
 H                     3.34575   1.36016  -0.40472 
 C                     6.4556    0.01767  -0.84818 
 H                     7.39046   0.21066  -1.36123 
 C                     1.19334   2.10269  -2.35613 
 H                     0.78163   1.10409  -2.53859 
 H                     0.53318   2.85359  -2.80986 
 H                     2.19417   2.19179  -2.77834 
 C                     0.77846   5.07085   0.55469 
 H                     1.30412   5.14428   1.51715 
 H                     1.48223   4.73796  -0.21468 
 H                     0.3796    6.0529    0.28965 
 C                    -2.35786   3.90592   3.16402 
 H                    -2.27699   4.6813    2.39476 
 H                    -3.31889   3.38405   3.05784 
 H                    -2.30743   4.36528   4.154 
 C                    -4.54067  -0.08654   2.52662 
 H                    -5.33642   0.18451   1.83341 
 H                    -4.48171  -1.18138   2.62013 
 H                    -4.74713   0.33864   3.51988 
 C                    -4.79523   2.73365   0.00978 
 H                    -4.8075    2.96151   1.07636 
 H                    -3.76064   2.72946  -0.34985 
 H                    -5.35793   3.50272  -0.53872 
 Na                   -1.04529  -1.99539  -0.22567 
 O                    -0.62782  -3.89004   1.04391 
 C                    -0.30876  -3.62404   2.40931 
 H                     0.66287  -3.12334   2.49162 
 H                    -1.09263  -2.97147   2.80107 
 H                    -0.29594  -4.55653   2.98923 
 C                     0.3202   -4.77501   0.44839 
 H                     0.32771  -5.73964   0.97302 
 H                     0.00871  -4.93218  -0.58724 
 H                     1.32292  -4.33305   0.46864 
 C                     5.59217   2.16496  -1.77358 
 F                     4.42927   2.79361  -2.04899 
 F                     6.20373   1.90525  -2.9507 
 F                     6.37487   3.05097  -1.11569 
 C                     7.44103  -2.11139   0.04096 
 F                     8.64443  -1.52348  -0.13017 
 F                     7.33393  -3.07354  -0.90487 
 F                     7.45692  -2.73656   1.23738 
 
 Add virtual bond connecting atoms O53        and C34        Dist= 3.74D+00.
 Add virtual bond connecting atoms H37        and O19        Dist= 3.83D+00.
 Add virtual bond connecting atoms H38        and H17        Dist= 3.94D+00.
 Add virtual bond connecting atoms O84        and Na83       Dist= 4.38D+00.
 Add virtual bond connecting atoms H87        and H49        Dist= 4.37D+00.
 ITRead=  0  0  0  0  0  0  0  0  0  0  0  0  0  0  0  0  0  0  0  0
 ITRead=  0  0  0  0  0  0  0  0  0  0  0  0  0  0  0  0  0  0  0  0
 ITRead=  0  0  0  0  0  0  0  0  0  0  0  0  0  0  0  0  0  0  0  0
 ITRead=  0  0  0  0  0  0  0  0  0  0  0  0  0  0  0  0  0  0  0  0
 ITRead=  0  0  0  0  0  0  0  0  0  0  0  0  0  0  0  0  0  0  0  0
 MicOpt= -1 -1 -1 -1 -1 -1 -1 -1 -1 -1 -1 -1 -1 -1 -1 -1 -1 -1 -1 -1
 MicOpt= -1 -1 -1 -1 -1 -1 -1 -1 -1 -1 -1 -1 -1 -1 -1 -1 -1 -1 -1 -1
 MicOpt= -1 -1 -1 -1 -1 -1 -1 -1 -1 -1 -1 -1 -1 -1 -1 -1 -1 -1 -1 -1
 MicOpt= -1 -1 -1 -1 -1 -1 -1 -1 -1 -1 -1 -1 -1 -1 -1 -1 -1 -1 -1 -1
 MicOpt= -1 -1 -1 -1 -1 -1 -1 -1 -1 -1 -1 -1 -1 -1 -1 -1 -1 -1 -1 -1
 NAtoms=    100 NQM=      100 NQMF=       0 NMMI=      0 NMMIF=      0
                NMic=       0 NMicF=      0.
                    Isotopes and Nuclear Properties:
 (Nuclear quadrupole moments (NQMom) in fm**2, nuclear magnetic moments (NMagM)
  in nuclear magnetons)

  Atom         1           2           3           4           5           6           7           8           9          10
 IAtWgt=          12          12          12          12          12           1           1           1           1           1
 AtmWgt=  12.0000000  12.0000000  12.0000000  12.0000000  12.0000000   1.0078250   1.0078250   1.0078250   1.0078250   1.0078250
 NucSpn=           0           0           0           0           0           1           1           1           1           1
 AtZEff=   0.0000000   0.0000000   0.0000000   0.0000000   0.0000000   0.0000000   0.0000000   0.0000000   0.0000000   0.0000000
 NQMom=    0.0000000   0.0000000   0.0000000   0.0000000   0.0000000   0.0000000   0.0000000   0.0000000   0.0000000   0.0000000
 NMagM=    0.0000000   0.0000000   0.0000000   0.0000000   0.0000000   2.7928460   2.7928460   2.7928460   2.7928460   2.7928460
 AtZNuc=   6.0000000   6.0000000   6.0000000   6.0000000   6.0000000   1.0000000   1.0000000   1.0000000   1.0000000   1.0000000

  Atom        11          12          13          14          15          16          17          18          19          20
 IAtWgt=          16          16          16          16          16          12           1           1          16          12
 AtmWgt=  15.9949146  15.9949146  15.9949146  15.9949146  15.9949146  12.0000000   1.0078250   1.0078250  15.9949146  12.0000000
 NucSpn=           0           0           0           0           0           0           1           1           0           0
 AtZEff=   0.0000000   0.0000000   0.0000000   0.0000000   0.0000000   0.0000000   0.0000000   0.0000000   0.0000000   0.0000000
 NQMom=    0.0000000   0.0000000   0.0000000   0.0000000   0.0000000   0.0000000   0.0000000   0.0000000   0.0000000   0.0000000
 NMagM=    0.0000000   0.0000000   0.0000000   0.0000000   0.0000000   0.0000000   2.7928460   2.7928460   0.0000000   0.0000000
 AtZNuc=   8.0000000   8.0000000   8.0000000   8.0000000   8.0000000   6.0000000   1.0000000   1.0000000   8.0000000   6.0000000

  Atom        21          22          23          24          25          26          27          28          29          30
 IAtWgt=           1           1           1          12           1           1           1          12           1           1
 AtmWgt=   1.0078250   1.0078250   1.0078250  12.0000000   1.0078250   1.0078250   1.0078250  12.0000000   1.0078250   1.0078250
 NucSpn=           1           1           1           0           1           1           1           0           1           1
 AtZEff=   0.0000000   0.0000000   0.0000000   0.0000000   0.0000000   0.0000000   0.0000000   0.0000000   0.0000000   0.0000000
 NQMom=    0.0000000   0.0000000   0.0000000   0.0000000   0.0000000   0.0000000   0.0000000   0.0000000   0.0000000   0.0000000
 NMagM=    2.7928460   2.7928460   2.7928460   0.0000000   2.7928460   2.7928460   2.7928460   0.0000000   2.7928460   2.7928460
 AtZNuc=   1.0000000   1.0000000   1.0000000   6.0000000   1.0000000   1.0000000   1.0000000   6.0000000   1.0000000   1.0000000

  Atom        31          32          33          34          35          36          37          38          39          40
 IAtWgt=           1          12          12          12          12          12           1           1           1           1
 AtmWgt=   1.0078250  12.0000000  12.0000000  12.0000000  12.0000000  12.0000000   1.0078250   1.0078250   1.0078250   1.0078250
 NucSpn=           1           0           0           0           0           0           1           1           1           1
 AtZEff=   0.0000000   0.0000000   0.0000000   0.0000000   0.0000000   0.0000000   0.0000000   0.0000000   0.0000000   0.0000000
 NQMom=    0.0000000   0.0000000   0.0000000   0.0000000   0.0000000   0.0000000   0.0000000   0.0000000   0.0000000   0.0000000
 NMagM=    2.7928460   0.0000000   0.0000000   0.0000000   0.0000000   0.0000000   2.7928460   2.7928460   2.7928460   2.7928460
 AtZNuc=   1.0000000   6.0000000   6.0000000   6.0000000   6.0000000   6.0000000   1.0000000   1.0000000   1.0000000   1.0000000

  Atom        41          42          43          44          45          46          47          48          49          50
 IAtWgt=           1          16          16          16          16          16          12           1           1          16
 AtmWgt=   1.0078250  15.9949146  15.9949146  15.9949146  15.9949146  15.9949146  12.0000000   1.0078250   1.0078250  15.9949146
 NucSpn=           1           0           0           0           0           0           0           1           1           0
 AtZEff=   0.0000000   0.0000000   0.0000000   0.0000000   0.0000000   0.0000000   0.0000000   0.0000000   0.0000000   0.0000000
 NQMom=    0.0000000   0.0000000   0.0000000   0.0000000   0.0000000   0.0000000   0.0000000   0.0000000   0.0000000   0.0000000
 NMagM=    2.7928460   0.0000000   0.0000000   0.0000000   0.0000000   0.0000000   0.0000000   2.7928460   2.7928460   0.0000000
 AtZNuc=   1.0000000   8.0000000   8.0000000   8.0000000   8.0000000   8.0000000   6.0000000   1.0000000   1.0000000   8.0000000

  Atom        51          52          53          54          55          56          57          58          59          60
 IAtWgt=          32          16          16          12          12          12          12           1          12           1
 AtmWgt=  31.9720718  15.9949146  15.9949146  12.0000000  12.0000000  12.0000000  12.0000000   1.0078250  12.0000000   1.0078250
 NucSpn=           0           0           0           0           0           0           0           1           0           1
 AtZEff=   0.0000000   0.0000000   0.0000000   0.0000000   0.0000000   0.0000000   0.0000000   0.0000000   0.0000000   0.0000000
 NQMom=    0.0000000   0.0000000   0.0000000   0.0000000   0.0000000   0.0000000   0.0000000   0.0000000   0.0000000   0.0000000
 NMagM=    0.0000000   0.0000000   0.0000000   0.0000000   0.0000000   0.0000000   0.0000000   2.7928460   0.0000000   2.7928460
 AtZNuc=  16.0000000   8.0000000   8.0000000   6.0000000   6.0000000   6.0000000   6.0000000   1.0000000   6.0000000   1.0000000

  Atom        61          62          63          64          65          66          67          68          69          70
 IAtWgt=          12           1          12           1           1           1          12           1           1           1
 AtmWgt=  12.0000000   1.0078250  12.0000000   1.0078250   1.0078250   1.0078250  12.0000000   1.0078250   1.0078250   1.0078250
 NucSpn=           0           1           0           1           1           1           0           1           1           1
 AtZEff=   0.0000000   0.0000000   0.0000000   0.0000000   0.0000000   0.0000000   0.0000000   0.0000000   0.0000000   0.0000000
 NQMom=    0.0000000   0.0000000   0.0000000   0.0000000   0.0000000   0.0000000   0.0000000   0.0000000   0.0000000   0.0000000
 NMagM=    0.0000000   2.7928460   0.0000000   2.7928460   2.7928460   2.7928460   0.0000000   2.7928460   2.7928460   2.7928460
 AtZNuc=   6.0000000   1.0000000   6.0000000   1.0000000   1.0000000   1.0000000   6.0000000   1.0000000   1.0000000   1.0000000

  Atom        71          72          73          74          75          76          77          78          79          80
 IAtWgt=          12           1           1           1          12           1           1           1          12           1
 AtmWgt=  12.0000000   1.0078250   1.0078250   1.0078250  12.0000000   1.0078250   1.0078250   1.0078250  12.0000000   1.0078250
 NucSpn=           0           1           1           1           0           1           1           1           0           1
 AtZEff=   0.0000000   0.0000000   0.0000000   0.0000000   0.0000000   0.0000000   0.0000000   0.0000000   0.0000000   0.0000000
 NQMom=    0.0000000   0.0000000   0.0000000   0.0000000   0.0000000   0.0000000   0.0000000   0.0000000   0.0000000   0.0000000
 NMagM=    0.0000000   2.7928460   2.7928460   2.7928460   0.0000000   2.7928460   2.7928460   2.7928460   0.0000000   2.7928460
 AtZNuc=   6.0000000   1.0000000   1.0000000   1.0000000   6.0000000   1.0000000   1.0000000   1.0000000   6.0000000   1.0000000

  Atom        81          82          83          84          85          86          87          88          89          90
 IAtWgt=           1           1          23          16          12           1           1           1          12           1
 AtmWgt=   1.0078250   1.0078250  22.9897697  15.9949146  12.0000000   1.0078250   1.0078250   1.0078250  12.0000000   1.0078250
 NucSpn=           1           1           3           0           0           1           1           1           0           1
 AtZEff=   0.0000000   0.0000000   0.0000000   0.0000000   0.0000000   0.0000000   0.0000000   0.0000000   0.0000000   0.0000000
 NQMom=    0.0000000   0.0000000  10.4000000   0.0000000   0.0000000   0.0000000   0.0000000   0.0000000   0.0000000   0.0000000
 NMagM=    2.7928460   2.7928460   2.2175200   0.0000000   0.0000000   2.7928460   2.7928460   2.7928460   0.0000000   2.7928460
 AtZNuc=   1.0000000   1.0000000  11.0000000   8.0000000   6.0000000   1.0000000   1.0000000   1.0000000   6.0000000   1.0000000

  Atom        91          92          93          94          95          96          97          98          99         100
 IAtWgt=           1           1          12          19          19          19          12          19          19          19
 AtmWgt=   1.0078250   1.0078250  12.0000000  18.9984033  18.9984033  18.9984033  12.0000000  18.9984033  18.9984033  18.9984033
 NucSpn=           1           1           0           1           1           1           0           1           1           1
 AtZEff=   0.0000000   0.0000000   0.0000000   0.0000000   0.0000000   0.0000000   0.0000000   0.0000000   0.0000000   0.0000000
 NQMom=    0.0000000   0.0000000   0.0000000   0.0000000   0.0000000   0.0000000   0.0000000   0.0000000   0.0000000   0.0000000
 NMagM=    2.7928460   2.7928460   0.0000000   2.6288670   2.6288670   2.6288670   0.0000000   2.6288670   2.6288670   2.6288670
 AtZNuc=   1.0000000   1.0000000   6.0000000   9.0000000   9.0000000   9.0000000   6.0000000   9.0000000   9.0000000   9.0000000
 Leave Link  101 at Sun Jun  2 09:15:37 2019, MaxMem=  6442450944 cpu:              17.9 elap:               2.3
 (Enter /home/ekwan/sw/g16/l103.exe)

 GradGradGradGradGradGradGradGradGradGradGradGradGradGradGradGradGradGrad
 Berny optimization.
 Initialization pass.
                           ----------------------------
                           !    Initial Parameters    !
                           ! (Angstroms and Degrees)  !
 --------------------------                            --------------------------
 ! Name  Definition              Value          Derivative Info.                !
 --------------------------------------------------------------------------------
 ! R1    R(1,2)                  1.5296         calculate D2E/DX2 analytically  !
 ! R2    R(1,5)                  1.5316         calculate D2E/DX2 analytically  !
 ! R3    R(1,8)                  1.0962         calculate D2E/DX2 analytically  !
 ! R4    R(1,14)                 1.4246         calculate D2E/DX2 analytically  !
 ! R5    R(2,3)                  1.5389         calculate D2E/DX2 analytically  !
 ! R6    R(2,7)                  1.1016         calculate D2E/DX2 analytically  !
 ! R7    R(2,13)                 1.4163         calculate D2E/DX2 analytically  !
 ! R8    R(3,6)                  1.0989         calculate D2E/DX2 analytically  !
 ! R9    R(3,11)                 1.4086         calculate D2E/DX2 analytically  !
 ! R10   R(3,12)                 1.402          calculate D2E/DX2 analytically  !
 ! R11   R(4,5)                  1.535          calculate D2E/DX2 analytically  !
 ! R12   R(4,9)                  1.0964         calculate D2E/DX2 analytically  !
 ! R13   R(4,11)                 1.4452         calculate D2E/DX2 analytically  !
 ! R14   R(4,16)                 1.5442         calculate D2E/DX2 analytically  !
 ! R15   R(5,10)                 1.0986         calculate D2E/DX2 analytically  !
 ! R16   R(5,15)                 1.4344         calculate D2E/DX2 analytically  !
 ! R17   R(12,79)                1.4214         calculate D2E/DX2 analytically  !
 ! R18   R(13,20)                1.4181         calculate D2E/DX2 analytically  !
 ! R19   R(14,24)                1.4209         calculate D2E/DX2 analytically  !
 ! R20   R(15,28)                1.4298         calculate D2E/DX2 analytically  !
 ! R21   R(16,17)                1.1176         calculate D2E/DX2 analytically  !
 ! R22   R(16,18)                1.1133         calculate D2E/DX2 analytically  !
 ! R23   R(16,19)                1.369          calculate D2E/DX2 analytically  !
 ! R24   R(17,38)                2.0845         calculate D2E/DX2 analytically  !
 ! R25   R(19,37)                2.026          calculate D2E/DX2 analytically  !
 ! R26   R(19,83)                2.2026         calculate D2E/DX2 analytically  !
 ! R27   R(20,21)                1.0981         calculate D2E/DX2 analytically  !
 ! R28   R(20,22)                1.1            calculate D2E/DX2 analytically  !
 ! R29   R(20,23)                1.0926         calculate D2E/DX2 analytically  !
 ! R30   R(24,25)                1.1            calculate D2E/DX2 analytically  !
 ! R31   R(24,26)                1.0949         calculate D2E/DX2 analytically  !
 ! R32   R(24,27)                1.0933         calculate D2E/DX2 analytically  !
 ! R33   R(28,29)                1.0917         calculate D2E/DX2 analytically  !
 ! R34   R(28,30)                1.0985         calculate D2E/DX2 analytically  !
 ! R35   R(28,31)                1.0935         calculate D2E/DX2 analytically  !
 ! R36   R(32,33)                1.5298         calculate D2E/DX2 analytically  !
 ! R37   R(32,36)                1.5305         calculate D2E/DX2 analytically  !
 ! R38   R(32,39)                1.0963         calculate D2E/DX2 analytically  !
 ! R39   R(32,45)                1.4156         calculate D2E/DX2 analytically  !
 ! R40   R(33,34)                1.5011         calculate D2E/DX2 analytically  !
 ! R41   R(33,38)                1.1015         calculate D2E/DX2 analytically  !
 ! R42   R(33,44)                1.4096         calculate D2E/DX2 analytically  !
 ! R43   R(34,37)                1.0695         calculate D2E/DX2 analytically  !
 ! R44   R(34,42)                1.3199         calculate D2E/DX2 analytically  !
 ! R45   R(34,53)                1.9778         calculate D2E/DX2 analytically  !
 ! R46   R(35,36)                1.5321         calculate D2E/DX2 analytically  !
 ! R47   R(35,40)                1.0927         calculate D2E/DX2 analytically  !
 ! R48   R(35,42)                1.4626         calculate D2E/DX2 analytically  !
 ! R49   R(35,47)                1.5121         calculate D2E/DX2 analytically  !
 ! R50   R(36,41)                1.0947         calculate D2E/DX2 analytically  !
 ! R51   R(36,46)                1.4175         calculate D2E/DX2 analytically  !
 ! R52   R(43,51)                1.4882         calculate D2E/DX2 analytically  !
 ! R53   R(44,63)                1.4358         calculate D2E/DX2 analytically  !
 ! R54   R(45,67)                1.4244         calculate D2E/DX2 analytically  !
 ! R55   R(46,71)                1.4236         calculate D2E/DX2 analytically  !
 ! R56   R(47,48)                1.0993         calculate D2E/DX2 analytically  !
 ! R57   R(47,49)                1.1011         calculate D2E/DX2 analytically  !
 ! R58   R(47,50)                1.4101         calculate D2E/DX2 analytically  !
 ! R59   R(49,87)                2.3149         calculate D2E/DX2 analytically  !
 ! R60   R(50,75)                1.4195         calculate D2E/DX2 analytically  !
 ! R61   R(51,52)                1.4729         calculate D2E/DX2 analytically  !
 ! R62   R(51,53)                1.5323         calculate D2E/DX2 analytically  !
 ! R63   R(51,54)                1.7953         calculate D2E/DX2 analytically  !
 ! R64   R(54,55)                1.3919         calculate D2E/DX2 analytically  !
 ! R65   R(54,56)                1.3944         calculate D2E/DX2 analytically  !
 ! R66   R(55,57)                1.3951         calculate D2E/DX2 analytically  !
 ! R67   R(55,58)                1.0838         calculate D2E/DX2 analytically  !
 ! R68   R(56,59)                1.3944         calculate D2E/DX2 analytically  !
 ! R69   R(56,60)                1.0849         calculate D2E/DX2 analytically  !
 ! R70   R(57,61)                1.3937         calculate D2E/DX2 analytically  !
 ! R71   R(57,97)                1.5046         calculate D2E/DX2 analytically  !
 ! R72   R(59,61)                1.3957         calculate D2E/DX2 analytically  !
 ! R73   R(59,93)                1.5044         calculate D2E/DX2 analytically  !
 ! R74   R(61,62)                1.0837         calculate D2E/DX2 analytically  !
 ! R75   R(63,64)                1.0954         calculate D2E/DX2 analytically  !
 ! R76   R(63,65)                1.098          calculate D2E/DX2 analytically  !
 ! R77   R(63,66)                1.0899         calculate D2E/DX2 analytically  !
 ! R78   R(67,68)                1.0991         calculate D2E/DX2 analytically  !
 ! R79   R(67,69)                1.0946         calculate D2E/DX2 analytically  !
 ! R80   R(67,70)                1.0926         calculate D2E/DX2 analytically  !
 ! R81   R(71,72)                1.0952         calculate D2E/DX2 analytically  !
 ! R82   R(71,73)                1.0987         calculate D2E/DX2 analytically  !
 ! R83   R(71,74)                1.0925         calculate D2E/DX2 analytically  !
 ! R84   R(75,76)                1.0896         calculate D2E/DX2 analytically  !
 ! R85   R(75,77)                1.1004         calculate D2E/DX2 analytically  !
 ! R86   R(75,78)                1.1            calculate D2E/DX2 analytically  !
 ! R87   R(79,80)                1.0907         calculate D2E/DX2 analytically  !
 ! R88   R(79,81)                1.0953         calculate D2E/DX2 analytically  !
 ! R89   R(79,82)                1.0995         calculate D2E/DX2 analytically  !
 ! R90   R(83,84)                2.3186         calculate D2E/DX2 analytically  !
 ! R91   R(84,85)                1.4272         calculate D2E/DX2 analytically  !
 ! R92   R(84,89)                1.4271         calculate D2E/DX2 analytically  !
 ! R93   R(85,86)                1.0961         calculate D2E/DX2 analytically  !
 ! R94   R(85,87)                1.0926         calculate D2E/DX2 analytically  !
 ! R95   R(85,88)                1.0982         calculate D2E/DX2 analytically  !
 ! R96   R(89,90)                1.0981         calculate D2E/DX2 analytically  !
 ! R97   R(89,91)                1.0928         calculate D2E/DX2 analytically  !
 ! R98   R(89,92)                1.096          calculate D2E/DX2 analytically  !
 ! R99   R(93,94)                1.3503         calculate D2E/DX2 analytically  !
 ! R100  R(93,95)                1.3517         calculate D2E/DX2 analytically  !
 ! R101  R(93,96)                1.3529         calculate D2E/DX2 analytically  !
 ! R102  R(97,98)                1.3502         calculate D2E/DX2 analytically  !
 ! R103  R(97,99)                1.3534         calculate D2E/DX2 analytically  !
 ! R104  R(97,100)               1.35           calculate D2E/DX2 analytically  !
 ! A1    A(2,1,5)              112.0033         calculate D2E/DX2 analytically  !
 ! A2    A(2,1,8)              108.8391         calculate D2E/DX2 analytically  !
 ! A3    A(2,1,14)             110.1281         calculate D2E/DX2 analytically  !
 ! A4    A(5,1,8)              107.5201         calculate D2E/DX2 analytically  !
 ! A5    A(5,1,14)             108.4696         calculate D2E/DX2 analytically  !
 ! A6    A(8,1,14)             109.8336         calculate D2E/DX2 analytically  !
 ! A7    A(1,2,3)              111.4921         calculate D2E/DX2 analytically  !
 ! A8    A(1,2,7)              107.9432         calculate D2E/DX2 analytically  !
 ! A9    A(1,2,13)             107.1922         calculate D2E/DX2 analytically  !
 ! A10   A(3,2,7)              106.8821         calculate D2E/DX2 analytically  !
 ! A11   A(3,2,13)             113.2712         calculate D2E/DX2 analytically  !
 ! A12   A(7,2,13)             109.9562         calculate D2E/DX2 analytically  !
 ! A13   A(2,3,6)              111.1977         calculate D2E/DX2 analytically  !
 ! A14   A(2,3,11)             110.3417         calculate D2E/DX2 analytically  !
 ! A15   A(2,3,12)             107.9212         calculate D2E/DX2 analytically  !
 ! A16   A(6,3,11)             104.0508         calculate D2E/DX2 analytically  !
 ! A17   A(6,3,12)             109.8941         calculate D2E/DX2 analytically  !
 ! A18   A(11,3,12)            113.4529         calculate D2E/DX2 analytically  !
 ! A19   A(5,4,9)              109.4595         calculate D2E/DX2 analytically  !
 ! A20   A(5,4,11)             107.3241         calculate D2E/DX2 analytically  !
 ! A21   A(5,4,16)             115.8594         calculate D2E/DX2 analytically  !
 ! A22   A(9,4,11)             109.6909         calculate D2E/DX2 analytically  !
 ! A23   A(9,4,16)             109.161          calculate D2E/DX2 analytically  !
 ! A24   A(11,4,16)            105.1504         calculate D2E/DX2 analytically  !
 ! A25   A(1,5,4)              110.5409         calculate D2E/DX2 analytically  !
 ! A26   A(1,5,10)             109.5978         calculate D2E/DX2 analytically  !
 ! A27   A(1,5,15)             108.3884         calculate D2E/DX2 analytically  !
 ! A28   A(4,5,10)             108.2922         calculate D2E/DX2 analytically  !
 ! A29   A(4,5,15)             110.8514         calculate D2E/DX2 analytically  !
 ! A30   A(10,5,15)            109.1526         calculate D2E/DX2 analytically  !
 ! A31   A(3,11,4)             115.2855         calculate D2E/DX2 analytically  !
 ! A32   A(3,12,79)            113.5339         calculate D2E/DX2 analytically  !
 ! A33   A(2,13,20)            114.2208         calculate D2E/DX2 analytically  !
 ! A34   A(1,14,24)            114.3902         calculate D2E/DX2 analytically  !
 ! A35   A(5,15,28)            114.1802         calculate D2E/DX2 analytically  !
 ! A36   A(4,16,17)            103.9408         calculate D2E/DX2 analytically  !
 ! A37   A(4,16,18)            106.7091         calculate D2E/DX2 analytically  !
 ! A38   A(4,16,19)            115.1997         calculate D2E/DX2 analytically  !
 ! A39   A(17,16,18)           104.3679         calculate D2E/DX2 analytically  !
 ! A40   A(17,16,19)           112.5204         calculate D2E/DX2 analytically  !
 ! A41   A(18,16,19)           113.1186         calculate D2E/DX2 analytically  !
 ! A42   A(16,17,38)           114.6218         calculate D2E/DX2 analytically  !
 ! A43   A(16,19,37)           144.7498         calculate D2E/DX2 analytically  !
 ! A44   A(16,19,83)           124.1941         calculate D2E/DX2 analytically  !
 ! A45   A(37,19,83)            72.8519         calculate D2E/DX2 analytically  !
 ! A46   A(13,20,21)           111.8672         calculate D2E/DX2 analytically  !
 ! A47   A(13,20,22)           111.3762         calculate D2E/DX2 analytically  !
 ! A48   A(13,20,23)           106.7919         calculate D2E/DX2 analytically  !
 ! A49   A(21,20,22)           108.9211         calculate D2E/DX2 analytically  !
 ! A50   A(21,20,23)           108.7459         calculate D2E/DX2 analytically  !
 ! A51   A(22,20,23)           109.0555         calculate D2E/DX2 analytically  !
 ! A52   A(14,24,25)           111.0782         calculate D2E/DX2 analytically  !
 ! A53   A(14,24,26)           111.4779         calculate D2E/DX2 analytically  !
 ! A54   A(14,24,27)           106.645          calculate D2E/DX2 analytically  !
 ! A55   A(25,24,26)           109.1174         calculate D2E/DX2 analytically  !
 ! A56   A(25,24,27)           108.871          calculate D2E/DX2 analytically  !
 ! A57   A(26,24,27)           109.5886         calculate D2E/DX2 analytically  !
 ! A58   A(15,28,29)           110.7806         calculate D2E/DX2 analytically  !
 ! A59   A(15,28,30)           110.5599         calculate D2E/DX2 analytically  !
 ! A60   A(15,28,31)           106.5096         calculate D2E/DX2 analytically  !
 ! A61   A(29,28,30)           109.8572         calculate D2E/DX2 analytically  !
 ! A62   A(29,28,31)           109.6412         calculate D2E/DX2 analytically  !
 ! A63   A(30,28,31)           109.4286         calculate D2E/DX2 analytically  !
 ! A64   A(33,32,36)           108.5986         calculate D2E/DX2 analytically  !
 ! A65   A(33,32,39)           109.691          calculate D2E/DX2 analytically  !
 ! A66   A(33,32,45)           110.8363         calculate D2E/DX2 analytically  !
 ! A67   A(36,32,39)           109.3816         calculate D2E/DX2 analytically  !
 ! A68   A(36,32,45)           107.3344         calculate D2E/DX2 analytically  !
 ! A69   A(39,32,45)           110.9315         calculate D2E/DX2 analytically  !
 ! A70   A(32,33,34)           111.7016         calculate D2E/DX2 analytically  !
 ! A71   A(32,33,38)           106.8506         calculate D2E/DX2 analytically  !
 ! A72   A(32,33,44)           111.6843         calculate D2E/DX2 analytically  !
 ! A73   A(34,33,38)           105.2198         calculate D2E/DX2 analytically  !
 ! A74   A(34,33,44)           110.9848         calculate D2E/DX2 analytically  !
 ! A75   A(38,33,44)           110.1123         calculate D2E/DX2 analytically  !
 ! A76   A(33,34,37)           119.8641         calculate D2E/DX2 analytically  !
 ! A77   A(33,34,42)           120.3294         calculate D2E/DX2 analytically  !
 ! A78   A(33,34,53)            99.054          calculate D2E/DX2 analytically  !
 ! A79   A(37,34,42)           116.4445         calculate D2E/DX2 analytically  !
 ! A80   A(37,34,53)            90.8256         calculate D2E/DX2 analytically  !
 ! A81   A(42,34,53)            98.2887         calculate D2E/DX2 analytically  !
 ! A82   A(36,35,40)           109.2379         calculate D2E/DX2 analytically  !
 ! A83   A(36,35,42)           111.856          calculate D2E/DX2 analytically  !
 ! A84   A(36,35,47)           113.3486         calculate D2E/DX2 analytically  !
 ! A85   A(40,35,42)           105.7739         calculate D2E/DX2 analytically  !
 ! A86   A(40,35,47)           109.3686         calculate D2E/DX2 analytically  !
 ! A87   A(42,35,47)           106.9526         calculate D2E/DX2 analytically  !
 ! A88   A(32,36,35)           112.2215         calculate D2E/DX2 analytically  !
 ! A89   A(32,36,41)           108.6587         calculate D2E/DX2 analytically  !
 ! A90   A(32,36,46)           110.5356         calculate D2E/DX2 analytically  !
 ! A91   A(35,36,41)           108.7852         calculate D2E/DX2 analytically  !
 ! A92   A(35,36,46)           105.8991         calculate D2E/DX2 analytically  !
 ! A93   A(41,36,46)           110.7233         calculate D2E/DX2 analytically  !
 ! A94   A(19,37,34)            96.6665         calculate D2E/DX2 analytically  !
 ! A95   A(17,38,33)           145.8283         calculate D2E/DX2 analytically  !
 ! A96   A(34,42,35)           118.2125         calculate D2E/DX2 analytically  !
 ! A97   A(33,44,63)           112.8597         calculate D2E/DX2 analytically  !
 ! A98   A(32,45,67)           114.2326         calculate D2E/DX2 analytically  !
 ! A99   A(36,46,71)           113.9047         calculate D2E/DX2 analytically  !
 ! A100  A(35,47,48)           107.9151         calculate D2E/DX2 analytically  !
 ! A101  A(35,47,49)           109.2921         calculate D2E/DX2 analytically  !
 ! A102  A(35,47,50)           109.3913         calculate D2E/DX2 analytically  !
 ! A103  A(48,47,49)           107.9999         calculate D2E/DX2 analytically  !
 ! A104  A(48,47,50)           111.1776         calculate D2E/DX2 analytically  !
 ! A105  A(49,47,50)           110.9912         calculate D2E/DX2 analytically  !
 ! A106  A(47,49,87)           161.1444         calculate D2E/DX2 analytically  !
 ! A107  A(47,50,75)           112.688          calculate D2E/DX2 analytically  !
 ! A108  A(43,51,52)           115.3323         calculate D2E/DX2 analytically  !
 ! A109  A(43,51,53)           111.5497         calculate D2E/DX2 analytically  !
 ! A110  A(43,51,54)           106.4194         calculate D2E/DX2 analytically  !
 ! A111  A(52,51,53)           112.097          calculate D2E/DX2 analytically  !
 ! A112  A(52,51,54)           107.3009         calculate D2E/DX2 analytically  !
 ! A113  A(53,51,54)           103.1266         calculate D2E/DX2 analytically  !
 ! A114  A(34,53,51)           111.6017         calculate D2E/DX2 analytically  !
 ! A115  A(51,54,55)           118.6298         calculate D2E/DX2 analytically  !
 ! A116  A(51,54,56)           119.7377         calculate D2E/DX2 analytically  !
 ! A117  A(55,54,56)           121.6079         calculate D2E/DX2 analytically  !
 ! A118  A(54,55,57)           118.9593         calculate D2E/DX2 analytically  !
 ! A119  A(54,55,58)           120.3546         calculate D2E/DX2 analytically  !
 ! A120  A(57,55,58)           120.6796         calculate D2E/DX2 analytically  !
 ! A121  A(54,56,59)           118.5196         calculate D2E/DX2 analytically  !
 ! A122  A(54,56,60)           120.0895         calculate D2E/DX2 analytically  !
 ! A123  A(59,56,60)           121.3905         calculate D2E/DX2 analytically  !
 ! A124  A(55,57,61)           120.49           calculate D2E/DX2 analytically  !
 ! A125  A(55,57,97)           119.6041         calculate D2E/DX2 analytically  !
 ! A126  A(61,57,97)           119.8643         calculate D2E/DX2 analytically  !
 ! A127  A(56,59,61)           120.863          calculate D2E/DX2 analytically  !
 ! A128  A(56,59,93)           120.6186         calculate D2E/DX2 analytically  !
 ! A129  A(61,59,93)           118.4664         calculate D2E/DX2 analytically  !
 ! A130  A(57,61,59)           119.555          calculate D2E/DX2 analytically  !
 ! A131  A(57,61,62)           120.166          calculate D2E/DX2 analytically  !
 ! A132  A(59,61,62)           120.2772         calculate D2E/DX2 analytically  !
 ! A133  A(44,63,64)           110.7813         calculate D2E/DX2 analytically  !
 ! A134  A(44,63,65)           110.0721         calculate D2E/DX2 analytically  !
 ! A135  A(44,63,66)           106.3268         calculate D2E/DX2 analytically  !
 ! A136  A(64,63,65)           109.1859         calculate D2E/DX2 analytically  !
 ! A137  A(64,63,66)           110.8011         calculate D2E/DX2 analytically  !
 ! A138  A(65,63,66)           109.6413         calculate D2E/DX2 analytically  !
 ! A139  A(45,67,68)           110.8942         calculate D2E/DX2 analytically  !
 ! A140  A(45,67,69)           111.4349         calculate D2E/DX2 analytically  !
 ! A141  A(45,67,70)           106.4747         calculate D2E/DX2 analytically  !
 ! A142  A(68,67,69)           109.1671         calculate D2E/DX2 analytically  !
 ! A143  A(68,67,70)           109.0848         calculate D2E/DX2 analytically  !
 ! A144  A(69,67,70)           109.7292         calculate D2E/DX2 analytically  !
 ! A145  A(46,71,72)           111.0861         calculate D2E/DX2 analytically  !
 ! A146  A(46,71,73)           110.9721         calculate D2E/DX2 analytically  !
 ! A147  A(46,71,74)           106.5501         calculate D2E/DX2 analytically  !
 ! A148  A(72,71,73)           109.4495         calculate D2E/DX2 analytically  !
 ! A149  A(72,71,74)           109.5958         calculate D2E/DX2 analytically  !
 ! A150  A(73,71,74)           109.126          calculate D2E/DX2 analytically  !
 ! A151  A(50,75,76)           106.3578         calculate D2E/DX2 analytically  !
 ! A152  A(50,75,77)           111.0764         calculate D2E/DX2 analytically  !
 ! A153  A(50,75,78)           110.9881         calculate D2E/DX2 analytically  !
 ! A154  A(76,75,77)           109.9193         calculate D2E/DX2 analytically  !
 ! A155  A(76,75,78)           109.9533         calculate D2E/DX2 analytically  !
 ! A156  A(77,75,78)           108.5361         calculate D2E/DX2 analytically  !
 ! A157  A(12,79,80)           106.6314         calculate D2E/DX2 analytically  !
 ! A158  A(12,79,81)           111.4735         calculate D2E/DX2 analytically  !
 ! A159  A(12,79,82)           110.8528         calculate D2E/DX2 analytically  !
 ! A160  A(80,79,81)           109.4198         calculate D2E/DX2 analytically  !
 ! A161  A(80,79,82)           109.6293         calculate D2E/DX2 analytically  !
 ! A162  A(81,79,82)           108.8007         calculate D2E/DX2 analytically  !
 ! A163  A(19,83,84)           163.2253         calculate D2E/DX2 analytically  !
 ! A164  A(83,84,85)           114.3189         calculate D2E/DX2 analytically  !
 ! A165  A(83,84,89)           113.4438         calculate D2E/DX2 analytically  !
 ! A166  A(85,84,89)           111.4875         calculate D2E/DX2 analytically  !
 ! A167  A(84,85,86)           110.8023         calculate D2E/DX2 analytically  !
 ! A168  A(84,85,87)           107.0949         calculate D2E/DX2 analytically  !
 ! A169  A(84,85,88)           110.4605         calculate D2E/DX2 analytically  !
 ! A170  A(86,85,87)           109.6453         calculate D2E/DX2 analytically  !
 ! A171  A(86,85,88)           109.7466         calculate D2E/DX2 analytically  !
 ! A172  A(87,85,88)           109.0367         calculate D2E/DX2 analytically  !
 ! A173  A(49,87,85)           149.534          calculate D2E/DX2 analytically  !
 ! A174  A(84,89,90)           110.4831         calculate D2E/DX2 analytically  !
 ! A175  A(84,89,91)           107.1755         calculate D2E/DX2 analytically  !
 ! A176  A(84,89,92)           110.4871         calculate D2E/DX2 analytically  !
 ! A177  A(90,89,91)           109.1699         calculate D2E/DX2 analytically  !
 ! A178  A(90,89,92)           109.8255         calculate D2E/DX2 analytically  !
 ! A179  A(91,89,92)           109.6505         calculate D2E/DX2 analytically  !
 ! A180  A(59,93,94)           112.4114         calculate D2E/DX2 analytically  !
 ! A181  A(59,93,95)           111.4915         calculate D2E/DX2 analytically  !
 ! A182  A(59,93,96)           111.3685         calculate D2E/DX2 analytically  !
 ! A183  A(94,93,95)           107.546          calculate D2E/DX2 analytically  !
 ! A184  A(94,93,96)           107.0088         calculate D2E/DX2 analytically  !
 ! A185  A(95,93,96)           106.7109         calculate D2E/DX2 analytically  !
 ! A186  A(57,97,98)           111.8612         calculate D2E/DX2 analytically  !
 ! A187  A(57,97,99)           111.4279         calculate D2E/DX2 analytically  !
 ! A188  A(57,97,100)          111.7382         calculate D2E/DX2 analytically  !
 ! A189  A(98,97,99)           106.947          calculate D2E/DX2 analytically  !
 ! A190  A(98,97,100)          107.6662         calculate D2E/DX2 analytically  !
 ! A191  A(99,97,100)          106.9212         calculate D2E/DX2 analytically  !
 ! D1    D(5,1,2,3)            -47.3017         calculate D2E/DX2 analytically  !
 ! D2    D(5,1,2,7)             69.7998         calculate D2E/DX2 analytically  !
 ! D3    D(5,1,2,13)          -171.7939         calculate D2E/DX2 analytically  !
 ! D4    D(8,1,2,3)             71.4451         calculate D2E/DX2 analytically  !
 ! D5    D(8,1,2,7)           -171.4535         calculate D2E/DX2 analytically  !
 ! D6    D(8,1,2,13)           -53.0471         calculate D2E/DX2 analytically  !
 ! D7    D(14,1,2,3)          -168.0999         calculate D2E/DX2 analytically  !
 ! D8    D(14,1,2,7)           -50.9985         calculate D2E/DX2 analytically  !
 ! D9    D(14,1,2,13)           67.4079         calculate D2E/DX2 analytically  !
 ! D10   D(2,1,5,4)             51.4967         calculate D2E/DX2 analytically  !
 ! D11   D(2,1,5,10)           -67.7906         calculate D2E/DX2 analytically  !
 ! D12   D(2,1,5,15)           173.1734         calculate D2E/DX2 analytically  !
 ! D13   D(8,1,5,4)            -68.0272         calculate D2E/DX2 analytically  !
 ! D14   D(8,1,5,10)           172.6855         calculate D2E/DX2 analytically  !
 ! D15   D(8,1,5,15)            53.6496         calculate D2E/DX2 analytically  !
 ! D16   D(14,1,5,4)           173.2511         calculate D2E/DX2 analytically  !
 ! D17   D(14,1,5,10)           53.9638         calculate D2E/DX2 analytically  !
 ! D18   D(14,1,5,15)          -65.0722         calculate D2E/DX2 analytically  !
 ! D19   D(2,1,14,24)          -98.3643         calculate D2E/DX2 analytically  !
 ! D20   D(5,1,14,24)          138.7398         calculate D2E/DX2 analytically  !
 ! D21   D(8,1,14,24)           21.4899         calculate D2E/DX2 analytically  !
 ! D22   D(1,2,3,6)            165.0948         calculate D2E/DX2 analytically  !
 ! D23   D(1,2,3,11)            50.1652         calculate D2E/DX2 analytically  !
 ! D24   D(1,2,3,12)           -74.307          calculate D2E/DX2 analytically  !
 ! D25   D(7,2,3,6)             47.352          calculate D2E/DX2 analytically  !
 ! D26   D(7,2,3,11)           -67.5776         calculate D2E/DX2 analytically  !
 ! D27   D(7,2,3,12)           167.9501         calculate D2E/DX2 analytically  !
 ! D28   D(13,2,3,6)           -73.8984         calculate D2E/DX2 analytically  !
 ! D29   D(13,2,3,11)          171.172          calculate D2E/DX2 analytically  !
 ! D30   D(13,2,3,12)           46.6997         calculate D2E/DX2 analytically  !
 ! D31   D(1,2,13,20)         -171.0752         calculate D2E/DX2 analytically  !
 ! D32   D(3,2,13,20)           65.521          calculate D2E/DX2 analytically  !
 ! D33   D(7,2,13,20)          -53.9826         calculate D2E/DX2 analytically  !
 ! D34   D(2,3,11,4)           -61.116          calculate D2E/DX2 analytically  !
 ! D35   D(6,3,11,4)           179.5226         calculate D2E/DX2 analytically  !
 ! D36   D(12,3,11,4)           60.1201         calculate D2E/DX2 analytically  !
 ! D37   D(2,3,12,79)         -176.8719         calculate D2E/DX2 analytically  !
 ! D38   D(6,3,12,79)          -55.4608         calculate D2E/DX2 analytically  !
 ! D39   D(11,3,12,79)          60.5434         calculate D2E/DX2 analytically  !
 ! D40   D(9,4,5,1)             62.0567         calculate D2E/DX2 analytically  !
 ! D41   D(9,4,5,10)          -177.8696         calculate D2E/DX2 analytically  !
 ! D42   D(9,4,5,15)           -58.1555         calculate D2E/DX2 analytically  !
 ! D43   D(11,4,5,1)           -56.9263         calculate D2E/DX2 analytically  !
 ! D44   D(11,4,5,10)           63.1474         calculate D2E/DX2 analytically  !
 ! D45   D(11,4,5,15)         -177.1385         calculate D2E/DX2 analytically  !
 ! D46   D(16,4,5,1)          -174.0188         calculate D2E/DX2 analytically  !
 ! D47   D(16,4,5,10)          -53.9451         calculate D2E/DX2 analytically  !
 ! D48   D(16,4,5,15)           65.769          calculate D2E/DX2 analytically  !
 ! D49   D(5,4,11,3)            64.3451         calculate D2E/DX2 analytically  !
 ! D50   D(9,4,11,3)           -54.489          calculate D2E/DX2 analytically  !
 ! D51   D(16,4,11,3)         -171.751          calculate D2E/DX2 analytically  !
 ! D52   D(5,4,16,17)          163.0519         calculate D2E/DX2 analytically  !
 ! D53   D(5,4,16,18)           53.0857         calculate D2E/DX2 analytically  !
 ! D54   D(5,4,16,19)          -73.3784         calculate D2E/DX2 analytically  !
 ! D55   D(9,4,16,17)          -72.8686         calculate D2E/DX2 analytically  !
 ! D56   D(9,4,16,18)          177.1652         calculate D2E/DX2 analytically  !
 ! D57   D(9,4,16,19)           50.7011         calculate D2E/DX2 analytically  !
 ! D58   D(11,4,16,17)          44.7533         calculate D2E/DX2 analytically  !
 ! D59   D(11,4,16,18)         -65.2129         calculate D2E/DX2 analytically  !
 ! D60   D(11,4,16,19)         168.323          calculate D2E/DX2 analytically  !
 ! D61   D(1,5,15,28)           96.8637         calculate D2E/DX2 analytically  !
 ! D62   D(4,5,15,28)         -141.6504         calculate D2E/DX2 analytically  !
 ! D63   D(10,5,15,28)         -22.4527         calculate D2E/DX2 analytically  !
 ! D64   D(3,12,79,80)         177.3722         calculate D2E/DX2 analytically  !
 ! D65   D(3,12,79,81)         -63.2614         calculate D2E/DX2 analytically  !
 ! D66   D(3,12,79,82)          58.1001         calculate D2E/DX2 analytically  !
 ! D67   D(2,13,20,21)         -70.6265         calculate D2E/DX2 analytically  !
 ! D68   D(2,13,20,22)          51.5349         calculate D2E/DX2 analytically  !
 ! D69   D(2,13,20,23)         170.5038         calculate D2E/DX2 analytically  !
 ! D70   D(1,14,24,25)         -59.0501         calculate D2E/DX2 analytically  !
 ! D71   D(1,14,24,26)          62.8766         calculate D2E/DX2 analytically  !
 ! D72   D(1,14,24,27)        -177.5412         calculate D2E/DX2 analytically  !
 ! D73   D(5,15,28,29)         -56.5453         calculate D2E/DX2 analytically  !
 ! D74   D(5,15,28,30)          65.4844         calculate D2E/DX2 analytically  !
 ! D75   D(5,15,28,31)        -175.7186         calculate D2E/DX2 analytically  !
 ! D76   D(4,16,17,38)          95.8334         calculate D2E/DX2 analytically  !
 ! D77   D(18,16,17,38)       -152.4886         calculate D2E/DX2 analytically  !
 ! D78   D(19,16,17,38)        -29.4651         calculate D2E/DX2 analytically  !
 ! D79   D(4,16,19,37)         -95.2905         calculate D2E/DX2 analytically  !
 ! D80   D(4,16,19,83)          14.8161         calculate D2E/DX2 analytically  !
 ! D81   D(17,16,19,37)         23.6138         calculate D2E/DX2 analytically  !
 ! D82   D(17,16,19,83)        133.7203         calculate D2E/DX2 analytically  !
 ! D83   D(18,16,19,37)        141.5899         calculate D2E/DX2 analytically  !
 ! D84   D(18,16,19,83)       -108.3036         calculate D2E/DX2 analytically  !
 ! D85   D(16,17,38,33)         37.6933         calculate D2E/DX2 analytically  !
 ! D86   D(16,19,37,34)         32.4945         calculate D2E/DX2 analytically  !
 ! D87   D(83,19,37,34)        -93.1288         calculate D2E/DX2 analytically  !
 ! D88   D(16,19,83,84)        144.224          calculate D2E/DX2 analytically  !
 ! D89   D(37,19,83,84)        -70.3303         calculate D2E/DX2 analytically  !
 ! D90   D(36,32,33,34)        -48.5936         calculate D2E/DX2 analytically  !
 ! D91   D(36,32,33,38)         65.9739         calculate D2E/DX2 analytically  !
 ! D92   D(36,32,33,44)       -173.5563         calculate D2E/DX2 analytically  !
 ! D93   D(39,32,33,34)         70.8995         calculate D2E/DX2 analytically  !
 ! D94   D(39,32,33,38)       -174.533          calculate D2E/DX2 analytically  !
 ! D95   D(39,32,33,44)        -54.0632         calculate D2E/DX2 analytically  !
 ! D96   D(45,32,33,34)       -166.2673         calculate D2E/DX2 analytically  !
 ! D97   D(45,32,33,38)        -51.6998         calculate D2E/DX2 analytically  !
 ! D98   D(45,32,33,44)         68.77           calculate D2E/DX2 analytically  !
 ! D99   D(33,32,36,35)         54.339          calculate D2E/DX2 analytically  !
 ! D100  D(33,32,36,41)        -65.9993         calculate D2E/DX2 analytically  !
 ! D101  D(33,32,36,46)        172.3108         calculate D2E/DX2 analytically  !
 ! D102  D(39,32,36,35)        -65.3474         calculate D2E/DX2 analytically  !
 ! D103  D(39,32,36,41)        174.3142         calculate D2E/DX2 analytically  !
 ! D104  D(39,32,36,46)         52.6244         calculate D2E/DX2 analytically  !
 ! D105  D(45,32,36,35)        174.2193         calculate D2E/DX2 analytically  !
 ! D106  D(45,32,36,41)         53.8809         calculate D2E/DX2 analytically  !
 ! D107  D(45,32,36,46)        -67.809          calculate D2E/DX2 analytically  !
 ! D108  D(33,32,45,67)        -93.961          calculate D2E/DX2 analytically  !
 ! D109  D(36,32,45,67)        147.5961         calculate D2E/DX2 analytically  !
 ! D110  D(39,32,45,67)         28.1506         calculate D2E/DX2 analytically  !
 ! D111  D(32,33,34,37)       -157.8014         calculate D2E/DX2 analytically  !
 ! D112  D(32,33,34,42)         43.627          calculate D2E/DX2 analytically  !
 ! D113  D(32,33,34,53)        -61.5827         calculate D2E/DX2 analytically  !
 ! D114  D(38,33,34,37)         86.6291         calculate D2E/DX2 analytically  !
 ! D115  D(38,33,34,42)        -71.9426         calculate D2E/DX2 analytically  !
 ! D116  D(38,33,34,53)       -177.1523         calculate D2E/DX2 analytically  !
 ! D117  D(44,33,34,37)        -32.4508         calculate D2E/DX2 analytically  !
 ! D118  D(44,33,34,42)        168.9776         calculate D2E/DX2 analytically  !
 ! D119  D(44,33,34,53)         63.7678         calculate D2E/DX2 analytically  !
 ! D120  D(32,33,38,17)       -158.828          calculate D2E/DX2 analytically  !
 ! D121  D(34,33,38,17)        -39.9589         calculate D2E/DX2 analytically  !
 ! D122  D(44,33,38,17)         79.7021         calculate D2E/DX2 analytically  !
 ! D123  D(32,33,44,63)       -149.5668         calculate D2E/DX2 analytically  !
 ! D124  D(34,33,44,63)         85.0729         calculate D2E/DX2 analytically  !
 ! D125  D(38,33,44,63)        -31.0237         calculate D2E/DX2 analytically  !
 ! D126  D(33,34,37,19)        -83.6238         calculate D2E/DX2 analytically  !
 ! D127  D(42,34,37,19)         75.7551         calculate D2E/DX2 analytically  !
 ! D128  D(53,34,37,19)        175.4378         calculate D2E/DX2 analytically  !
 ! D129  D(33,34,42,35)        -40.3767         calculate D2E/DX2 analytically  !
 ! D130  D(37,34,42,35)        160.3462         calculate D2E/DX2 analytically  !
 ! D131  D(53,34,42,35)         65.2562         calculate D2E/DX2 analytically  !
 ! D132  D(33,34,53,51)       -151.534          calculate D2E/DX2 analytically  !
 ! D133  D(37,34,53,51)        -31.098          calculate D2E/DX2 analytically  !
 ! D134  D(42,34,53,51)         85.7855         calculate D2E/DX2 analytically  !
 ! D135  D(40,35,36,32)         66.4527         calculate D2E/DX2 analytically  !
 ! D136  D(40,35,36,41)       -173.2824         calculate D2E/DX2 analytically  !
 ! D137  D(40,35,36,46)        -54.2359         calculate D2E/DX2 analytically  !
 ! D138  D(42,35,36,32)        -50.3035         calculate D2E/DX2 analytically  !
 ! D139  D(42,35,36,41)         69.9615         calculate D2E/DX2 analytically  !
 ! D140  D(42,35,36,46)       -170.9921         calculate D2E/DX2 analytically  !
 ! D141  D(47,35,36,32)       -171.323          calculate D2E/DX2 analytically  !
 ! D142  D(47,35,36,41)        -51.058          calculate D2E/DX2 analytically  !
 ! D143  D(47,35,36,46)         67.9884         calculate D2E/DX2 analytically  !
 ! D144  D(36,35,42,34)         42.4446         calculate D2E/DX2 analytically  !
 ! D145  D(40,35,42,34)        -76.3849         calculate D2E/DX2 analytically  !
 ! D146  D(47,35,42,34)        167.1031         calculate D2E/DX2 analytically  !
 ! D147  D(36,35,47,48)        -67.6197         calculate D2E/DX2 analytically  !
 ! D148  D(36,35,47,49)        175.1708         calculate D2E/DX2 analytically  !
 ! D149  D(36,35,47,50)         53.4641         calculate D2E/DX2 analytically  !
 ! D150  D(40,35,47,48)         54.5319         calculate D2E/DX2 analytically  !
 ! D151  D(40,35,47,49)        -62.6777         calculate D2E/DX2 analytically  !
 ! D152  D(40,35,47,50)        175.6157         calculate D2E/DX2 analytically  !
 ! D153  D(42,35,47,48)        168.6361         calculate D2E/DX2 analytically  !
 ! D154  D(42,35,47,49)         51.4266         calculate D2E/DX2 analytically  !
 ! D155  D(42,35,47,50)        -70.2801         calculate D2E/DX2 analytically  !
 ! D156  D(32,36,46,71)        106.2182         calculate D2E/DX2 analytically  !
 ! D157  D(35,36,46,71)       -132.0048         calculate D2E/DX2 analytically  !
 ! D158  D(41,36,46,71)        -14.2456         calculate D2E/DX2 analytically  !
 ! D159  D(33,44,63,64)        -46.611          calculate D2E/DX2 analytically  !
 ! D160  D(33,44,63,65)         74.246          calculate D2E/DX2 analytically  !
 ! D161  D(33,44,63,66)       -167.0726         calculate D2E/DX2 analytically  !
 ! D162  D(32,45,67,68)        -60.1636         calculate D2E/DX2 analytically  !
 ! D163  D(32,45,67,69)         61.6677         calculate D2E/DX2 analytically  !
 ! D164  D(32,45,67,70)       -178.7094         calculate D2E/DX2 analytically  !
 ! D165  D(36,46,71,72)        -59.7335         calculate D2E/DX2 analytically  !
 ! D166  D(36,46,71,73)         62.2712         calculate D2E/DX2 analytically  !
 ! D167  D(36,46,71,74)       -179.0458         calculate D2E/DX2 analytically  !
 ! D168  D(35,47,49,87)        -10.494          calculate D2E/DX2 analytically  !
 ! D169  D(48,47,49,87)       -127.65           calculate D2E/DX2 analytically  !
 ! D170  D(50,47,49,87)        110.2419         calculate D2E/DX2 analytically  !
 ! D171  D(35,47,50,75)       -178.6361         calculate D2E/DX2 analytically  !
 ! D172  D(48,47,50,75)        -59.552          calculate D2E/DX2 analytically  !
 ! D173  D(49,47,50,75)         60.6866         calculate D2E/DX2 analytically  !
 ! D174  D(47,49,87,85)         -2.4522         calculate D2E/DX2 analytically  !
 ! D175  D(47,50,75,76)        177.859          calculate D2E/DX2 analytically  !
 ! D176  D(47,50,75,77)        -62.5606         calculate D2E/DX2 analytically  !
 ! D177  D(47,50,75,78)         58.2866         calculate D2E/DX2 analytically  !
 ! D178  D(43,51,53,34)         -1.0998         calculate D2E/DX2 analytically  !
 ! D179  D(52,51,53,34)       -132.158          calculate D2E/DX2 analytically  !
 ! D180  D(54,51,53,34)        112.7385         calculate D2E/DX2 analytically  !
 ! D181  D(43,51,54,55)        -80.9963         calculate D2E/DX2 analytically  !
 ! D182  D(43,51,54,56)         97.231          calculate D2E/DX2 analytically  !
 ! D183  D(52,51,54,55)         42.9893         calculate D2E/DX2 analytically  !
 ! D184  D(52,51,54,56)       -138.7834         calculate D2E/DX2 analytically  !
 ! D185  D(53,51,54,55)        161.4927         calculate D2E/DX2 analytically  !
 ! D186  D(53,51,54,56)        -20.28           calculate D2E/DX2 analytically  !
 ! D187  D(51,54,55,57)        177.4293         calculate D2E/DX2 analytically  !
 ! D188  D(51,54,55,58)         -3.4873         calculate D2E/DX2 analytically  !
 ! D189  D(56,54,55,57)         -0.7633         calculate D2E/DX2 analytically  !
 ! D190  D(56,54,55,58)        178.3201         calculate D2E/DX2 analytically  !
 ! D191  D(51,54,56,59)       -177.8332         calculate D2E/DX2 analytically  !
 ! D192  D(51,54,56,60)          2.401          calculate D2E/DX2 analytically  !
 ! D193  D(55,54,56,59)          0.3397         calculate D2E/DX2 analytically  !
 ! D194  D(55,54,56,60)       -179.426          calculate D2E/DX2 analytically  !
 ! D195  D(54,55,57,61)          0.5288         calculate D2E/DX2 analytically  !
 ! D196  D(54,55,57,97)       -177.123          calculate D2E/DX2 analytically  !
 ! D197  D(58,55,57,61)       -178.5515         calculate D2E/DX2 analytically  !
 ! D198  D(58,55,57,97)          3.7967         calculate D2E/DX2 analytically  !
 ! D199  D(54,56,59,61)          0.3243         calculate D2E/DX2 analytically  !
 ! D200  D(54,56,59,93)       -177.0135         calculate D2E/DX2 analytically  !
 ! D201  D(60,56,59,61)       -179.9131         calculate D2E/DX2 analytically  !
 ! D202  D(60,56,59,93)          2.7491         calculate D2E/DX2 analytically  !
 ! D203  D(55,57,61,59)          0.1143         calculate D2E/DX2 analytically  !
 ! D204  D(55,57,61,62)        179.6236         calculate D2E/DX2 analytically  !
 ! D205  D(97,57,61,59)        177.7599         calculate D2E/DX2 analytically  !
 ! D206  D(97,57,61,62)         -2.7307         calculate D2E/DX2 analytically  !
 ! D207  D(55,57,97,98)       -153.2325         calculate D2E/DX2 analytically  !
 ! D208  D(55,57,97,99)         87.1075         calculate D2E/DX2 analytically  !
 ! D209  D(55,57,97,100)       -32.4361         calculate D2E/DX2 analytically  !
 ! D210  D(61,57,97,98)         29.1009         calculate D2E/DX2 analytically  !
 ! D211  D(61,57,97,99)        -90.5591         calculate D2E/DX2 analytically  !
 ! D212  D(61,57,97,100)       149.8973         calculate D2E/DX2 analytically  !
 ! D213  D(56,59,61,57)         -0.5489         calculate D2E/DX2 analytically  !
 ! D214  D(56,59,61,62)        179.9423         calculate D2E/DX2 analytically  !
 ! D215  D(93,59,61,57)        176.845          calculate D2E/DX2 analytically  !
 ! D216  D(93,59,61,62)         -2.6638         calculate D2E/DX2 analytically  !
 ! D217  D(56,59,93,94)        -15.6871         calculate D2E/DX2 analytically  !
 ! D218  D(56,59,93,95)       -136.5409         calculate D2E/DX2 analytically  !
 ! D219  D(56,59,93,96)        104.3878         calculate D2E/DX2 analytically  !
 ! D220  D(61,59,93,94)        166.9123         calculate D2E/DX2 analytically  !
 ! D221  D(61,59,93,95)         46.0585         calculate D2E/DX2 analytically  !
 ! D222  D(61,59,93,96)        -73.0127         calculate D2E/DX2 analytically  !
 ! D223  D(19,83,84,85)        118.481          calculate D2E/DX2 analytically  !
 ! D224  D(19,83,84,89)        -10.8725         calculate D2E/DX2 analytically  !
 ! D225  D(83,84,85,86)        -68.0228         calculate D2E/DX2 analytically  !
 ! D226  D(83,84,85,87)         51.522          calculate D2E/DX2 analytically  !
 ! D227  D(83,84,85,88)        170.1404         calculate D2E/DX2 analytically  !
 ! D228  D(89,84,85,86)         62.3004         calculate D2E/DX2 analytically  !
 ! D229  D(89,84,85,87)       -178.1548         calculate D2E/DX2 analytically  !
 ! D230  D(89,84,85,88)        -59.5365         calculate D2E/DX2 analytically  !
 ! D231  D(83,84,89,90)       -168.2592         calculate D2E/DX2 analytically  !
 ! D232  D(83,84,89,91)        -49.4201         calculate D2E/DX2 analytically  !
 ! D233  D(83,84,89,92)         70.0011         calculate D2E/DX2 analytically  !
 ! D234  D(85,84,89,90)         60.9647         calculate D2E/DX2 analytically  !
 ! D235  D(85,84,89,91)        179.8038         calculate D2E/DX2 analytically  !
 ! D236  D(85,84,89,92)        -60.7749         calculate D2E/DX2 analytically  !
 ! D237  D(84,85,87,49)        -76.0612         calculate D2E/DX2 analytically  !
 ! D238  D(86,85,87,49)         44.2244         calculate D2E/DX2 analytically  !
 ! D239  D(88,85,87,49)        164.4012         calculate D2E/DX2 analytically  !
 --------------------------------------------------------------------------------
 Trust Radius=1.00D-01 FncErr=1.00D-07 GrdErr=1.00D-06 EigMax=2.50D+02 EigMin=1.00D-04
 Number of steps in this run=    544 maximum allowed number of steps=    600.
 Search for a saddle point of order  1.
 GradGradGradGradGradGradGradGradGradGradGradGradGradGradGradGradGradGrad

 Leave Link  103 at Sun Jun  2 09:15:37 2019, MaxMem=  6442450944 cpu:               4.6 elap:               0.2
 (Enter /home/ekwan/sw/g16/l202.exe)
 Stoichiometry    C30H47F6NaO15S
 Framework group  C1[X(C30H47F6NaO15S)]
 Deg. of freedom   294
 Full point group                 C1      NOp   1
 Largest Abelian subgroup         C1      NOp   1
 Largest concise Abelian subgroup C1      NOp   1
                         Standard orientation:                         
 ---------------------------------------------------------------------
 Center     Atomic      Atomic             Coordinates (Angstroms)
 Number     Number       Type             X           Y           Z
 ---------------------------------------------------------------------
      1          6           0       -5.358092   -1.443312   -1.014389
      2          6           0       -6.257691   -0.303004   -1.493948
      3          6           0       -5.516559    1.045528   -1.475908
      4          6           0       -3.352657   -0.014447   -1.551214
      5          6           0       -3.981208   -1.408485   -1.684246
      6          1           0       -6.058491    1.804592   -2.057118
      7          1           0       -6.530745   -0.503988   -2.542102
      8          1           0       -5.202230   -1.340871    0.065833
      9          1           0       -3.204520    0.219714   -0.490379
     10          1           0       -4.085583   -1.639077   -2.753308
     11          8           0       -4.276529    0.931602   -2.134310
     12          8           0       -5.403572    1.457872   -0.140685
     13          8           0       -7.417662   -0.314898   -0.681447
     14          8           0       -5.966292   -2.699971   -1.297969
     15          8           0       -3.152416   -2.403260   -1.066980
     16          6           0       -2.023845    0.200250   -2.308012
     17          1           0       -1.913391    1.311627   -2.348165
     18          1           0       -2.205812   -0.097652   -3.365131
     19          8           0       -0.932764   -0.415505   -1.756252
     20          6           0       -8.446219    0.555756   -1.123032
     21          1           0       -8.181022    1.610826   -0.973888
     22          1           0       -8.680148    0.393533   -2.185519
     23          1           0       -9.331211    0.328114   -0.524137
     24          6           0       -6.648883   -3.283267   -0.196759
     25          1           0       -5.966702   -3.444900    0.650933
     26          1           0       -7.486984   -2.659739    0.131266
     27          1           0       -7.024159   -4.251642   -0.538261
     28          6           0       -3.096869   -3.642577   -1.777869
     29          1           0       -4.098477   -4.053312   -1.919133
     30          1           0       -2.608388   -3.506762   -2.752421
     31          1           0       -2.502434   -4.325920   -1.165133
     32          6           0       -0.007409    2.867812    1.020388
     33          6           0        0.175252    1.988593   -0.218074
     34          6           0        0.198496    0.529876    0.135316
     35          6           0       -0.995433    0.833622    2.182007
     36          6           0       -1.174991    2.316768    1.842338
     37          1           0        0.659549   -0.171393   -0.527601
     38          1           0       -0.724550    2.121300   -0.839401
     39          1           0        0.905962    2.846783    1.626301
     40          1           0       -0.144235    0.719478    2.857664
     41          1           0       -2.097261    2.437045    1.265023
     42          8           0       -0.672106    0.038986    0.997384
     43          8           0        1.791269   -1.810861    0.401590
     44          8           0        1.325864    2.349572   -0.947984
     45          8           0       -0.339543    4.193645    0.652099
     46          8           0       -1.269888    2.991129    3.085535
     47          6           0       -2.221378    0.209995    2.810085
     48          1           0       -2.358486    0.660182    3.803517
     49          1           0       -2.051291   -0.869378    2.946176
     50          8           0       -3.340788    0.444931    1.985462
     51         16           0        2.501765   -0.840832    1.278448
     52          8           0        2.814884   -1.327666    2.632887
     53          8           0        1.794254    0.518066    1.303618
     54          6           0        4.061699   -0.473401    0.469268
     55          6           0        5.116286   -1.370064    0.615389
     56          6           0        4.180625    0.673084   -0.315484
     57          6           0        6.314074   -1.119044   -0.054334
     58          1           0        5.010657   -2.240801    1.252081
     59          6           0        5.389237    0.909956   -0.969228
     60          1           0        3.345754    1.360157   -0.404720
     61          6           0        6.455595    0.017666   -0.848180
     62          1           0        7.390456    0.210657   -1.361225
     63          6           0        1.193337    2.102693   -2.356129
     64          1           0        0.781626    1.104088   -2.538592
     65          1           0        0.533184    2.853589   -2.809857
     66          1           0        2.194171    2.191791   -2.778336
     67          6           0        0.778458    5.070848    0.554689
     68          1           0        1.304119    5.144275    1.517145
     69          1           0        1.482232    4.737959   -0.214683
     70          1           0        0.379600    6.052895    0.289649
     71          6           0       -2.357859    3.905922    3.164020
     72          1           0       -2.276987    4.681297    2.394760
     73          1           0       -3.318889    3.384053    3.057841
     74          1           0       -2.307428    4.365275    4.154001
     75          6           0       -4.540673   -0.086539    2.526624
     76          1           0       -5.336421    0.184511    1.833406
     77          1           0       -4.481712   -1.181379    2.620134
     78          1           0       -4.747134    0.338642    3.519882
     79          6           0       -4.795235    2.733645    0.009781
     80          1           0       -4.807501    2.961507    1.076363
     81          1           0       -3.760637    2.729456   -0.349851
     82          1           0       -5.357933    3.502715   -0.538717
     83         11           0       -1.045287   -1.995391   -0.225672
     84          8           0       -0.627822   -3.890037    1.043914
     85          6           0       -0.308755   -3.624039    2.409311
     86          1           0        0.662867   -3.123342    2.491624
     87          1           0       -1.092634   -2.971468    2.801072
     88          1           0       -0.295937   -4.556525    2.989232
     89          6           0        0.320199   -4.775008    0.448390
     90          1           0        0.327714   -5.739639    0.973020
     91          1           0        0.008706   -4.932181   -0.587244
     92          1           0        1.322915   -4.333046    0.468637
     93          6           0        5.592171    2.164960   -1.773578
     94          9           0        4.429267    2.793608   -2.048989
     95          9           0        6.203730    1.905253   -2.950701
     96          9           0        6.374873    3.050971   -1.115692
     97          6           0        7.441030   -2.111386    0.040959
     98          9           0        8.644434   -1.523478   -0.130170
     99          9           0        7.333934   -3.073535   -0.904871
    100          9           0        7.456916   -2.736560    1.237381
 ---------------------------------------------------------------------
 Rotational constants (GHZ):           0.0812001           0.0278892           0.0248666
 Leave Link  202 at Sun Jun  2 09:15:37 2019, MaxMem=  6442450944 cpu:               4.8 elap:               0.2
 (Enter /home/ekwan/sw/g16/l301.exe)
 Standard basis: 6-31G(d) (6D, 7F)
 Ernie: Thresh=  0.10000D-02 Tol=  0.10000D-05 Strict=F.
 There are   897 symmetry adapted cartesian basis functions of A   symmetry.
 There are   897 symmetry adapted basis functions of A   symmetry.
   897 basis functions,  1720 primitive gaussians,   897 cartesian basis functions
   214 alpha electrons      214 beta electrons
       nuclear repulsion energy      9275.6463000706 Hartrees.
 IExCor=  402 DFT=T Ex+Corr=B3LYP ExCW=0 ScaHFX=  0.200000
 ScaDFX=  0.800000  0.720000  1.000000  0.810000 ScalE2=  1.000000  1.000000
 IRadAn=      5 IRanWt=     -1 IRanGd=            0 ICorTp=0 IEmpDi=141
 NAtoms=  100 NActive=  100 NUniq=  100 SFac= 1.00D+00 NAtFMM=   60 NAOKFM=T Big=T
 Integral buffers will be    131072 words long.
 Raffenetti 2 integral format.
 Two-electron integral symmetry is turned on.
 R6Disp:  Grimme-D3(BJ) Dispersion energy=       -0.2264742152 Hartrees.
 Nuclear repulsion after empirical dispersion term =     9275.4198258554 Hartrees.
 Force inversion solution in PCM.
 ------------------------------------------------------------------------------
 Polarizable Continuum Model (PCM)
 =================================
 Model                : PCM.
 Atomic radii         : UFF (Universal Force Field).
 Polarization charges : Total charges.
 Charge compensation  : None.
 Solution method      : Matrix inversion.
 Cavity type          : Scaled VdW (van der Waals Surface) (Alpha=1.100).
 Cavity algorithm     : GePol (No added spheres)
                        Default sphere list used, NSphG=  100.
                        Lebedev-Laikov grids with approx.  5.0 points / Ang**2.
                        Smoothing algorithm: York/Karplus (Gamma=1.0000).
                        Polarization charges: spherical gaussians, with
                                              point-specific exponents (IZeta= 3).
                        Self-potential: point-specific (ISelfS= 7).
                        Self-field    : sphere-specific E.n sum rule (ISelfD= 2).
 1st derivatives      : Analytical E(r).r(x)/FMM algorithm (CHGder, D1EAlg=3).
                        Cavity 1st derivative terms included.
 2nd derivatives      : Analytical E(r).r(xy)/FMM algorithm (CHGder, D2EAlg=3).
                        Cavity 2nd derivative terms included.
 Solvent              : TetraHydroFuran, Eps=   7.425700 Eps(inf)=   1.974025
 ------------------------------------------------------------------------------
 GePol: Number of generator spheres                  =     100
 GePol: Total number of spheres                      =     100
 GePol: Number of exposed spheres                    =     100 (100.00%)
 GePol: Number of points                             =    6339
 GePol: Average weight of points                     =       0.12
 GePol: Minimum weight of points                     =   0.32D-11
 GePol: Maximum weight of points                     =    0.21593
 GePol: Number of points with low weight             =     485
 GePol: Fraction of low-weight points (<1% of avg)   =       7.65%
 GePol: Cavity surface area                          =    784.664 Ang**2
 GePol: Cavity volume                                =    978.477 Ang**3
 Leave Link  301 at Sun Jun  2 09:15:38 2019, MaxMem=  6442450944 cpu:               6.9 elap:               0.3
 (Enter /home/ekwan/sw/g16/l302.exe)
 NPDir=0 NMtPBC=     1 NCelOv=     1 NCel=       1 NClECP=     1 NCelD=      1
         NCelK=      1 NCelE2=     1 NClLst=     1 CellRange=     0.0.
 One-electron integrals computed using PRISM.
 One-electron integral symmetry used in STVInt
 NBasis=   897 RedAO= T EigKep=  3.87D-04  NBF=   897
 NBsUse=   897 1.00D-06 EigRej= -1.00D+00 NBFU=   897
 Precomputing XC quadrature grid using
 IXCGrd= 4 IRadAn=           5 IRanWt=          -1 IRanGd=           0 AccXCQ= 0.00D+00.
 Generated NRdTot=       0 NPtTot=           0 NUsed=           0 NTot=          32
 NSgBfM=   807   806   806   807   807 MxSgAt=   100 MxSgA2=   100.
 Leave Link  302 at Sun Jun  2 09:15:53 2019, MaxMem=  6442450944 cpu:             459.2 elap:              15.4
 (Enter /home/ekwan/sw/g16/l303.exe)
 DipDrv:  MaxL=1.
 Leave Link  303 at Sun Jun  2 09:15:54 2019, MaxMem=  6442450944 cpu:              13.2 elap:               0.6
 (Enter /home/ekwan/sw/g16/l401.exe)
 ExpMin= 2.60D-02 ExpMax= 2.19D+04 ExpMxC= 3.30D+03 IAcc=3 IRadAn=         5 AccDes= 0.00D+00
 Harris functional with IExCor=  402 and IRadAn=       5 diagonalized for initial guess.
 HarFok:  IExCor=  402 AccDes= 0.00D+00 IRadAn=         5 IDoV= 1 UseB2=F ITyADJ=14
 ICtDFT=  3500011 ScaDFX=  1.000000  1.000000  1.000000  1.000000
 FoFCou: FMM=F IPFlag=           0 FMFlag=      100000 FMFlg1=        2001
         NFxFlg=           0 DoJE=T BraDBF=F KetDBF=T FulRan=T
         wScrn=  0.000000 ICntrl=       500 IOpCl=  0 I1Cent=   200000004 NGrid=           0
         NMat0=    1 NMatS0=      1 NMatT0=    0 NMatD0=    1 NMtDS0=    0 NMtDT0=    0
 Petite list used in FoFCou.
 Harris En= -3459.35955634297    
[...]
 079025,0.00016765,0.00026252,-0.00010023,0.00012631,0.00004561,-0.0000
 8837,0.00000926,0.00007166,-0.00006653,-0.00006192,-0.00005264,-0.0000
 2851,0.00000301,0.00001457,0.00000014,-0.00000332,0.00000458,0.0000049
 7,0.00000197,0.00008321,0.00002620,-0.00000871,-0.00293926,-0.00081708
 ,0.00157253,0.00063254,0.00031998,-0.00078060,0.00151752,-0.00055812,-
 0.00011694,0.00210677,-0.00037203,0.00138012,-0.00174602,-0.00303511,0
 .00147756,0.00098450,-0.00042071,-0.00043169,0.00827854,-0.02881479,-0
 .02913252,-0.00026165,-0.00040316,-0.00095933,0.00102842,0.00035200,0.
 00140357,-0.00032191,0.00004040,-0.00019866,0.00179234,0.00135735,-0.0
 0163808,-0.00061349,-0.00034461,-0.00078167,-0.00006919,-0.00000333,-0
 .00019030,0.00000822,0.00000182,0.00000038,0.00004214,-0.00001567,0.00
 002980,-0.00002550,0.00001175,-0.00004723,-0.00000031,0.00002754,0.000
 00369,-0.00000814,0.00000305,0.00000664,-0.00000252,0.00001156,-0.0000
 1416,0.00000773,-0.00001623,0.00000081,-0.00006105,0.00003930,0.000003
 35,0.00000297,-0.00000368,0.00000425,0.00001331,0.00000028,0.00000259,
 0.00000405,-0.00000720,-0.00000530,-0.00004311,-0.00002691,0.00002366,
 0.00000755,0.00000138,0.00000009,0.00000298,0.00000962,-0.00000514,0.0
 0000433,0.00000247,-0.00000773,-0.00001496,-0.00000437,0.00000110,-0.0
 0000310,0.00000142,0.00000182,0.00000472,0.00000022,-0.00000590,0.0000
 0476,-0.00000064,0.00000206,-0.00012573,-0.00012146,-0.00005867,-0.000
 01474,0.00011028,0.00005207,-0.00005629,-0.00003315,-0.00002324,0.0000
 1779,-0.00003127,0.00002673,-0.00000189,0.00000218,0.00000779,0.000021
 87,0.00002191,-0.00000260,0.00003227,-0.00007138,-0.00004288,0.0000102
 6,0.00002211,-0.00000632,0.00001177,0.00000307,0.00001143,0.00001773,-
 0.00004232,-0.00000880,0.00061453,0.00193888,-0.00139819,0.00026487,-0
 .00072979,0.00043261,-0.00026370,-0.00033008,0.00068961,-0.00032036,-0
 .00071066,0.00010161,0.00506177,-0.17763564,-0.09142685,-0.03715444,-0
 .03464613,-0.02484329,0.02205264,0.22489536,-0.00000318,-0.00000346,-0
 .00000357,-0.00000094,-0.00000298,-0.00000532,-0.00000579,-0.00000674,
 -0.00001370,-0.00000936,-0.00000399,-0.00000041,0.00000598,-0.00001310
 ,-0.00000486,0.00000212,-0.00000107,0.00000140,0.00000152,0.00000067,0
 .00000237,-0.00000059,-0.00000085,0.00000202,-0.00000445,0.00000136,0.
 00000207,0.00000075,0.00000145,0.00000404,0.00001294,0.00000396,0.0000
 0819,0.00000750,0.00000749,0.00001299,-0.00000006,0.00000348,0.0000041
 9,0.00000060,0.00000712,0.00000686,-0.00000321,0.00003100,0.00001442,-
 0.00003844,0.00002434,-0.00000818,0.00000508,0.00000343,-0.00000045,0.
 00003018,-0.00000015,0.00002364,0.00006022,0.00004590,0.00008770,-0.00
 000130,-0.00000156,-0.00000277,0.00000023,0.00000118,-0.00000016,0.000
 00030,0.00000041,0.00000164,-0.00000044,-0.00000025,-0.00000012,0.0000
 0033,0.00000021,-0.00000507,0.00000113,-0.00000077,0.00000094,-0.00000
 096,0.00000034,0.00000023,0.00000120,0.00000113,0.00000009,0.00000598,
 -0.00002318,-0.00002391,-0.00000018,0.00000173,0.00000266,0.00000058,-
 0.00000030,0.00001043,0.00000113,0.00000089,-0.00000331,-0.00003178,0.
 00003501,-0.00001129,0.00000603,0.00000158,0.00003802,-0.00045144,-0.0
 0003585,-0.00030973,-0.00003397,0.00002497,0.00002455,-0.00001693,0.00
 000955,0.00001042,0.00001710,-0.00000783,-0.00001398,0.00000868,-0.000
 00725,-0.00000325,0.00000589,0.00001013,0.00001128,-0.00000515,-0.0000
 0480,0.00001189,0.00000427,-0.00000377,0.,0.00014341,0.00002277,-0.000
 00406,0.00046090,0.00033127,0.00018284,0.00009289,-0.00002951,0.000087
 08,0.00002489,-0.00002930,0.00001319,0.00003196,-0.00002441,-0.0000141
 5,-0.00002882,-0.00000957,-0.00000453,0.00000406,0.00000139,0.00000103
 ,0.00000182,0.00000016,-0.00000018,0.00004041,0.00000987,0.00000581,-0
 .00132527,-0.00028992,0.00028752,0.00033781,0.00010455,-0.00021476,0.0
 0067728,-0.00025247,0.00003385,0.00022923,0.00021590,0.00022130,-0.000
 13108,-0.00000227,0.00088802,-0.00014303,-0.00050859,0.00025376,0.0012
 5076,-0.01685071,-0.00129807,-0.00050707,-0.00007727,-0.00028894,0.001
 05491,-0.00079247,0.00091521,-0.00012603,-0.00001133,-0.00007370,0.001
 64988,0.00011962,-0.00168201,-0.00027883,-0.00026810,-0.00039877,-0.00
 002670,-0.00001175,-0.00010569,0.00001466,0.00000239,0.00000021,0.0000
 1540,-0.00000183,0.00001648,-0.00001714,-0.00000491,-0.00002038,-0.000
 00701,0.00000721,-0.00000670,-0.00000224,0.00000242,0.00000764,-0.0000
 0298,0.00000436,-0.00000664,0.00000441,-0.00000729,0.00000039,-0.00002
 741,0.00001701,0.00000008,0.00000106,-0.00000253,0.00000199,0.00000632
 ,0.00000086,0.00000082,0.00000086,-0.00000184,-0.00000096,-0.00001772,
 -0.00001153,0.00000806,0.00000422,0.00000047,-0.00000075,0.00000119,0.
 00000396,-0.00000294,0.00000149,0.00000207,-0.00000196,-0.00000617,-0.
 00000495,-0.00000191,-0.00000182,0.00000121,0.00000214,0.00000159,0.00
 000033,-0.00000342,0.00000265,-0.00000003,0.00000082,-0.00004026,-0.00
 005414,-0.00005220,-0.00000681,0.00005252,0.00006287,-0.00003462,-0.00
 001929,-0.00003922,0.00000893,-0.00000864,0.00000919,-0.00000027,0.000
 00193,0.00000595,0.00000735,0.00000468,0.00000242,0.00002213,-0.000036
 11,-0.00003242,-0.00000179,0.00000492,0.00000124,0.00001484,0.00000566
 ,0.00001184,0.00000359,-0.00001676,-0.00001540,0.00045782,0.00083296,-
 0.00080503,0.00015736,-0.00039431,0.00026054,-0.00017248,-0.00011040,0
 .00041188,-0.00014517,-0.00029122,0.00007964,0.00253721,-0.09065959,-0
 .14820951,-0.01940030,-0.01963536,0.00362121,0.01824391,0.15249829,0.2
 2570019,0.00000937,0.00000507,-0.00000161,0.00001063,0.00000006,0.0000
 0056,0.00002492,-0.00000397,-0.00001218,0.00001715,-0.00000355,-0.0000
 0124,0.00000982,0.00000249,0.00000507,-0.00000499,0.00000290,0.0000000
 4,-0.00000119,0.00000011,-0.00000087,0.00000049,-0.00000003,-0.0000008
 7,0.00000347,-0.00000123,-0.00000256,-0.00000027,-0.00000003,-0.000001
 95,-0.00004474,0.00001003,0.00000285,-0.00001075,0.00000526,0.00000542
 ,-0.00001491,0.00000187,0.00000265,-0.00001450,-0.00001046,0.00000491,
 -0.00002320,-0.00001236,-0.00000324,0.00008262,-0.00005213,0.00002116,
 -0.00000957,0.00001050,-0.00000027,-0.00002830,0.00000051,-0.00002142,
 -0.00012077,-0.00000240,-0.00007588,0.00000641,-0.00000414,0.00000293,
 -0.00000016,0.00000059,-0.00000078,-0.00000037,0.00000055,-0.00000130,
 -0.00000171,0.00000012,0.00000047,0.00000608,0.00000414,-0.00000659,0.
 00000011,0.00000014,0.00000016,-0.00000157,0.00000032,0.00000126,-0.00
 000085,-0.00000185,0.00000031,0.00000197,0.00001105,0.00000261,-0.0000
 0279,-0.00000196,-0.00000117,0.00000257,0.00000101,0.00000284,0.000004
 23,0.00000114,-0.00000142,0.00002276,-0.00006682,-0.00001199,0.0000142
 1,-0.00000465,-0.00005252,0.00052496,0.00002420,0.00026440,0.00004963,
 -0.00005378,-0.00008272,0.00002583,-0.00001986,-0.00002481,-0.00000332
 ,-0.00000338,0.00000836,-0.00001232,0.00000935,0.00000179,-0.00000442,
 -0.00000993,-0.00000933,0.00000745,0.00000736,-0.00000978,-0.00000204,
 0.00000375,0.00000084,-0.00020875,-0.00001515,0.00008672,-0.00057208,-
 0.00027065,-0.00001545,-0.00013234,0.00006348,-0.00004248,-0.00001272,
 0.00006574,0.00000007,-0.00003629,0.00004387,0.00004117,0.00002573,0.0
 0001034,-0.00000249,-0.00000949,0.00000099,0.00000397,-0.00000111,-0.0
 0000029,-0.00000142,-0.00004258,-0.00000933,0.00000864,0.00164545,-0.0
 0000926,-0.00079373,-0.00036758,-0.00010451,0.00045827,-0.00074533,0.0
 0036972,0.00004259,0.00076502,0.00028111,-0.00035937,-0.00215810,0.000
 23557,-0.00060422,-0.00025330,0.00056724,-0.00031765,0.00528198,0.0178
 5605,-0.02337291,-0.00066255,0.00159097,-0.00125175,0.00024054,0.00187
 205,-0.00062075,0.00013761,-0.00000519,-0.00004332,-0.00481090,0.00049
 127,0.00080830,0.00005874,0.00013969,-0.00033345,0.00003669,-0.0000088
 3,0.00007470,0.00000202,-0.00000033,0.00000150,-0.00002426,0.00001207,
 -0.00001193,0.00001207,-0.00001183,0.00002539,-0.00001416,-0.00002325,
 -0.00000757,0.00000574,-0.00000021,0.00000169,0.00000078,-0.00000671,0
 .00000526,-0.00000263,0.00000893,-0.00000036,0.00003205,-0.00002338,-0
 .00000237,-0.00000225,0.00000212,-0.00000285,-0.00000593,0.00000076,-0
 .00000144,-0.00000324,0.00000454,0.00000420,0.00002395,0.00001046,-0.0
 0001437,-0.00000381,-0.00000090,-0.00000075,-0.00000167,-0.00000336,0.
 00000232,-0.00000243,-0.00000031,0.00000580,0.00000664,-0.00000450,-0.
 00000225,0.00000137,-0.00000035,0.00000021,-0.00000226,-0.00000012,0.0
 0000244,-0.00000258,0.00000128,-0.00000166,0.00008954,0.00004193,0.000
 01766,-0.00003320,-0.00003076,0.00001346,0.00003134,0.00001735,-0.0000
 1535,-0.00000414,0.00001137,-0.00001494,-0.00000663,0.00000212,-0.0000
 0113,-0.00000813,-0.00001312,0.00000409,0.00003419,0.00002500,0.000000
 77,-0.00000771,-0.00001100,0.00000554,-0.00000299,0.00000177,-0.000002
 99,-0.00001567,0.00001625,-0.00000429,-0.00073624,-0.00116345,0.000975
 27,-0.00020828,0.00052591,-0.00034274,0.00020000,0.00021121,-0.0003899
 1,0.00032879,0.00052223,-0.00003279,-0.08019908,0.01302047,-0.01446723
 ,-0.00837064,-0.03304419,0.04247494,0.01233909,-0.00137656,-0.00462774
 ,0.07784979,-0.00001159,-0.00000981,0.00000325,-0.00001182,-0.00000210
 ,0.00000030,-0.00002830,0.00000029,0.00001287,-0.00001937,-0.00000076,
 0.00000351,-0.00000212,-0.00001390,-0.00000060,0.00000503,-0.00000197,
 -0.00000023,0.00000109,0.00000018,0.00000051,-0.00000002,-0.00000002,0
 .00000035,-0.00000417,0.00000133,0.00000347,-0.00000045,0.00000054,0.0
 0000131,0.00004983,-0.00000429,-0.00000495,0.00001410,0.00000122,-0.00
 000570,0.00001491,0.00000211,-0.00000420,0.00001642,0.00001996,-0.0000
 0852,0.00001694,0.00003071,-0.00000115,-0.00009265,0.00005239,-0.00001
 875,0.00001013,-0.00000472,-0.00000031,0.00003371,-0.00000078,0.000024
 30,0.00014212,0.00002462,0.00008308,-0.00000548,0.00000173,-0.00000213
 ,0.00000013,0.00000038,0.00000097,0.00000018,-0.00000065,0.00000101,0.
 00000190,-0.00000009,-0.00000061,-0.00000575,-0.00000735,0.00001263,-0
 .00000070,-0.00000036,-0.00000254,0.00000090,-0.00000006,-0.00000169,0
 .00000193,0.00000233,-0.00000033,0.00000155,-0.00002326,-0.00000333,0.
 00000298,0.00000282,0.00000182,-0.00000131,-0.00000048,-0.00000197,-0.
 00000395,0.00000135,-0.00000076,-0.00002878,0.00007210,0.00001309,-0.0
 0004914,-0.00000521,0.00008793,-0.00063328,-0.00004504,-0.00030422,-0.
 00005593,0.00005875,0.00010217,-0.00003358,0.00001554,0.00003150,0.000
 00180,-0.00000561,-0.00000836,0.00002110,-0.00000775,-0.00000495,0.000
 00462,0.00001129,0.00001308,-0.00001019,-0.00001093,0.00001131,0.00000
 259,-0.00000389,-0.00000155,0.00026045,0.00003619,-0.00011587,0.000709
 81,0.00044990,0.00001287,0.00020519,-0.00007873,0.00004521,0.00002788,
 -0.00006007,-0.00000483,0.00004586,-0.00004564,-0.00005308,-0.00002704
 ,-0.00002179,0.00000788,0.00001152,-0.00000136,-0.00000451,0.00000341,
 0.00000597,0.00000237,0.00004799,0.00001933,-0.00001584,-0.00187160,-0
 .00049274,0.00117660,0.00035860,0.00026662,-0.00065288,0.00093542,-0.0
 0030699,-0.00010773,0.00008153,-0.00041197,-0.00062578,-0.00121073,-0.
 00119568,0.00084753,0.00028445,-0.00056656,0.00045969,0.00577579,-0.01
 494048,0.03516400,0.00147576,0.00001738,0.00001344,-0.00012039,-0.0021
 4652,-0.00013866,-0.00012354,0.00016750,0.00000528,0.00558283,0.000293
 82,-0.00060195,-0.00018465,0.00075795,0.00011880,-0.00005780,0.0000075
 9,-0.00009716,-0.00000324,-0.00000081,-0.00000040,0.00003260,-0.000014
 94,0.00001500,-0.00001603,0.00001526,-0.00003929,0.00000111,0.00002023
 ,0.00001202,-0.00000632,0.00000115,0.00000023,0.00000048,0.00000838,-0
 .00000986,0.00000460,-0.00001023,0.00000036,-0.00003844,0.00002470,0.0
 0000366,0.00000192,-0.00000114,0.00000240,0.00000829,-0.00000043,0.000
 00203,0.00000336,-0.00000600,-0.00000466,-0.00002854,-0.00001792,0.000
 01722,0.00000378,0.00000097,0.00000087,0.00000200,0.00000670,-0.000002
 49,0.00000320,0.00000055,-0.00000624,-0.00001035,-0.00000072,0.0000031
 3,-0.00000151,0.00000028,-0.00000014,0.00000364,-0.00000018,-0.0000029
 5,0.00000237,-0.00000049,0.00000128,-0.00009389,-0.00007725,-0.0000108
 0,-0.00001127,0.00006613,-0.00001142,-0.00002242,-0.00001543,0.0000183
 3,0.00000992,-0.00002660,0.00001955,-0.00000302,0.00000055,0.00000205,
 0.00001683,0.00001967,-0.00000561,0.00001437,-0.00004067,-0.00001337,0
 .00001330,0.00001948,-0.00000781,-0.00000374,-0.00000224,-0.00000053,0
 .00001432,-0.00002853,0.00000774,0.00074599,0.00149765,-0.00139415,0.0
 0032291,-0.00067099,0.00046325,-0.00019338,-0.00027775,0.00049574,-0.0
 0037507,-0.00063899,0.00006892,0.01656183,-0.12531352,0.08326571,-0.02
 450534,-0.01641169,0.03244771,-0.00227411,0.01918709,-0.02392979,-0.00
 173625,0.14078344,0.00000903,0.00000690,-0.00000632,0.00001091,-0.0000
 0012,-0.00000426,0.00002395,-0.00000555,-0.00002402,0.00001266,-0.0000
 0237,-0.00000452,0.00000647,0.00000446,-0.00000278,-0.00000348,0.00000
 113,0.00000140,0.00000008,0.00000034,0.00000134,-0.00000047,-0.0000006
 3,0.00000120,0.00000132,-0.00000033,-0.00000218,0.00000095,0.00000054,
 0.00000165,-0.00004080,0.00000745,0.00001133,-0.00000821,0.00000475,0.
 00001621,-0.00001470,0.00000047,0.00000742,-0.00001572,-0.00001443,0.0
 0001385,-0.00001937,-0.00000794,0.00001162,0.00006606,-0.00003601,0.00
 001223,-0.00000671,0.00000726,-0.00000005,-0.00001336,0.00000080,-0.00
 000789,-0.00010098,0.00000703,-0.00002325,0.00000425,-0.00000283,-0.00
 000008,0.00000008,0.00000054,-0.00000110,0.00000004,0.00000097,0.00000
 035,-0.00000222,-0.00000011,0.00000046,0.00000574,0.00000736,-0.000016
 59,0.00000160,-0.00000026,0.00000329,-0.00000163,0.00000032,0.00000181
 ,-0.00000099,-0.00000138,0.00000045,0.00000276,0.00000608,-0.00001346,
 -0.00000296,-0.00000155,-0.00000004,0.00000169,0.00000021,0.00000927,0
 .00000474,-0.00000071,-0.00000174,0.00000391,-0.00004999,-0.00002559,0
 .00005311,0.00000485,-0.00006488,0.00034756,0.00002305,0.00010328,0.00
 003308,-0.00004605,-0.00009487,0.00002256,-0.00001065,-0.00002586,0.00
 000930,0.00000070,-0.00000101,-0.00001540,0.00000371,0.00000311,-0.000
 00016,-0.00000448,-0.00000516,0.00000740,0.00000804,-0.00000359,0.0000
 0089,0.00000110,0.00000190,-0.00017591,-0.00002130,0.00012218,-0.00043
 072,-0.00025522,0.00012984,-0.00014485,0.00006088,0.00001575,-0.000007
 76,0.00004268,0.00001693,-0.00002112,0.00002938,0.00004662,0.00000441,
 0.00001562,-0.00001334,-0.00000960,0.00000283,0.00000609,-0.00000211,-
 0.00000628,-0.00000278,-0.00001692,-0.00001218,0.00002238,0.00100500,0
 .00041498,-0.00118697,-0.00010191,-0.00023193,0.00060560,-0.00055190,0
 .00017517,0.00017454,-0.00081837,0.00065918,0.00076338,0.00345826,0.00
 068835,-0.00096213,-0.00041455,-0.00014213,0.00014681,-0.00150888,0.01
 669696,-0.01724486,-0.00158070,-0.00095229,0.00037120,0.00086121,0.001
 00099,-0.00065803,0.00003446,-0.00017238,0.00002731,-0.00476557,0.0011
 2413,0.00102990,0.00015441,-0.00058189,0.00021391,0.00004100,-0.000015
 26,0.00002420,0.00001225,0.00000254,0.00000102,-0.00002238,0.00001331,
 -0.00000396,0.00000575,-0.00001797,0.00002765,-0.00000955,-0.00001679,
 -0.00001988,0.00000518,0.00000123,0.00000693,-0.00000284,-0.00000537,0
 .00000483,-0.00000078,0.00000487,0.00000025,0.00001726,-0.00001185,-0.
 00000383,-0.00000118,-0.00000094,-0.00000085,-0.00000320,0.00000131,-0
 .00000140,-0.00000318,0.00000508,0.00000432,0.00001512,0.00000906,-0.0
 0001154,-0.00000050,-0.00000066,-0.00000136,-0.00000118,-0.00000368,0.
 00000017,-0.00000227,0.00000120,0.00000495,0.00000559,-0.00000326,-0.0
 0000490,0.00000004,0.00000069,0.00000187,-0.00000239,0.00000039,0.0000
 0032,-0.00000035,0.00000048,-0.00000060,0.00006484,0.00003878,-0.00002
 438,0.00000219,-0.00002446,0.00006315,-0.00000336,0.00000047,-0.000051
 58,-0.00000290,0.00001909,-0.00001412,0.00000146,0.00000115,0.00000243
 ,-0.00001194,-0.00001715,0.00000754,0.00000862,0.00001277,-0.00001088,
 -0.00001469,-0.00001567,0.00000788,0.00001330,0.00000593,0.00000917,-0
 .00001204,0.00001626,-0.00001851,-0.00051746,-0.00111758,0.00061475,-0
 .00027659,0.00055914,-0.00031302,0.00007926,0.00021822,-0.00023364,0.0
 0024616,0.00045199,0.00003887,-0.02199372,0.08632096,-0.20701136,0.030
 11851,0.02962126,-0.02055552,-0.00573840,-0.00762904,-0.07968286,0.002
 63456,-0.12687472,0.32364662\\-0.00000049,0.00000238,0.00000151,-0.000
 00093,0.00000214,0.00000220,-0.00000021,0.00000200,0.00000142,-0.00000
 011,0.00000049,0.00000080,-0.00000125,0.00000113,0.00000096,0.00000022
 ,0.00000220,0.00000116,-0.00000111,0.00000237,0.00000116,-0.00000092,0
 .00000187,0.00000095,-0.00000041,0.00000060,0.00000051,-0.00000156,0.0
 0000112,0.00000119,0.00000009,0.00000137,0.00000070,0.00000086,0.00000
 175,0.00000102,-0.00000059,0.00000359,0.00000081,-0.00000187,0.0000022
 1,0.00000168,-0.00000131,0.00000132,0.00000086,-0.00000077,0.00000025,
 0.00000039,-0.00000018,-0.00000003,-0.00000009,-0.00000097,0.00000024,
 0.00000018,-0.00000110,-0.00000135,-0.00000126,-0.00000091,0.00000272,
 0.00000234,0.00000072,0.00000391,0.00000177,-0.00000049,0.00000339,0.0
 0000198,0.00000054,0.00000416,0.00000176,-0.00000180,0.00000221,0.0000
 0210,-0.00000145,0.00000257,0.00000186,-0.00000135,0.00000326,0.000002
 24,-0.00000220,0.00000302,0.00000226,-0.00000159,0.00000130,0.00000160
 ,-0.00000230,0.00000129,0.00000134,-0.00000257,0.00000023,0.00000069,-
 0.00000328,0.00000110,0.00000034,0.00000194,-0.00000083,-0.00000034,0.
 00000065,-0.00000036,-0.00000094,0.00000128,-0.00000016,-0.00000100,0.
 00000085,0.00000051,-0.00000055,0.00000180,0.00000044,-0.00000084,-0.0
 0000042,-0.00000088,-0.00000067,0.00000117,-0.00000006,-0.00000017,0.0
 0000139,-0.00000066,-0.00000120,0.00000122,0.00000002,0.00000006,0.000
 00154,0.00000063,-0.00000012,-0.00000071,-0.00000299,0.00000101,-0.000
 00164,-0.00000190,-0.00000161,0.00000072,-0.00000146,-0.00000144,0.000
 00222,-0.00000003,-0.00000089,0.00000190,0.00000083,-0.00000010,0.0000
 0118,0.00000188,0.00000070,0.00000155,0.00000111,0.00000047,-0.0000006
 7,-0.00000002,-0.00000063,0.00000063,0.00000144,0.00000077,0.00000056,
 -0.00000031,0.00000133,-0.00000037,-0.00000132,-0.00000171,0.00000063,
 -0.00000161,-0.00000106,0.00000016,-0.00000301,-0.00000100,-0.00000083
 ,-0.00000250,-0.00000169,0.00000100,-0.00000227,-0.00000088,0.00000003
 ,-0.00000321,-0.00000159,-0.00000102,-0.00000271,-0.00000122,-0.000002
 90,-0.00000387,-0.00000264,0.00000054,-0.00000240,-0.00000147,-0.00000
 013,-0.00000413,-0.00000194,0.00000007,-0.00000420,-0.00000273,0.00000
 043,-0.00000098,-0.00000032,-0.00000021,-0.00000154,-0.00000035,0.0000
 0039,-0.00000102,-0.00000083,0.00000025,-0.00000224,-0.00000129,0.0000
 0312,-0.00000121,-0.00000092,0.00000268,-0.00000092,-0.00000172,0.0000
 0200,-0.00000112,-0.00000112,0.00000287,-0.00000062,-0.00000122,0.0000
 0264,0.00000041,0.00000042,0.00000286,0.00000130,-0.00000064,0.0000028
 2,0.00000165,0.00000017,0.00000325,0.00000117,-0.00000037,0.00000076,0
 .00000192,0.00000048,0.00000120,0.00000192,0.00000173,0.00000003,0.000
 00243,0.00000141,0.00000105,0.00000234,0.00000100,0.00000096,0.0000021
 1,0.00000074,0.00000156,0.00000200,0.00000064,0.00000123,0.00000125,0.
 00000022,0.00000170,0.00000198,0.00000072,-0.00000173,0.00000058,-0.00
 000163,-0.00000144,-0.00000022,0.00000123,-0.00000131,0.00000089,0.000
 00095,-0.00000116,-0.00000111,0.00000027,-0.00000017,0.00000128,0.0000
 0246,-0.00000166,0.00000024,0.00000019,-0.00000158,-0.00000057,0.00000
 060,-0.00000258,-0.00000017,0.00000028,-0.00000246,-0.00000051,0.00000
 081,-0.00000210,-0.00000131,0.00000010,0.00000049,-0.00000291,-0.00000
 137,0.00000188,-0.00000240,-0.00000193,0.00000024,-0.00000451,-0.00000
 198,0.00000144,-0.00000396,-0.00000262,-0.00000071,-0.00000333,-0.0000
 0221,-0.00000082,-0.00000464,-0.00000245,-0.00000189,-0.00000465,-0.00
 000196,-0.00000112,-0.00000431,-0.00000184\\\@


 WHEN YOU'VE SEEN ONE NUCLEAR WAR YOU'VE SEEN THEM ALL.
 Job cpu time:       4 days  6 hours 41 minutes 31.6 seconds.
 Elapsed time:       0 days  3 hours 25 minutes 10.1 seconds.
 File lengths (MBytes):  RWF=   9811 Int=      0 D2E=      0 Chk=     86 Scr=      1
 Normal termination of Gaussian 16 at Sun Jun  2 16:00:48 2019.
