 Entering Gaussian System, Link 0=g16
 Input=clay_new-glu_gluC6-CDDR-Na_1Me2O-bisCF3-ts-b3lyp_d3bj-631gd-pcm_thf.gjf
 Output=clay_new-glu_gluC6-CDDR-Na_1Me2O-bisCF3-ts-b3lyp_d3bj-631gd-pcm_thf.out
 Initial command:
 /home/ekwan/sw/g16/l1.exe "/scratch/users/ekwan/clay_new-glu_gluC6-CDDR-Na_1Me2O-bisCF3-ts-b3lyp_d3bj-631gd-pcm_thf/Gau-49319.inp" -scrdir="/scratch/users/ekwan/clay_new-glu_gluC6-CDDR-Na_1Me2O-bisCF3-ts-b3lyp_d3bj-631gd-pcm_thf/"
 Entering Link 1 = /home/ekwan/sw/g16/l1.exe PID=     49320.
  
 Copyright (c) 1988,1990,1992,1993,1995,1998,2003,2009,2016,
            Gaussian, Inc.  All Rights Reserved.
  
 This is part of the Gaussian(R) 16 program.  It is based on
 the Gaussian(R) 09 system (copyright 2009, Gaussian, Inc.),
 the Gaussian(R) 03 system (copyright 2003, Gaussian, Inc.),
 the Gaussian(R) 98 system (copyright 1998, Gaussian, Inc.),
 the Gaussian(R) 94 system (copyright 1995, Gaussian, Inc.),
 the Gaussian 92(TM) system (copyright 1992, Gaussian, Inc.),
 the Gaussian 90(TM) system (copyright 1990, Gaussian, Inc.),
 the Gaussian 88(TM) system (copyright 1988, Gaussian, Inc.),
 the Gaussian 86(TM) system (copyright 1986, Carnegie Mellon
 University), and the Gaussian 82(TM) system (copyright 1983,
 Carnegie Mellon University). Gaussian is a federally registered
 trademark of Gaussian, Inc.
  
 This software contains proprietary and confidential information,
 including trade secrets, belonging to Gaussian, Inc.
  
 This software is provided under written license and may be
 used, copied, transmitted, or stored only in accord with that
 written license.
  
 The following legend is applicable only to US Government
 contracts under FAR:
  
                    RESTRICTED RIGHTS LEGEND
  
 Use, reproduction and disclosure by the US Government is
 subject to restrictions as set forth in subparagraphs (a)
 and (c) of the Commercial Computer Software - Restricted
 Rights clause in FAR 52.227-19.
  
 Gaussian, Inc.
 340 Quinnipiac St., Bldg. 40, Wallingford CT 06492
  
  
 ---------------------------------------------------------------
 Warning -- This program may not be used in any manner that
 competes with the business of Gaussian, Inc. or will provide
 assistance to any competitor of Gaussian, Inc.  The licensee
 of this program is prohibited from giving any competitor of
 Gaussian, Inc. access to this program.  By using this program,
 the user acknowledges that Gaussian, Inc. is engaged in the
 business of creating and licensing software in the field of
 computational chemistry and represents and warrants to the
 licensee that it is not a competitor of Gaussian, Inc. and that
 it will not use this program in any manner prohibited above.
 ---------------------------------------------------------------
  

 Cite this work as:
 Gaussian 16, Revision A.03,
 M. J. Frisch, G. W. Trucks, H. B. Schlegel, G. E. Scuseria, 
 M. A. Robb, J. R. Cheeseman, G. Scalmani, V. Barone, 
 G. A. Petersson, H. Nakatsuji, X. Li, M. Caricato, A. V. Marenich, 
 J. Bloino, B. G. Janesko, R. Gomperts, B. Mennucci, H. P. Hratchian, 
 J. V. Ortiz, A. F. Izmaylov, J. L. Sonnenberg, D. Williams-Young, 
 F. Ding, F. Lipparini, F. Egidi, J. Goings, B. Peng, A. Petrone, 
 T. Henderson, D. Ranasinghe, V. G. Zakrzewski, J. Gao, N. Rega, 
 G. Zheng, W. Liang, M. Hada, M. Ehara, K. Toyota, R. Fukuda, 
 J. Hasegawa, M. Ishida, T. Nakajima, Y. Honda, O. Kitao, H. Nakai, 
 T. Vreven, K. Throssell, J. A. Montgomery, Jr., J. E. Peralta, 
 F. Ogliaro, M. J. Bearpark, J. J. Heyd, E. N. Brothers, K. N. Kudin, 
 V. N. Staroverov, T. A. Keith, R. Kobayashi, J. Normand, 
 K. Raghavachari, A. P. Rendell, J. C. Burant, S. S. Iyengar, 
 J. Tomasi, M. Cossi, J. M. Millam, M. Klene, C. Adamo, R. Cammi, 
 J. W. Ochterski, R. L. Martin, K. Morokuma, O. Farkas, 
 J. B. Foresman, and D. J. Fox, Gaussian, Inc., Wallingford CT, 2016.
 
 ******************************************
 Gaussian 16:  AS64L-G16RevA.03 25-Dec-2016
                 8-May-2019 
 ******************************************
 %mem=48GB
 %nprocshared=32
 Will use up to   32 processors via shared memory.
 ----------------------------------------------------------------------
 #p opt=(ts,noeigentest,calcfc,maxstep=3,modredundant,recalc=30) freq=n
 oraman b3lyp 6-31g* pop=none scrf=(solvent=tetrahydrofuran,pcm) empiri
 caldispersion=gd3bj
 ----------------------------------------------------------------------
 1/5=1,8=3,10=4,11=1,18=120,26=3,38=1,71=30/1,3;
 2/9=110,12=2,17=6,18=5,40=1/2;
 3/5=1,6=6,7=1,11=2,25=1,30=1,70=2201,71=2,72=20,74=-5,124=41,140=1/1,2,3;
 4//1;
 5/5=2,38=5,53=20/2;
 8/6=4,10=90,11=11/1;
 11/6=1,8=1,9=11,15=111,16=1/1,2,10;
 10/6=1,13=1/2;
 7/10=1,18=20,25=1/1,2,3,16;
 1/5=1,8=3,10=4,11=1,18=20,26=3,71=30/3(2);
 2/9=110/2;
 99//99;
 2/9=110/2;
 3/5=1,6=6,7=1,11=2,25=1,30=1,70=2205,71=1,72=20,74=-5,124=41/1,2,3;
 4/5=5,16=3,69=1/1;
 5/5=2,38=5,53=20/2;
 7//1,2,3,16;
 1/5=1,8=3,11=1,18=20,26=3,71=30/3(-5);
 2/9=110/2;
 99/9=1/99;
 Leave Link    1 at Wed May  8 19:14:59 2019, MaxMem=  6442450944 cpu:               4.9 elap:               0.2
 (Enter /home/ekwan/sw/g16/l101.exe)
 -----
 title
 -----
 Symbolic Z-matrix:
 Charge =  0 Multiplicity = 1
 C                     2.70735   1.64063  -0.67272 
 C                     3.81982   1.42069   0.35141 
 C                     3.43169   2.02573   1.70084 
 C                     1.08678   1.6737    1.35384 
 C                     1.31329   1.28609  -0.123 
 H                     4.17814   1.79972   2.47406 
 H                     3.9348    0.34078   0.50804 
 H                     2.70583   2.70007  -0.96109 
 H                     0.86117   2.74595   1.38992 
 H                     1.19229   0.19879  -0.23441 
 O                     2.25069   1.40385   2.15174 
 O                     3.30374   3.41736   1.55059 
 O                     5.01649   1.96967  -0.17587 
 O                     2.90778   0.81934  -1.82092 
 O                     0.29514   1.95597  -0.87144 
 C                    -0.04998   0.88861   2.05086 
 H                     0.08805   1.09949   3.13332 
 H                     0.22937  -0.1859    1.94033 
 O                    -1.316     1.15574   1.60536 
 C                     6.19801   1.46308   0.42619 
 H                     6.28785   1.76048   1.47993 
 H                     6.23844   0.36762   0.36205 
 H                     7.03897   1.886    -0.12842 
 C                     3.7051    1.39178  -2.84791 
 H                     3.31284   2.37523  -3.14774 
 H                     4.74557   1.50677  -2.53328 
 H                     3.64815   0.71038  -3.69864 
 C                     0.16727   1.60896  -2.2516 
 H                     0.97353   2.04238  -2.85023 
 H                     0.13802   0.52679  -2.3936 
 H                    -0.7856    2.03418  -2.5783 
 C                    -4.45527  -1.11773   0.55623 
 C                    -3.03975  -0.99492   1.12152 
 C                    -2.04528  -0.5707    0.06556 
 C                    -3.72154   0.29619  -1.39405 
 C                    -4.76948   0.12167  -0.28821 
 H                    -0.98993  -0.64655   0.25515 
 H                    -3.02256  -0.15972   1.8285 
 H                    -4.53048  -2.00651  -0.08004 
 H                    -3.77728  -0.556    -2.07654 
 H                    -4.76949   1.00954   0.35875 
 O                    -2.37169   0.31274  -0.85586 
 O                    -0.97552  -1.47198  -3.00695 
 O                    -2.62456  -2.18758   1.76048 
 O                    -5.3934   -1.1829    1.61955 
 O                    -6.0125   -0.01029  -0.95444 
 C                    -3.86276   1.57284  -2.19491 
 H                    -4.88285   1.61693  -2.59402 
 H                    -3.15406   1.56384  -3.03399 
 O                    -3.60387   2.6915   -1.35266 
 S                    -1.11662  -2.54818  -2.006 
 O                    -1.3324   -3.90815  -2.53035 
 O                    -2.17885  -2.2335   -0.94104 
 C                     0.41818  -2.56382  -1.06739 
 C                     1.61779  -2.29442  -1.72471 
 C                     0.39255  -2.8878    0.28714 
 C                     2.81014  -2.35892  -1.00803 
 H                     1.61653  -2.02462  -2.77291 
 C                     1.5948   -2.92236   0.99558 
 H                    -0.55391  -3.0801    0.78059 
 C                     2.80519  -2.66519   0.35415 
 H                     3.73565  -2.70619   0.90866 
 C                    -2.17314  -2.00159   3.10276 
 H                    -1.27716  -1.37386   3.14414 
 H                    -2.96078  -1.5533    3.72115 
 H                    -1.93098  -2.99572   3.48276 
 C                    -5.80414  -2.50622   1.948 
 H                    -6.30853  -2.98434   1.09669 
 H                    -4.95406  -3.12478   2.25362 
 H                    -6.50987  -2.41621   2.77732 
 C                    -7.09914   0.64088  -0.30301 
 H                    -7.26306   0.23084   0.69792 
 H                    -6.92104   1.72333  -0.22817 
 H                    -7.98107   0.46643  -0.92368 
 C                    -3.82467   3.93459  -2.01577 
 H                    -3.56161   4.72341  -1.3081 
 H                    -3.19159   4.01879  -2.90926 
 H                    -4.87706   4.03668  -2.30852 
 C                     3.08536   4.09362   2.7843 
 H                     3.04084   5.16009   2.55546 
 H                     2.14591   3.77922   3.2539 
 H                     3.91093   3.90439   3.48451 
 Na                   -1.713     2.62101   0.06972 
 O                    -0.76615   4.74125   0.40392 
 C                     0.42541   5.10227  -0.29086 
 H                     1.31439   4.73567   0.23849 
 H                     0.37971   4.63105  -1.27281 
 H                     0.48886   6.19326  -0.40125 
 C                    -0.81181   5.29532   1.71328 
 H                    -0.78671   6.39273   1.67461 
 H                    -1.74797   4.96935   2.17206 
 H                     0.0321    4.93902   2.3197 
 C                     1.57179  -3.19117   2.47569 
 F                     1.43194  -2.04807   3.19033 
 F                     2.71088  -3.7789    2.89814 
 F                     0.54226  -3.99466   2.8223 
 C                     4.13227  -2.16472  -1.69888 
 F                     3.99725  -1.72003  -2.96207 
 F                     4.81653  -3.33327  -1.75904 
 F                     4.93031  -1.29423  -1.03656 
 
 Add virtual bond connecting atoms O53        and C34        Dist= 3.68D+00.
 Add virtual bond connecting atoms H37        and H18        Dist= 4.03D+00.
 Add virtual bond connecting atoms H37        and O19        Dist= 4.30D+00.
 Add virtual bond connecting atoms H38        and O19        Dist= 4.09D+00.
 Add virtual bond connecting atoms H64        and H18        Dist= 4.28D+00.
 Add virtual bond connecting atoms O84        and Na83       Dist= 4.43D+00.
 Add virtual bond connecting atoms H86        and H9         Dist= 4.43D+00.
 The following ModRedundant input section has been read:
 
 ITRead=  0  0  0  0  0  0  0  0  0  0  0  0  0  0  0  0  0  0  0  0
 ITRead=  0  0  0  0  0  0  0  0  0  0  0  0  0  0  0  0  0  0  0  0
 ITRead=  0  0  0  0  0  0  0  0  0  0  0  0  0  0  0  0  0  0  0  0
 ITRead=  0  0  0  0  0  0  0  0  0  0  0  0  0  0  0  0  0  0  0  0
 ITRead=  0  0  0  0  0  0  0  0  0  0  0  0  0  0  0  0  0  0  0  0
 MicOpt= -1 -1 -1 -1 -1 -1 -1 -1 -1 -1 -1 -1 -1 -1 -1 -1 -1 -1 -1 -1
 MicOpt= -1 -1 -1 -1 -1 -1 -1 -1 -1 -1 -1 -1 -1 -1 -1 -1 -1 -1 -1 -1
 MicOpt= -1 -1 -1 -1 -1 -1 -1 -1 -1 -1 -1 -1 -1 -1 -1 -1 -1 -1 -1 -1
 MicOpt= -1 -1 -1 -1 -1 -1 -1 -1 -1 -1 -1 -1 -1 -1 -1 -1 -1 -1 -1 -1
 MicOpt= -1 -1 -1 -1 -1 -1 -1 -1 -1 -1 -1 -1 -1 -1 -1 -1 -1 -1 -1 -1
 NAtoms=    100 NQM=      100 NQMF=       0 NMMI=      0 NMMIF=      0
                NMic=       0 NMicF=      0.
                    Isotopes and Nuclear Properties:
 (Nuclear quadrupole moments (NQMom) in fm**2, nuclear magnetic moments (NMagM)
  in nuclear magnetons)

  Atom         1           2           3           4           5           6           7           8           9          10
 IAtWgt=          12          12          12          12          12           1           1           1           1           1
 AtmWgt=  12.0000000  12.0000000  12.0000000  12.0000000  12.0000000   1.0078250   1.0078250   1.0078250   1.0078250   1.0078250
 NucSpn=           0           0           0           0           0           1           1           1           1           1
 AtZEff=   0.0000000   0.0000000   0.0000000   0.0000000   0.0000000   0.0000000   0.0000000   0.0000000   0.0000000   0.0000000
 NQMom=    0.0000000   0.0000000   0.0000000   0.0000000   0.0000000   0.0000000   0.0000000   0.0000000   0.0000000   0.0000000
 NMagM=    0.0000000   0.0000000   0.0000000   0.0000000   0.0000000   2.7928460   2.7928460   2.7928460   2.7928460   2.7928460
 AtZNuc=   6.0000000   6.0000000   6.0000000   6.0000000   6.0000000   1.0000000   1.0000000   1.0000000   1.0000000   1.0000000

  Atom        11          12          13          14          15          16          17          18          19          20
 IAtWgt=          16          16          16          16          16          12           1           1          16          12
 AtmWgt=  15.9949146  15.9949146  15.9949146  15.9949146  15.9949146  12.0000000   1.0078250   1.0078250  15.9949146  12.0000000
 NucSpn=           0           0           0           0           0           0           1           1           0           0
 AtZEff=   0.0000000   0.0000000   0.0000000   0.0000000   0.0000000   0.0000000   0.0000000   0.0000000   0.0000000   0.0000000
 NQMom=    0.0000000   0.0000000   0.0000000   0.0000000   0.0000000   0.0000000   0.0000000   0.0000000   0.0000000   0.0000000
 NMagM=    0.0000000   0.0000000   0.0000000   0.0000000   0.0000000   0.0000000   2.7928460   2.7928460   0.0000000   0.0000000
 AtZNuc=   8.0000000   8.0000000   8.0000000   8.0000000   8.0000000   6.0000000   1.0000000   1.0000000   8.0000000   6.0000000

  Atom        21          22          23          24          25          26          27          28          29          30
 IAtWgt=           1           1           1          12           1           1           1          12           1           1
 AtmWgt=   1.0078250   1.0078250   1.0078250  12.0000000   1.0078250   1.0078250   1.0078250  12.0000000   1.0078250   1.0078250
 NucSpn=           1           1           1           0           1           1           1           0           1           1
 AtZEff=   0.0000000   0.0000000   0.0000000   0.0000000   0.0000000   0.0000000   0.0000000   0.0000000   0.0000000   0.0000000
 NQMom=    0.0000000   0.0000000   0.0000000   0.0000000   0.0000000   0.0000000   0.0000000   0.0000000   0.0000000   0.0000000
 NMagM=    2.7928460   2.7928460   2.7928460   0.0000000   2.7928460   2.7928460   2.7928460   0.0000000   2.7928460   2.7928460
 AtZNuc=   1.0000000   1.0000000   1.0000000   6.0000000   1.0000000   1.0000000   1.0000000   6.0000000   1.0000000   1.0000000

  Atom        31          32          33          34          35          36          37          38          39          40
 IAtWgt=           1          12          12          12          12          12           1           1           1           1
 AtmWgt=   1.0078250  12.0000000  12.0000000  12.0000000  12.0000000  12.0000000   1.0078250   1.0078250   1.0078250   1.0078250
 NucSpn=           1           0           0           0           0           0           1           1           1           1
 AtZEff=   0.0000000   0.0000000   0.0000000   0.0000000   0.0000000   0.0000000   0.0000000   0.0000000   0.0000000   0.0000000
 NQMom=    0.0000000   0.0000000   0.0000000   0.0000000   0.0000000   0.0000000   0.0000000   0.0000000   0.0000000   0.0000000
 NMagM=    2.7928460   0.0000000   0.0000000   0.0000000   0.0000000   0.0000000   2.7928460   2.7928460   2.7928460   2.7928460
 AtZNuc=   1.0000000   6.0000000   6.0000000   6.0000000   6.0000000   6.0000000   1.0000000   1.0000000   1.0000000   1.0000000

  Atom        41          42          43          44          45          46          47          48          49          50
 IAtWgt=           1          16          16          16          16          16          12           1           1          16
 AtmWgt=   1.0078250  15.9949146  15.9949146  15.9949146  15.9949146  15.9949146  12.0000000   1.0078250   1.0078250  15.9949146
 NucSpn=           1           0           0           0           0           0           0           1           1           0
 AtZEff=   0.0000000   0.0000000   0.0000000   0.0000000   0.0000000   0.0000000   0.0000000   0.0000000   0.0000000   0.0000000
 NQMom=    0.0000000   0.0000000   0.0000000   0.0000000   0.0000000   0.0000000   0.0000000   0.0000000   0.0000000   0.0000000
 NMagM=    2.7928460   0.0000000   0.0000000   0.0000000   0.0000000   0.0000000   0.0000000   2.7928460   2.7928460   0.0000000
 AtZNuc=   1.0000000   8.0000000   8.0000000   8.0000000   8.0000000   8.0000000   6.0000000   1.0000000   1.0000000   8.0000000

  Atom        51          52          53          54          55          56          57          58          59          60
 IAtWgt=          32          16          16          12          12          12          12           1          12           1
 AtmWgt=  31.9720718  15.9949146  15.9949146  12.0000000  12.0000000  12.0000000  12.0000000   1.0078250  12.0000000   1.0078250
 NucSpn=           0           0           0           0           0           0           0           1           0           1
 AtZEff=   0.0000000   0.0000000   0.0000000   0.0000000   0.0000000   0.0000000   0.0000000   0.0000000   0.0000000   0.0000000
 NQMom=    0.0000000   0.0000000   0.0000000   0.0000000   0.0000000   0.0000000   0.0000000   0.0000000   0.0000000   0.0000000
 NMagM=    0.0000000   0.0000000   0.0000000   0.0000000   0.0000000   0.0000000   0.0000000   2.7928460   0.0000000   2.7928460
 AtZNuc=  16.0000000   8.0000000   8.0000000   6.0000000   6.0000000   6.0000000   6.0000000   1.0000000   6.0000000   1.0000000

  Atom        61          62          63          64          65          66          67          68          69          70
 IAtWgt=          12           1          12           1           1           1          12           1           1           1
 AtmWgt=  12.0000000   1.0078250  12.0000000   1.0078250   1.0078250   1.0078250  12.0000000   1.0078250   1.0078250   1.0078250
 NucSpn=           0           1           0           1           1           1           0           1           1           1
 AtZEff=   0.0000000   0.0000000   0.0000000   0.0000000   0.0000000   0.0000000   0.0000000   0.0000000   0.0000000   0.0000000
 NQMom=    0.0000000   0.0000000   0.0000000   0.0000000   0.0000000   0.0000000   0.0000000   0.0000000   0.0000000   0.0000000
 NMagM=    0.0000000   2.7928460   0.0000000   2.7928460   2.7928460   2.7928460   0.0000000   2.7928460   2.7928460   2.7928460
 AtZNuc=   6.0000000   1.0000000   6.0000000   1.0000000   1.0000000   1.0000000   6.0000000   1.0000000   1.0000000   1.0000000

  Atom        71          72          73          74          75          76          77          78          79          80
 IAtWgt=          12           1           1           1          12           1           1           1          12           1
 AtmWgt=  12.0000000   1.0078250   1.0078250   1.0078250  12.0000000   1.0078250   1.0078250   1.0078250  12.0000000   1.0078250
 NucSpn=           0           1           1           1           0           1           1           1           0           1
 AtZEff=   0.0000000   0.0000000   0.0000000   0.0000000   0.0000000   0.0000000   0.0000000   0.0000000   0.0000000   0.0000000
 NQMom=    0.0000000   0.0000000   0.0000000   0.0000000   0.0000000   0.0000000   0.0000000   0.0000000   0.0000000   0.0000000
 NMagM=    0.0000000   2.7928460   2.7928460   2.7928460   0.0000000   2.7928460   2.7928460   2.7928460   0.0000000   2.7928460
 AtZNuc=   6.0000000   1.0000000   1.0000000   1.0000000   6.0000000   1.0000000   1.0000000   1.0000000   6.0000000   1.0000000

  Atom        81          82          83          84          85          86          87          88          89          90
 IAtWgt=           1           1          23          16          12           1           1           1          12           1
 AtmWgt=   1.0078250   1.0078250  22.9897697  15.9949146  12.0000000   1.0078250   1.0078250   1.0078250  12.0000000   1.0078250
 NucSpn=           1           1           3           0           0           1           1           1           0           1
 AtZEff=   0.0000000   0.0000000   0.0000000   0.0000000   0.0000000   0.0000000   0.0000000   0.0000000   0.0000000   0.0000000
 NQMom=    0.0000000   0.0000000  10.4000000   0.0000000   0.0000000   0.0000000   0.0000000   0.0000000   0.0000000   0.0000000
 NMagM=    2.7928460   2.7928460   2.2175200   0.0000000   0.0000000   2.7928460   2.7928460   2.7928460   0.0000000   2.7928460
 AtZNuc=   1.0000000   1.0000000  11.0000000   8.0000000   6.0000000   1.0000000   1.0000000   1.0000000   6.0000000   1.0000000

  Atom        91          92          93          94          95          96          97          98          99         100
 IAtWgt=           1           1          12          19          19          19          12          19          19          19
 AtmWgt=   1.0078250   1.0078250  12.0000000  18.9984033  18.9984033  18.9984033  12.0000000  18.9984033  18.9984033  18.9984033
 NucSpn=           1           1           0           1           1           1           0           1           1           1
 AtZEff=   0.0000000   0.0000000   0.0000000   0.0000000   0.0000000   0.0000000   0.0000000   0.0000000   0.0000000   0.0000000
 NQMom=    0.0000000   0.0000000   0.0000000   0.0000000   0.0000000   0.0000000   0.0000000   0.0000000   0.0000000   0.0000000
 NMagM=    2.7928460   2.7928460   0.0000000   2.6288670   2.6288670   2.6288670   0.0000000   2.6288670   2.6288670   2.6288670
 AtZNuc=   1.0000000   1.0000000   6.0000000   9.0000000   9.0000000   9.0000000   6.0000000   9.0000000   9.0000000   9.0000000
 Leave Link  101 at Wed May  8 19:15:00 2019, MaxMem=  6442450944 cpu:              17.3 elap:               0.7
 (Enter /home/ekwan/sw/g16/l103.exe)

 GradGradGradGradGradGradGradGradGradGradGradGradGradGradGradGradGradGrad
 Berny optimization.
 Initialization pass.
                           ----------------------------
                           !    Initial Parameters    !
                           ! (Angstroms and Degrees)  !
 --------------------------                            --------------------------
 ! Name  Definition              Value          Derivative Info.                !
 --------------------------------------------------------------------------------
 ! R1    R(1,2)                  1.528          calculate D2E/DX2 analytically  !
 ! R2    R(1,5)                  1.5399         calculate D2E/DX2 analytically  !
 ! R3    R(1,8)                  1.098          calculate D2E/DX2 analytically  !
 ! R4    R(1,14)                 1.4259         calculate D2E/DX2 analytically  !
 ! R5    R(2,3)                  1.5289         calculate D2E/DX2 analytically  !
 ! R6    R(2,7)                  1.0972         calculate D2E/DX2 analytically  !
 ! R7    R(2,13)                 1.4183         calculate D2E/DX2 analytically  !
 ! R8    R(3,6)                  1.0982         calculate D2E/DX2 analytically  !
 ! R9    R(3,11)                 1.4088         calculate D2E/DX2 analytically  !
 ! R10   R(3,12)                 1.4056         calculate D2E/DX2 analytically  !
 ! R11   R(4,5)                  1.5436         calculate D2E/DX2 analytically  !
 ! R12   R(4,9)                  1.0963         calculate D2E/DX2 analytically  !
 ! R13   R(4,11)                 1.4367         calculate D2E/DX2 analytically  !
 ! R14   R(4,16)                 1.5474         calculate D2E/DX2 analytically  !
 ! R15   R(5,10)                 1.0997         calculate D2E/DX2 analytically  !
 ! R16   R(5,15)                 1.4302         calculate D2E/DX2 analytically  !
 ! R17   R(9,86)                 2.3431         calculate D2E/DX2 analytically  !
 ! R18   R(12,79)                1.4237         calculate D2E/DX2 analytically  !
 ! R19   R(13,20)                1.4195         calculate D2E/DX2 analytically  !
 ! R20   R(14,24)                1.4206         calculate D2E/DX2 analytically  !
 ! R21   R(15,28)                1.4289         calculate D2E/DX2 analytically  !
 ! R22   R(16,17)                1.1114         calculate D2E/DX2 analytically  !
 ! R23   R(16,18)                1.1157         calculate D2E/DX2 analytically  !
 ! R24   R(16,19)                1.3684         calculate D2E/DX2 analytically  !
 ! R25   R(18,37)                2.1304         calculate D2E/DX2 analytically  !
 ! R26   R(18,64)                2.265          calculate D2E/DX2 analytically  !
 ! R27   R(19,37)                2.2754         calculate D2E/DX2 analytically  !
 ! R28   R(19,38)                2.1662         calculate D2E/DX2 analytically  !
 ! R29   R(19,83)                2.1594         calculate D2E/DX2 analytically  !
 ! R30   R(20,21)                1.0986         calculate D2E/DX2 analytically  !
 ! R31   R(20,22)                1.0981         calculate D2E/DX2 analytically  !
 ! R32   R(20,23)                1.0925         calculate D2E/DX2 analytically  !
 ! R33   R(24,25)                1.1004         calculate D2E/DX2 analytically  !
 ! R34   R(24,26)                1.0931         calculate D2E/DX2 analytically  !
 ! R35   R(24,27)                1.0915         calculate D2E/DX2 analytically  !
 ! R36   R(28,29)                1.0937         calculate D2E/DX2 analytically  !
 ! R37   R(28,30)                1.0918         calculate D2E/DX2 analytically  !
 ! R38   R(28,31)                1.0934         calculate D2E/DX2 analytically  !
 ! R39   R(32,33)                1.5292         calculate D2E/DX2 analytically  !
 ! R40   R(32,36)                1.5323         calculate D2E/DX2 analytically  !
 ! R41   R(32,39)                1.0956         calculate D2E/DX2 analytically  !
 ! R42   R(32,45)                1.4195         calculate D2E/DX2 analytically  !
 ! R43   R(33,34)                1.5113         calculate D2E/DX2 analytically  !
 ! R44   R(33,38)                1.0944         calculate D2E/DX2 analytically  !
 ! R45   R(33,44)                1.4153         calculate D2E/DX2 analytically  !
 ! R46   R(34,37)                1.0749         calculate D2E/DX2 analytically  !
 ! R47   R(34,42)                1.3176         calculate D2E/DX2 analytically  !
 ! R48   R(34,53)                1.9483         calculate D2E/DX2 analytically  !
 ! R49   R(35,36)                1.5335         calculate D2E/DX2 analytically  !
 ! R50   R(35,40)                1.0932         calculate D2E/DX2 analytically  !
 ! R51   R(35,42)                1.4533         calculate D2E/DX2 analytically  !
 ! R52   R(35,47)                1.5137         calculate D2E/DX2 analytically  !
 ! R53   R(36,41)                1.0986         calculate D2E/DX2 analytically  !
 ! R54   R(36,46)                1.4165         calculate D2E/DX2 analytically  !
 ! R55   R(43,51)                1.4765         calculate D2E/DX2 analytically  !
 ! R56   R(44,63)                1.4283         calculate D2E/DX2 analytically  !
 ! R57   R(45,67)                1.424          calculate D2E/DX2 analytically  !
 ! R58   R(46,71)                1.4245         calculate D2E/DX2 analytically  !
 ! R59   R(47,48)                1.0963         calculate D2E/DX2 analytically  !
 ! R60   R(47,49)                1.0984         calculate D2E/DX2 analytically  !
 ! R61   R(47,50)                1.424          calculate D2E/DX2 analytically  !
 ! R62   R(50,75)                1.4261         calculate D2E/DX2 analytically  !
 ! R63   R(51,52)                1.4734         calculate D2E/DX2 analytically  !
 ! R64   R(51,53)                1.5367         calculate D2E/DX2 analytically  !
 ! R65   R(51,54)                1.7991         calculate D2E/DX2 analytically  !
 ! R66   R(54,55)                1.3942         calculate D2E/DX2 analytically  !
 ! R67   R(54,56)                1.393          calculate D2E/DX2 analytically  !
 ! R68   R(55,57)                1.3927         calculate D2E/DX2 analytically  !
 ! R69   R(55,58)                1.0824         calculate D2E/DX2 analytically  !
 ! R70   R(56,59)                1.3959         calculate D2E/DX2 analytically  !
 ! R71   R(56,60)                1.0845         calculate D2E/DX2 analytically  !
 ! R72   R(57,61)                1.3962         calculate D2E/DX2 analytically  !
 ! R73   R(57,97)                1.5043         calculate D2E/DX2 analytically  !
 ! R74   R(59,61)                1.3938         calculate D2E/DX2 analytically  !
 ! R75   R(59,93)                1.5045         calculate D2E/DX2 analytically  !
 ! R76   R(61,62)                1.0839         calculate D2E/DX2 analytically  !
 ! R77   R(63,64)                1.0948         calculate D2E/DX2 analytically  !
 ! R78   R(63,65)                1.0971         calculate D2E/DX2 analytically  !
 ! R79   R(63,66)                1.0915         calculate D2E/DX2 analytically  !
 ! R80   R(67,68)                1.099          calculate D2E/DX2 analytically  !
 ! R81   R(67,69)                1.0948         calculate D2E/DX2 analytically  !
 ! R82   R(67,70)                1.0927         calculate D2E/DX2 analytically  !
 ! R83   R(71,72)                1.094          calculate D2E/DX2 analytically  !
 ! R84   R(71,73)                1.0996         calculate D2E/DX2 analytically  !
 ! R85   R(71,74)                1.0925         calculate D2E/DX2 analytically  !
 ! R86   R(75,76)                1.0919         calculate D2E/DX2 analytically  !
 ! R87   R(75,77)                1.0983         calculate D2E/DX2 analytically  !
 ! R88   R(75,78)                1.0971         calculate D2E/DX2 analytically  !
 ! R89   R(79,80)                1.0917         calculate D2E/DX2 analytically  !
 ! R90   R(79,81)                1.0963         calculate D2E/DX2 analytically  !
 ! R91   R(79,82)                1.0989         calculate D2E/DX2 analytically  !
 ! R92   R(83,84)                2.346          calculate D2E/DX2 analytically  !
 ! R93   R(84,85)                1.4258         calculate D2E/DX2 analytically  !
 ! R94   R(84,89)                1.4225         calculate D2E/DX2 analytically  !
 ! R95   R(85,86)                1.0977         calculate D2E/DX2 analytically  !
 ! R96   R(85,87)                1.0901         calculate D2E/DX2 analytically  !
 ! R97   R(85,88)                1.0984         calculate D2E/DX2 analytically  !
 ! R98   R(89,90)                1.0984         calculate D2E/DX2 analytically  !
 ! R99   R(89,91)                1.0923         calculate D2E/DX2 analytically  !
 ! R100  R(89,92)                1.0986         calculate D2E/DX2 analytically  !
 ! R101  R(93,94)                1.3553         calculate D2E/DX2 analytically  !
 ! R102  R(93,95)                1.3496         calculate D2E/DX2 analytically  !
 ! R103  R(93,96)                1.3512         calculate D2E/DX2 analytically  !
 ! R104  R(97,98)                1.346          calculate D2E/DX2 analytically  !
 ! R105  R(97,99)                1.3555         calculate D2E/DX2 analytically  !
 ! R106  R(97,100)               1.354          calculate D2E/DX2 analytically  !
 ! A1    A(2,1,5)              112.7493         calculate D2E/DX2 analytically  !
 ! A2    A(2,1,8)              108.4166         calculate D2E/DX2 analytically  !
 ! A3    A(2,1,14)             110.7614         calculate D2E/DX2 analytically  !
 ! A4    A(5,1,8)              108.3398         calculate D2E/DX2 analytically  !
 ! A5    A(5,1,14)             106.3863         calculate D2E/DX2 analytically  !
 ! A6    A(8,1,14)             110.1498         calculate D2E/DX2 analytically  !
 ! A7    A(1,2,3)              110.4727         calculate D2E/DX2 analytically  !
 ! A8    A(1,2,7)              108.2786         calculate D2E/DX2 analytically  !
 ! A9    A(1,2,13)             108.0236         calculate D2E/DX2 analytically  !
 ! A10   A(3,2,7)              106.8632         calculate D2E/DX2 analytically  !
 ! A11   A(3,2,13)             112.9011         calculate D2E/DX2 analytically  !
 ! A12   A(7,2,13)             110.2195         calculate D2E/DX2 analytically  !
 ! A13   A(2,3,6)              111.5562         calculate D2E/DX2 analytically  !
 ! A14   A(2,3,11)             108.6989         calculate D2E/DX2 analytically  !
 ! A15   A(2,3,12)             108.6976         calculate D2E/DX2 analytically  !
 ! A16   A(6,3,11)             104.6897         calculate D2E/DX2 analytically  !
 ! A17   A(6,3,12)             109.9308         calculate D2E/DX2 analytically  !
 ! A18   A(11,3,12)            113.2625         calculate D2E/DX2 analytically  !
 ! A19   A(5,4,9)              107.8955         calculate D2E/DX2 analytically  !
 ! A20   A(5,4,11)             111.4269         calculate D2E/DX2 analytically  !
 ! A21   A(5,4,16)             114.2915         calculate D2E/DX2 analytically  !
 ! A22   A(9,4,11)             109.3982         calculate D2E/DX2 analytically  !
 ! A23   A(9,4,16)             109.2817         calculate D2E/DX2 analytically  !
 ! A24   A(11,4,16)            104.4587         calculate D2E/DX2 analytically  !
 ! A25   A(1,5,4)              114.6192         calculate D2E/DX2 analytically  !
 ! A26   A(1,5,10)             106.9231         calculate D2E/DX2 analytically  !
 ! A27   A(1,5,15)             110.4762         calculate D2E/DX2 analytically  !
 ! A28   A(4,5,10)             109.2124         calculate D2E/DX2 analytically  !
 ! A29   A(4,5,15)             106.1771         calculate D2E/DX2 analytically  !
 ! A30   A(10,5,15)            109.3751         calculate D2E/DX2 analytically  !
 ! A31   A(4,9,86)             140.7646         calculate D2E/DX2 analytically  !
 ! A32   A(3,11,4)             114.737          calculate D2E/DX2 analytically  !
 ! A33   A(3,12,79)            113.0551         calculate D2E/DX2 analytically  !
 ! A34   A(2,13,20)            113.9831         calculate D2E/DX2 analytically  !
 ! A35   A(1,14,24)            115.4008         calculate D2E/DX2 analytically  !
 ! A36   A(5,15,28)            117.0927         calculate D2E/DX2 analytically  !
 ! A37   A(4,16,17)            104.5494         calculate D2E/DX2 analytically  !
 ! A38   A(4,16,18)            105.0736         calculate D2E/DX2 analytically  !
 ! A39   A(4,16,19)            115.7192         calculate D2E/DX2 analytically  !
 ! A40   A(17,16,18)           104.366          calculate D2E/DX2 analytically  !
 ! A41   A(17,16,19)           113.2619         calculate D2E/DX2 analytically  !
 ! A42   A(18,16,19)           112.7919         calculate D2E/DX2 analytically  !
 ! A43   A(16,18,37)            98.2389         calculate D2E/DX2 analytically  !
 ! A44   A(16,18,64)           106.6146         calculate D2E/DX2 analytically  !
 ! A45   A(37,18,64)            85.7749         calculate D2E/DX2 analytically  !
 ! A46   A(16,19,37)            84.6056         calculate D2E/DX2 analytically  !
 ! A47   A(16,19,38)           125.2232         calculate D2E/DX2 analytically  !
 ! A48   A(16,19,83)           122.2811         calculate D2E/DX2 analytically  !
 ! A49   A(37,19,38)            72.1233         calculate D2E/DX2 analytically  !
 ! A50   A(37,19,83)            98.1533         calculate D2E/DX2 analytically  !
 ! A51   A(38,19,83)           109.9058         calculate D2E/DX2 analytically  !
 ! A52   A(13,20,21)           112.2267         calculate D2E/DX2 analytically  !
 ! A53   A(13,20,22)           111.2161         calculate D2E/DX2 analytically  !
 ! A54   A(13,20,23)           106.6917         calculate D2E/DX2 analytically  !
 ! A55   A(21,20,22)           108.8494         calculate D2E/DX2 analytically  !
 ! A56   A(21,20,23)           108.6127         calculate D2E/DX2 analytically  !
 ! A57   A(22,20,23)           109.1581         calculate D2E/DX2 analytically  !
 ! A58   A(14,24,25)           110.9181         calculate D2E/DX2 analytically  !
 ! A59   A(14,24,26)           111.6267         calculate D2E/DX2 analytically  !
 ! A60   A(14,24,27)           106.4172         calculate D2E/DX2 analytically  !
 ! A61   A(25,24,26)           108.8877         calculate D2E/DX2 analytically  !
 ! A62   A(25,24,27)           109.0847         calculate D2E/DX2 analytically  !
 ! A63   A(26,24,27)           109.8579         calculate D2E/DX2 analytically  !
 ! A64   A(15,28,29)           111.4977         calculate D2E/DX2 analytically  !
 ! A65   A(15,28,30)           111.6372         calculate D2E/DX2 analytically  !
 ! A66   A(15,28,31)           105.7922         calculate D2E/DX2 analytically  !
 ! A67   A(29,28,30)           109.9583         calculate D2E/DX2 analytically  !
 ! A68   A(29,28,31)           108.9515         calculate D2E/DX2 analytically  !
 ! A69   A(30,28,31)           108.8602         calculate D2E/DX2 analytically  !
 ! A70   A(33,32,36)           109.1829         calculate D2E/DX2 analytically  !
 ! A71   A(33,32,39)           110.0829         calculate D2E/DX2 analytically  !
 ! A72   A(33,32,45)           109.7881         calculate D2E/DX2 analytically  !
 ! A73   A(36,32,39)           108.786          calculate D2E/DX2 analytically  !
 ! A74   A(36,32,45)           108.326          calculate D2E/DX2 analytically  !
 ! A75   A(39,32,45)           110.634          calculate D2E/DX2 analytically  !
 ! A76   A(32,33,34)           111.9238         calculate D2E/DX2 analytically  !
 ! A77   A(32,33,38)           108.3398         calculate D2E/DX2 analytically  !
 ! A78   A(32,33,44)           111.7634         calculate D2E/DX2 analytically  !
 ! A79   A(34,33,38)           103.1093         calculate D2E/DX2 analytically  !
 ! A80   A(34,33,44)           111.0353         calculate D2E/DX2 analytically  !
 ! A81   A(38,33,44)           110.2954         calculate D2E/DX2 analytically  !
 ! A82   A(33,34,37)           120.1991         calculate D2E/DX2 analytically  !
 ! A83   A(33,34,42)           120.9188         calculate D2E/DX2 analytically  !
 ! A84   A(33,34,53)            94.3766         calculate D2E/DX2 analytically  !
 ! A85   A(37,34,42)           114.4489         calculate D2E/DX2 analytically  !
 ! A86   A(37,34,53)            95.6356         calculate D2E/DX2 analytically  !
 ! A87   A(42,34,53)           101.1833         calculate D2E/DX2 analytically  !
 ! A88   A(36,35,40)           109.0653         calculate D2E/DX2 analytically  !
 ! A89   A(36,35,42)           111.653          calculate D2E/DX2 analytically  !
 ! A90   A(36,35,47)           114.4422         calculate D2E/DX2 analytically  !
 ! A91   A(40,35,42)           106.704          calculate D2E/DX2 analytically  !
 ! A92   A(40,35,47)           108.8079         calculate D2E/DX2 analytically  !
 ! A93   A(42,35,47)           105.8426         calculate D2E/DX2 analytically  !
 ! A94   A(32,36,35)           110.4463         calculate D2E/DX2 analytically  !
 ! A95   A(32,36,41)           109.219          calculate D2E/DX2 analytically  !
 ! A96   A(32,36,46)           111.3339         calculate D2E/DX2 analytically  !
 ! A97   A(35,36,41)           109.4332         calculate D2E/DX2 analytically  !
 ! A98   A(35,36,46)           105.7307         calculate D2E/DX2 analytically  !
 ! A99   A(41,36,46)           110.6268         calculate D2E/DX2 analytically  !
 ! A100  A(18,37,19)            56.0396         calculate D2E/DX2 analytically  !
 ! A101  A(18,37,34)           133.3265         calculate D2E/DX2 analytically  !
 ! A102  A(19,37,34)            84.7254         calculate D2E/DX2 analytically  !
 ! A103  A(19,38,33)           114.1593         calculate D2E/DX2 analytically  !
 ! A104  A(34,42,35)           118.7802         calculate D2E/DX2 analytically  !
 ! A105  A(33,44,63)           114.0321         calculate D2E/DX2 analytically  !
 ! A106  A(32,45,67)           113.9583         calculate D2E/DX2 analytically  !
 ! A107  A(36,46,71)           114.314          calculate D2E/DX2 analytically  !
 ! A108  A(35,47,48)           108.2619         calculate D2E/DX2 analytically  !
 ! A109  A(35,47,49)           109.6992         calculate D2E/DX2 analytically  !
 ! A110  A(35,47,50)           109.4304         calculate D2E/DX2 analytically  !
 ! A111  A(48,47,49)           108.8208         calculate D2E/DX2 analytically  !
 ! A112  A(48,47,50)           110.6648         calculate D2E/DX2 analytically  !
 ! A113  A(49,47,50)           109.9361         calculate D2E/DX2 analytically  !
 ! A114  A(47,50,75)           112.4321         calculate D2E/DX2 analytically  !
 ! A115  A(43,51,52)           116.4553         calculate D2E/DX2 analytically  !
 ! A116  A(43,51,53)           112.744          calculate D2E/DX2 analytically  !
 ! A117  A(43,51,54)           106.1697         calculate D2E/DX2 analytically  !
 ! A118  A(52,51,53)           109.5363         calculate D2E/DX2 analytically  !
 ! A119  A(52,51,54)           107.6114         calculate D2E/DX2 analytically  !
 ! A120  A(53,51,54)           103.2919         calculate D2E/DX2 analytically  !
 ! A121  A(34,53,51)           119.04           calculate D2E/DX2 analytically  !
 ! A122  A(51,54,55)           119.1031         calculate D2E/DX2 analytically  !
 ! A123  A(51,54,56)           119.5795         calculate D2E/DX2 analytically  !
 ! A124  A(55,54,56)           121.2813         calculate D2E/DX2 analytically  !
 ! A125  A(54,55,57)           119.0199         calculate D2E/DX2 analytically  !
 ! A126  A(54,55,58)           120.2489         calculate D2E/DX2 analytically  !
 ! A127  A(57,55,58)           120.7246         calculate D2E/DX2 analytically  !
 ! A128  A(54,56,59)           118.9093         calculate D2E/DX2 analytically  !
 ! A129  A(54,56,60)           119.9811         calculate D2E/DX2 analytically  !
 ! A130  A(59,56,60)           121.0859         calculate D2E/DX2 analytically  !
 ! A131  A(55,57,61)           120.6101         calculate D2E/DX2 analytically  !
 ! A132  A(55,57,97)           120.6748         calculate D2E/DX2 analytically  !
 ! A133  A(61,57,97)           118.6522         calculate D2E/DX2 analytically  !
 ! A134  A(56,59,61)           120.6523         calculate D2E/DX2 analytically  !
 ! A135  A(56,59,93)           119.3763         calculate D2E/DX2 analytically  !
 ! A136  A(61,59,93)           119.9338         calculate D2E/DX2 analytically  !
 ! A137  A(57,61,59)           119.5089         calculate D2E/DX2 analytically  !
 ! A138  A(57,61,62)           120.2882         calculate D2E/DX2 analytically  !
 ! A139  A(59,61,62)           120.2026         calculate D2E/DX2 analytically  !
 ! A140  A(44,63,64)           111.6445         calculate D2E/DX2 analytically  !
 ! A141  A(44,63,65)           110.8552         calculate D2E/DX2 analytically  !
 ! A142  A(44,63,66)           106.1824         calculate D2E/DX2 analytically  !
 ! A143  A(64,63,65)           109.387          calculate D2E/DX2 analytically  !
 ! A144  A(64,63,66)           109.1173         calculate D2E/DX2 analytically  !
 ! A145  A(65,63,66)           109.5841         calculate D2E/DX2 analytically  !
 ! A146  A(18,64,63)           145.5898         calculate D2E/DX2 analytically  !
 ! A147  A(45,67,68)           110.9778         calculate D2E/DX2 analytically  !
 ! A148  A(45,67,69)           111.4356         calculate D2E/DX2 analytically  !
 ! A149  A(45,67,70)           106.5471         calculate D2E/DX2 analytically  !
 ! A150  A(68,67,69)           109.075          calculate D2E/DX2 analytically  !
 ! A151  A(68,67,70)           109.1082         calculate D2E/DX2 analytically  !
 ! A152  A(69,67,70)           109.6437         calculate D2E/DX2 analytically  !
 ! A153  A(46,71,72)           111.1842         calculate D2E/DX2 analytically  !
 ! A154  A(46,71,73)           110.9517         calculate D2E/DX2 analytically  !
 ! A155  A(46,71,74)           106.4402         calculate D2E/DX2 analytically  !
 ! A156  A(72,71,73)           109.3282         calculate D2E/DX2 analytically  !
 ! A157  A(72,71,74)           109.8148         calculate D2E/DX2 analytically  !
 ! A158  A(73,71,74)           109.0642         calculate D2E/DX2 analytically  !
 ! A159  A(50,75,76)           106.9214         calculate D2E/DX2 analytically  !
 ! A160  A(50,75,77)           110.8467         calculate D2E/DX2 analytically  !
 ! A161  A(50,75,78)           110.7141         calculate D2E/DX2 analytically  !
 ! A162  A(76,75,77)           109.4509         calculate D2E/DX2 analytically  !
 ! A163  A(76,75,78)           109.6832         calculate D2E/DX2 analytically  !
 ! A164  A(77,75,78)           109.191          calculate D2E/DX2 analytically  !
 ! A165  A(12,79,80)           106.7765         calculate D2E/DX2 analytically  !
 ! A166  A(12,79,81)           111.4933         calculate D2E/DX2 analytically  !
 ! A167  A(12,79,82)           110.8001         calculate D2E/DX2 analytically  !
 ! A168  A(80,79,81)           109.5724         calculate D2E/DX2 analytically  !
 ! A169  A(80,79,82)           109.4159         calculate D2E/DX2 analytically  !
 ! A170  A(81,79,82)           108.7496         calculate D2E/DX2 analytically  !
 ! A171  A(19,83,84)           115.9609         calculate D2E/DX2 analytically  !
 ! A172  A(83,84,85)           119.7838         calculate D2E/DX2 analytically  !
 ! A173  A(83,84,89)           118.0468         calculate D2E/DX2 analytically  !
 ! A174  A(85,84,89)           112.1319         calculate D2E/DX2 analytically  !
 ! A175  A(84,85,86)           110.9324         calculate D2E/DX2 analytically  !
 ! A176  A(84,85,87)           107.1245         calculate D2E/DX2 analytically  !
 ! A177  A(84,85,88)           110.4115         calculate D2E/DX2 analytically  !
 ! A178  A(86,85,87)           108.9029         calculate D2E/DX2 analytically  !
 ! A179  A(86,85,88)           109.4756         calculate D2E/DX2 analytically  !
 ! A180  A(87,85,88)           109.9534         calculate D2E/DX2 analytically  !
 ! A181  A(9,86,85)            111.3422         calculate D2E/DX2 analytically  !
 ! A182  A(84,89,90)           110.8559         calculate D2E/DX2 analytically  !
 ! A183  A(84,89,91)           107.3304         calculate D2E/DX2 analytically  !
 ! A184  A(84,89,92)           110.9229         calculate D2E/DX2 analytically  !
 ! A185  A(90,89,91)           109.4226         calculate D2E/DX2 analytically  !
 ! A186  A(90,89,92)           109.0218         calculate D2E/DX2 analytically  !
 ! A187  A(91,89,92)           109.2525         calculate D2E/DX2 analytically  !
 ! A188  A(59,93,94)           111.6922         calculate D2E/DX2 analytically  !
 ! A189  A(59,93,95)           111.8914         calculate D2E/DX2 analytically  !
 ! A190  A(59,93,96)           111.7324         calculate D2E/DX2 analytically  !
 ! A191  A(94,93,95)           106.8179         calculate D2E/DX2 analytically  !
 ! A192  A(94,93,96)           106.7179         calculate D2E/DX2 analytically  !
 ! A193  A(95,93,96)           107.6879         calculate D2E/DX2 analytically  !
 ! A194  A(57,97,98)           112.6738         calculate D2E/DX2 analytically  !
 ! A195  A(57,97,99)           110.6563         calculate D2E/DX2 analytically  !
 ! A196  A(57,97,100)          112.1089         calculate D2E/DX2 analytically  !
 ! A197  A(98,97,99)           107.0859         calculate D2E/DX2 analytically  !
 ! A198  A(98,97,100)          107.8062         calculate D2E/DX2 analytically  !
 ! A199  A(99,97,100)          106.1655         calculate D2E/DX2 analytically  !
 ! D1    D(5,1,2,3)            -47.0176         calculate D2E/DX2 analytically  !
 ! D2    D(5,1,2,7)             69.6886         calculate D2E/DX2 analytically  !
 ! D3    D(5,1,2,13)          -170.9551         calculate D2E/DX2 analytically  !
 ! D4    D(8,1,2,3)             72.9319         calculate D2E/DX2 analytically  !
 ! D5    D(8,1,2,7)           -170.3618         calculate D2E/DX2 analytically  !
 ! D6    D(8,1,2,13)           -51.0056         calculate D2E/DX2 analytically  !
 ! D7    D(14,1,2,3)          -166.1032         calculate D2E/DX2 analytically  !
 ! D8    D(14,1,2,7)           -49.397          calculate D2E/DX2 analytically  !
 ! D9    D(14,1,2,13)           69.9593         calculate D2E/DX2 analytically  !
 ! D10   D(2,1,5,4)             38.1412         calculate D2E/DX2 analytically  !
 ! D11   D(2,1,5,10)           -83.0427         calculate D2E/DX2 analytically  !
 ! D12   D(2,1,5,15)           158.0253         calculate D2E/DX2 analytically  !
 ! D13   D(8,1,5,4)            -81.8526         calculate D2E/DX2 analytically  !
 ! D14   D(8,1,5,10)           156.9635         calculate D2E/DX2 analytically  !
 ! D15   D(8,1,5,15)            38.0315         calculate D2E/DX2 analytically  !
 ! D16   D(14,1,5,4)           159.7393         calculate D2E/DX2 analytically  !
 ! D17   D(14,1,5,10)           38.5554         calculate D2E/DX2 analytically  !
 ! D18   D(14,1,5,15)          -80.3766         calculate D2E/DX2 analytically  !
 ! D19   D(2,1,14,24)          -88.7691         calculate D2E/DX2 analytically  !
 ! D20   D(5,1,14,24)          148.3743         calculate D2E/DX2 analytically  !
 ! D21   D(8,1,14,24)           31.1642         calculate D2E/DX2 analytically  !
 ! D22   D(1,2,3,6)            174.8803         calculate D2E/DX2 analytically  !
 ! D23   D(1,2,3,11)            59.9476         calculate D2E/DX2 analytically  !
 ! D24   D(1,2,3,12)           -63.7446         calculate D2E/DX2 analytically  !
 ! D25   D(7,2,3,6)             57.2999         calculate D2E/DX2 analytically  !
 ! D26   D(7,2,3,11)           -57.6329         calculate D2E/DX2 analytically  !
 ! D27   D(7,2,3,12)           178.675          calculate D2E/DX2 analytically  !
 ! D28   D(13,2,3,6)           -64.0391         calculate D2E/DX2 analytically  !
 ! D29   D(13,2,3,11)         -178.9719         calculate D2E/DX2 analytically  !
 ! D30   D(13,2,3,12)           57.336          calculate D2E/DX2 analytically  !
 ! D31   D(1,2,13,20)         -159.8867         calculate D2E/DX2 analytically  !
 ! D32   D(3,2,13,20)           77.6518         calculate D2E/DX2 analytically  !
 ! D33   D(7,2,13,20)          -41.7666         calculate D2E/DX2 analytically  !
 ! D34   D(2,3,11,4)           -66.4061         calculate D2E/DX2 analytically  !
 ! D35   D(6,3,11,4)           174.2714         calculate D2E/DX2 analytically  !
 ! D36   D(12,3,11,4)           54.517          calculate D2E/DX2 analytically  !
 ! D37   D(2,3,12,79)         -173.6031         calculate D2E/DX2 analytically  !
 ! D38   D(6,3,12,79)          -51.2378         calculate D2E/DX2 analytically  !
 ! D39   D(11,3,12,79)          65.4731         calculate D2E/DX2 analytically  !
 ! D40   D(9,4,5,1)             79.6694         calculate D2E/DX2 analytically  !
 ! D41   D(9,4,5,10)          -160.412          calculate D2E/DX2 analytically  !
 ! D42   D(9,4,5,15)           -42.5792         calculate D2E/DX2 analytically  !
 ! D43   D(11,4,5,1)           -40.4399         calculate D2E/DX2 analytically  !
 ! D44   D(11,4,5,10)           79.4786         calculate D2E/DX2 analytically  !
 ! D45   D(11,4,5,15)         -162.6885         calculate D2E/DX2 analytically  !
 ! D46   D(16,4,5,1)          -158.5648         calculate D2E/DX2 analytically  !
 ! D47   D(16,4,5,10)          -38.6463         calculate D2E/DX2 analytically  !
 ! D48   D(16,4,5,15)           79.1865         calculate D2E/DX2 analytically  !
 ! D49   D(5,4,9,86)           -29.6061         calculate D2E/DX2 analytically  !
 ! D50   D(11,4,9,86)           91.7726         calculate D2E/DX2 analytically  !
 ! D51   D(16,4,9,86)         -154.4225         calculate D2E/DX2 analytically  !
 ! D52   D(5,4,11,3)            56.1244         calculate D2E/DX2 analytically  !
 ! D53   D(9,4,11,3)           -63.0946         calculate D2E/DX2 analytically  !
 ! D54   D(16,4,11,3)         -179.9879         calculate D2E/DX2 analytically  !
 ! D55   D(5,4,16,17)          166.5173         calculate D2E/DX2 analytically  !
 ! D56   D(5,4,16,18)           56.9222         calculate D2E/DX2 analytically  !
 ! D57   D(5,4,16,19)          -68.1798         calculate D2E/DX2 analytically  !
 ! D58   D(9,4,16,17)          -72.4813         calculate D2E/DX2 analytically  !
 ! D59   D(9,4,16,18)          177.9237         calculate D2E/DX2 analytically  !
 ! D60   D(9,4,16,19)           52.8217         calculate D2E/DX2 analytically  !
 ! D61   D(11,4,16,17)          44.4925         calculate D2E/DX2 analytically  !
 ! D62   D(11,4,16,18)         -65.1025         calculate D2E/DX2 analytically  !
 ! D63   D(11,4,16,19)         169.7955         calculate D2E/DX2 analytically  !
 ! D64   D(1,5,15,28)           63.878          calculate D2E/DX2 analytically  !
 ! D65   D(4,5,15,28)         -171.2784         calculate D2E/DX2 analytically  !
 ! D66   D(10,5,15,28)         -53.5537         calculate D2E/DX2 analytically  !
 ! D67   D(4,9,86,85)          109.3861         calculate D2E/DX2 analytically  !
 ! D68   D(3,12,79,80)         177.837          calculate D2E/DX2 analytically  !
 ! D69   D(3,12,79,81)         -62.5096         calculate D2E/DX2 analytically  !
 ! D70   D(3,12,79,82)          58.7638         calculate D2E/DX2 analytically  !
 ! D71   D(2,13,20,21)         -66.5504         calculate D2E/DX2 analytically  !
 ! D72   D(2,13,20,22)          55.6596         calculate D2E/DX2 analytically  !
 ! D73   D(2,13,20,23)         174.6017         calculate D2E/DX2 analytically  !
 ! D74   D(1,14,24,25)         -53.7782         calculate D2E/DX2 analytically  !
 ! D75   D(1,14,24,26)          67.8455         calculate D2E/DX2 analytically  !
 ! D76   D(1,14,24,27)        -172.3026         calculate D2E/DX2 analytically  !
 ! D77   D(5,15,28,29)         -74.6231         calculate D2E/DX2 analytically  !
 ! D78   D(5,15,28,30)          48.8059         calculate D2E/DX2 analytically  !
 ! D79   D(5,15,28,31)         167.0739         calculate D2E/DX2 analytically  !
 ! D80   D(4,16,18,37)         -98.2166         calculate D2E/DX2 analytically  !
 ! D81   D(4,16,18,64)         173.7594         calculate D2E/DX2 analytically  !
 ! D82   D(17,16,18,37)        152.0561         calculate D2E/DX2 analytically  !
 ! D83   D(17,16,18,64)         64.0321         calculate D2E/DX2 analytically  !
 ! D84   D(19,16,18,37)         28.7005         calculate D2E/DX2 analytically  !
 ! D85   D(19,16,18,64)        -59.3235         calculate D2E/DX2 analytically  !
 ! D86   D(4,16,19,37)          94.482          calculate D2E/DX2 analytically  !
 ! D87   D(4,16,19,38)         158.1156         calculate D2E/DX2 analytically  !
 ! D88   D(4,16,19,83)          -1.7666         calculate D2E/DX2 analytically  !
 ! D89   D(17,16,19,37)       -144.8158         calculate D2E/DX2 analytically  !
 ! D90   D(17,16,19,38)        -81.1822         calculate D2E/DX2 analytically  !
 ! D91   D(17,16,19,83)        118.9356         calculate D2E/DX2 analytically  !
 ! D92   D(18,16,19,37)        -26.5491         calculate D2E/DX2 analytically  !
 ! D93   D(18,16,19,38)         37.0845         calculate D2E/DX2 analytically  !
 ! D94   D(18,16,19,83)       -122.7977         calculate D2E/DX2 analytically  !
 ! D95   D(16,18,37,19)        -18.7242         calculate D2E/DX2 analytically  !
 ! D96   D(16,18,37,34)        -56.7601         calculate D2E/DX2 analytically  !
 ! D97   D(64,18,37,19)         87.4766         calculate D2E/DX2 analytically  !
 ! D98   D(64,18,37,34)         49.4408         calculate D2E/DX2 analytically  !
 ! D99   D(16,18,64,63)        102.2762         calculate D2E/DX2 analytically  !
 ! D100  D(37,18,64,63)          4.9275         calculate D2E/DX2 analytically  !
 ! D101  D(16,19,37,18)         15.0809         calculate D2E/DX2 analytically  !
 ! D102  D(16,19,37,34)        168.3288         calculate D2E/DX2 analytically  !
 ! D103  D(38,19,37,18)       -114.6495         calculate D2E/DX2 analytically  !
 ! D104  D(38,19,37,34)         38.5984         calculate D2E/DX2 analytically  !
 ! D105  D(83,19,37,18)        136.9782         calculate D2E/DX2 analytically  !
 ! D106  D(83,19,37,34)        -69.7738         calculate D2E/DX2 analytically  !
 ! D107  D(16,19,38,33)        -77.5896         calculate D2E/DX2 analytically  !
 ! D108  D(37,19,38,33)         -7.994          calculate D2E/DX2 analytically  !
 ! D109  D(83,19,38,33)         84.3953         calculate D2E/DX2 analytically  !
 ! D110  D(16,19,83,84)        -51.118          calculate D2E/DX2 analytically  !
 ! D111  D(37,19,83,84)       -139.8672         calculate D2E/DX2 analytically  !
 ! D112  D(38,19,83,84)        146.2695         calculate D2E/DX2 analytically  !
 ! D113  D(36,32,33,34)        -46.7938         calculate D2E/DX2 analytically  !
 ! D114  D(36,32,33,38)         66.2225         calculate D2E/DX2 analytically  !
 ! D115  D(36,32,33,44)       -172.0549         calculate D2E/DX2 analytically  !
 ! D116  D(39,32,33,34)         72.5624         calculate D2E/DX2 analytically  !
 ! D117  D(39,32,33,38)       -174.4214         calculate D2E/DX2 analytically  !
 ! D118  D(39,32,33,44)        -52.6988         calculate D2E/DX2 analytically  !
 ! D119  D(45,32,33,34)       -165.412          calculate D2E/DX2 analytically  !
 ! D120  D(45,32,33,38)        -52.3957         calculate D2E/DX2 analytically  !
 ! D121  D(45,32,33,44)         69.3269         calculate D2E/DX2 analytically  !
 ! D122  D(33,32,36,35)         56.385          calculate D2E/DX2 analytically  !
 ! D123  D(33,32,36,41)        -64.013          calculate D2E/DX2 analytically  !
 ! D124  D(33,32,36,46)        173.5297         calculate D2E/DX2 analytically  !
 ! D125  D(39,32,36,35)        -63.7716         calculate D2E/DX2 analytically  !
 ! D126  D(39,32,36,41)        175.8305         calculate D2E/DX2 analytically  !
 ! D127  D(39,32,36,46)         53.3732         calculate D2E/DX2 analytically  !
 ! D128  D(45,32,36,35)        175.9117         calculate D2E/DX2 analytically  !
 ! D129  D(45,32,36,41)         55.5138         calculate D2E/DX2 analytically  !
 ! D130  D(45,32,36,46)        -66.9435         calculate D2E/DX2 analytically  !
 ! D131  D(33,32,45,67)        -97.9481         calculate D2E/DX2 analytically  !
 ! D132  D(36,32,45,67)        142.9062         calculate D2E/DX2 analytically  !
 ! D133  D(39,32,45,67)         23.7485         calculate D2E/DX2 analytically  !
 ! D134  D(32,33,34,37)       -166.786          calculate D2E/DX2 analytically  !
 ! D135  D(32,33,34,42)         38.1513         calculate D2E/DX2 analytically  !
 ! D136  D(32,33,34,53)        -67.6663         calculate D2E/DX2 analytically  !
 ! D137  D(38,33,34,37)         76.9833         calculate D2E/DX2 analytically  !
 ! D138  D(38,33,34,42)        -78.0794         calculate D2E/DX2 analytically  !
 ! D139  D(38,33,34,53)        176.103          calculate D2E/DX2 analytically  !
 ! D140  D(44,33,34,37)        -41.1243         calculate D2E/DX2 analytically  !
 ! D141  D(44,33,34,42)        163.813          calculate D2E/DX2 analytically  !
 ! D142  D(44,33,34,53)         57.9954         calculate D2E/DX2 analytically  !
 ! D143  D(32,33,38,19)       -134.8847         calculate D2E/DX2 analytically  !
 ! D144  D(34,33,38,19)        -16.129          calculate D2E/DX2 analytically  !
 ! D145  D(44,33,38,19)        102.4955         calculate D2E/DX2 analytically  !
 ! D146  D(32,33,44,63)       -126.0717         calculate D2E/DX2 analytically  !
 ! D147  D(34,33,44,63)        108.1771         calculate D2E/DX2 analytically  !
 ! D148  D(38,33,44,63)         -5.4831         calculate D2E/DX2 analytically  !
 ! D149  D(33,34,37,18)        -42.9057         calculate D2E/DX2 analytically  !
 ! D150  D(33,34,37,19)        -73.7846         calculate D2E/DX2 analytically  !
 ! D151  D(42,34,37,18)        113.6823         calculate D2E/DX2 analytically  !
 ! D152  D(42,34,37,19)         82.8033         calculate D2E/DX2 analytically  !
 ! D153  D(53,34,37,18)       -141.3098         calculate D2E/DX2 analytically  !
 ! D154  D(53,34,37,19)       -172.1888         calculate D2E/DX2 analytically  !
 ! D155  D(33,34,42,35)        -36.681          calculate D2E/DX2 analytically  !
 ! D156  D(37,34,42,35)        166.9159         calculate D2E/DX2 analytically  !
 ! D157  D(53,34,42,35)         65.3877         calculate D2E/DX2 analytically  !
 ! D158  D(33,34,53,51)       -165.6532         calculate D2E/DX2 analytically  !
 ! D159  D(37,34,53,51)        -44.6905         calculate D2E/DX2 analytically  !
 ! D160  D(42,34,53,51)         71.6338         calculate D2E/DX2 analytically  !
 ! D161  D(40,35,36,32)         63.8627         calculate D2E/DX2 analytically  !
 ! D162  D(40,35,36,41)       -175.8677         calculate D2E/DX2 analytically  !
 ! D163  D(40,35,36,46)        -56.6933         calculate D2E/DX2 analytically  !
 ! D164  D(42,35,36,32)        -53.8087         calculate D2E/DX2 analytically  !
 ! D165  D(42,35,36,41)         66.4609         calculate D2E/DX2 analytically  !
 ! D166  D(42,35,36,46)       -174.3647         calculate D2E/DX2 analytically  !
 ! D167  D(47,35,36,32)       -174.0124         calculate D2E/DX2 analytically  !
 ! D168  D(47,35,36,41)        -53.7429         calculate D2E/DX2 analytically  !
 ! D169  D(47,35,36,46)         65.4316         calculate D2E/DX2 analytically  !
 ! D170  D(36,35,42,34)         43.6979         calculate D2E/DX2 analytically  !
 ! D171  D(40,35,42,34)        -75.3843         calculate D2E/DX2 analytically  !
 ! D172  D(47,35,42,34)        168.8273         calculate D2E/DX2 analytically  !
 ! D173  D(36,35,47,48)        -54.7922         calculate D2E/DX2 analytically  !
 ! D174  D(36,35,47,49)       -173.4112         calculate D2E/DX2 analytically  !
 ! D175  D(36,35,47,50)         65.9024         calculate D2E/DX2 analytically  !
 ! D176  D(40,35,47,48)         67.4729         calculate D2E/DX2 analytically  !
 ! D177  D(40,35,47,49)        -51.1461         calculate D2E/DX2 analytically  !
 ! D178  D(40,35,47,50)       -171.8325         calculate D2E/DX2 analytically  !
 ! D179  D(42,35,47,48)       -178.1791         calculate D2E/DX2 analytically  !
 ! D180  D(42,35,47,49)         63.2019         calculate D2E/DX2 analytically  !
 ! D181  D(42,35,47,50)        -57.4845         calculate D2E/DX2 analytically  !
 ! D182  D(32,36,46,71)         98.4247         calculate D2E/DX2 analytically  !
 ! D183  D(35,36,46,71)       -141.5998         calculate D2E/DX2 analytically  !
 ! D184  D(41,36,46,71)        -23.2176         calculate D2E/DX2 analytically  !
 ! D185  D(33,44,63,64)        -63.692          calculate D2E/DX2 analytically  !
 ! D186  D(33,44,63,65)         58.5396         calculate D2E/DX2 analytically  !
 ! D187  D(33,44,63,66)        177.4893         calculate D2E/DX2 analytically  !
 ! D188  D(32,45,67,68)        -61.8657         calculate D2E/DX2 analytically  !
 ! D189  D(32,45,67,69)         59.907          calculate D2E/DX2 analytically  !
 ! D190  D(32,45,67,70)        179.4715         calculate D2E/DX2 analytically  !
 ! D191  D(36,46,71,72)        -60.9417         calculate D2E/DX2 analytically  !
 ! D192  D(36,46,71,73)         60.9619         calculate D2E/DX2 analytically  !
 ! D193  D(36,46,71,74)        179.4936         calculate D2E/DX2 analytically  !
 ! D194  D(35,47,50,75)       -175.2652         calculate D2E/DX2 analytically  !
 ! D195  D(48,47,50,75)        -56.0441         calculate D2E/DX2 analytically  !
 ! D196  D(49,47,50,75)         64.1927         calculate D2E/DX2 analytically  !
 ! D197  D(47,50,75,76)       -177.6819         calculate D2E/DX2 analytically  !
 ! D198  D(47,50,75,77)        -58.4529         calculate D2E/DX2 analytically  !
 ! D199  D(47,50,75,78)         62.8829         calculate D2E/DX2 analytically  !
 ! D200  D(43,51,53,34)        -54.6895         calculate D2E/DX2 analytically  !
 ! D201  D(52,51,53,34)        173.9098         calculate D2E/DX2 analytically  !
 ! D202  D(54,51,53,34)         59.472          calculate D2E/DX2 analytically  !
 ! D203  D(43,51,54,55)        -36.0876         calculate D2E/DX2 analytically  !
 ! D204  D(43,51,54,56)        146.0696         calculate D2E/DX2 analytically  !
 ! D205  D(52,51,54,55)         89.2717         calculate D2E/DX2 analytically  !
 ! D206  D(52,51,54,56)        -88.5712         calculate D2E/DX2 analytically  !
 ! D207  D(53,51,54,55)       -154.9113         calculate D2E/DX2 analytically  !
 ! D208  D(53,51,54,56)         27.2458         calculate D2E/DX2 analytically  !
 ! D209  D(51,54,55,57)       -177.4841         calculate D2E/DX2 analytically  !
 ! D210  D(51,54,55,58)          3.4465         calculate D2E/DX2 analytically  !
 ! D211  D(56,54,55,57)          0.3208         calculate D2E/DX2 analytically  !
 ! D212  D(56,54,55,58)       -178.7487         calculate D2E/DX2 analytically  !
 ! D213  D(51,54,56,59)        178.7038         calculate D2E/DX2 analytically  !
 ! D214  D(51,54,56,60)         -3.0495         calculate D2E/DX2 analytically  !
 ! D215  D(55,54,56,59)          0.9092         calculate D2E/DX2 analytically  !
 ! D216  D(55,54,56,60)        179.156          calculate D2E/DX2 analytically  !
 ! D217  D(54,55,57,61)         -1.1336         calculate D2E/DX2 analytically  !
 ! D218  D(54,55,57,97)        175.9428         calculate D2E/DX2 analytically  !
 ! D219  D(58,55,57,61)        177.9313         calculate D2E/DX2 analytically  !
 ! D220  D(58,55,57,97)         -4.9923         calculate D2E/DX2 analytically  !
 ! D221  D(54,56,59,61)         -1.3501         calculate D2E/DX2 analytically  !
 ! D222  D(54,56,59,93)        176.4185         calculate D2E/DX2 analytically  !
 ! D223  D(60,56,59,61)       -179.5767         calculate D2E/DX2 analytically  !
 ! D224  D(60,56,59,93)         -1.8082         calculate D2E/DX2 analytically  !
 ! D225  D(55,57,61,59)          0.7013         calculate D2E/DX2 analytically  !
 ! D226  D(55,57,61,62)       -179.5083         calculate D2E/DX2 analytically  !
 ! D227  D(97,57,61,59)       -176.4333         calculate D2E/DX2 analytically  !
 ! D228  D(97,57,61,62)          3.357          calculate D2E/DX2 analytically  !
 ! D229  D(55,57,97,98)         10.3023         calculate D2E/DX2 analytically  !
 ! D230  D(55,57,97,99)       -109.5515         calculate D2E/DX2 analytically  !
 ! D231  D(55,57,97,100)       132.1343         calculate D2E/DX2 analytically  !
 ! D232  D(61,57,97,98)       -172.565          calculate D2E/DX2 analytically  !
 ! D233  D(61,57,97,99)         67.5812         calculate D2E/DX2 analytically  !
 ! D234  D(61,57,97,100)       -50.733          calculate D2E/DX2 analytically  !
 ! D235  D(56,59,61,57)          0.5595         calculate D2E/DX2 analytically  !
 ! D236  D(56,59,61,62)       -179.231          calculate D2E/DX2 analytically  !
 ! D237  D(93,59,61,57)       -177.1966         calculate D2E/DX2 analytically  !
 ! D238  D(93,59,61,62)          3.0129         calculate D2E/DX2 analytically  !
 ! D239  D(56,59,93,94)        -88.3397         calculate D2E/DX2 analytically  !
 ! D240  D(56,59,93,95)        151.9628         calculate D2E/DX2 analytically  !
 ! D241  D(56,59,93,96)         31.1213         calculate D2E/DX2 analytically  !
 ! D242  D(61,59,93,94)         89.4451         calculate D2E/DX2 analytically  !
 ! D243  D(61,59,93,95)        -30.2523         calculate D2E/DX2 analytically  !
 ! D244  D(61,59,93,96)       -151.0938         calculate D2E/DX2 analytically  !
 ! D245  D(44,63,64,18)          0.2532         calculate D2E/DX2 analytically  !
 ! D246  D(65,63,64,18)       -122.8178         calculate D2E/DX2 analytically  !
 ! D247  D(66,63,64,18)        117.3108         calculate D2E/DX2 analytically  !
 ! D248  D(19,83,84,85)        100.8785         calculate D2E/DX2 analytically  !
 ! D249  D(19,83,84,89)        -41.9427         calculate D2E/DX2 analytically  !
 ! D250  D(83,84,85,86)        -84.0706         calculate D2E/DX2 analytically  !
 ! D251  D(83,84,85,87)         34.6673         calculate D2E/DX2 analytically  !
 ! D252  D(83,84,85,88)        154.3809         calculate D2E/DX2 analytically  !
 ! D253  D(89,84,85,86)         60.7766         calculate D2E/DX2 analytically  !
 ! D254  D(89,84,85,87)        179.5145         calculate D2E/DX2 analytically  !
 ! D255  D(89,84,85,88)        -60.772          calculate D2E/DX2 analytically  !
 ! D256  D(83,84,89,90)       -153.7663         calculate D2E/DX2 analytically  !
 ! D257  D(83,84,89,91)        -34.3168         calculate D2E/DX2 analytically  !
 ! D258  D(83,84,89,92)         84.9645         calculate D2E/DX2 analytically  !
 ! D259  D(85,84,89,90)         60.7192         calculate D2E/DX2 analytically  !
 ! D260  D(85,84,89,91)       -179.8314         calculate D2E/DX2 analytically  !
 ! D261  D(85,84,89,92)        -60.55           calculate D2E/DX2 analytically  !
 ! D262  D(84,85,86,9)          30.9409         calculate D2E/DX2 analytically  !
 ! D263  D(87,85,86,9)         -86.7184         calculate D2E/DX2 analytically  !
 ! D264  D(88,85,86,9)         153.0366         calculate D2E/DX2 analytically  !
 --------------------------------------------------------------------------------
 Trust Radius=3.00D-02 FncErr=1.00D-07 GrdErr=1.00D-06 EigMax=2.50D+02 EigMin=1.00D-04
 Number of steps in this run=    579 maximum allowed number of steps=    600.
 Search for a saddle point of order  1.
 Step   0 in ReCalcFC=30 IGetFC= 4 compute analytic Hessian.
 GradGradGradGradGradGradGradGradGradGradGradGradGradGradGradGradGradGrad

 Leave Link  103 at Wed May  8 19:15:00 2019, MaxMem=  6442450944 cpu:               4.9 elap:               0.2
 (Enter /home/ekwan/sw/g16/l202.exe)
 Stoichiometry    C30H47F6NaO15S
 Framework group  C1[X(C30H47F6NaO15S)]
 Deg. of freedom   294
 Full point group                 C1      NOp   1
 Largest Abelian subgroup         C1      NOp   1
 Largest concise Abelian subgroup C1      NOp   1
                         Standard orientation:                         
 ---------------------------------------------------------------------
 Center     Atomic      Atomic             Coordinates (Angstroms)
 Number     Number       Type             X           Y           Z
 ---------------------------------------------------------------------
      1          6           0        2.707348    1.640627   -0.672715
      2          6           0        3.819818    1.420685    0.351408
      3          6           0        3.431690    2.025731    1.700835
      4          6           0        1.086782    1.673695    1.353836
      5          6           0        1.313291    1.286094   -0.122998
      6          1           0        4.178135    1.799723    2.474055
      7          1           0        3.934804    0.340777    0.508038
      8          1           0        2.705827    2.700073   -0.961086
      9          1           0        0.861172    2.745945    1.389918
     10          1           0        1.192288    0.198793   -0.234411
     11          8           0        2.250690    1.403849    2.151738
     12          8           0        3.303737    3.417364    1.550590
     13          8           0        5.016490    1.969671   -0.175873
     14          8           0        2.907775    0.819342   -1.820923
     15          8           0        0.295138    1.955970   -0.871442
     16          6           0       -0.049983    0.888614    2.050860
     17          1           0        0.088049    1.099489    3.133319
     18          1           0        0.229370   -0.185903    1.940332
     19          8           0       -1.315995    1.155742    1.605361
     20          6           0        6.198011    1.463083    0.426189
     21          1           0        6.287854    1.760482    1.479933
     22          1           0        6.238443    0.367616    0.362046
     23          1           0        7.038970    1.886001   -0.128419
     24          6           0        3.705095    1.391781   -2.847909
     25          1           0        3.312841    2.375234   -3.147742
     26          1           0        4.745571    1.506771   -2.533284
     27          1           0        3.648151    0.710382   -3.698640
     28          6           0        0.167268    1.608956   -2.251603
     29          1           0        0.973529    2.042379   -2.850234
     30          1           0        0.138018    0.526791   -2.393596
     31          1           0       -0.785598    2.034184   -2.578299
     32          6           0       -4.455265   -1.117731    0.556225
     33          6           0       -3.039755   -0.994917    1.121519
     34          6           0       -2.045278   -0.570696    0.065559
     35          6           0       -3.721539    0.296190   -1.394045
     36          6           0       -4.769480    0.121672   -0.288206
     37          1           0       -0.989926   -0.646553    0.255146
     38          1           0       -3.022560   -0.159715    1.828495
     39          1           0       -4.530478   -2.006515   -0.080042
     40          1           0       -3.777279   -0.556000   -2.076539
     41          1           0       -4.769487    1.009540    0.358749
     42          8           0       -2.371686    0.312735   -0.855855
     43          8           0       -0.975516   -1.471980   -3.006947
     44          8           0       -2.624555   -2.187583    1.760477
     45          8           0       -5.393403   -1.182904    1.619548
     46          8           0       -6.012497   -0.010289   -0.954438
     47          6           0       -3.862764    1.572838   -2.194910
     48          1           0       -4.882852    1.616931   -2.594017
     49          1           0       -3.154060    1.563839   -3.033989
     50          8           0       -3.603874    2.691499   -1.352655
     51         16           0       -1.116624   -2.548177   -2.005998
     52          8           0       -1.332395   -3.908147   -2.530352
     53          8           0       -2.178847   -2.233496   -0.941037
     54          6           0        0.418178   -2.563819   -1.067392
     55          6           0        1.617789   -2.294415   -1.724712
     56          6           0        0.392548   -2.887802    0.287143
     57          6           0        2.810144   -2.358916   -1.008033
     58          1           0        1.616526   -2.024623   -2.772907
     59          6           0        1.594800   -2.922360    0.995580
     60          1           0       -0.553908   -3.080097    0.780586
     61          6           0        2.805185   -2.665186    0.354152
     62          1           0        3.735651   -2.706193    0.908655
     63          6           0       -2.173142   -2.001588    3.102757
     64          1           0       -1.277164   -1.373862    3.144140
     65          1           0       -2.960775   -1.553303    3.721151
     66          1           0       -1.930977   -2.995724    3.482762
     67          6           0       -5.804142   -2.506224    1.947999
     68          1           0       -6.308525   -2.984338    1.096687
     69          1           0       -4.954056   -3.124775    2.253617
     70          1           0       -6.509873   -2.416209    2.777318
     71          6           0       -7.099135    0.640879   -0.303007
     72          1           0       -7.263060    0.230839    0.697916
     73          1           0       -6.921038    1.723330   -0.228174
     74          1           0       -7.981073    0.466428   -0.923676
     75          6           0       -3.824673    3.934590   -2.015769
     76          1           0       -3.561606    4.723406   -1.308102
     77          1           0       -3.191593    4.018794   -2.909262
     78          1           0       -4.877061    4.036682   -2.308516
     79          6           0        3.085361    4.093618    2.784295
     80          1           0        3.040839    5.160090    2.555460
     81          1           0        2.145912    3.779223    3.253902
     82          1           0        3.910932    3.904389    3.484510
     83         11           0       -1.713000    2.621005    0.069718
     84          8           0       -0.766145    4.741251    0.403917
     85          6           0        0.425405    5.102275   -0.290861
     86          1           0        1.314392    4.735669    0.238485
     87          1           0        0.379705    4.631045   -1.272805
     88          1           0        0.488863    6.193261   -0.401248
     89          6           0       -0.811809    5.295321    1.713281
     90          1           0       -0.786710    6.392729    1.674608
     91          1           0       -1.747967    4.969352    2.172062
     92          1           0        0.032097    4.939017    2.319700
     93          6           0        1.571790   -3.191165    2.475685
     94          9           0        1.431944   -2.048068    3.190326
     95          9           0        2.710877   -3.778901    2.898140
     96          9           0        0.542258   -3.994661    2.822302
     97          6           0        4.132266   -2.164718   -1.698878
     98          9           0        3.997248   -1.720032   -2.962072
     99          9           0        4.816528   -3.333265   -1.759039
    100          9           0        4.930313   -1.294234   -1.036559
 ---------------------------------------------------------------------
 Rotational constants (GHZ):           0.0648085           0.0452019           0.0368401
 Leave Link  202 at Wed May  8 19:15:00 2019, MaxMem=  6442450944 cpu:               4.9 elap:               0.2
 (Enter /home/ekwan/sw/g16/l301.exe)
 Standard basis: 6-31G(d) (6D, 7F)
 Ernie: Thresh=  0.10000D-02 Tol=  0.10000D-05 Strict=F.
 There are   897 symmetry adapted cartesian basis functions of A   symmetry.
 There are   897 symmetry adapted basis functions of A   symmetry.
   897 basis functions,  1720 primitive gaussians,   897 cartesian basis functions
   214 alpha electrons      214 beta electrons
       nuclear repulsion energy      9859.7342780259 Hartrees.
 IExCor=  402 DFT=T Ex+Corr=B3LYP ExCW=0 ScaHFX=  0.200000
 ScaDFX=  0.800000  0.720000  1.000000  0.810000 ScalE2=  1.000000  1.000000
 IRadAn=      5 IRanWt=     -1 IRanGd=            0 ICorTp=0 IEmpDi=141
 NAtoms=  100 NActive=  100 NUniq=  100 SFac= 1.00D+00 NAtFMM=   60 NAOKFM=T Big=T
 Integral buffers will be    131072 words long.
 Raffenetti 2 integral format.
 Two-electron integral symmetry is turned on.
 R6Disp:  Grimme-D3(BJ) Dispersion energy=       -0.2414751795 Hartrees.
 Nuclear repulsion after empirical dispersion term =     9859.4928028464 Hartrees.
 Force inversion solution in PCM.
 ------------------------------------------------------------------------------
 Polarizable Continuum Model (PCM)
 =================================
 Model                : PCM.
 Atomic radii         : UFF (Universal Force Field).
 Polarization charges : Total charges.
 Charge compensation  : None.
 Solution method      : Matrix inversion.
 Cavity type          : Scaled VdW (van der Waals Surface) (Alpha=1.100).
 Cavity algorithm     : GePol (No added spheres)
                        Default sphere list used, NSphG=  100.
                        Lebedev-Laikov grids with approx.  5.0 points / Ang**2.
                        Smoothing algorithm: York/Karplus (Gamma=1.0000).
                        Polarization charges: spherical gaussians, with
[...]
 2,-0.00005843,0.00009749,-0.00001429,0.00000216,-0.00000639,0.00001959
 ,0.00000006,0.00001186,-0.00001421,0.00000188,-0.00000925,-0.00000349,
 -0.00001311,0.00003687,-0.00005046,0.00000720,-0.00148242,-0.00032682,
 -0.00095855,0.00038394,0.00049134,0.00038485,0.00068332,-0.00015147,-0
 .00012837,0.00079783,0.00052320,0.00034137,0.00079463,-0.00000245,-0.0
 0231071,0.00012896,-0.00009026,-0.00027150,0.01578965,-0.00795150,-0.0
 0205455,-0.00047081,-0.00037658,-0.00016294,0.00071701,0.00083258,-0.0
 0056344,-0.00007973,-0.00009226,-0.00004394,0.00028195,0.00030561,0.00
 186947,-0.00026921,-0.00069764,-0.00047099,-0.00002418,-0.00001816,0.0
 0010885,-0.00000565,0.00001605,0.00002005,0.00001919,-0.00000781,-0.00
 001818,-0.00001439,0.00000566,-0.00000128,-0.00002578,-0.00006104,0.00
 001035,0.00000493,0.00000919,0.00000595,-0.00000689,-0.00000035,0.0000
 0252,0.00000793,0.00000511,-0.00000605,-0.00003815,0.00002429,0.000022
 71,0.00000157,-0.00000273,-0.00000719,0.00000258,-0.00000500,-0.000004
 37,0.00001005,-0.00000301,0.00000128,-0.00002079,0.00004341,-0.0000162
 7,-0.00000279,-0.00000354,0.00000356,-0.00000072,-0.00000150,-0.000000
 92,0.00001035,-0.00000463,0.00000481,-0.00000594,0.00008833,0.00023784
 ,0.00000777,-0.00004663,-0.00003200,0.00002156,0.00000099,-0.00003111,
 -0.00001684,-0.00000302,-0.00004256,-0.00014546,0.00009781,0.00002904,
 0.00005953,-0.00006685,-0.00004166,-0.00004962,0.00002575,0.00000146,0
 .00001927,0.00002464,0.00001517,-0.00000899,0.00001435,-0.00002262,0.0
 0001734,-0.00002549,-0.00000221,-0.00002306,0.00003898,0.00004799,0.00
 000147,-0.00001666,-0.00000292,0.00000581,0.00000179,-0.00000503,-0.00
 000217,0.00000519,0.00000512,0.00029847,-0.00047238,0.00116584,-0.0000
 1695,-0.00005731,-0.00037702,-0.00025542,0.00022373,-0.00032630,0.0001
 6303,0.00025379,-0.00037727,0.08544335,-0.18406828,-0.01567435,0.02606
 396,-0.03792925,0.03583032,-0.13062533,0.30266248,-0.00005895,0.000024
 13,-0.00021155,-0.00002125,0.00035781,-0.00008946,0.00000341,0.0000607
 7,0.00013635,-0.00002245,0.00000258,-0.00000358,-0.00003947,0.00019949
 ,-0.00000173,-0.00000400,-0.00000505,0.00000079,-0.00004473,-0.0000383
 1,0.00017658,-0.00000117,-0.00000879,0.00006271,0.00000191,-0.00002256
 ,-0.00000868,-0.00002785,-0.00001866,-0.00000630,0.00001061,-0.0000579
 3,-0.00002520,0.00001856,-0.00012241,-0.00007426,-0.00002630,-0.000142
 01,0.00001591,0.00002864,-0.00005200,0.00042247,0.00005859,-0.00009413
 ,0.00009690,-0.00005225,0.00010374,0.00001729,-0.00001078,-0.00002397,
 -0.00002370,0.00001593,-0.00005050,-0.00000579,0.00006355,-0.00010231,
 -0.00002511,0.00002804,0.00022234,0.00000744,-0.00000811,-0.00005433,-
 0.00001660,0.00007868,-0.00004713,0.00006331,-0.00002170,-0.00004395,0
 .00000285,-0.00005263,-0.00011813,-0.00057063,-0.00000098,0.00005444,0
 .00013111,0.00000632,0.00000577,0.00000151,0.00006824,-0.00012541,0.00
 034377,0.00001183,0.00004292,-0.00007893,-0.00001340,-0.00002882,0.000
 01500,0.00001101,0.00002138,-0.00002086,0.00000632,-0.00000963,0.00001
 003,-0.00005683,-0.00000299,0.00000765,-0.00002325,-0.00001020,0.00001
 224,-0.00012354,0.00035480,0.00007765,-0.00010353,0.00001916,-0.000043
 97,-0.00003217,0.00001712,-0.00000157,0.00001260,0.00004824,0.00001890
 ,0.00000638,0.00000287,-0.00000535,-0.00000558,-0.00000585,-0.00000131
 ,0.00000118,0.00000542,-0.00000623,0.00000346,-0.00000132,0.00000063,0
 .00013988,-0.00015785,0.00009665,0.00021243,-0.00018844,0.00036293,0.0
 0008598,-0.00002324,-0.00006339,0.00005749,0.00001556,-0.00002880,0.00
 005996,-0.00001512,0.00000819,0.00001014,0.00002045,-0.00001380,0.0000
 0462,-0.00000963,0.00000193,-0.00000637,-0.00000342,-0.00000090,0.0000
 0707,-0.00003826,0.00001644,-0.00115432,0.00018178,-0.00097325,0.00034
 845,0.00027159,0.00037555,0.00050621,-0.00021190,-0.00008817,0.0014319
 4,0.00076174,-0.00013061,0.00006785,-0.00068149,-0.00295703,0.00082742
 ,-0.00013796,0.00064386,0.01491636,-0.01295526,0.00897235,0.00028114,-
 0.00017057,0.00004488,-0.00084531,-0.00035680,0.00050655,-0.00005731,-
 0.00001555,0.00004375,-0.00010973,0.00053572,-0.00004166,-0.00003261,0
 .00009196,0.00038274,-0.00001707,-0.00000341,0.00007355,-0.00000664,0.
 00001611,0.00001234,0.00001498,-0.00000681,-0.00001264,-0.00001288,-0.
 00000118,0.00000358,-0.00001719,-0.00002608,0.00000308,0.00000251,0.00
 000518,0.00000348,-0.00000299,-0.00000319,0.00000351,0.00000497,0.0000
 0217,-0.00000380,-0.00002200,0.00001692,0.00001236,0.00000005,-0.00000
 150,-0.00000312,0.00000127,-0.00000438,-0.00000295,0.00000637,-0.00000
 142,0.00000036,-0.00000353,0.00002649,-0.00001833,0.00000032,-0.000003
 01,0.00000077,-0.00000222,-0.00000181,0.00000494,0.00000298,-0.0000033
 7,0.00000315,0.00000202,0.00001938,0.00004929,0.00000179,-0.00001315,-
 0.00000741,0.00000208,0.00000181,-0.00000575,-0.00000257,0.00000045,-0
 .00000799,-0.00002754,0.00005698,-0.00001092,0.00000317,-0.00002204,0.
 00000757,-0.00000016,0.00000815,-0.00001226,0.00000331,0.00000572,0.00
 000111,0.00000052,0.00000476,-0.00000250,0.00000251,-0.00000776,0.0000
 0012,-0.00000698,0.00000897,0.00000275,0.00000079,-0.00000512,0.000000
 75,-0.00000120,0.00000137,0.00000030,0.00000203,0.00000237,0.00000269,
 -0.00010771,-0.00020845,0.00079737,0.00003272,-0.00009355,-0.00027515,
 -0.00005863,0.00008261,-0.00022987,0.00010629,0.00012101,-0.00018800,0
 .01363504,-0.01427284,-0.07394685,-0.02779595,0.04791175,-0.01058296,-
 0.00448794,0.01244393,0.07441632,-0.00037096,0.00010069,-0.00048696,-0
 .00084153,0.00099657,0.00049025,-0.00035873,-0.00000796,0.00047533,-0.
 00023221,0.00010458,-0.00014310,-0.00019453,-0.00048755,0.00009479,0.0
 0002873,-0.00000771,0.00002101,-0.00088809,0.00100402,0.00120509,0.000
 06419,0.00004105,0.00011237,0.00002572,0.00002482,0.00003528,0.0000532
 4,0.00007125,-0.00002984,0.00051670,0.00003248,-0.00007452,0.00018706,
 -0.00015919,-0.00020560,0.00069546,-0.00052387,-0.00028511,-0.00021812
 ,0.00124209,-0.00003320,0.00019130,0.00021079,0.00006702,-0.00003724,-
 0.00032903,-0.00002200,0.00004806,0.00007786,0.00007463,-0.00002740,0.
 00014862,0.00001299,0.00004484,0.00033928,0.00012986,-0.00042732,0.001
 80838,-0.00030927,-0.00001576,-0.00054569,-0.00012235,0.00022284,-0.00
 124897,0.00002098,-0.00001642,-0.00026680,0.00004299,-0.00071434,-0.00
 013144,-0.00028192,0.00017470,0.00004479,0.00005949,0.00027740,0.00024
 308,-0.00012748,0.00003608,-0.00004732,0.00014974,-0.00005029,-0.00020
 752,-0.00005832,0.00000904,0.00005070,-0.00001216,-0.00001111,-0.00003
 688,0.00003349,-0.00000323,0.00003297,0.00001177,0.00014267,0.00000002
 ,-0.00003989,0.00006620,0.00003204,-0.00001941,0.00024874,-0.00120598,
 -0.00046429,0.00024780,-0.00005752,0.00008277,0.00008694,-0.00005002,-
 0.00000258,-0.00001546,-0.00013455,-0.00003251,-0.00002988,-0.00001492
 ,0.00001771,0.00002402,0.00002223,0.00000702,0.00000929,-0.00000892,0.
 00002106,-0.00001222,0.00000832,0.00000323,-0.00032044,0.00043609,-0.0
 0017427,-0.00071307,0.00043459,-0.00077591,-0.00020765,0.00007399,0.00
 020497,-0.00014697,-0.00002995,0.00009197,-0.00015703,0.00004813,-0.00
 000479,-0.00001656,-0.00007965,0.00000469,-0.00000987,0.00002443,-0.00
 000275,0.00000882,0.00000699,0.00000912,-0.00001242,0.00012501,-0.0000
 0988,0.00313143,0.00023727,0.00193993,-0.00082907,-0.00057338,-0.00058
 332,-0.00165723,0.00059655,0.00045738,-0.00201777,0.00182476,0.0001583
 8,-0.00158973,-0.00308310,0.00509821,-0.00096678,-0.00027995,0.0001094
 8,-0.03000729,-0.03081385,-0.01979126,0.00060402,-0.00074998,-0.000262
 81,-0.00060024,0.00061518,0.00056088,0.00022176,-0.00013390,-0.0000288
 9,-0.00113974,0.00103790,-0.00210225,-0.00041871,-0.00126720,0.0007921
 6,0.00002358,-0.00000434,-0.00023219,0.00002208,-0.00003896,-0.0000316
 1,-0.00003992,0.00002079,0.00003740,0.00003532,0.00000331,-0.00001096,
 0.00004186,0.00006115,-0.00001505,-0.00000246,-0.00001206,-0.00000489,
 0.00000784,0.00000744,-0.00001128,-0.00001581,-0.00000497,0.00001167,0
 .00006613,-0.00005302,-0.00004061,-0.00000189,0.00000263,0.00001012,-0
 .00000323,0.00001508,0.00000701,-0.00001479,0.00000403,-0.00000056,0.0
 0001450,-0.00007104,0.00003651,-0.00000073,0.00001188,0.00000113,0.000
 00029,0.00000330,-0.00001063,-0.00000721,0.00000851,-0.00000891,-0.000
 04036,0.00002348,0.00010734,0.00000542,-0.00002246,-0.00002112,0.00002
 238,-0.00000426,-0.00002965,0.00000190,-0.00000092,-0.00001039,0.00000
 480,-0.00014766,-0.00000773,0.00003224,0.00004179,-0.00000285,-0.00004
 239,-0.00001179,0.00000533,-0.00000103,-0.00000142,0.00000292,-0.00000
 197,-0.00000547,0.00000496,0.00000173,0.00000901,0.00000183,-0.0000053
 2,-0.00000989,-0.00002027,-0.00000023,0.00000714,-0.00000012,0.0000061
 6,-0.00000274,-0.00000170,-0.00000181,-0.00000463,0.00000216,-0.000395
 56,0.00031649,-0.00254383,0.00000956,0.00034204,0.00085028,0.00039324,
 -0.00025415,0.00068809,-0.00023970,-0.00029765,0.00068193,-0.15496436,
 -0.07714978,-0.04215381,-0.00242536,-0.00484269,-0.03199538,0.02064775
 ,0.00083242,0.00231181,0.17477573,-0.00103616,0.00085296,0.00075442,0.
 00034130,0.00207571,-0.00190265,-0.00064305,-0.00010138,0.00153469,-0.
 00018912,0.00023580,-0.00000839,-0.00060835,-0.00026505,0.00001015,-0.
 00000306,-0.00007228,-0.00011758,0.00033931,-0.00207127,0.00033936,0.0
 0017716,-0.00029315,0.00005812,0.00003217,-0.00003246,-0.00000588,0.00
 001261,0.00003667,0.00000178,0.00065534,-0.00004448,-0.00028352,0.0002
 9137,-0.00072484,-0.00084173,-0.00012412,-0.00079498,-0.00038949,0.002
 63462,-0.00252353,0.00144851,0.00050415,0.00003312,0.00025263,-0.00026
 216,-0.00024454,0.00001758,0.00006015,0.00005264,-0.00001907,0.0000124
 0,0.00007705,0.00000452,0.00027947,0.00021717,0.00006504,0.00007975,0.
 00160372,-0.00014154,-0.00006376,-0.00052140,-0.00020076,0.00000729,-0
 .00118407,-0.00000971,-0.00011450,-0.00026058,0.00004492,-0.00002529,0
 .00037564,-0.00186724,0.00022999,-0.00020560,0.00020471,0.00028225,0.0
 0035080,0.00007148,-0.00000823,0.00002992,0.00013774,-0.00016192,-0.00
 018743,-0.00014965,-0.00001234,0.00008464,-0.00003477,-0.00004005,-0.0
 0003837,0.00000827,0.00009289,-0.00000310,0.00000565,0.00003597,-0.000
 00934,-0.00002012,0.00004289,0.00000309,0.00002057,0.00002432,-0.00074
 985,-0.00034982,0.00005305,-0.00002662,0.00000276,0.00002098,-0.000022
 38,0.00000104,-0.00002476,-0.00006452,-0.00000499,-0.00003090,-0.00001
 241,0.00001187,0.00001765,0.00001369,0.00000647,0.00001304,-0.00000198
 ,0.00001410,-0.00000629,0.00000638,0.00000434,-0.00006717,0.00023384,-
 0.00003852,-0.00032221,0.00029935,-0.00034426,-0.00007833,0.00005963,0
 .00007608,-0.00003562,0.00001117,0.00002694,-0.00003942,0.00002384,-0.
 00000063,-0.00001724,-0.00004884,0.00000192,0.00000287,0.00000740,-0.0
 0000063,-0.00000283,0.00000185,-0.00000443,0.00002472,0.00005424,0.000
 00294,0.00151015,-0.00013319,0.00082765,-0.00041161,-0.00018278,-0.000
 24905,-0.00084917,0.00042238,0.00035286,-0.00101012,0.00047037,-0.0007
 5804,-0.00182913,-0.00172972,0.00319736,-0.00015857,-0.00012458,0.0002
 3521,-0.01706187,-0.00404611,-0.01077099,0.00022211,-0.00010734,-0.000
 01656,-0.00041936,0.00000423,0.00027753,0.00008656,-0.00003289,0.00001
 288,0.00011365,0.00091191,-0.00124921,-0.00007886,-0.00065999,0.000241
 26,-0.00000608,-0.00001609,-0.00009332,0.00001260,-0.00001817,-0.00000
 626,-0.00001421,0.00000966,0.00001433,0.00001725,0.00000758,-0.0000082
 9,0.00001051,0.00000248,-0.00000444,0.00000167,-0.00000193,0.00000078,
 0.00000109,0.00000451,-0.00000573,-0.00000557,-0.00000011,0.00000386,0
 .00001911,-0.00001992,-0.00001270,-0.00000041,-0.00000018,0.00000214,-
 0.00000057,0.00000702,0.00000163,-0.00000296,0.00000089,0.00000060,-0.
 00000640,-0.00001459,0.00001167,-0.00000319,0.00000654,0.00000375,-0.0
 0000149,0.00000125,-0.00000849,0.00000358,0.00000240,-0.00000250,-0.00
 002354,0.00008849,0.00040666,0.00001646,-0.00008422,-0.00006903,0.0000
 4545,-0.00000606,-0.00006773,-0.00002038,-0.00000371,-0.00006362,-0.00
 015041,-0.00002490,0.00002060,0.00008793,-0.00003578,-0.00004025,-0.00
 009002,0.00001856,-0.00000096,0.00001949,0.00002861,0.00001962,-0.0000
 1065,0.00001251,-0.00001964,0.00002165,-0.00002199,-0.00000010,-0.0000
 2993,0.00003283,0.00002916,0.00000216,-0.00001183,-0.00000270,0.000011
 21,-0.00000081,-0.00000614,-0.00000374,0.00000210,0.00000829,-0.000149
 30,-0.00008153,-0.00112439,-0.00001095,0.00025000,0.00040721,0.0001496
 9,-0.00006390,0.00029597,-0.00010494,-0.00009201,0.00030613,-0.0784084
 1,-0.13979642,-0.04161871,-0.00195581,0.01412342,-0.01417294,-0.013500
 24,-0.07304738,-0.03332695,0.11161473,0.20771453,-0.00043104,-0.000108
 52,-0.00080686,0.00051347,0.00203275,-0.00154461,-0.00029770,-0.000113
 59,0.00104529,-0.00023059,0.00010755,-0.00009934,-0.00026588,0.0000390
 9,0.00006018,0.00000079,-0.00002234,-0.00002370,0.00032220,-0.00207742
 ,0.00026861,0.00010014,-0.00004310,0.00024177,0.00001909,-0.00002621,0
 .00000911,0.00000056,0.00000960,-0.00002044,0.00039391,-0.00007120,-0.
 00011427,0.00019304,-0.00049640,-0.00051073,-0.00014990,-0.00073334,0.
 00022244,-0.00013374,0.00043258,0.00098452,0.00025443,-0.00002699,0.00
 021373,-0.00013466,-0.00003416,0.00002985,0.00001326,0.00000798,-0.000
 00109,0.00001227,0.00000411,-0.00000401,0.00016335,0.00003889,0.000035
 08,-0.00018966,0.00126533,-0.00018523,-0.00002950,-0.00033945,-0.00008
 509,-0.00022854,-0.00116049,-0.00006000,-0.00007282,-0.00020691,0.0000
 1575,0.00014722,-0.00013742,-0.00070686,-0.00007195,0.00001667,0.00019
 326,-0.00008059,-0.00001494,-0.00009662,0.00010411,-0.00016101,0.00044
 550,-0.00001880,-0.00005737,-0.00018662,-0.00002382,-0.00001341,0.0000
 1747,0.00000858,0.00001119,-0.00000593,0.00001210,0.00000233,0.0000275
 3,-0.00001123,-0.00000358,-0.00000701,0.00000354,0.00000286,0.00000754
 ,-0.00004627,-0.00010272,-0.00011746,-0.00002682,0.00000016,-0.0000207
 0,-0.00000448,-0.00000074,-0.00000359,-0.00000891,0.00000229,0.0000032
 9,-0.00000927,-0.00000410,0.00000190,0.00000343,0.00000256,0.00000171,
 0.00000672,0.00000269,0.00000150,-0.00000114,0.00000239,0.00000251,0.0
 0003809,0.00000067,0.00005090,-0.00005181,-0.00002013,0.00012974,0.000
 01376,0.00000796,0.00001340,0.00001129,0.00000854,0.00000229,0.0000096
 1,0.00000240,0.00000847,0.00000416,-0.00001144,-0.00001612,0.00000224,
 -0.00000145,0.00000141,-0.00000483,-0.00000128,0.00000216,0.00000715,0
 .00000603,0.00001783,0.00005478,-0.00006299,-0.00034588,-0.00000606,0.
 00005404,0.00008367,0.00000309,0.00006745,0.00013676,0.00069600,-0.000
 06174,-0.00012397,-0.00021043,0.00062910,-0.00065225,0.00049034,-0.000
 15603,0.00046443,0.00232870,-0.00015403,0.00917122,0.00062056,-0.00010
 858,0.00013443,-0.00084913,0.00025704,0.00115883,0.00005173,-0.0000767
 3,0.00006374,0.00014503,0.00142666,-0.00178341,0.00079384,-0.00086575,
 0.00090800,-0.00001524,-0.00000942,-0.00001310,0.00000228,0.00000317,0
 .00000216,0.00000197,0.00000093,0.00000076,-0.00000081,0.00000090,-0.0
 0000050,-0.00000433,-0.00000928,-0.00000218,0.00000231,0.00000162,0.00
 000253,-0.00000068,-0.00000048,-0.00000071,-0.00000055,0.00000079,0.00
 000017,0.00000006,-0.00000164,-0.00000165,-0.00000075,-0.00000096,0.00
 000019,0.00000029,0.00000113,-0.00000089,0.00000189,-0.00000006,0.0000
 0035,0.00000047,0.00000476,-0.00000846,-0.00000025,0.00000173,0.000001
 91,-0.00000291,-0.00000085,0.00000143,0.00000138,-0.00000071,0.0000003
 8,-0.00001423,0.00003326,0.00023831,0.00001079,-0.00005586,-0.00004638
 ,0.00002310,-0.00000129,-0.00003962,-0.00000931,0.00000031,-0.00003432
 ,-0.00005867,0.00001252,-0.00001814,0.00003193,-0.00001962,0.00000537,
 -0.00003419,0.00001042,-0.00001814,0.00000675,0.00001390,0.00000460,-0
 .00000052,0.00000587,-0.00000376,0.00000857,-0.00001151,0.00000164,-0.
 00001826,0.00001447,-0.00000196,0.00000186,-0.00000644,0.00000100,0.00
 000281,0.00000050,-0.00000092,0.00000125,0.00000216,0.00000674,-0.0003
 4284,-0.00013831,-0.00000984,0.00004391,0.00006698,0.00004467,0.000085
 01,0.00001667,-0.00000289,0.00005936,0.00004025,0.00001871,-0.04573681
 ,-0.04439309,-0.09973851,-0.04158868,-0.02418105,-0.05784281,-0.002693
 64,-0.02899553,0.00235260,0.08628367,0.09862840,0.14644722\\-0.0000030
 4,0.00000228,-0.00000084,0.00000093,0.00000032,-0.00000066,0.00000232,
 0.00000235,-0.00000193,-0.00000012,0.00000155,-0.00000223,0.00000018,0
 .00000337,0.00000010,0.00000071,0.00000326,-0.00000265,-0.00000365,0.0
 0000359,-0.00000201,-0.00000066,0.00000059,-0.00000367,0.00000016,0.00
 000260,-0.00000149,0.00000143,0.00000042,0.00000016,0.00000014,0.00000
 082,-0.00000109,-0.00000156,0.00000334,-0.00000326,-0.00000035,0.00000
 507,-0.00000155,0.00000332,-0.00000475,0.00000117,-0.00000233,-0.00000
 158,-0.00000187,-0.00000126,0.00000132,-0.00000049,0.00000076,0.000002
 93,-0.00000110,-0.00000053,0.00000065,0.00000147,-0.00000325,-0.000002
 65,0.00000062,-0.00000071,0.00000289,-0.00000225,-0.00000048,0.0000045
 1,-0.00000321,-0.00000010,0.00000313,-0.00000117,-0.00000042,0.0000031
 6,-0.00000352,-0.00000226,0.00000011,-0.00000386,-0.00000079,-0.000000
 64,-0.00000130,-0.00000118,0.00000098,-0.00000273,-0.00000174,0.000000
 30,-0.00000048,-0.00000148,0.00000005,0.00000417,-0.00000132,-0.000001
 64,-0.00000029,-0.00000052,0.,-0.00000231,-0.00000143,-0.00000225,-0.0
 0000764,0.,-0.00000063,0.00000270,0.00000370,-0.00000002,0.00000335,-0
 .00000077,-0.00000209,0.00000360,0.00000075,-0.00000240,0.00000086,-0.
 00000057,-0.00000296,0.00000146,0.00000253,0.00000096,0.00000020,0.000
 00127,-0.00000007,0.00000081,0.00000167,-0.00000258,0.00000274,0.00000
 046,-0.00000328,0.00000165,-0.00000026,-0.00000218,0.00000088,-0.00000
 146,-0.00000283,-0.00000120,-0.00000033,-0.00000468,0.00000191,0.00000
 161,0.00000007,0.00000325,0.00000199,-0.00000168,0.00000280,0.00000046
 ,-0.00000387,0.00000224,0.00000074,-0.00000344,0.00000003,-0.00000198,
 -0.00000408,0.00000250,-0.00000074,-0.00000347,0.00000122,-0.00000478,
 -0.00000379,0.00000309,0.00000285,-0.00000452,0.00000216,0.00000182,-0
 .00000227,0.00000378,-0.00000008,0.00000063,0.00000345,0.00000086,-0.0
 0000033,0.00000281,0.00000043,-0.00000255,-0.00000023,0.00000272,0.000
 00039,0.00000349,0.00000088,0.00000586,-0.00000081,-0.00000003,-0.0000
 0103,0.00000257,0.00000015,0.00000224,0.00000070,0.00000206,0.00000124
 ,0.00000261,0.00000104,0.00000291,0.00000081,0.00000164,0.00000289,0.0
 0000125,0.00000190,0.00000065,0.00000197,0.00000220,0.00000149,0.00000
 168,0.00000220,0.00000161,0.00000258,0.00000242,0.00000179,0.00000314,
 0.00000223,-0.00000170,0.00000385,0.00000202,-0.00000241,0.00000406,0.
 00000187,-0.00000070,0.00000395,0.00000233,-0.00000131,0.00000385,-0.0
 0000042,-0.00000373,0.00000234,0.00000042,-0.00000306,0.00000214,-0.00
 000060,-0.00000339,0.00000116,-0.00000035,-0.00000465,0.00000219,-0.00
 000058,-0.00000185,-0.00000338,-0.00000344,-0.00000247,-0.00000312,-0.
 00000247,-0.00000380,-0.00000179,-0.00000235,-0.00000392,-0.00000085,-
 0.00000069,0.00000422,-0.00000327,-0.00000113,0.00000290,-0.00000424,-
 0.00000006,0.00000392,-0.00000272,-0.00000107,0.00000423,-0.00000336,-
 0.00000081,-0.00000501,-0.00000193,-0.00000112,-0.00000148,-0.00000603
 ,-0.00000291,-0.00000027,-0.00000051,-0.00000266,-0.00000138,-0.000005
 53,-0.00000241,-0.00000013,-0.00000422,-0.00000288,0.00000021,-0.00000
 298,-0.00000029,0.00000214,-0.00000250,-0.00000365,0.00000047,-0.00000
 391,-0.00000127,0.00000286,-0.00000014,-0.00000158,0.00000277,-0.00000
 370,0.00000157,0.00000289,0.00000233,0.00000206,0.00000247,0.00000041,
 0.00000332,0.00000303,0.00000245,0.00000436,0.00000189,0.00000301,0.00
 000090,0.00000171,0.00000601,0.00000375,0.00000097,-0.00000246,-0.0000
 0183,0.00000057,0.00000028,0.00000162,-0.00000003,-0.00000152\\\@


 At the touch of love, everyone becomves a poet.
                                -- Plato
 Job cpu time:       4 days 20 hours 55 minutes 21.8 seconds.
 Elapsed time:       0 days  4 hours  1 minutes 59.7 seconds.
 File lengths (MBytes):  RWF=   9724 Int=      0 D2E=      0 Chk=     85 Scr=      1
 Normal termination of Gaussian 16 at Thu May  9 03:16:44 2019.
