 Entering Gaussian System, Link 0=g16
 Input=clay_new-glu_gluC6-AADL-Na_1Me2O-bisCF3-ts-b3lyp_d3bj-631gd-pcm_thf.gjf
 Output=clay_new-glu_gluC6-AADL-Na_1Me2O-bisCF3-ts-b3lyp_d3bj-631gd-pcm_thf.out
 Initial command:
 /home/ekwan/sw/g16/l1.exe "/scratch/users/ekwan/clay_new-glu_gluC6-AADL-Na_1Me2O-bisCF3-ts-b3lyp_d3bj-631gd-pcm_thf/Gau-7922.inp" -scrdir="/scratch/users/ekwan/clay_new-glu_gluC6-AADL-Na_1Me2O-bisCF3-ts-b3lyp_d3bj-631gd-pcm_thf/"
 Entering Link 1 = /home/ekwan/sw/g16/l1.exe PID=      7924.
  
 Copyright (c) 1988,1990,1992,1993,1995,1998,2003,2009,2016,
            Gaussian, Inc.  All Rights Reserved.
  
 This is part of the Gaussian(R) 16 program.  It is based on
 the Gaussian(R) 09 system (copyright 2009, Gaussian, Inc.),
 the Gaussian(R) 03 system (copyright 2003, Gaussian, Inc.),
 the Gaussian(R) 98 system (copyright 1998, Gaussian, Inc.),
 the Gaussian(R) 94 system (copyright 1995, Gaussian, Inc.),
 the Gaussian 92(TM) system (copyright 1992, Gaussian, Inc.),
 the Gaussian 90(TM) system (copyright 1990, Gaussian, Inc.),
 the Gaussian 88(TM) system (copyright 1988, Gaussian, Inc.),
 the Gaussian 86(TM) system (copyright 1986, Carnegie Mellon
 University), and the Gaussian 82(TM) system (copyright 1983,
 Carnegie Mellon University). Gaussian is a federally registered
 trademark of Gaussian, Inc.
  
 This software contains proprietary and confidential information,
 including trade secrets, belonging to Gaussian, Inc.
  
 This software is provided under written license and may be
 used, copied, transmitted, or stored only in accord with that
 written license.
  
 The following legend is applicable only to US Government
 contracts under FAR:
  
                    RESTRICTED RIGHTS LEGEND
  
 Use, reproduction and disclosure by the US Government is
 subject to restrictions as set forth in subparagraphs (a)
 and (c) of the Commercial Computer Software - Restricted
 Rights clause in FAR 52.227-19.
  
 Gaussian, Inc.
 340 Quinnipiac St., Bldg. 40, Wallingford CT 06492
  
  
 ---------------------------------------------------------------
 Warning -- This program may not be used in any manner that
 competes with the business of Gaussian, Inc. or will provide
 assistance to any competitor of Gaussian, Inc.  The licensee
 of this program is prohibited from giving any competitor of
 Gaussian, Inc. access to this program.  By using this program,
 the user acknowledges that Gaussian, Inc. is engaged in the
 business of creating and licensing software in the field of
 computational chemistry and represents and warrants to the
 licensee that it is not a competitor of Gaussian, Inc. and that
 it will not use this program in any manner prohibited above.
 ---------------------------------------------------------------
  

 Cite this work as:
 Gaussian 16, Revision A.03,
 M. J. Frisch, G. W. Trucks, H. B. Schlegel, G. E. Scuseria, 
 M. A. Robb, J. R. Cheeseman, G. Scalmani, V. Barone, 
 G. A. Petersson, H. Nakatsuji, X. Li, M. Caricato, A. V. Marenich, 
 J. Bloino, B. G. Janesko, R. Gomperts, B. Mennucci, H. P. Hratchian, 
 J. V. Ortiz, A. F. Izmaylov, J. L. Sonnenberg, D. Williams-Young, 
 F. Ding, F. Lipparini, F. Egidi, J. Goings, B. Peng, A. Petrone, 
 T. Henderson, D. Ranasinghe, V. G. Zakrzewski, J. Gao, N. Rega, 
 G. Zheng, W. Liang, M. Hada, M. Ehara, K. Toyota, R. Fukuda, 
 J. Hasegawa, M. Ishida, T. Nakajima, Y. Honda, O. Kitao, H. Nakai, 
 T. Vreven, K. Throssell, J. A. Montgomery, Jr., J. E. Peralta, 
 F. Ogliaro, M. J. Bearpark, J. J. Heyd, E. N. Brothers, K. N. Kudin, 
 V. N. Staroverov, T. A. Keith, R. Kobayashi, J. Normand, 
 K. Raghavachari, A. P. Rendell, J. C. Burant, S. S. Iyengar, 
 J. Tomasi, M. Cossi, J. M. Millam, M. Klene, C. Adamo, R. Cammi, 
 J. W. Ochterski, R. L. Martin, K. Morokuma, O. Farkas, 
 J. B. Foresman, and D. J. Fox, Gaussian, Inc., Wallingford CT, 2016.
 
 ******************************************
 Gaussian 16:  AS64L-G16RevA.03 25-Dec-2016
                 8-May-2019 
 ******************************************
 %mem=48GB
 %nprocshared=32
 Will use up to   32 processors via shared memory.
 ----------------------------------------------------------------------
 #p opt=(ts,noeigentest,calcfc,maxstep=3,modredundant,recalc=30) freq=n
 oraman b3lyp 6-31g* pop=none scrf=(solvent=tetrahydrofuran,pcm) empiri
 caldispersion=gd3bj
 ----------------------------------------------------------------------
 1/5=1,8=3,10=4,11=1,18=120,26=3,38=1,71=30/1,3;
 2/9=110,12=2,17=6,18=5,40=1/2;
 3/5=1,6=6,7=1,11=2,25=1,30=1,70=2201,71=2,72=20,74=-5,124=41,140=1/1,2,3;
 4//1;
 5/5=2,38=5,53=20/2;
 8/6=4,10=90,11=11/1;
 11/6=1,8=1,9=11,15=111,16=1/1,2,10;
 10/6=1,13=1/2;
 7/10=1,18=20,25=1/1,2,3,16;
 1/5=1,8=3,10=4,11=1,18=20,26=3,71=30/3(2);
 2/9=110/2;
 99//99;
 2/9=110/2;
 3/5=1,6=6,7=1,11=2,25=1,30=1,70=2205,71=1,72=20,74=-5,124=41/1,2,3;
 4/5=5,16=3,69=1/1;
 5/5=2,38=5,53=20/2;
 7//1,2,3,16;
 1/5=1,8=3,11=1,18=20,26=3,71=30/3(-5);
 2/9=110/2;
 99/9=1/99;
 Leave Link    1 at Wed May  8 08:00:38 2019, MaxMem=  6442450944 cpu:               9.2 elap:               0.3
 (Enter /home/ekwan/sw/g16/l101.exe)
 -----
 title
 -----
 Symbolic Z-matrix:
 Charge =  0 Multiplicity = 1
 C                     4.46593  -1.63232  -0.70634 
 C                     3.23608  -2.5295   -0.87139 
 C                     2.76127  -3.05707   0.48684 
 C                     3.60566  -1.11399   1.64168 
 C                     4.20754  -0.5487    0.34746 
 H                     1.80276  -3.57685   0.40044 
 H                     2.41659  -1.91851  -1.28035 
 H                     5.32123  -2.24478  -0.39282 
 H                     4.37181  -1.71078   2.15474 
 H                     3.50276   0.17084  -0.08319 
 O                     2.47947  -1.96167   1.34121 
 O                     3.75102  -3.90795   1.00256 
 O                     3.55733  -3.56386  -1.78425 
 O                     4.75755  -0.97348  -1.93915 
 O                     5.39365   0.13734   0.74209 
 C                     3.07892  -0.02269   2.59304 
 H                     3.98446   0.44258   3.04075 
 H                     2.59262  -0.58227   3.42274 
 O                     2.24062   0.89165   2.00033 
 C                     2.42644  -4.28943  -2.2485 
 H                     2.0097   -4.94237  -1.46987 
 H                     1.63094  -3.61806  -2.59829 
 H                     2.7714   -4.90994  -3.07941 
 C                     5.73349  -1.62297  -2.74052 
 H                     6.69527  -1.69896  -2.21045 
 H                     5.40821  -2.62472  -3.03656 
 H                     5.87085  -1.00324  -3.63101 
 C                     5.94807   1.03409  -0.20937 
 H                     6.56081   0.52015  -0.95751 
 H                     5.16558   1.59375  -0.74147 
 H                     6.57835   1.73377   0.34937 
 C                    -1.25473   1.82616   0.07361 
 C                    -0.41061   0.86201   0.90584 
 C                     0.73315   0.26198   0.12661 
 C                     0.72399   2.01701  -1.49874 
 C                    -0.3313    2.77748  -0.68782 
 H                     1.23684  -0.62458   0.47988 
 H                     0.10338   1.43868   1.68396 
 H                    -1.86447   1.26578  -0.64359 
 H                     0.22413   1.48784  -2.3138 
 H                     0.16219   3.43527   0.03556 
 O                     1.41459   0.99669  -0.71931 
 O                    -0.40424  -2.88724  -0.04022 
 O                    -1.2363   -0.10777   1.49684 
 O                    -2.07796   2.62123   0.91396 
 O                    -1.05703   3.53441  -1.64433 
 C                     1.80327   2.90025  -2.08298 
 H                     1.3255    3.62672  -2.75128 
 H                     2.50545   2.28974  -2.66563 
 O                     2.497     3.57534  -1.03784 
 S                    -0.93816  -2.09952  -1.16903 
 O                    -0.96449  -2.76352  -2.48841 
 O                    -0.28461  -0.72251  -1.29671 
 C                    -2.64377  -1.70489  -0.76455 
 C                    -3.14743  -2.04627   0.4821 
 C                    -3.40633  -0.97432  -1.67323 
 C                    -4.42926  -1.62589   0.83676 
 H                    -2.52936  -2.60919   1.1695 
 C                    -4.69031  -0.57153  -1.30985 
 H                    -3.00151  -0.7157   -2.64491 
 C                    -5.20634  -0.88717  -0.05135 
 H                    -6.19805  -0.55717   0.23191 
 C                    -0.65916  -0.77684   2.62068 
 H                     0.12633  -1.47236   2.31238 
 H                    -0.24118  -0.05334   3.3302 
 H                    -1.47913  -1.32332   3.09123 
 C                    -3.39103   2.10326   1.11675 
 H                    -3.91613   1.9881    0.16009 
 H                    -3.36902   1.14086   1.63609 
 H                    -3.91994   2.83899   1.72776 
 C                    -1.37667   4.85659  -1.22587 
 H                    -1.97449   4.84759  -0.30907 
 H                    -0.4663    5.45023  -1.06208 
 H                    -1.95381   5.30727  -2.03667 
 C                     3.46195   4.49513  -1.54326 
 H                     3.94378   4.95814  -0.67979 
 H                     4.21661   3.97871  -2.15057 
 H                     2.97779   5.27047  -2.15014 
 C                     3.3401   -4.58298   2.18584 
 H                     4.15058  -5.26128   2.46082 
 H                     3.15699  -3.87949   3.00649 
 H                     2.42384  -5.16333   2.00717 
 Na                    2.92815   2.72876   1.1085 
 O                     1.41101   4.17855   2.04971 
 C                     0.67369   3.66407   3.16015 
 H                    -0.39619   3.6231    2.91784 
 H                     1.0545    2.65512   3.33192 
 H                     0.82712   4.28893   4.05029 
 C                     1.06553   5.5184    1.73058 
 H                     1.32747   6.19773   2.55317 
 H                     1.62817   5.79111   0.83523 
 H                    -0.00945   5.60637   1.52518 
 C                    -5.48514   0.30158  -2.23861 
 F                    -5.22455   1.61721  -2.01928 
 F                    -6.81493   0.13728  -2.07535 
 F                    -5.19667   0.05973  -3.5338 
 C                    -4.90288  -1.88641   2.23729 
 F                    -6.22607  -1.67375   2.3846 
 F                    -4.26748  -1.06985   3.11951 
 F                    -4.64314  -3.1517    2.63055 
 
 Add virtual bond connecting atoms O53        and C34        Dist= 3.79D+00.
 Add virtual bond connecting atoms H37        and O11        Dist= 3.81D+00.
 The following ModRedundant input section has been read:
 
 ITRead=  0  0  0  0  0  0  0  0  0  0  0  0  0  0  0  0  0  0  0  0
 ITRead=  0  0  0  0  0  0  0  0  0  0  0  0  0  0  0  0  0  0  0  0
 ITRead=  0  0  0  0  0  0  0  0  0  0  0  0  0  0  0  0  0  0  0  0
 ITRead=  0  0  0  0  0  0  0  0  0  0  0  0  0  0  0  0  0  0  0  0
 ITRead=  0  0  0  0  0  0  0  0  0  0  0  0  0  0  0  0  0  0  0  0
 MicOpt= -1 -1 -1 -1 -1 -1 -1 -1 -1 -1 -1 -1 -1 -1 -1 -1 -1 -1 -1 -1
 MicOpt= -1 -1 -1 -1 -1 -1 -1 -1 -1 -1 -1 -1 -1 -1 -1 -1 -1 -1 -1 -1
 MicOpt= -1 -1 -1 -1 -1 -1 -1 -1 -1 -1 -1 -1 -1 -1 -1 -1 -1 -1 -1 -1
 MicOpt= -1 -1 -1 -1 -1 -1 -1 -1 -1 -1 -1 -1 -1 -1 -1 -1 -1 -1 -1 -1
 MicOpt= -1 -1 -1 -1 -1 -1 -1 -1 -1 -1 -1 -1 -1 -1 -1 -1 -1 -1 -1 -1
 NAtoms=    100 NQM=      100 NQMF=       0 NMMI=      0 NMMIF=      0
                NMic=       0 NMicF=      0.
                    Isotopes and Nuclear Properties:
 (Nuclear quadrupole moments (NQMom) in fm**2, nuclear magnetic moments (NMagM)
  in nuclear magnetons)

  Atom         1           2           3           4           5           6           7           8           9          10
 IAtWgt=          12          12          12          12          12           1           1           1           1           1
 AtmWgt=  12.0000000  12.0000000  12.0000000  12.0000000  12.0000000   1.0078250   1.0078250   1.0078250   1.0078250   1.0078250
 NucSpn=           0           0           0           0           0           1           1           1           1           1
 AtZEff=   0.0000000   0.0000000   0.0000000   0.0000000   0.0000000   0.0000000   0.0000000   0.0000000   0.0000000   0.0000000
 NQMom=    0.0000000   0.0000000   0.0000000   0.0000000   0.0000000   0.0000000   0.0000000   0.0000000   0.0000000   0.0000000
 NMagM=    0.0000000   0.0000000   0.0000000   0.0000000   0.0000000   2.7928460   2.7928460   2.7928460   2.7928460   2.7928460
 AtZNuc=   6.0000000   6.0000000   6.0000000   6.0000000   6.0000000   1.0000000   1.0000000   1.0000000   1.0000000   1.0000000

  Atom        11          12          13          14          15          16          17          18          19          20
 IAtWgt=          16          16          16          16          16          12           1           1          16          12
 AtmWgt=  15.9949146  15.9949146  15.9949146  15.9949146  15.9949146  12.0000000   1.0078250   1.0078250  15.9949146  12.0000000
 NucSpn=           0           0           0           0           0           0           1           1           0           0
 AtZEff=   0.0000000   0.0000000   0.0000000   0.0000000   0.0000000   0.0000000   0.0000000   0.0000000   0.0000000   0.0000000
 NQMom=    0.0000000   0.0000000   0.0000000   0.0000000   0.0000000   0.0000000   0.0000000   0.0000000   0.0000000   0.0000000
 NMagM=    0.0000000   0.0000000   0.0000000   0.0000000   0.0000000   0.0000000   2.7928460   2.7928460   0.0000000   0.0000000
 AtZNuc=   8.0000000   8.0000000   8.0000000   8.0000000   8.0000000   6.0000000   1.0000000   1.0000000   8.0000000   6.0000000

  Atom        21          22          23          24          25          26          27          28          29          30
 IAtWgt=           1           1           1          12           1           1           1          12           1           1
 AtmWgt=   1.0078250   1.0078250   1.0078250  12.0000000   1.0078250   1.0078250   1.0078250  12.0000000   1.0078250   1.0078250
 NucSpn=           1           1           1           0           1           1           1           0           1           1
 AtZEff=   0.0000000   0.0000000   0.0000000   0.0000000   0.0000000   0.0000000   0.0000000   0.0000000   0.0000000   0.0000000
 NQMom=    0.0000000   0.0000000   0.0000000   0.0000000   0.0000000   0.0000000   0.0000000   0.0000000   0.0000000   0.0000000
 NMagM=    2.7928460   2.7928460   2.7928460   0.0000000   2.7928460   2.7928460   2.7928460   0.0000000   2.7928460   2.7928460
 AtZNuc=   1.0000000   1.0000000   1.0000000   6.0000000   1.0000000   1.0000000   1.0000000   6.0000000   1.0000000   1.0000000

  Atom        31          32          33          34          35          36          37          38          39          40
 IAtWgt=           1          12          12          12          12          12           1           1           1           1
 AtmWgt=   1.0078250  12.0000000  12.0000000  12.0000000  12.0000000  12.0000000   1.0078250   1.0078250   1.0078250   1.0078250
 NucSpn=           1           0           0           0           0           0           1           1           1           1
 AtZEff=   0.0000000   0.0000000   0.0000000   0.0000000   0.0000000   0.0000000   0.0000000   0.0000000   0.0000000   0.0000000
 NQMom=    0.0000000   0.0000000   0.0000000   0.0000000   0.0000000   0.0000000   0.0000000   0.0000000   0.0000000   0.0000000
 NMagM=    2.7928460   0.0000000   0.0000000   0.0000000   0.0000000   0.0000000   2.7928460   2.7928460   2.7928460   2.7928460
 AtZNuc=   1.0000000   6.0000000   6.0000000   6.0000000   6.0000000   6.0000000   1.0000000   1.0000000   1.0000000   1.0000000

  Atom        41          42          43          44          45          46          47          48          49          50
 IAtWgt=           1          16          16          16          16          16          12           1           1          16
 AtmWgt=   1.0078250  15.9949146  15.9949146  15.9949146  15.9949146  15.9949146  12.0000000   1.0078250   1.0078250  15.9949146
 NucSpn=           1           0           0           0           0           0           0           1           1           0
 AtZEff=   0.0000000   0.0000000   0.0000000   0.0000000   0.0000000   0.0000000   0.0000000   0.0000000   0.0000000   0.0000000
 NQMom=    0.0000000   0.0000000   0.0000000   0.0000000   0.0000000   0.0000000   0.0000000   0.0000000   0.0000000   0.0000000
 NMagM=    2.7928460   0.0000000   0.0000000   0.0000000   0.0000000   0.0000000   0.0000000   2.7928460   2.7928460   0.0000000
 AtZNuc=   1.0000000   8.0000000   8.0000000   8.0000000   8.0000000   8.0000000   6.0000000   1.0000000   1.0000000   8.0000000

  Atom        51          52          53          54          55          56          57          58          59          60
 IAtWgt=          32          16          16          12          12          12          12           1          12           1
 AtmWgt=  31.9720718  15.9949146  15.9949146  12.0000000  12.0000000  12.0000000  12.0000000   1.0078250  12.0000000   1.0078250
 NucSpn=           0           0           0           0           0           0           0           1           0           1
 AtZEff=   0.0000000   0.0000000   0.0000000   0.0000000   0.0000000   0.0000000   0.0000000   0.0000000   0.0000000   0.0000000
 NQMom=    0.0000000   0.0000000   0.0000000   0.0000000   0.0000000   0.0000000   0.0000000   0.0000000   0.0000000   0.0000000
 NMagM=    0.0000000   0.0000000   0.0000000   0.0000000   0.0000000   0.0000000   0.0000000   2.7928460   0.0000000   2.7928460
 AtZNuc=  16.0000000   8.0000000   8.0000000   6.0000000   6.0000000   6.0000000   6.0000000   1.0000000   6.0000000   1.0000000

  Atom        61          62          63          64          65          66          67          68          69          70
 IAtWgt=          12           1          12           1           1           1          12           1           1           1
 AtmWgt=  12.0000000   1.0078250  12.0000000   1.0078250   1.0078250   1.0078250  12.0000000   1.0078250   1.0078250   1.0078250
 NucSpn=           0           1           0           1           1           1           0           1           1           1
 AtZEff=   0.0000000   0.0000000   0.0000000   0.0000000   0.0000000   0.0000000   0.0000000   0.0000000   0.0000000   0.0000000
 NQMom=    0.0000000   0.0000000   0.0000000   0.0000000   0.0000000   0.0000000   0.0000000   0.0000000   0.0000000   0.0000000
 NMagM=    0.0000000   2.7928460   0.0000000   2.7928460   2.7928460   2.7928460   0.0000000   2.7928460   2.7928460   2.7928460
 AtZNuc=   6.0000000   1.0000000   6.0000000   1.0000000   1.0000000   1.0000000   6.0000000   1.0000000   1.0000000   1.0000000

  Atom        71          72          73          74          75          76          77          78          79          80
 IAtWgt=          12           1           1           1          12           1           1           1          12           1
 AtmWgt=  12.0000000   1.0078250   1.0078250   1.0078250  12.0000000   1.0078250   1.0078250   1.0078250  12.0000000   1.0078250
 NucSpn=           0           1           1           1           0           1           1           1           0           1
 AtZEff=   0.0000000   0.0000000   0.0000000   0.0000000   0.0000000   0.0000000   0.0000000   0.0000000   0.0000000   0.0000000
 NQMom=    0.0000000   0.0000000   0.0000000   0.0000000   0.0000000   0.0000000   0.0000000   0.0000000   0.0000000   0.0000000
 NMagM=    0.0000000   2.7928460   2.7928460   2.7928460   0.0000000   2.7928460   2.7928460   2.7928460   0.0000000   2.7928460
 AtZNuc=   6.0000000   1.0000000   1.0000000   1.0000000   6.0000000   1.0000000   1.0000000   1.0000000   6.0000000   1.0000000

  Atom        81          82          83          84          85          86          87          88          89          90
 IAtWgt=           1           1          23          16          12           1           1           1          12           1
 AtmWgt=   1.0078250   1.0078250  22.9897697  15.9949146  12.0000000   1.0078250   1.0078250   1.0078250  12.0000000   1.0078250
 NucSpn=           1           1           3           0           0           1           1           1           0           1
 AtZEff=   0.0000000   0.0000000   0.0000000   0.0000000   0.0000000   0.0000000   0.0000000   0.0000000   0.0000000   0.0000000
 NQMom=    0.0000000   0.0000000  10.4000000   0.0000000   0.0000000   0.0000000   0.0000000   0.0000000   0.0000000   0.0000000
 NMagM=    2.7928460   2.7928460   2.2175200   0.0000000   0.0000000   2.7928460   2.7928460   2.7928460   0.0000000   2.7928460
 AtZNuc=   1.0000000   1.0000000  11.0000000   8.0000000   6.0000000   1.0000000   1.0000000   1.0000000   6.0000000   1.0000000

  Atom        91          92          93          94          95          96          97          98          99         100
 IAtWgt=           1           1          12          19          19          19          12          19          19          19
 AtmWgt=   1.0078250   1.0078250  12.0000000  18.9984033  18.9984033  18.9984033  12.0000000  18.9984033  18.9984033  18.9984033
 NucSpn=           1           1           0           1           1           1           0           1           1           1
 AtZEff=   0.0000000   0.0000000   0.0000000   0.0000000   0.0000000   0.0000000   0.0000000   0.0000000   0.0000000   0.0000000
 NQMom=    0.0000000   0.0000000   0.0000000   0.0000000   0.0000000   0.0000000   0.0000000   0.0000000   0.0000000   0.0000000
 NMagM=    2.7928460   2.7928460   0.0000000   2.6288670   2.6288670   2.6288670   0.0000000   2.6288670   2.6288670   2.6288670
 AtZNuc=   1.0000000   1.0000000   6.0000000   9.0000000   9.0000000   9.0000000   6.0000000   9.0000000   9.0000000   9.0000000
 Leave Link  101 at Wed May  8 08:00:39 2019, MaxMem=  6442450944 cpu:              17.8 elap:               0.7
 (Enter /home/ekwan/sw/g16/l103.exe)

 GradGradGradGradGradGradGradGradGradGradGradGradGradGradGradGradGradGrad
 Berny optimization.
 Initialization pass.
                           ----------------------------
                           !    Initial Parameters    !
                           ! (Angstroms and Degrees)  !
 --------------------------                            --------------------------
 ! Name  Definition              Value          Derivative Info.                !
 --------------------------------------------------------------------------------
 ! R1    R(1,2)                  1.5312         calculate D2E/DX2 analytically  !
 ! R2    R(1,5)                  1.5335         calculate D2E/DX2 analytically  !
 ! R3    R(1,8)                  1.0977         calculate D2E/DX2 analytically  !
 ! R4    R(1,14)                 1.4279         calculate D2E/DX2 analytically  !
 ! R5    R(2,3)                  1.5325         calculate D2E/DX2 analytically  !
 ! R6    R(2,7)                  1.101          calculate D2E/DX2 analytically  !
 ! R7    R(2,13)                 1.4165         calculate D2E/DX2 analytically  !
 ! R8    R(3,6)                  1.0938         calculate D2E/DX2 analytically  !
 ! R9    R(3,11)                 1.4175         calculate D2E/DX2 analytically  !
 ! R10   R(3,12)                 1.4034         calculate D2E/DX2 analytically  !
 ! R11   R(4,5)                  1.5352         calculate D2E/DX2 analytically  !
 ! R12   R(4,9)                  1.0984         calculate D2E/DX2 analytically  !
 ! R13   R(4,11)                 1.4412         calculate D2E/DX2 analytically  !
 ! R14   R(4,16)                 1.5406         calculate D2E/DX2 analytically  !
 ! R15   R(5,10)                 1.0954         calculate D2E/DX2 analytically  !
 ! R16   R(5,15)                 1.4259         calculate D2E/DX2 analytically  !
 ! R17   R(11,37)                2.0184         calculate D2E/DX2 analytically  !
 ! R18   R(12,79)                1.4229         calculate D2E/DX2 analytically  !
 ! R19   R(13,20)                1.4216         calculate D2E/DX2 analytically  !
 ! R20   R(14,24)                1.42           calculate D2E/DX2 analytically  !
 ! R21   R(15,28)                1.4201         calculate D2E/DX2 analytically  !
 ! R22   R(16,17)                1.1122         calculate D2E/DX2 analytically  !
 ! R23   R(16,18)                1.1127         calculate D2E/DX2 analytically  !
 ! R24   R(16,19)                1.3748         calculate D2E/DX2 analytically  !
 ! R25   R(19,83)                2.1548         calculate D2E/DX2 analytically  !
 ! R26   R(20,21)                1.0983         calculate D2E/DX2 analytically  !
 ! R27   R(20,22)                1.0981         calculate D2E/DX2 analytically  !
 ! R28   R(20,23)                1.0929         calculate D2E/DX2 analytically  !
 ! R29   R(24,25)                1.1008         calculate D2E/DX2 analytically  !
 ! R30   R(24,26)                1.094          calculate D2E/DX2 analytically  !
 ! R31   R(24,27)                1.0936         calculate D2E/DX2 analytically  !
 ! R32   R(28,29)                1.0951         calculate D2E/DX2 analytically  !
 ! R33   R(28,30)                1.0994         calculate D2E/DX2 analytically  !
 ! R34   R(28,31)                1.095          calculate D2E/DX2 analytically  !
 ! R35   R(32,33)                1.528          calculate D2E/DX2 analytically  !
 ! R36   R(32,36)                1.5289         calculate D2E/DX2 analytically  !
 ! R37   R(32,39)                1.0955         calculate D2E/DX2 analytically  !
 ! R38   R(32,45)                1.4199         calculate D2E/DX2 analytically  !
 ! R39   R(33,34)                1.5084         calculate D2E/DX2 analytically  !
 ! R40   R(33,38)                1.0965         calculate D2E/DX2 analytically  !
 ! R41   R(33,44)                1.4041         calculate D2E/DX2 analytically  !
 ! R42   R(34,37)                1.0791         calculate D2E/DX2 analytically  !
 ! R43   R(34,42)                1.3114         calculate D2E/DX2 analytically  !
 ! R44   R(34,53)                2.0077         calculate D2E/DX2 analytically  !
 ! R45   R(35,36)                1.5328         calculate D2E/DX2 analytically  !
 ! R46   R(35,40)                1.0928         calculate D2E/DX2 analytically  !
 ! R47   R(35,42)                1.4579         calculate D2E/DX2 analytically  !
 ! R48   R(35,47)                1.512          calculate D2E/DX2 analytically  !
 ! R49   R(36,41)                1.0952         calculate D2E/DX2 analytically  !
 ! R50   R(36,46)                1.4193         calculate D2E/DX2 analytically  !
 ! R51   R(43,51)                1.4764         calculate D2E/DX2 analytically  !
 ! R52   R(44,63)                1.4296         calculate D2E/DX2 analytically  !
 ! R53   R(45,67)                1.426          calculate D2E/DX2 analytically  !
 ! R54   R(46,71)                1.4232         calculate D2E/DX2 analytically  !
 ! R55   R(47,48)                1.0966         calculate D2E/DX2 analytically  !
 ! R56   R(47,49)                1.0978         calculate D2E/DX2 analytically  !
 ! R57   R(47,50)                1.4245         calculate D2E/DX2 analytically  !
 ! R58   R(50,75)                1.4257         calculate D2E/DX2 analytically  !
 ! R59   R(51,52)                1.4773         calculate D2E/DX2 analytically  !
 ! R60   R(51,53)                1.5296         calculate D2E/DX2 analytically  !
 ! R61   R(51,54)                1.7968         calculate D2E/DX2 analytically  !
 ! R62   R(54,55)                1.3872         calculate D2E/DX2 analytically  !
 ! R63   R(54,56)                1.3932         calculate D2E/DX2 analytically  !
 ! R64   R(55,57)                1.3948         calculate D2E/DX2 analytically  !
 ! R65   R(55,58)                1.0823         calculate D2E/DX2 analytically  !
 ! R66   R(56,59)                1.3939         calculate D2E/DX2 analytically  !
 ! R67   R(56,60)                1.0839         calculate D2E/DX2 analytically  !
 ! R68   R(57,61)                1.3922         calculate D2E/DX2 analytically  !
 ! R69   R(57,97)                1.5012         calculate D2E/DX2 analytically  !
 ! R70   R(59,61)                1.3963         calculate D2E/DX2 analytically  !
 ! R71   R(59,93)                1.5022         calculate D2E/DX2 analytically  !
 ! R72   R(61,62)                1.0829         calculate D2E/DX2 analytically  !
 ! R73   R(63,64)                1.0935         calculate D2E/DX2 analytically  !
 ! R74   R(63,65)                1.0962         calculate D2E/DX2 analytically  !
 ! R75   R(63,66)                1.092          calculate D2E/DX2 analytically  !
 ! R76   R(67,68)                1.0974         calculate D2E/DX2 analytically  !
 ! R77   R(67,69)                1.0938         calculate D2E/DX2 analytically  !
 ! R78   R(67,70)                1.0929         calculate D2E/DX2 analytically  !
 ! R79   R(71,72)                1.0945         calculate D2E/DX2 analytically  !
 ! R80   R(71,73)                1.0991         calculate D2E/DX2 analytically  !
 ! R81   R(71,74)                1.0925         calculate D2E/DX2 analytically  !
 ! R82   R(75,76)                1.0918         calculate D2E/DX2 analytically  !
 ! R83   R(75,77)                1.0977         calculate D2E/DX2 analytically  !
 ! R84   R(75,78)                1.0972         calculate D2E/DX2 analytically  !
 ! R85   R(79,80)                1.0921         calculate D2E/DX2 analytically  !
 ! R86   R(79,81)                1.0963         calculate D2E/DX2 analytically  !
 ! R87   R(79,82)                1.0992         calculate D2E/DX2 analytically  !
 ! R88   R(83,84)                2.2999         calculate D2E/DX2 analytically  !
 ! R89   R(84,85)                1.4288         calculate D2E/DX2 analytically  !
 ! R90   R(84,89)                1.42           calculate D2E/DX2 analytically  !
 ! R91   R(85,86)                1.0977         calculate D2E/DX2 analytically  !
 ! R92   R(85,87)                1.092          calculate D2E/DX2 analytically  !
 ! R93   R(85,88)                1.0983         calculate D2E/DX2 analytically  !
 ! R94   R(89,90)                1.0985         calculate D2E/DX2 analytically  !
 ! R95   R(89,91)                1.0921         calculate D2E/DX2 analytically  !
 ! R96   R(89,92)                1.098          calculate D2E/DX2 analytically  !
 ! R97   R(93,94)                1.359          calculate D2E/DX2 analytically  !
 ! R98   R(93,95)                1.3498         calculate D2E/DX2 analytically  !
 ! R99   R(93,96)                1.3488         calculate D2E/DX2 analytically  !
 ! R100  R(97,98)                1.3482         calculate D2E/DX2 analytically  !
 ! R101  R(97,99)                1.3597         calculate D2E/DX2 analytically  !
 ! R102  R(97,100)               1.3502         calculate D2E/DX2 analytically  !
 ! A1    A(2,1,5)              110.6569         calculate D2E/DX2 analytically  !
 ! A2    A(2,1,8)              109.2501         calculate D2E/DX2 analytically  !
 ! A3    A(2,1,14)             109.9571         calculate D2E/DX2 analytically  !
 ! A4    A(5,1,8)              109.2256         calculate D2E/DX2 analytically  !
 ! A5    A(5,1,14)             107.5578         calculate D2E/DX2 analytically  !
 ! A6    A(8,1,14)             110.1758         calculate D2E/DX2 analytically  !
 ! A7    A(1,2,3)              110.7944         calculate D2E/DX2 analytically  !
 ! A8    A(1,2,7)              108.2225         calculate D2E/DX2 analytically  !
 ! A9    A(1,2,13)             108.3702         calculate D2E/DX2 analytically  !
 ! A10   A(3,2,7)              106.837          calculate D2E/DX2 analytically  !
 ! A11   A(3,2,13)             112.9581         calculate D2E/DX2 analytically  !
 ! A12   A(7,2,13)             109.5529         calculate D2E/DX2 analytically  !
 ! A13   A(2,3,6)              111.4131         calculate D2E/DX2 analytically  !
 ! A14   A(2,3,11)             109.2543         calculate D2E/DX2 analytically  !
 ! A15   A(2,3,12)             108.4153         calculate D2E/DX2 analytically  !
 ! A16   A(6,3,11)             103.9238         calculate D2E/DX2 analytically  !
 ! A17   A(6,3,12)             111.0342         calculate D2E/DX2 analytically  !
 ! A18   A(11,3,12)            112.7832         calculate D2E/DX2 analytically  !
 ! A19   A(5,4,9)              108.6869         calculate D2E/DX2 analytically  !
 ! A20   A(5,4,11)             110.3143         calculate D2E/DX2 analytically  !
 ! A21   A(5,4,16)             113.1918         calculate D2E/DX2 analytically  !
 ! A22   A(9,4,11)             108.8368         calculate D2E/DX2 analytically  !
 ! A23   A(9,4,16)             109.5673         calculate D2E/DX2 analytically  !
 ! A24   A(11,4,16)            106.1534         calculate D2E/DX2 analytically  !
 ! A25   A(1,5,4)              112.656          calculate D2E/DX2 analytically  !
 ! A26   A(1,5,10)             107.6033         calculate D2E/DX2 analytically  !
 ! A27   A(1,5,15)             112.9548         calculate D2E/DX2 analytically  !
 ! A28   A(4,5,10)             108.7269         calculate D2E/DX2 analytically  !
 ! A29   A(4,5,15)             105.6621         calculate D2E/DX2 analytically  !
 ! A30   A(10,5,15)            109.1453         calculate D2E/DX2 analytically  !
 ! A31   A(3,11,4)             115.1402         calculate D2E/DX2 analytically  !
 ! A32   A(3,11,37)            112.1551         calculate D2E/DX2 analytically  !
 ! A33   A(4,11,37)            100.3937         calculate D2E/DX2 analytically  !
 ! A34   A(3,12,79)            112.9263         calculate D2E/DX2 analytically  !
 ! A35   A(2,13,20)            113.7498         calculate D2E/DX2 analytically  !
 ! A36   A(1,14,24)            114.6171         calculate D2E/DX2 analytically  !
 ! A37   A(5,15,28)            116.3038         calculate D2E/DX2 analytically  !
 ! A38   A(4,16,17)            105.4588         calculate D2E/DX2 analytically  !
 ! A39   A(4,16,18)            104.6952         calculate D2E/DX2 analytically  !
 ! A40   A(4,16,19)            114.4158         calculate D2E/DX2 analytically  !
 ! A41   A(17,16,18)           105.4303         calculate D2E/DX2 analytically  !
 ! A42   A(17,16,19)           113.0666         calculate D2E/DX2 analytically  !
 ! A43   A(18,16,19)           112.9203         calculate D2E/DX2 analytically  !
 ! A44   A(16,19,83)           123.4288         calculate D2E/DX2 analytically  !
 ! A45   A(13,20,21)           111.9482         calculate D2E/DX2 analytically  !
 ! A46   A(13,20,22)           111.6087         calculate D2E/DX2 analytically  !
 ! A47   A(13,20,23)           106.6773         calculate D2E/DX2 analytically  !
 ! A48   A(21,20,22)           108.325          calculate D2E/DX2 analytically  !
 ! A49   A(21,20,23)           108.7364         calculate D2E/DX2 analytically  !
 ! A50   A(22,20,23)           109.4863         calculate D2E/DX2 analytically  !
 ! A51   A(14,24,25)           111.1182         calculate D2E/DX2 analytically  !
 ! A52   A(14,24,26)           111.5402         calculate D2E/DX2 analytically  !
 ! A53   A(14,24,27)           106.6585         calculate D2E/DX2 analytically  !
 ! A54   A(25,24,26)           109.0782         calculate D2E/DX2 analytically  !
 ! A55   A(25,24,27)           108.7527         calculate D2E/DX2 analytically  !
 ! A56   A(26,24,27)           109.6271         calculate D2E/DX2 analytically  !
 ! A57   A(15,28,29)           112.3202         calculate D2E/DX2 analytically  !
 ! A58   A(15,28,30)           111.5829         calculate D2E/DX2 analytically  !
 ! A59   A(15,28,31)           106.6392         calculate D2E/DX2 analytically  !
 ! A60   A(29,28,30)           107.8479         calculate D2E/DX2 analytically  !
 ! A61   A(29,28,31)           109.0509         calculate D2E/DX2 analytically  !
 ! A62   A(30,28,31)           109.3526         calculate D2E/DX2 analytically  !
 ! A63   A(33,32,36)           109.2816         calculate D2E/DX2 analytically  !
 ! A64   A(33,32,39)           109.9547         calculate D2E/DX2 analytically  !
 ! A65   A(33,32,45)           110.5651         calculate D2E/DX2 analytically  !
 ! A66   A(36,32,39)           109.1719         calculate D2E/DX2 analytically  !
 ! A67   A(36,32,45)           107.2487         calculate D2E/DX2 analytically  !
 ! A68   A(39,32,45)           110.5605         calculate D2E/DX2 analytically  !
 ! A69   A(32,33,34)           112.8625         calculate D2E/DX2 analytically  !
 ! A70   A(32,33,38)           108.2784         calculate D2E/DX2 analytically  !
 ! A71   A(32,33,44)           109.8893         calculate D2E/DX2 analytically  !
 ! A72   A(34,33,38)           102.7303         calculate D2E/DX2 analytically  !
 ! A73   A(34,33,44)           112.8661         calculate D2E/DX2 analytically  !
 ! A74   A(38,33,44)           109.8895         calculate D2E/DX2 analytically  !
 ! A75   A(33,34,37)           120.7708         calculate D2E/DX2 analytically  !
 ! A76   A(33,34,42)           120.2893         calculate D2E/DX2 analytically  !
 ! A77   A(33,34,53)           100.1889         calculate D2E/DX2 analytically  !
 ! A78   A(37,34,42)           115.3986         calculate D2E/DX2 analytically  !
 ! A79   A(37,34,53)            93.7748         calculate D2E/DX2 analytically  !
 ! A80   A(42,34,53)            94.6367         calculate D2E/DX2 analytically  !
 ! A81   A(36,35,40)           108.6577         calculate D2E/DX2 analytically  !
 ! A82   A(36,35,42)           112.9852         calculate D2E/DX2 analytically  !
 ! A83   A(36,35,47)           113.9553         calculate D2E/DX2 analytically  !
 ! A84   A(40,35,42)           106.053          calculate D2E/DX2 analytically  !
 ! A85   A(40,35,47)           108.7337         calculate D2E/DX2 analytically  !
 ! A86   A(42,35,47)           106.097          calculate D2E/DX2 analytically  !
 ! A87   A(32,36,35)           111.7523         calculate D2E/DX2 analytically  !
 ! A88   A(32,36,41)           108.4769         calculate D2E/DX2 analytically  !
 ! A89   A(32,36,46)           111.016          calculate D2E/DX2 analytically  !
 ! A90   A(35,36,41)           109.7057         calculate D2E/DX2 analytically  !
 ! A91   A(35,36,46)           105.0744         calculate D2E/DX2 analytically  !
 ! A92   A(41,36,46)           110.8058         calculate D2E/DX2 analytically  !
 ! A93   A(34,42,35)           119.3941         calculate D2E/DX2 analytically  !
 ! A94   A(33,44,63)           114.6285         calculate D2E/DX2 analytically  !
 ! A95   A(32,45,67)           114.4964         calculate D2E/DX2 analytically  !
 ! A96   A(36,46,71)           114.339          calculate D2E/DX2 analytically  !
 ! A97   A(35,47,48)           108.147          calculate D2E/DX2 analytically  !
 ! A98   A(35,47,49)           109.68           calculate D2E/DX2 analytically  !
 ! A99   A(35,47,50)           109.9345         calculate D2E/DX2 analytically  !
 ! A100  A(48,47,49)           108.8814         calculate D2E/DX2 analytically  !
 ! A101  A(48,47,50)           110.2015         calculate D2E/DX2 analytically  !
 ! A102  A(49,47,50)           109.9639         calculate D2E/DX2 analytically  !
 ! A103  A(47,50,75)           112.0399         calculate D2E/DX2 analytically  !
 ! A104  A(43,51,52)           116.7104         calculate D2E/DX2 analytically  !
 ! A105  A(43,51,53)           112.9311         calculate D2E/DX2 analytically  !
 ! A106  A(43,51,54)           106.7591         calculate D2E/DX2 analytically  !
 ! A107  A(52,51,53)           109.7374         calculate D2E/DX2 analytically  !
 ! A108  A(52,51,54)           106.4305         calculate D2E/DX2 analytically  !
 ! A109  A(53,51,54)           103.1004         calculate D2E/DX2 analytically  !
 ! A110  A(34,53,51)           126.789          calculate D2E/DX2 analytically  !
 ! A111  A(51,54,55)           119.5323         calculate D2E/DX2 analytically  !
 ! A112  A(51,54,56)           119.2042         calculate D2E/DX2 analytically  !
 ! A113  A(55,54,56)           121.0951         calculate D2E/DX2 analytically  !
 ! A114  A(54,55,57)           119.209          calculate D2E/DX2 analytically  !
 ! A115  A(54,55,58)           119.4337         calculate D2E/DX2 analytically  !
 ! A116  A(57,55,58)           121.3358         calculate D2E/DX2 analytically  !
 ! A117  A(54,56,59)           119.0586         calculate D2E/DX2 analytically  !
 ! A118  A(54,56,60)           120.357          calculate D2E/DX2 analytically  !
 ! A119  A(59,56,60)           120.5818         calculate D2E/DX2 analytically  !
 ! A120  A(55,57,61)           120.7072         calculate D2E/DX2 analytically  !
 ! A121  A(55,57,97)           118.3489         calculate D2E/DX2 analytically  !
 ! A122  A(61,57,97)           120.7373         calculate D2E/DX2 analytically  !
 ! A123  A(56,59,61)           120.6679         calculate D2E/DX2 analytically  !
 ! A124  A(56,59,93)           119.6147         calculate D2E/DX2 analytically  !
 ! A125  A(61,59,93)           119.5432         calculate D2E/DX2 analytically  !
 ! A126  A(57,61,59)           119.2491         calculate D2E/DX2 analytically  !
 ! A127  A(57,61,62)           120.3979         calculate D2E/DX2 analytically  !
 ! A128  A(59,61,62)           120.3525         calculate D2E/DX2 analytically  !
 ! A129  A(44,63,64)           111.4707         calculate D2E/DX2 analytically  !
 ! A130  A(44,63,65)           110.7246         calculate D2E/DX2 analytically  !
 ! A131  A(44,63,66)           105.6541         calculate D2E/DX2 analytically  !
 ! A132  A(64,63,65)           109.1706         calculate D2E/DX2 analytically  !
 ! A133  A(64,63,66)           110.0333         calculate D2E/DX2 analytically  !
 ! A134  A(65,63,66)           109.7381         calculate D2E/DX2 analytically  !
 ! A135  A(45,67,68)           110.7782         calculate D2E/DX2 analytically  !
 ! A136  A(45,67,69)           111.6276         calculate D2E/DX2 analytically  !
 ! A137  A(45,67,70)           106.2965         calculate D2E/DX2 analytically  !
 ! A138  A(68,67,69)           109.3424         calculate D2E/DX2 analytically  !
 ! A139  A(68,67,70)           109.0546         calculate D2E/DX2 analytically  !
 ! A140  A(69,67,70)           109.6713         calculate D2E/DX2 analytically  !
 ! A141  A(46,71,72)           111.1818         calculate D2E/DX2 analytically  !
 ! A142  A(46,71,73)           111.0736         calculate D2E/DX2 analytically  !
 ! A143  A(46,71,74)           106.4793         calculate D2E/DX2 analytically  !
 ! A144  A(72,71,73)           109.3918         calculate D2E/DX2 analytically  !
 ! A145  A(72,71,74)           109.6632         calculate D2E/DX2 analytically  !
 ! A146  A(73,71,74)           108.9862         calculate D2E/DX2 analytically  !
 ! A147  A(50,75,76)           106.9728         calculate D2E/DX2 analytically  !
 ! A148  A(50,75,77)           110.9727         calculate D2E/DX2 analytically  !
 ! A149  A(50,75,78)           110.6901         calculate D2E/DX2 analytically  !
 ! A150  A(76,75,77)           109.4899         calculate D2E/DX2 analytically  !
 ! A151  A(76,75,78)           109.4195         calculate D2E/DX2 analytically  !
 ! A152  A(77,75,78)           109.2562         calculate D2E/DX2 analytically  !
 ! A153  A(12,79,80)           106.8418         calculate D2E/DX2 analytically  !
 ! A154  A(12,79,81)           111.4882         calculate D2E/DX2 analytically  !
 ! A155  A(12,79,82)           110.8559         calculate D2E/DX2 analytically  !
 ! A156  A(80,79,81)           109.5141         calculate D2E/DX2 analytically  !
 ! A157  A(80,79,82)           109.3676         calculate D2E/DX2 analytically  !
 ! A158  A(81,79,82)           108.7386         calculate D2E/DX2 analytically  !
 ! A159  A(19,83,84)            99.0667         calculate D2E/DX2 analytically  !
 ! A160  A(83,84,85)           115.562          calculate D2E/DX2 analytically  !
 ! A161  A(83,84,89)           131.5529         calculate D2E/DX2 analytically  !
 ! A162  A(85,84,89)           112.8847         calculate D2E/DX2 analytically  !
 ! A163  A(84,85,86)           110.172          calculate D2E/DX2 analytically  !
 ! A164  A(84,85,87)           105.9613         calculate D2E/DX2 analytically  !
 ! A165  A(84,85,88)           110.6664         calculate D2E/DX2 analytically  !
 ! A166  A(86,85,87)           109.8833         calculate D2E/DX2 analytically  !
 ! A167  A(86,85,88)           109.6502         calculate D2E/DX2 analytically  !
 ! A168  A(87,85,88)           110.4532         calculate D2E/DX2 analytically  !
 ! A169  A(84,89,90)           110.9282         calculate D2E/DX2 analytically  !
 ! A170  A(84,89,91)           107.1301         calculate D2E/DX2 analytically  !
 ! A171  A(84,89,92)           110.8451         calculate D2E/DX2 analytically  !
 ! A172  A(90,89,91)           109.6732         calculate D2E/DX2 analytically  !
 ! A173  A(90,89,92)           108.9047         calculate D2E/DX2 analytically  !
 ! A174  A(91,89,92)           109.3319         calculate D2E/DX2 analytically  !
 ! A175  A(59,93,94)           111.188          calculate D2E/DX2 analytically  !
 ! A176  A(59,93,95)           112.0691         calculate D2E/DX2 analytically  !
 ! A177  A(59,93,96)           112.1054         calculate D2E/DX2 analytically  !
 ! A178  A(94,93,95)           106.6918         calculate D2E/DX2 analytically  !
 ! A179  A(94,93,96)           106.7117         calculate D2E/DX2 analytically  !
 ! A180  A(95,93,96)           107.7593         calculate D2E/DX2 analytically  !
 ! A181  A(57,97,98)           112.5934         calculate D2E/DX2 analytically  !
 ! A182  A(57,97,99)           110.7115         calculate D2E/DX2 analytically  !
 ! A183  A(57,97,100)          111.9412         calculate D2E/DX2 analytically  !
 ! A184  A(98,97,99)           107.0382         calculate D2E/DX2 analytically  !
 ! A185  A(98,97,100)          107.745          calculate D2E/DX2 analytically  !
 ! A186  A(99,97,100)          106.4927         calculate D2E/DX2 analytically  !
 ! A187  L(11,37,34,10,-1)     170.3674         calculate D2E/DX2 analytically  !
 ! A188  L(11,37,34,10,-2)     189.9821         calculate D2E/DX2 analytically  !
 ! D1    D(5,1,2,3)            -51.6099         calculate D2E/DX2 analytically  !
 ! D2    D(5,1,2,7)             65.2117         calculate D2E/DX2 analytically  !
 ! D3    D(5,1,2,13)          -176.0641         calculate D2E/DX2 analytically  !
 ! D4    D(8,1,2,3)             68.6825         calculate D2E/DX2 analytically  !
 ! D5    D(8,1,2,7)           -174.496          calculate D2E/DX2 analytically  !
 ! D6    D(8,1,2,13)           -55.7717         calculate D2E/DX2 analytically  !
 ! D7    D(14,1,2,3)          -170.2882         calculate D2E/DX2 analytically  !
 ! D8    D(14,1,2,7)           -53.4667         calculate D2E/DX2 analytically  !
 ! D9    D(14,1,2,13)           65.2576         calculate D2E/DX2 analytically  !
 ! D10   D(2,1,5,4)             48.1915         calculate D2E/DX2 analytically  !
 ! D11   D(2,1,5,10)           -71.6387         calculate D2E/DX2 analytically  !
 ! D12   D(2,1,5,15)           167.8273         calculate D2E/DX2 analytically  !
 ! D13   D(8,1,5,4)            -72.1155         calculate D2E/DX2 analytically  !
 ! D14   D(8,1,5,10)           168.0543         calculate D2E/DX2 analytically  !
 ! D15   D(8,1,5,15)            47.5202         calculate D2E/DX2 analytically  !
 ! D16   D(14,1,5,4)           168.3159         calculate D2E/DX2 analytically  !
 ! D17   D(14,1,5,10)           48.4857         calculate D2E/DX2 analytically  !
 ! D18   D(14,1,5,15)          -72.0483         calculate D2E/DX2 analytically  !
 ! D19   D(2,1,14,24)          -95.4397         calculate D2E/DX2 analytically  !
 ! D20   D(5,1,14,24)          143.9936         calculate D2E/DX2 analytically  !
 ! D21   D(8,1,14,24)           25.0322         calculate D2E/DX2 analytically  !
 ! D22   D(1,2,3,6)            171.6807         calculate D2E/DX2 analytically  !
 ! D23   D(1,2,3,11)            57.4277         calculate D2E/DX2 analytically  !
 ! D24   D(1,2,3,12)           -65.8453         calculate D2E/DX2 analytically  !
 ! D25   D(7,2,3,6)             54.0093         calculate D2E/DX2 analytically  !
 ! D26   D(7,2,3,11)           -60.2438         calculate D2E/DX2 analytically  !
 ! D27   D(7,2,3,12)           176.4833         calculate D2E/DX2 analytically  !
 ! D28   D(13,2,3,6)           -66.5175         calculate D2E/DX2 analytically  !
 ! D29   D(13,2,3,11)          179.2294         calculate D2E/DX2 analytically  !
 ! D30   D(13,2,3,12)           55.9565         calculate D2E/DX2 analytically  !
 ! D31   D(1,2,13,20)         -166.9575         calculate D2E/DX2 analytically  !
 ! D32   D(3,2,13,20)           69.8858         calculate D2E/DX2 analytically  !
 ! D33   D(7,2,13,20)          -49.0786         calculate D2E/DX2 analytically  !
 ! D34   D(2,3,11,4)           -62.1009         calculate D2E/DX2 analytically  !
 ! D35   D(2,3,11,37)           51.8693         calculate D2E/DX2 analytically  !
 ! D36   D(6,3,11,4)           178.885          calculate D2E/DX2 analytically  !
 ! D37   D(6,3,11,37)          -67.1447         calculate D2E/DX2 analytically  !
 ! D38   D(12,3,11,4)           58.5395         calculate D2E/DX2 analytically  !
 ! D39   D(12,3,11,37)         172.5097         calculate D2E/DX2 analytically  !
 ! D40   D(2,3,12,79)         -172.6973         calculate D2E/DX2 analytically  !
 ! D41   D(6,3,12,79)          -49.9931         calculate D2E/DX2 analytically  !
 ! D42   D(11,3,12,79)          66.1837         calculate D2E/DX2 analytically  !
 ! D43   D(9,4,5,1)             69.6568         calculate D2E/DX2 analytically  !
 ! D44   D(9,4,5,10)          -171.1645         calculate D2E/DX2 analytically  !
 ! D45   D(9,4,5,15)           -54.1189         calculate D2E/DX2 analytically  !
 ! D46   D(11,4,5,1)           -49.5955         calculate D2E/DX2 analytically  !
 ! D47   D(11,4,5,10)           69.5832         calculate D2E/DX2 analytically  !
 ! D48   D(11,4,5,15)         -173.3712         calculate D2E/DX2 analytically  !
 ! D49   D(16,4,5,1)          -168.3688         calculate D2E/DX2 analytically  !
 ! D50   D(16,4,5,10)          -49.1901         calculate D2E/DX2 analytically  !
 ! D51   D(16,4,5,15)           67.8555         calculate D2E/DX2 analytically  !
 ! D52   D(5,4,11,3)            58.0694         calculate D2E/DX2 analytically  !
 ! D53   D(5,4,11,37)          -62.5681         calculate D2E/DX2 analytically  !
 ! D54   D(9,4,11,3)           -61.0919         calculate D2E/DX2 analytically  !
 ! D55   D(9,4,11,37)          178.2706         calculate D2E/DX2 analytically  !
 ! D56   D(16,4,11,3)         -178.946          calculate D2E/DX2 analytically  !
 ! D57   D(16,4,11,37)          60.4165         calculate D2E/DX2 analytically  !
 ! D58   D(5,4,16,17)          -74.3594         calculate D2E/DX2 analytically  !
 ! D59   D(5,4,16,18)          174.6684         calculate D2E/DX2 analytically  !
 ! D60   D(5,4,16,19)           50.5285         calculate D2E/DX2 analytically  !
 ! D61   D(9,4,16,17)           47.1212         calculate D2E/DX2 analytically  !
 ! D62   D(9,4,16,18)          -63.851          calculate D2E/DX2 analytically  !
 ! D63   D(9,4,16,19)          172.0091         calculate D2E/DX2 analytically  !
 ! D64   D(11,4,16,17)         164.4888         calculate D2E/DX2 analytically  !
 ! D65   D(11,4,16,18)          53.5166         calculate D2E/DX2 analytically  !
 ! D66   D(11,4,16,19)         -70.6233         calculate D2E/DX2 analytically  !
 ! D67   D(1,5,15,28)           72.167          calculate D2E/DX2 analytically  !
 ! D68   D(4,5,15,28)         -164.2458         calculate D2E/DX2 analytically  !
 ! D69   D(10,5,15,28)         -47.4831         calculate D2E/DX2 analytically  !
 ! D70   D(3,11,34,33)         135.0131         calculate D2E/DX2 analytically  !
 ! D71   D(3,11,34,42)         -75.005          calculate D2E/DX2 analytically  !
 ! D72   D(3,11,34,53)          25.0312         calculate D2E/DX2 analytically  !
 ! D73   D(4,11,34,33)        -103.4885         calculate D2E/DX2 analytically  !
 ! D74   D(4,11,34,42)          46.4934         calculate D2E/DX2 analytically  !
 ! D75   D(4,11,34,53)         146.5296         calculate D2E/DX2 analytically  !
 ! D76   D(3,12,79,80)         176.2894         calculate D2E/DX2 analytically  !
 ! D77   D(3,12,79,81)         -64.0904         calculate D2E/DX2 analytically  !
 ! D78   D(3,12,79,82)          57.2041         calculate D2E/DX2 analytically  !
 ! D79   D(2,13,20,21)         -72.2129         calculate D2E/DX2 analytically  !
 ! D80   D(2,13,20,22)          49.4027         calculate D2E/DX2 analytically  !
 ! D81   D(2,13,20,23)         168.955          calculate D2E/DX2 analytically  !
 ! D82   D(1,14,24,25)         -60.3733         calculate D2E/DX2 analytically  !
 ! D83   D(1,14,24,26)          61.575          calculate D2E/DX2 analytically  !
 ! D84   D(1,14,24,27)        -178.752          calculate D2E/DX2 analytically  !
 ! D85   D(5,15,28,29)         -81.8383         calculate D2E/DX2 analytically  !
 ! D86   D(5,15,28,30)          39.4068         calculate D2E/DX2 analytically  !
 ! D87   D(5,15,28,31)         158.7581         calculate D2E/DX2 analytically  !
 ! D88   D(4,16,19,83)         -90.8696         calculate D2E/DX2 analytically  !
 ! D89   D(17,16,19,83)         29.8926         calculate D2E/DX2 analytically  !
 ! D90   D(18,16,19,83)        149.499          calculate D2E/DX2 analytically  !
 ! D91   D(16,19,83,84)       -132.637          calculate D2E/DX2 analytically  !
 ! D92   D(36,32,33,34)        -46.7429         calculate D2E/DX2 analytically  !
 ! D93   D(36,32,33,38)         66.2817         calculate D2E/DX2 analytically  !
 ! D94   D(36,32,33,44)       -173.6846         calculate D2E/DX2 analytically  !
 ! D95   D(39,32,33,34)         73.0692         calculate D2E/DX2 analytically  !
 ! D96   D(39,32,33,38)       -173.9061         calculate D2E/DX2 analytically  !
 ! D97   D(39,32,33,44)        -53.8725         calculate D2E/DX2 analytically  !
 ! D98   D(45,32,33,34)       -164.568          calculate D2E/DX2 analytically  !
 ! D99   D(45,32,33,38)        -51.5433         calculate D2E/DX2 analytically  !
 ! D100  D(45,32,33,44)         68.4903         calculate D2E/DX2 analytically  !
 ! D101  D(33,32,36,35)         52.9996         calculate D2E/DX2 analytically  !
 ! D102  D(33,32,36,41)        -68.0712         calculate D2E/DX2 analytically  !
 ! D103  D(33,32,36,46)        169.9525         calculate D2E/DX2 analytically  !
 ! D104  D(39,32,36,35)        -67.2934         calculate D2E/DX2 analytically  !
 ! D105  D(39,32,36,41)        171.6358         calculate D2E/DX2 analytically  !
 ! D106  D(39,32,36,46)         49.6595         calculate D2E/DX2 analytically  !
 ! D107  D(45,32,36,35)        172.8865         calculate D2E/DX2 analytically  !
 ! D108  D(45,32,36,41)         51.8157         calculate D2E/DX2 analytically  !
 ! D109  D(45,32,36,46)        -70.1606         calculate D2E/DX2 analytically  !
 ! D110  D(33,32,45,67)        -93.7946         calculate D2E/DX2 analytically  !
 ! D111  D(36,32,45,67)        147.1416         calculate D2E/DX2 analytically  !
 ! D112  D(39,32,45,67)         28.2129         calculate D2E/DX2 analytically  !
 ! D113  D(32,33,34,37)       -162.6736         calculate D2E/DX2 analytically  !
 ! D114  D(32,33,34,42)         39.5224         calculate D2E/DX2 analytically  !
 ! D115  D(32,33,34,53)        -62.0203         calculate D2E/DX2 analytically  !
 ! D116  D(38,33,34,37)         80.9537         calculate D2E/DX2 analytically  !
 ! D117  D(38,33,34,42)        -76.8503         calculate D2E/DX2 analytically  !
 ! D118  D(38,33,34,53)       -178.393          calculate D2E/DX2 analytically  !
 ! D119  D(44,33,34,37)        -37.3275         calculate D2E/DX2 analytically  !
 ! D120  D(44,33,34,42)        164.8684         calculate D2E/DX2 analytically  !
 ! D121  D(44,33,34,53)         63.3258         calculate D2E/DX2 analytically  !
 ! D122  D(32,33,44,63)       -160.2908         calculate D2E/DX2 analytically  !
 ! D123  D(34,33,44,63)         72.7695         calculate D2E/DX2 analytically  !
 ! D124  D(38,33,44,63)        -41.2407         calculate D2E/DX2 analytically  !
 ! D125  D(33,34,42,35)        -35.9625         calculate D2E/DX2 analytically  !
 ! D126  D(37,34,42,35)        165.096          calculate D2E/DX2 analytically  !
 ! D127  D(53,34,42,35)         68.6869         calculate D2E/DX2 analytically  !
 ! D128  D(33,34,53,51)        -81.616          calculate D2E/DX2 analytically  !
 ! D129  D(37,34,53,51)         40.5782         calculate D2E/DX2 analytically  !
 ! D130  D(42,34,53,51)        156.4658         calculate D2E/DX2 analytically  !
 ! D131  D(40,35,36,32)         68.348          calculate D2E/DX2 analytically  !
 ! D132  D(40,35,36,41)       -171.2971         calculate D2E/DX2 analytically  !
 ! D133  D(40,35,36,46)        -52.1396         calculate D2E/DX2 analytically  !
 ! D134  D(42,35,36,32)        -49.056          calculate D2E/DX2 analytically  !
 ! D135  D(42,35,36,41)         71.2989         calculate D2E/DX2 analytically  !
 ! D136  D(42,35,36,46)       -169.5436         calculate D2E/DX2 analytically  !
 ! D137  D(47,35,36,32)       -170.2555         calculate D2E/DX2 analytically  !
 ! D138  D(47,35,36,41)        -49.9007         calculate D2E/DX2 analytically  !
 ! D139  D(47,35,36,46)         69.2568         calculate D2E/DX2 analytically  !
 ! D140  D(36,35,42,34)         40.1914         calculate D2E/DX2 analytically  !
 ! D141  D(40,35,42,34)        -78.7332         calculate D2E/DX2 analytically  !
 ! D142  D(47,35,42,34)        165.7436         calculate D2E/DX2 analytically  !
 ! D143  D(36,35,47,48)        -60.1184         calculate D2E/DX2 analytically  !
 ! D144  D(36,35,47,49)       -178.7321         calculate D2E/DX2 analytically  !
 ! D145  D(36,35,47,50)         60.2415         calculate D2E/DX2 analytically  !
 ! D146  D(40,35,47,48)         61.2359         calculate D2E/DX2 analytically  !
 ! D147  D(40,35,47,49)        -57.3778         calculate D2E/DX2 analytically  !
 ! D148  D(40,35,47,50)       -178.4042         calculate D2E/DX2 analytically  !
 ! D149  D(42,35,47,48)        174.9253         calculate D2E/DX2 analytically  !
 ! D150  D(42,35,47,49)         56.3116         calculate D2E/DX2 analytically  !
 ! D151  D(42,35,47,50)        -64.7148         calculate D2E/DX2 analytically  !
 ! D152  D(32,36,46,71)        100.0332         calculate D2E/DX2 analytically  !
 ! D153  D(35,36,46,71)       -138.9942         calculate D2E/DX2 analytically  !
 ! D154  D(41,36,46,71)        -20.5756         calculate D2E/DX2 analytically  !
 ! D155  D(33,44,63,64)        -72.5047         calculate D2E/DX2 analytically  !
 ! D156  D(33,44,63,65)         49.2376         calculate D2E/DX2 analytically  !
 ! D157  D(33,44,63,66)        167.9897         calculate D2E/DX2 analytically  !
 ! D158  D(32,45,67,68)        -58.5117         calculate D2E/DX2 analytically  !
 ! D159  D(32,45,67,69)         63.5965         calculate D2E/DX2 analytically  !
 ! D160  D(32,45,67,70)       -176.8531         calculate D2E/DX2 analytically  !
 ! D161  D(36,46,71,72)        -58.9254         calculate D2E/DX2 analytically  !
 ! D162  D(36,46,71,73)         63.1427         calculate D2E/DX2 analytically  !
 ! D163  D(36,46,71,74)       -178.3294         calculate D2E/DX2 analytically  !
 ! D164  D(35,47,50,75)       -175.7667         calculate D2E/DX2 analytically  !
 ! D165  D(48,47,50,75)        -56.6577         calculate D2E/DX2 analytically  !
 ! D166  D(49,47,50,75)         63.3776         calculate D2E/DX2 analytically  !
 ! D167  D(47,50,75,76)       -179.7144         calculate D2E/DX2 analytically  !
 ! D168  D(47,50,75,77)        -60.3359         calculate D2E/DX2 analytically  !
 ! D169  D(47,50,75,78)         61.1513         calculate D2E/DX2 analytically  !
 ! D170  D(43,51,53,34)        -19.0767         calculate D2E/DX2 analytically  !
 ! D171  D(52,51,53,34)       -151.1669         calculate D2E/DX2 analytically  !
 ! D172  D(54,51,53,34)         95.7521         calculate D2E/DX2 analytically  !
 ! D173  D(43,51,54,55)          5.5484         calculate D2E/DX2 analytically  !
 ! D174  D(43,51,54,56)       -179.1152         calculate D2E/DX2 analytically  !
 ! D175  D(52,51,54,55)        130.8731         calculate D2E/DX2 analytically  !
 ! D176  D(52,51,54,56)        -53.7905         calculate D2E/DX2 analytically  !
 ! D177  D(53,51,54,55)       -113.6516         calculate D2E/DX2 analytically  !
 ! D178  D(53,51,54,56)         61.6848         calculate D2E/DX2 analytically  !
 ! D179  D(51,54,55,57)        173.9648         calculate D2E/DX2 analytically  !
 ! D180  D(51,54,55,58)         -4.3759         calculate D2E/DX2 analytically  !
 ! D181  D(56,54,55,57)         -1.2812         calculate D2E/DX2 analytically  !
 ! D182  D(56,54,55,58)       -179.6218         calculate D2E/DX2 analytically  !
 ! D183  D(51,54,56,59)       -174.5666         calculate D2E/DX2 analytically  !
 ! D184  D(51,54,56,60)          4.8552         calculate D2E/DX2 analytically  !
 ! D185  D(55,54,56,59)          0.6946         calculate D2E/DX2 analytically  !
 ! D186  D(55,54,56,60)       -179.8835         calculate D2E/DX2 analytically  !
 ! D187  D(54,55,57,61)          0.8359         calculate D2E/DX2 analytically  !
 ! D188  D(54,55,57,97)       -173.9787         calculate D2E/DX2 analytically  !
 ! D189  D(58,55,57,61)        179.144          calculate D2E/DX2 analytically  !
 ! D190  D(58,55,57,97)          4.3293         calculate D2E/DX2 analytically  !
 ! D191  D(54,56,59,61)          0.3485         calculate D2E/DX2 analytically  !
 ! D192  D(54,56,59,93)        175.5301         calculate D2E/DX2 analytically  !
 ! D193  D(60,56,59,61)       -179.072          calculate D2E/DX2 analytically  !
 ! D194  D(60,56,59,93)         -3.8904         calculate D2E/DX2 analytically  !
 ! D195  D(55,57,61,59)          0.1806         calculate D2E/DX2 analytically  !
 ! D196  D(55,57,61,62)       -179.5509         calculate D2E/DX2 analytically  !
 ! D197  D(97,57,61,59)        174.8709         calculate D2E/DX2 analytically  !
 ! D198  D(97,57,61,62)         -4.8606         calculate D2E/DX2 analytically  !
 ! D199  D(55,57,97,98)       -168.0053         calculate D2E/DX2 analytically  !
 ! D200  D(55,57,97,99)         72.2175         calculate D2E/DX2 analytically  !
 ! D201  D(55,57,97,100)       -46.4365         calculate D2E/DX2 analytically  !
 ! D202  D(61,57,97,98)         17.1817         calculate D2E/DX2 analytically  !
 ! D203  D(61,57,97,99)       -102.5956         calculate D2E/DX2 analytically  !
 ! D204  D(61,57,97,100)       138.7505         calculate D2E/DX2 analytically  !
 ! D205  D(56,59,61,57)         -0.7784         calculate D2E/DX2 analytically  !
 ! D206  D(56,59,61,62)        178.9532         calculate D2E/DX2 analytically  !
 ! D207  D(93,59,61,57)       -175.9635         calculate D2E/DX2 analytically  !
 ! D208  D(93,59,61,62)          3.7681         calculate D2E/DX2 analytically  !
 ! D209  D(56,59,93,94)        -87.6372         calculate D2E/DX2 analytically  !
 ! D210  D(56,59,93,95)        153.0511         calculate D2E/DX2 analytically  !
 ! D211  D(56,59,93,96)         31.7243         calculate D2E/DX2 analytically  !
 ! D212  D(61,59,93,94)         87.5991         calculate D2E/DX2 analytically  !
 ! D213  D(61,59,93,95)        -31.7126         calculate D2E/DX2 analytically  !
 ! D214  D(61,59,93,96)       -153.0394         calculate D2E/DX2 analytically  !
 ! D215  D(19,83,84,85)         14.7919         calculate D2E/DX2 analytically  !
 ! D216  D(19,83,84,89)       -165.4577         calculate D2E/DX2 analytically  !
 ! D217  D(83,84,85,86)       -116.6839         calculate D2E/DX2 analytically  !
 ! D218  D(83,84,85,87)          2.1279         calculate D2E/DX2 analytically  !
 ! D219  D(83,84,85,88)        121.8857         calculate D2E/DX2 analytically  !
 ! D220  D(89,84,85,86)         63.5189         calculate D2E/DX2 analytically  !
 ! D221  D(89,84,85,87)       -177.6693         calculate D2E/DX2 analytically  !
 ! D222  D(89,84,85,88)        -57.9115         calculate D2E/DX2 analytically  !
 ! D223  D(83,84,89,90)       -115.6023         calculate D2E/DX2 analytically  !
 ! D224  D(83,84,89,91)          4.0697         calculate D2E/DX2 analytically  !
 ! D225  D(83,84,89,92)        123.2806         calculate D2E/DX2 analytically  !
 ! D226  D(85,84,89,90)         64.1532         calculate D2E/DX2 analytically  !
 ! D227  D(85,84,89,91)       -176.1748         calculate D2E/DX2 analytically  !
 ! D228  D(85,84,89,92)        -56.9639         calculate D2E/DX2 analytically  !
 --------------------------------------------------------------------------------
 Trust Radius=3.00D-02 FncErr=1.00D-07 GrdErr=1.00D-06 EigMax=2.50D+02 EigMin=1.00D-04
 Number of steps in this run=    528 maximum allowed number of steps=    600.
 Search for a saddle point of order  1.
 Step   0 in ReCalcFC=30 IGetFC= 4 compute analytic Hessian.
 GradGradGradGradGradGradGradGradGradGradGradGradGradGradGradGradGradGrad

 Leave Link  103 at Wed May  8 08:00:39 2019, MaxMem=  6442450944 cpu:               4.5 elap:               0.2
 (Enter /home/ekwan/sw/g16/l202.exe)
 Stoichiometry    C30H47F6NaO15S
 Framework group  C1[X(C30H47F6NaO15S)]
 Deg. of freedom   294
 Full point group                 C1      NOp   1
 Largest Abelian subgroup         C1      NOp   1
 Largest concise Abelian subgroup C1      NOp   1
                         Standard orientation:                         
 ---------------------------------------------------------------------
 Center     Atomic      Atomic             Coordinates (Angstroms)
 Number     Number       Type             X           Y           Z
 ---------------------------------------------------------------------
      1          6           0        4.465929   -1.632323   -0.706343
      2          6           0        3.236075   -2.529500   -0.871390
      3          6           0        2.761271   -3.057066    0.486837
      4          6           0        3.605658   -1.113985    1.641675
      5          6           0        4.207535   -0.548700    0.347455
      6          1           0        1.802761   -3.576854    0.400437
      7          1           0        2.416594   -1.918511   -1.280347
      8          1           0        5.321235   -2.244781   -0.392816
      9          1           0        4.371813   -1.710775    2.154744
     10          1           0        3.502756    0.170835   -0.083193
     11          8           0        2.479470   -1.961672    1.341205
     12          8           0        3.751022   -3.907946    1.002555
     13          8           0        3.557334   -3.563856   -1.784253
     14          8           0        4.757550   -0.973481   -1.939147
     15          8           0        5.393651    0.137340    0.742085
     16          6           0        3.078923   -0.022693    2.593036
     17          1           0        3.984463    0.442576    3.040752
     18          1           0        2.592617   -0.582265    3.422739
     19          8           0        2.240620    0.891647    2.000328
     20          6           0        2.426444   -4.289426   -2.248497
     21          1           0        2.009704   -4.942371   -1.469871
     22          1           0        1.630937   -3.618060   -2.598291
     23          1           0        2.771395   -4.909935   -3.079407
     24          6           0        5.733487   -1.622968   -2.740522
     25          1           0        6.695267   -1.698957   -2.210447
     26          1           0        5.408206   -2.624716   -3.036558
     27          1           0        5.870849   -1.003241   -3.631010
     28          6           0        5.948072    1.034092   -0.209366
     29          1           0        6.560811    0.520146   -0.957505
     30          1           0        5.165577    1.593745   -0.741474
     31          1           0        6.578353    1.733774    0.349368
     32          6           0       -1.254732    1.826159    0.073607
     33          6           0       -0.410614    0.862007    0.905835
     34          6           0        0.733148    0.261981    0.126611
     35          6           0        0.723987    2.017011   -1.498743
     36          6           0       -0.331299    2.777480   -0.687819
     37          1           0        1.236837   -0.624582    0.479879
     38          1           0        0.103378    1.438677    1.683962
     39          1           0       -1.864473    1.265784   -0.643593
     40          1           0        0.224130    1.487842   -2.313799
     41          1           0        0.162191    3.435272    0.035561
     42          8           0        1.414585    0.996692   -0.719312
     43          8           0       -0.404239   -2.887239   -0.040224
     44          8           0       -1.236297   -0.107771    1.496837
     45          8           0       -2.077955    2.621229    0.913964
     46          8           0       -1.057030    3.534412   -1.644332
     47          6           0        1.803266    2.900250   -2.082976
     48          1           0        1.325504    3.626721   -2.751275
     49          1           0        2.505452    2.289739   -2.665625
     50          8           0        2.496995    3.575336   -1.037838
     51         16           0       -0.938159   -2.099521   -1.169031
     52          8           0       -0.964492   -2.763517   -2.488414
     53          8           0       -0.284611   -0.722506   -1.296705
     54          6           0       -2.643765   -1.704893   -0.764545
     55          6           0       -3.147432   -2.046268    0.482098
     56          6           0       -3.406329   -0.974322   -1.673226
     57          6           0       -4.429255   -1.625885    0.836759
     58          1           0       -2.529361   -2.609194    1.169502
     59          6           0       -4.690314   -0.571533   -1.309854
     60          1           0       -3.001512   -0.715695   -2.644909
     61          6           0       -5.206338   -0.887166   -0.051350
     62          1           0       -6.198050   -0.557170    0.231906
     63          6           0       -0.659164   -0.776838    2.620679
     64          1           0        0.126332   -1.472356    2.312384
     65          1           0       -0.241184   -0.053341    3.330199
     66          1           0       -1.479128   -1.323321    3.091225
     67          6           0       -3.391032    2.103263    1.116753
     68          1           0       -3.916128    1.988102    0.160091
     69          1           0       -3.369019    1.140856    1.636087
     70          1           0       -3.919939    2.838988    1.727756
     71          6           0       -1.376673    4.856588   -1.225867
     72          1           0       -1.974494    4.847592   -0.309066
     73          1           0       -0.466302    5.450225   -1.062085
     74          1           0       -1.953813    5.307270   -2.036674
     75          6           0        3.461952    4.495126   -1.543258
     76          1           0        3.943778    4.958144   -0.679792
     77          1           0        4.216613    3.978705   -2.150566
     78          1           0        2.977785    5.270472   -2.150143
     79          6           0        3.340099   -4.582977    2.185842
     80          1           0        4.150579   -5.261278    2.460824
     81          1           0        3.156993   -3.879488    3.006486
     82          1           0        2.423838   -5.163333    2.007166
     83         11           0        2.928154    2.728757    1.108504
     84          8           0        1.411006    4.178550    2.049711
     85          6           0        0.673686    3.664067    3.160150
     86          1           0       -0.396190    3.623095    2.917844
     87          1           0        1.054496    2.655115    3.331921
     88          1           0        0.827120    4.288927    4.050294
     89          6           0        1.065533    5.518401    1.730580
     90          1           0        1.327470    6.197729    2.553167
     91          1           0        1.628172    5.791114    0.835230
     92          1           0       -0.009453    5.606371    1.525175
     93          6           0       -5.485138    0.301583   -2.238613
     94          9           0       -5.224548    1.617209   -2.019283
     95          9           0       -6.814931    0.137281   -2.075351
     96          9           0       -5.196672    0.059730   -3.533797
     97          6           0       -4.902880   -1.886406    2.237288
     98          9           0       -6.226068   -1.673746    2.384596
     99          9           0       -4.267480   -1.069854    3.119508
    100          9           0       -4.643143   -3.151696    2.630547
 ---------------------------------------------------------------------
 Rotational constants (GHZ):           0.0657174           0.0399740           0.0333082
 Leave Link  202 at Wed May  8 08:00:39 2019, MaxMem=  6442450944 cpu:               4.6 elap:               0.2
 (Enter /home/ekwan/sw/g16/l301.exe)
 Standard basis: 6-31G(d) (6D, 7F)
 Ernie: Thresh=  0.10000D-02 Tol=  0.10000D-05 Strict=F.
 There are   897 symmetry adapted cartesian basis functions of A   symmetry.
 There are   897 symmetry adapted basis functions of A   symmetry.
   897 basis functions,  1720 primitive gaussians,   897 cartesian basis functions
   214 alpha electrons      214 beta electrons
       nuclear repulsion energy      9694.9638862941 Hartrees.
 IExCor=  402 DFT=T Ex+Corr=B3LYP ExCW=0 ScaHFX=  0.200000
 ScaDFX=  0.800000  0.720000  1.000000  0.810000 ScalE2=  1.000000  1.000000
 IRadAn=      5 IRanWt=     -1 IRanGd=            0 ICorTp=0 IEmpDi=141
 NAtoms=  100 NActive=  100 NUniq=  100 SFac= 1.00D+00 NAtFMM=   60 NAOKFM=T Big=T
 Integral buffers will be    131072 words long.
 Raffenetti 2 integral format.
 Two-electron integral symmetry is turned on.
 R6Disp:  Grimme-D3(BJ) Dispersion energy=       -0.2396112237 Hartrees.
 Nuclear repulsion after empirical dispersion term =     9694.7242750704 Hartrees.
 Force inversion solution in PCM.
 ------------------------------------------------------------------------------
 Polarizable Continuum Model (PCM)
 =================================
 Model                : PCM.
 Atomic radii         : UFF (Universal Force Field).
 Polarization charges : Total charges.
 Charge compensation  : None.
 Solution method      : Matrix inversion.
 Cavity type          : Scaled VdW (van der Waals Surface) (Alpha=1.100).
 Cavity algorithm     : GePol (No added spheres)
                        Default sphere list used, NSphG=  100.
                        Lebedev-Laikov grids with approx.  5.0 points / Ang**2.
                        Smoothing algorithm: York/Karplus (Gamma=1.0000).
                        Polarization charges: spherical gaussians, with
                                              point-specific exponents (IZeta= 3).
                        Self-potential: point-specific (ISelfS= 7).
                        Self-field    : sphere-specific E.n sum rule (ISelfD= 2).
 1st derivatives      : Analytical E(r).r(x)/FMM algorithm (CHGder, D1EAlg=3).
                        Cavity 1st derivative terms included.
 2nd derivatives      : Analytical E(r).r(xy)/FMM algorithm (CHGder, D2EAlg=3).
                        Cavity 2nd derivative terms included.
 Solvent              : TetraHydroFuran, Eps=   7.425700 Eps(inf)=   1.974025
 ------------------------------------------------------------------------------
 GePol: Number of generator spheres                  =     100
 GePol: Total number of spheres                      =     100
 GePol: Number of exposed spheres                    =     100 (100.00%)
 GePol: Number of points                             =    6016
 GePol: Average weight of points                     =       0.12
 GePol: Minimum weight of points                     =   0.13D-11
 GePol: Maximum weight of points                     =    0.21593
 GePol: Number of points with low weight             =     445
 GePol: Fraction of low-weight points (<1% of avg)   =       7.40%
 GePol: Cavity surface area                          =    745.455 Ang**2
 GePol: Cavity volume                                =    971.862 Ang**3
 Leave Link  301 at Wed May  8 08:00:40 2019, MaxMem=  6442450944 cpu:               7.8 elap:               0.3
 (Enter /home/ekwan/sw/g16/l302.exe)
 NPDir=0 NMtPBC=     1 NCelOv=     1 NCel=       1 NClECP=     1 NCelD=      1
         NCelK=      1 NCelE2=     1 NClLst=     1 CellRange=     0.0.
 One-electron integrals computed using PRISM.
 One-electron integral symmetry used in STVInt
 NBasis=   897 RedAO= T EigKep=  4.07D-04  NBF=   897
 NBsUse=   897 1.00D-06 EigRej= -1.00D+00 NBFU=   897
 Precomputing XC quadrature grid using
 IXCGrd= 4 IRadAn=           5 IRanWt=          -1 IRanGd=           0 AccXCQ= 0.00D+00.
 Generated NRdTot=       0 NPtTot=           0 NUsed=           0 NTot=          32
 NSgBfM=   843   831   842   842   843 MxSgAt=   100 MxSgA2=   100.
 Leave Link  302 at Wed May  8 08:00:53 2019, MaxMem=  6442450944 cpu:             418.7 elap:              13.6
 (Enter /home/ekwan/sw/g16/l303.exe)
 DipDrv:  MaxL=1.
 Leave Link  303 at Wed May  8 08:00:54 2019, MaxMem=  6442450944 cpu:              14.0 elap:               0.6
 (Enter /home/ekwan/sw/g16/l401.exe)
 ExpMin= 2.60D-02 ExpMax= 2.19D+04 ExpMxC= 3.30D+03 IAcc=3 IRadAn=         5 AccDes= 0.00D+00
 Harris functional with IExCor=  402 and IRadAn=       5 diagonalized for initial guess.
 HarFok:  IExCor=  402 AccDes= 0.00D+00 IRadAn=         5 IDoV= 1 UseB2=F ITyADJ=14
 ICtDFT=  3500011 ScaDFX=  1.000000  1.000000  1.000000  1.000000
 FoFCou: FMM=F IPFlag=           0 FMFlag=      100000 FMFlg1=        2001
         NFxFlg=           0 DoJE=T BraDBF=F KetDBF=T FulRan=T
         wScrn=  0.000000 ICntrl=       500 IOpCl=  0 I1Cent=   200000004 NGrid=           0
         NMat0=    1 NMatS0=      1 NMatT0=    0 NMatD0=    1 NMtDS0=    0 NMtDT0=    0
 Petite list used in FoFCou.
 Harris En= -3459.37248978450    
 JPrj=0 DoOrth=F DoCkMO=F.
 Leave Link  401 at Wed May  8 08:01:13 2019, MaxMem=  6442450944 cpu:             586.4 elap:              19.0
 (Enter /home/ekwan/sw/g16/l502.exe)
 Integral symmetry usage will be decided dynamically.
 Closed shell SCF:
 Using DIIS extrapolation, IDIIS=  1040.
 NGot=  6442450944 LenX=  6440803163 LenY=  6439997657
 Requested convergence on RMS density matrix=1.00D-08 within 128 cycles.
 Requested convergence on MAX density matrix=1.00D-06.
 Requested convergence on             energy=1.00D-06.
 No special actions if energy rises.
 Fock matrices will be formed incrementally for  20 cycles.

 Cycle   1  Pass 1  IDiag  1:
 FoFJK:  IHMeth= 1 ICntrl=       0 DoSepK=F KAlg= 0 I1Cent=           0 FoldK=F
 IRaf= 880000000 NMat=       1 IRICut=       1 DoRegI=T DoRafI=F ISym2E= 0 IDoP0=0 IntGTp=1.
 FoFCou: FMM=T IPFlag=           0 FMFlag=      100000 FMFlg1=        2001
         NFxFlg=           0 DoJE=F BraDBF=F KetDBF=F FulRan=T
         wScrn=  0.000000 ICntrl=         0 IOpCl=  0 I1Cent=           0 NGrid=           0
         NMat0=    1 NMatS0=      1 NMatT0=    0 NMatD0=    1 NMtDS0=    0 NMtDT0=    0
 Symmetry not used in FoFCou.
 FMM levels:  10  Number of levels for PrismC:   9
 Inv3:  Mode=1 IEnd=   108576768.
 Iteration    1 A*A^-1 deviation from unit magnitude is 6.88D-15 for   6009.
[...]
 008210,0.00033138,-0.00076822,-0.00038655,0.00056617,0.00000119,-0.000
 07234,0.00007203,0.00000388,0.00002506,0.00000344,0.00000312,-0.000003
 48,-0.00000266,-0.00001942,-0.00000532,0.00000572,-0.00003186,-0.00001
 347,0.00002045,-0.00080155,-0.00037705,0.00003684,0.00021941,0.0000196
 4,-0.00009665,0.00035958,0.00045954,0.00010452,0.00012361,-0.00005743,
 0.00010140,-0.00007127,0.00061871,0.00041708,-0.00033656,0.00013918,-0
 .00012707,-0.00627892,0.00475623,-0.00995401,-0.00025878,-0.00027628,0
 .00006239,-0.00004314,0.00064752,-0.00092235,-0.00000108,-0.00002071,-
 0.00002712,0.00133822,-0.00105199,-0.00120707,-0.00006896,-0.00023272,
 0.00007592,0.00036261,0.00036181,0.00002289,-0.00014222,-0.00009103,0.
 00004221,-0.00000761,-0.00002685,0.00000429,0.00053408,-0.00067517,0.0
 0010164,0.00014434,0.00139281,-0.00060934,0.00002859,-0.00026040,0.000
 19487,0.00041184,-0.00087412,-0.00002135,0.00003240,-0.00012422,0.0000
 4836,0.00001822,0.00003833,-0.00001706,-0.00001185,0.00002942,0.000000
 30,-0.00001292,-0.00000936,-0.00000070,0.00000300,-0.00001072,0.000012
 12,0.00002072,0.00001777,-0.00001342,-0.00000215,-0.00000459,0.0000004
 2,-0.00000536,0.00000042,0.00000438,-0.00000040,-0.00000303,0.00000185
 ,-0.00002066,-0.00002679,0.00000173,0.00000124,0.00000183,-0.00000054,
 0.00000137,0.00000177,0.00000364,0.00000864,0.00000671,0.00000265,0.00
 005515,0.00000639,-0.00001138,-0.00005861,-0.00005456,0.00004031,0.000
 07228,0.00003005,-0.00002725,-0.00002473,0.00002284,-0.00000252,0.0000
 1837,-0.00000784,0.00000168,-0.00001128,-0.00000842,-0.00000286,0.0000
 1088,0.00004209,-0.00000259,0.00000028,-0.00000694,-0.00000582,-0.0000
 0342,-0.00000514,0.00000729,-0.00000326,0.00000101,-0.00000162,0.00046
 736,-0.00051344,0.00019626,-0.00004685,0.00040980,0.00000365,-0.000113
 81,0.00009722,-0.00006318,-0.00007559,0.00009447,-0.00021589,-0.035856
 87,-0.11970691,-0.06775243,-0.02092187,0.00760934,-0.00517115,0.082648
 63,0.18300579,-0.00002467,-0.00002323,0.00000336,-0.00005539,0.0000459
 2,-0.00002018,-0.00011115,-0.00000814,-0.00008538,-0.00005164,-0.00003
 339,-0.00002484,-0.00003803,-0.00000544,-0.00002258,-0.00001898,0.0000
 4869,-0.00002786,-0.00000372,-0.00002169,0.00002778,0.00001496,0.00000
 093,-0.00000072,0.00001721,-0.00000727,0.00000519,-0.00000676,-0.00000
 457,0.00000447,0.00006181,0.00001728,0.00009258,0.00006921,-0.00005003
 ,0.00010204,0.00007511,-0.00000666,0.00003019,0.00003607,0.00000567,-0
 .00000256,0.00004216,0.00002635,0.00001926,-0.00001258,0.00011905,-0.0
 0010463,0.00003442,-0.00001545,0.00003387,-0.00000442,-0.00004422,0.00
 004614,0.00010432,0.00001793,0.00023778,-0.00006179,0.00002485,-0.0000
 4533,-0.00000541,0.00000625,0.00000116,-0.00000861,-0.00002767,0.00003
 078,0.00001538,-0.00000804,-0.00000296,-0.00002442,0.00000678,0.000007
 29,0.00000974,-0.00000105,0.00000441,-0.00000317,0.00000158,0.00000178
 ,-0.00000089,-0.00000120,-0.00000118,-0.00001292,-0.00000923,0.0000001
 2,-0.00000113,0.00000177,-0.00000209,0.00000240,-0.00000369,0.00000094
 ,0.00000674,0.00000549,0.00000212,-0.00003632,-0.00026920,-0.00032810,
 0.00016713,0.00014678,0.00002842,-0.00077227,-0.00079655,-0.00078016,-
 0.00000026,-0.00013291,0.00000152,0.00002771,-0.00004224,0.00007597,-0
 .00000379,0.00010135,0.00001256,0.00000046,0.00004539,0.00000449,-0.00
 000635,-0.00009009,0.00005924,-0.00001386,-0.00000936,0.00003568,0.000
 01799,0.00003456,-0.00001835,0.00021218,0.00032226,0.00002853,0.001137
 30,-0.00040590,0.00027352,0.00006107,0.00002884,0.00072106,-0.00004909
 ,0.00015435,0.00034376,-0.00002269,0.00012060,0.00001469,-0.00005694,-
 0.00004429,-0.00001018,0.00000568,0.00000753,0.00000158,0.00000411,0.0
 0000313,0.00000514,0.00007179,0.00006944,0.00002475,-0.00374836,0.0003
 4742,0.00075706,0.00091992,-0.00037365,-0.00072141,0.00167181,0.001109
 26,0.00013690,0.00079103,0.00138212,0.00034257,-0.00300991,0.00091561,
 -0.00133637,-0.00031724,0.00048375,-0.00127104,-0.01905136,-0.02520066
 ,-0.04110340,-0.00010883,-0.00097938,-0.00043625,0.00158039,0.00233606
 ,-0.00132828,-0.00010830,-0.00022674,-0.00008676,0.00357935,-0.0036491
 2,-0.00036427,-0.00059427,-0.00099083,-0.00018862,0.00027358,0.0009422
 1,-0.00084369,-0.00015336,-0.00014977,0.00009989,0.00003293,-0.0000257
 8,0.00011885,0.00078582,-0.00080336,0.00008475,-0.00004792,0.00035789,
 -0.00025535,0.00002750,-0.00019663,0.00015755,0.00035808,0.00043545,-0
 .00107188,-0.00000846,0.00010951,0.00003886,0.00002041,-0.00009961,-0.
 00004287,-0.00000871,0.00000649,0.00000920,0.00001198,0.00001497,0.000
 00729,-0.00000453,0.00000343,0.00000256,-0.00003177,-0.00003215,0.0000
 1214,0.00000788,0.00000709,0.00000524,0.00000251,0.00000329,-0.0000051
 6,0.00000296,0.00000346,-0.00000561,0.00001238,0.00001402,-0.00007412,
 0.00000159,-0.00000506,0.00000761,0.00000081,0.00000887,0.00001468,-0.
 00000210,-0.00000156,0.00000112,-0.00003416,-0.00005594,-0.00006933,-0
 .00003977,-0.00002952,0.00009812,0.00005537,0.00004007,-0.00005134,-0.
 00001276,0.00000672,-0.00002714,0.00001953,-0.00001217,-0.00002397,0.0
 0000068,0.00001375,0.00001078,-0.00000489,0.00000967,-0.00000477,0.000
 00590,0.00000218,0.00000406,-0.00000839,-0.00000832,0.00000528,0.00000
 340,-0.00000424,-0.00001036,0.00213153,-0.00182541,0.00161523,-0.00033
 851,0.00118910,-0.00024535,-0.00077933,0.00034745,-0.00035191,-0.00032
 082,0.00033179,-0.00092808,-0.04811191,-0.06916376,-0.16683745,-0.0246
 9234,-0.00466330,0.00654693,0.08883564,0.11428869,0.19226374,0.0000106
 8,0.00000717,-0.00001172,0.00000559,-0.00001037,-0.00001319,0.00003151
 ,-0.00000687,-0.00000806,0.00002442,0.00001793,0.00000713,0.00001272,0
 .00001029,0.00000024,0.00000455,-0.00000937,0.00000101,0.00000057,0.00
 000303,-0.00000342,-0.00000238,-0.00000016,0.00000104,-0.00000540,0.00
 000022,-0.00000094,0.00000122,-0.00000083,-0.00000230,-0.00003230,-0.0
 0001004,0.00000592,-0.00002727,0.00000215,0.00000531,-0.00001347,0.000
 00433,0.00001264,-0.00001520,-0.00000429,0.00001901,-0.00001989,-0.000
 01569,0.00000786,0.00002125,-0.00000568,0.00000118,-0.00001272,-0.0000
 0088,-0.00000604,-0.00000122,-0.00000199,0.00000595,-0.00004648,-0.000
 02303,-0.00001050,0.00000669,0.00000075,-0.00000351,0.00000227,-0.0000
 0452,0.00000188,0.00000156,0.00000316,-0.00000499,-0.00000330,0.000002
 41,0.00000290,0.00001010,-0.00000470,-0.00000731,-0.00000234,0.0000010
 4,-0.00000015,-0.00000003,0.00000106,-0.00000058,-0.00000139,-0.000000
 56,0.00000241,0.00000604,0.00001009,-0.00000988,-0.00000126,-0.0000004
 1,0.00000263,0.00000190,-0.00000125,0.00000007,-0.00000211,-0.00000250
 ,-0.00000011,-0.00003394,0.00003098,0.00001490,0.00005083,0.00008758,-
 0.00004615,0.00010216,0.00007993,0.00002925,-0.00000953,0.00003455,-0.
 00002414,0.00000446,0.00001994,-0.00001924,0.00000806,-0.00000712,-0.0
 0000836,-0.00000820,-0.00000782,0.00000041,0.,0.00000561,-0.00000571,0
 .00000251,-0.00000025,-0.00000190,-0.00000160,-0.00000183,0.00000161,-
 0.00004588,-0.00006675,0.00004910,-0.00012819,-0.00001585,0.00011758,-
 0.00003171,-0.00011041,0.00006052,0.00002941,-0.00003721,-0.00000693,0
 .00001639,-0.00004172,0.00001672,0.00000886,0.00000711,-0.00000046,-0.
 00000158,-0.00000398,0.00000080,-0.00000191,-0.00000046,-0.00000079,-0
 .00001263,-0.00001488,0.00000395,0.00028814,0.00010298,-0.00039493,-0.
 00003737,0.00001396,0.00013473,-0.00013288,-0.00014414,0.00004074,0.00
 056692,-0.00049779,-0.00059566,-0.00182011,-0.00029349,0.00019835,0.00
 011285,-0.00007758,0.00018250,0.01114305,-0.00338914,0.00320461,0.0011
 3716,-0.00043827,0.00064774,0.00052789,-0.00053129,0.00048926,0.000081
 35,0.00000969,0.00006064,-0.00138625,-0.00015264,0.00095486,0.00025849
 ,-0.00012368,0.00048520,0.00016646,0.00014115,-0.00009517,0.00000316,-
 0.00000924,0.00001530,-0.00003394,-0.00003444,0.00001485,0.00001349,0.
 00002935,0.00004866,-0.00002674,0.00006237,-0.00000984,-0.00000174,0.0
 0000389,0.00001073,0.00004861,0.00002005,-0.00005980,0.00000073,-0.000
 02398,-0.00000598,-0.00000706,0.00002477,0.00000855,-0.00000058,-0.000
 00003,-0.00000408,-0.00000058,-0.00000345,-0.00000223,0.00000124,-0.00
 000414,0.00000238,0.00000771,0.00000954,-0.00000537,-0.00000185,-0.000
 00182,-0.00000027,-0.00000108,-0.00000064,0.00000105,-0.00000015,-0.00
 000182,0.00000192,0.00001579,0.00000666,-0.00000597,-0.00000583,0.0000
 0203,0.00000010,0.00000459,0.00000195,0.00000433,-0.00000421,-0.000007
 09,-0.00000515,0.00001404,0.00002101,0.00000309,0.00000010,-0.00001777
 ,0.00000158,0.00000065,0.00000604,-0.00000303,-0.00000220,0.00000352,0
 .00000170,0.00000247,0.00000077,0.00000459,-0.00000221,-0.00000371,-0.
 00000118,-0.00000463,0.00001483,-0.00000309,-0.00000022,-0.00000244,-0
 .00000142,0.00000020,-0.00000088,0.00000112,0.00000190,-0.00000017,0.0
 0000136,-0.00034621,0.00021094,-0.00006327,0.00005289,-0.00013035,0.00
 003054,0.00014482,-0.00002802,0.00000737,0.00005799,-0.00005028,0.0001
 2889,-0.07704513,0.02550093,-0.00778524,-0.03195423,0.05586756,-0.0141
 3991,0.01117760,-0.02073910,-0.00038269,0.08708314,0.00000532,-0.00000
 214,-0.00001071,0.00004644,-0.00005614,-0.00000232,0.00004992,-0.00013
 970,0.00000219,0.00001378,0.00000057,0.00001279,0.00003557,-0.00000840
 ,0.00000640,0.00001292,-0.00001827,0.00001886,-0.00000266,0.00001428,-
 0.00002055,-0.00001194,0.00000164,0.00000296,-0.00001782,0.00001177,-0
 .00000332,0.00000963,0.00000588,-0.00000965,-0.00006830,0.00011180,-0.
 00000086,-0.00003085,0.00011222,-0.00008036,-0.00000929,0.00006718,0.0
 0001540,-0.00002114,0.00001546,0.00001248,-0.00003284,0.00000330,0.000
 00159,0.00009646,-0.00015611,0.00009122,-0.00004343,0.00001949,-0.0000
 2928,0.00000440,0.00002790,-0.00002880,-0.00023524,0.00005586,-0.00012
 957,-0.00001240,-0.00005659,0.00003175,0.00000362,0.00000961,-0.000013
 26,0.00000849,0.00000927,-0.00001547,-0.00000683,0.00000771,0.00000242
 ,0.00001787,-0.00001332,-0.00000970,-0.00000546,0.00000075,-0.00000167
 ,0.00000036,0.00000278,0.00000249,-0.00000031,0.00000138,0.00000017,0.
 00001442,0.00000017,-0.00000579,-0.00000291,0.00000065,0.00000372,-0.0
 0000029,0.00000123,-0.00000427,-0.00000176,-0.00000335,-0.00000072,0.0
 0016592,-0.00004045,-0.00005254,0.00007003,0.00023093,-0.00015980,0.00
 041965,0.00023167,0.00018584,0.00001408,0.00002336,-0.00004267,0.00000
 987,0.00009481,-0.00009294,0.00002345,-0.00007616,0.00001310,-0.000014
 12,-0.00004142,0.00001713,0.00000877,0.00005836,-0.00002637,0.00000731
 ,0.00000352,-0.00001227,-0.00000776,-0.00001493,0.00001261,-0.00018956
 ,-0.00014072,0.00008772,-0.00056558,0.00049919,-0.00022278,-0.00046635
 ,-0.00009042,-0.00010557,-0.00046810,-0.00026414,0.00017107,0.00000374
 ,-0.00013086,0.00006123,0.00004201,0.00004511,0.00000467,-0.00000038,-
 0.00000759,-0.00000362,-0.00002184,-0.00000567,0.00000314,-0.00007813,
 -0.00005271,0.00000887,0.00189522,-0.00091815,-0.00035591,-0.00048548,
 0.00040138,0.00045125,-0.00079727,-0.00022949,0.00002737,-0.00034072,0
 .00067654,0.00079984,0.00314031,0.00006669,-0.00020693,-0.00027204,-0.
 00023641,0.00018476,0.00712716,-0.02365653,0.01589202,-0.00148129,-0.0
 0055352,-0.00013603,0.00120187,-0.00029026,0.00109649,-0.00010724,-0.0
 0003191,-0.00004454,-0.00446843,0.00010357,0.00275612,-0.00023999,0.00
 000060,-0.00067478,0.00023472,-0.00003185,0.00020924,-0.00009141,-0.00
 003456,0.00002585,-0.00003598,-0.00001143,-0.00004472,0.00026518,-0.00
 023743,0.00010060,0.00025109,0.00055718,-0.00020581,-0.00001772,0.0000
 0779,0.00000371,0.00023249,0.00000234,-0.00007504,-0.00000220,-0.00008
 410,-0.00001095,0.00000853,0.00008871,0.00000572,-0.00000461,0.0000178
 9,-0.00000221,-0.00002079,-0.00001719,-0.00000616,0.00000720,-0.000010
 03,0.00000679,0.00004201,0.00003580,-0.00002201,-0.00000671,-0.0000096
 7,-0.00000223,-0.00000772,-0.00000078,0.00000823,-0.00000249,-0.000004
 89,0.00000466,-0.00005754,-0.00006305,0.00006002,0.00000458,0.00000557
 ,-0.00000665,-0.00000005,-0.00000331,-0.00000672,0.00002031,0.00001712
 ,0.00000682,0.00008303,0.00003370,0.00002416,-0.00005113,-0.00004346,-
 0.00000025,0.00005396,0.00001536,-0.00000562,-0.00002250,0.00001911,0.
 00000284,0.00001163,-0.00000313,0.00001295,-0.00001013,-0.00001534,-0.
 00000733,0.00001637,0.00003864,0.00000088,-0.00000160,-0.00000840,-0.0
 0000834,0.00000038,-0.00000161,0.00000591,-0.00000631,0.00000216,0.000
 00244,-0.00117230,0.00105345,-0.00092657,0.00015001,-0.00051968,0.0001
 8474,0.00043887,-0.00016138,0.00025062,0.00020608,-0.00022922,0.000883
 47,0.02115647,-0.22728023,0.07263455,0.04271343,-0.02617529,0.00597270
 ,-0.01306141,-0.07484226,-0.01551464,-0.05526454,0.35221220,-0.0000174
 4,-0.00001168,0.00000959,-0.00004768,0.00004719,-0.00000626,-0.0000854
 4,0.00006222,-0.00004041,-0.00003832,-0.00002104,-0.00002027,-0.000037
 24,-0.00000230,-0.00001374,-0.00001595,0.00003352,-0.00002270,-0.00000
 075,-0.00001746,0.00002338,0.00001314,-0.00000031,-0.00000197,0.000018
 11,-0.00000887,0.00000424,-0.00000767,-0.00000456,0.00000715,0.0000712
 4,-0.00003942,0.00004220,0.00005472,-0.00007611,0.00008578,0.00004534,
 -0.00003131,0.00000564,0.00003110,-0.00000291,-0.00001175,0.00004061,0
 .00001574,0.00000623,-0.00005769,0.00012819,-0.00009142,0.00003935,-0.
 00001530,0.00003071,-0.00000414,-0.00003216,0.00003275,0.00017076,-0.0
 0001053,0.00016905,-0.00002799,0.00003455,-0.00003442,-0.00000513,0.00
 000072,0.00000507,-0.00000799,-0.00001865,0.00002286,0.00001101,-0.000
 00759,-0.00000323,-0.00002264,0.00001024,0.00000962,0.00000786,-0.0000
 0109,0.00000300,-0.00000175,-0.00000065,-0.00000004,0.00000006,-0.0000
 0105,-0.00000131,-0.00001433,-0.00000741,0.00000547,0.00000108,0.00000
 066,-0.00000346,0.00000071,-0.00000197,0.00000233,0.00000459,0.0000049
 1,0.00000140,-0.00005672,-0.00013504,-0.00016420,0.00003073,-0.0000406
 6,0.00009499,-0.00057193,-0.00049309,-0.00044800,-0.00000399,-0.000085
 21,0.00002630,0.00000515,-0.00006197,0.00008105,-0.00001709,0.00008107
 ,0.00000491,0.00000687,0.00003726,-0.00000325,-0.00000684,-0.00006828,
 0.00004036,-0.00001047,-0.00000575,0.00002282,0.00001307,0.00002373,-0
 .00001457,0.00019347,0.00022987,-0.00003959,0.00081605,-0.00038583,0.0
 0015690,0.00026491,0.00009947,0.00034164,0.00010449,0.00015112,0.00012
 863,-0.00001650,0.00012516,-0.00002438,-0.00004796,-0.00004160,-0.0000
 0651,0.00000335,0.00000791,0.00000199,0.00001148,0.00000382,0.00000140
 ,0.00007160,0.00005999,0.00000670,-0.00262005,0.00044549,0.00071232,0.
 00064945,-0.00033041,-0.00055485,0.00111516,0.00065825,0.00001533,-0.0
 0038410,-0.00063154,0.00004747,-0.00093142,0.00037322,-0.00108769,-0.0
 0030707,0.00081342,-0.00077411,-0.00704714,0.04170929,-0.01355743,0.00
 064902,0.00075516,-0.00056277,-0.00094520,-0.00041238,-0.00249099,0.00
 003435,0.00007951,0.00002402,0.00560565,0.00019373,-0.00189017,0.00011
 954,0.00047636,0.00058012,-0.00001234,0.00025777,-0.00037385,-0.000014
 57,-0.00002872,0.00001478,0.00003191,0.00000644,0.00006596,0.00005269,
 -0.00003675,-0.00000155,-0.00013648,0.00002588,-0.00009717,0.00002861,
 -0.00013433,0.00008367,0.00004431,0.00000437,-0.00022449,0.00000711,0.
 00007308,0.00003756,0.00000876,-0.00009219,-0.00002561,-0.00000227,-0.
 00000296,0.00000658,0.00001448,0.00001540,0.00000709,-0.00000574,0.000
 00687,-0.00000203,-0.00003564,-0.00003359,0.00001691,0.00000715,0.0000
 0816,0.00000354,0.00000484,0.00000205,-0.00000637,0.00000253,0.0000042
 8,-0.00000523,0.00002767,0.00003349,-0.00006306,0.00000014,-0.00000551
 ,0.00000670,-0.00000023,0.00000599,0.00000953,-0.00000883,-0.00000700,
 -0.00000176,-0.00005746,-0.00004680,-0.00004287,0.00000663,0.00001355,
 0.00004170,-0.00000104,0.00000783,-0.00001902,0.00000570,-0.00000705,-
 0.00001199,0.00000161,-0.00000407,-0.00001784,0.00000541,0.00001432,0.
 00000846,-0.00000759,-0.00001850,-0.00000172,0.00000325,0.00000563,0.0
 0000608,-0.00000396,-0.00000255,-0.00000079,0.00000365,-0.00000260,-0.
 00000596,0.00149661,-0.00172999,0.00105843,-0.00018422,0.00076786,-0.0
 0020928,-0.00060916,0.00025190,-0.00026060,-0.00026879,0.00040275,-0.0
 0100637,-0.00542144,0.06761093,-0.10599458,-0.00737546,0.00189804,0.01
 276155,-0.00115517,-0.02988534,0.01453933,0.01670189,-0.08303627,0.098
 82030\\-0.00000111,-0.00000076,-0.00000013,-0.00000027,-0.00000027,-0.
 00000012,-0.00000065,-0.00000096,-0.00000094,-0.00000098,-0.00000161,-
 0.00000023,-0.00000023,-0.00000137,0.00000083,-0.00000116,-0.00000033,
 -0.00000127,-0.00000032,0.00000002,-0.00000096,-0.00000018,-0.00000099
 ,-0.00000053,-0.00000100,-0.00000148,0.,0.00000051,-0.00000035,0.00000
 022,-0.00000093,-0.00000077,-0.00000049,-0.00000147,-0.00000115,-0.000
 00136,-0.00000084,-0.00000015,-0.00000119,-0.00000025,-0.00000039,0.00
 000015,0.00000016,-0.00000193,0.00000075,-0.00000115,-0.00000189,-0.00
 000015,-0.00000023,-0.00000196,0.00000056,-0.00000071,-0.00000174,0.00
 000018,-0.00000041,-0.00000135,0.00000047,-0.00000036,0.00000059,-0.00
 000189,-0.00000129,0.00000002,-0.00000159,-0.00000061,0.00000087,-0.00
 000139,-0.00000097,0.00000075,-0.00000159,-0.00000007,-0.00000065,0.00
 000032,-0.00000012,-0.00000071,0.00000028,-0.00000041,0.00000016,-0.00
 000034,0.00000035,0.00000022,0.00000031,0.00000007,-0.00000078,0.00000
 137,-0.00000001,-0.00000116,0.00000123,0.00000064,-0.00000144,0.000000
 94,0.00000044,-0.00000193,0.00000157,-0.00000020,0.00000057,0.00000015
 ,0.00000035,-0.00000109,0.00000011,-0.00000038,0.00000064,0.00000047,0
 .00000099,0.00000085,0.00000075,0.00000099,0.00000053,0.00000123,-0.00
 000023,-0.00000087,-0.00000010,0.,-0.00000046,0.00000031,0.00000059,0.
 00000096,0.00000004,0.00000057,0.00000136,0.00000021,0.00000085,0.0000
 0018,0.00000110,0.00000030,0.00000011,-0.00000021,-0.00000068,0.000000
 05,-0.00000106,-0.00000064,0.00000084,-0.00000086,0.00000040,0.0000003
 8,0.00000065,0.00000098,0.00000105,0.00000078,0.00000109,0.00000121,0.
 00000145,0.00000141,0.00000087,0.00000111,0.00000119,0.00000032,0.0000
 0149,0.00000113,-0.00000111,0.00000276,-0.00000069,0.00000076,-0.00000
 169,-0.00000044,0.00000159,-0.00000137,-0.00000002,0.00000096,-0.00000
 069,-0.00000036,0.00000139,-0.00000169,-0.00000124,0.00000158,-0.00000
 182,0.00000011,0.00000197,-0.00000135,-0.00000106,0.00000129,-0.000001
 70,-0.00000058,0.00000011,-0.00000129,0.00000027,0.00000171,-0.0000003
 1,0.00000012,0.00000208,-0.00000082,0.00000065,0.00000093,-0.00000241,
 -0.00000084,0.00000198,-0.00000121,0.00000007,-0.00000155,-0.00000048,
 -0.00000135,-0.00000034,-0.00000051,-0.00000064,-0.00000113,-0.0000004
 3,-0.00000092,-0.00000066,-0.00000115,0.00000071,0.00000072,-0.0000007
 9,0.00000049,0.00000125,0.00000015,-0.00000008,0.00000023,-0.00000022,
 0.00000019,0.00000085,0.00000047,0.00000138,0.00000141,0.00000170,0.00
 000148,0.00000087,0.00000122,0.00000161,0.00000076,0.00000196,0.000001
 84,0.00000149,0.00000154,0.00000163,0.00000082,0.00000215,0.00000056,-
 0.00000208,0.00000210,0.00000134,0.00000017,0.00000232,0.00000158,0.00
 000031,0.00000210,-0.00000171,-0.00000129,-0.00000184,-0.00000186,-0.0
 0000200,-0.00000148,-0.00000174,-0.00000191,-0.00000115,-0.00000190,-0
 .00000137,-0.00000182,0.00000301,0.00000057,0.00000247,-0.00000199,-0.
 00000213,-0.00000071,0.00000121,-0.00000164,0.00000170,-0.00000002,-0.
 00000057,0.00000121,-0.00000021,-0.00000134,0.00000096,0.00000069,-0.0
 0000166,0.00000189,0.00000214,0.00000016,0.00000323,0.00000162,-0.0000
 0141,0.00000189,0.00000097,-0.00000079,0.00000218,0.00000118,-0.000000
 36,0.00000248,0.00000059,0.00000241,-0.00000172,0.00000076,0.00000265,
 -0.00000042,0.00000002,0.00000318,-0.00000122,0.00000043,0.00000298,-0
 .00000108,-0.00000079,0.00000098,-0.00000124,-0.00000072,0.00000102,-0
 .00000213,-0.00000102,-0.00000022,-0.00000181,-0.00000160,0.00000035,-
 0.00000250\\\@


 ANYONE WHO IS NOT SHOCKED BY QUANTUM THEORY HAS
 NOT UNDERSTOOD IT. -- NIELS BOHR(1885-1962)
 Job cpu time:       4 days 18 hours 57 minutes 33.3 seconds.
 Elapsed time:       0 days  3 hours 49 minutes 47.5 seconds.
 File lengths (MBytes):  RWF=   9743 Int=      0 D2E=      0 Chk=     85 Scr=      1
 Normal termination of Gaussian 16 at Wed May  8 15:40:24 2019.
