 Entering Gaussian System, Link 0=g16
 Input=clay_new-glu_gluC6-EDDR-Na_1Me2O-bisCF3-ts-b3lyp_d3bj-631gd-pcm_thf.gjf
 Output=clay_new-glu_gluC6-EDDR-Na_1Me2O-bisCF3-ts-b3lyp_d3bj-631gd-pcm_thf.out
 Initial command:
 /home/ekwan/sw/g16/l1.exe "/scratch/users/ekwan/clay_new-glu_gluC6-EDDR-Na_1Me2O-bisCF3-ts-b3lyp_d3bj-631gd-pcm_thf/Gau-3257.inp" -scrdir="/scratch/users/ekwan/clay_new-glu_gluC6-EDDR-Na_1Me2O-bisCF3-ts-b3lyp_d3bj-631gd-pcm_thf/"
 Entering Link 1 = /home/ekwan/sw/g16/l1.exe PID=      3258.
  
 Copyright (c) 1988,1990,1992,1993,1995,1998,2003,2009,2016,
            Gaussian, Inc.  All Rights Reserved.
  
 This is part of the Gaussian(R) 16 program.  It is based on
 the Gaussian(R) 09 system (copyright 2009, Gaussian, Inc.),
 the Gaussian(R) 03 system (copyright 2003, Gaussian, Inc.),
 the Gaussian(R) 98 system (copyright 1998, Gaussian, Inc.),
 the Gaussian(R) 94 system (copyright 1995, Gaussian, Inc.),
 the Gaussian 92(TM) system (copyright 1992, Gaussian, Inc.),
 the Gaussian 90(TM) system (copyright 1990, Gaussian, Inc.),
 the Gaussian 88(TM) system (copyright 1988, Gaussian, Inc.),
 the Gaussian 86(TM) system (copyright 1986, Carnegie Mellon
 University), and the Gaussian 82(TM) system (copyright 1983,
 Carnegie Mellon University). Gaussian is a federally registered
 trademark of Gaussian, Inc.
  
 This software contains proprietary and confidential information,
 including trade secrets, belonging to Gaussian, Inc.
  
 This software is provided under written license and may be
 used, copied, transmitted, or stored only in accord with that
 written license.
  
 The following legend is applicable only to US Government
 contracts under FAR:
  
                    RESTRICTED RIGHTS LEGEND
  
 Use, reproduction and disclosure by the US Government is
 subject to restrictions as set forth in subparagraphs (a)
 and (c) of the Commercial Computer Software - Restricted
 Rights clause in FAR 52.227-19.
  
 Gaussian, Inc.
 340 Quinnipiac St., Bldg. 40, Wallingford CT 06492
  
  
 ---------------------------------------------------------------
 Warning -- This program may not be used in any manner that
 competes with the business of Gaussian, Inc. or will provide
 assistance to any competitor of Gaussian, Inc.  The licensee
 of this program is prohibited from giving any competitor of
 Gaussian, Inc. access to this program.  By using this program,
 the user acknowledges that Gaussian, Inc. is engaged in the
 business of creating and licensing software in the field of
 computational chemistry and represents and warrants to the
 licensee that it is not a competitor of Gaussian, Inc. and that
 it will not use this program in any manner prohibited above.
 ---------------------------------------------------------------
  

 Cite this work as:
 Gaussian 16, Revision A.03,
 M. J. Frisch, G. W. Trucks, H. B. Schlegel, G. E. Scuseria, 
 M. A. Robb, J. R. Cheeseman, G. Scalmani, V. Barone, 
 G. A. Petersson, H. Nakatsuji, X. Li, M. Caricato, A. V. Marenich, 
 J. Bloino, B. G. Janesko, R. Gomperts, B. Mennucci, H. P. Hratchian, 
 J. V. Ortiz, A. F. Izmaylov, J. L. Sonnenberg, D. Williams-Young, 
 F. Ding, F. Lipparini, F. Egidi, J. Goings, B. Peng, A. Petrone, 
 T. Henderson, D. Ranasinghe, V. G. Zakrzewski, J. Gao, N. Rega, 
 G. Zheng, W. Liang, M. Hada, M. Ehara, K. Toyota, R. Fukuda, 
 J. Hasegawa, M. Ishida, T. Nakajima, Y. Honda, O. Kitao, H. Nakai, 
 T. Vreven, K. Throssell, J. A. Montgomery, Jr., J. E. Peralta, 
 F. Ogliaro, M. J. Bearpark, J. J. Heyd, E. N. Brothers, K. N. Kudin, 
 V. N. Staroverov, T. A. Keith, R. Kobayashi, J. Normand, 
 K. Raghavachari, A. P. Rendell, J. C. Burant, S. S. Iyengar, 
 J. Tomasi, M. Cossi, J. M. Millam, M. Klene, C. Adamo, R. Cammi, 
 J. W. Ochterski, R. L. Martin, K. Morokuma, O. Farkas, 
 J. B. Foresman, and D. J. Fox, Gaussian, Inc., Wallingford CT, 2016.
 
 ******************************************
 Gaussian 16:  AS64L-G16RevA.03 25-Dec-2016
                 8-May-2019 
 ******************************************
 %mem=48GB
 %nprocshared=32
 Will use up to   32 processors via shared memory.
 ----------------------------------------------------------------------
 #p opt=(ts,noeigentest,calcfc,maxstep=3,modredundant,recalc=30) freq=n
 oraman b3lyp 6-31g* pop=none scrf=(solvent=tetrahydrofuran,pcm) empiri
 caldispersion=gd3bj
 ----------------------------------------------------------------------
 1/5=1,8=3,10=4,11=1,18=120,26=3,38=1,71=30/1,3;
 2/9=110,12=2,17=6,18=5,40=1/2;
 3/5=1,6=6,7=1,11=2,25=1,30=1,70=2201,71=2,72=20,74=-5,124=41,140=1/1,2,3;
 4//1;
 5/5=2,38=5,53=20/2;
 8/6=4,10=90,11=11/1;
 11/6=1,8=1,9=11,15=111,16=1/1,2,10;
 10/6=1,13=1/2;
 7/10=1,18=20,25=1/1,2,3,16;
 1/5=1,8=3,10=4,11=1,18=20,26=3,71=30/3(2);
 2/9=110/2;
 99//99;
 2/9=110/2;
 3/5=1,6=6,7=1,11=2,25=1,30=1,70=2205,71=1,72=20,74=-5,124=41/1,2,3;
 4/5=5,16=3,69=1/1;
 5/5=2,38=5,53=20/2;
 7//1,2,3,16;
 1/5=1,8=3,11=1,18=20,26=3,71=30/3(-5);
 2/9=110/2;
 99/9=1/99;
 Leave Link    1 at Wed May  8 19:15:01 2019, MaxMem=  6442450944 cpu:               5.8 elap:               0.2
 (Enter /home/ekwan/sw/g16/l101.exe)
 -----
 title
 -----
 Symbolic Z-matrix:
 Charge =  0 Multiplicity = 1
 C                    -3.10133   1.77262   0.65033 
 C                    -3.96607   1.87535  -0.605 
 C                    -3.36185   2.91097  -1.54538 
 C                    -1.11078   2.35535  -0.84829 
 C                    -1.63935   1.46084   0.29728 
 H                    -3.92481   2.96423  -2.48725 
 H                    -3.93845   0.91752  -1.13742 
 H                    -3.12108   2.73763   1.16877 
 H                    -0.88836   3.34591  -0.42554 
 H                    -1.56665   0.40825  -0.00801 
 O                    -2.06943   2.48911  -1.91267 
 O                    -3.37146   4.15833  -0.90044 
 O                    -5.3051    2.22121  -0.28137 
 O                    -3.61833   0.75381   1.50711 
 O                    -0.81      1.67984   1.45213 
 C                     0.14395   1.79988  -1.56085 
 H                     0.25249   2.43021  -2.47073 
 H                    -0.16962   0.80005  -1.94905 
 O                     1.27733   1.74458  -0.80185 
 C                    -6.21912   1.14063  -0.41868 
 H                    -6.26956   0.7909   -1.46046 
 H                    -5.94586   0.29877   0.22628 
 H                    -7.20147   1.51962  -0.12549 
 C                    -4.38034   1.25444   2.59945 
 H                    -3.74938   1.84122   3.28266 
 H                    -5.20939   1.8796    2.25247 
 H                    -4.77026   0.38489   3.12952 
 C                    -0.73345   0.57159   2.3621 
 H                    -1.72042   0.15892   2.56884 
 H                    -0.0805   -0.21548   1.9705 
 H                    -0.29594   0.96245   3.28542 
 C                     4.2288   -1.03578  -1.19207 
 C                     2.80929  -0.56862  -1.52411 
 C                     1.95268  -0.50246  -0.28524 
 C                     3.82046  -0.2636    1.19515 
 C                     4.75832  -0.20847  -0.01759 
 H                     0.88401  -0.42773  -0.37722 
 H                     2.85115   0.47289  -1.85816 
 H                     4.21658  -2.09314  -0.91099 
 H                     3.8459   -1.26565   1.62935 
 H                     4.8497    0.83638  -0.35076 
 O                     2.43521  -0.02089   0.84033 
 O                     1.1304   -2.39921   2.36353 
 O                     2.19232  -1.3832   -2.50331 
 O                     5.07366  -0.82444  -2.31467 
 O                     6.00492  -0.68335   0.46038 
 C                     4.18624   0.82195   2.22165 
 H                     4.47559   1.73193   1.69358 
 H                     5.03615   0.46876   2.81823 
 O                     3.10443   1.2095    3.05278 
 S                     1.05761  -3.04634   1.0378 
 O                     1.2245   -4.50833   1.00778 
 O                     2.00647  -2.40001   0.01569 
 C                    -0.57714  -2.65964   0.39687 
 C                    -1.64936  -2.65947   1.28368 
 C                    -0.75744  -2.37225  -0.95642 
 C                    -2.92817  -2.37304   0.8072 
 H                    -1.4822   -2.85332   2.33673 
 C                    -2.04026  -2.06696  -1.40957 
 H                     0.09228  -2.35442  -1.62999 
 C                    -3.13118  -2.0762   -0.53756 
 H                    -4.12424  -1.83934  -0.89967 
 C                     1.91319  -0.70609  -3.72863 
 H                     1.19405   0.1073   -3.58024 
 H                     2.83236  -0.3062   -4.17311 
 H                     1.4783   -1.45142  -4.39704 
 C                     5.33403  -2.00552  -3.06701 
 H                     5.87031  -2.74849  -2.4609 
 H                     4.40752  -2.45201  -3.4436 
 H                     5.96419  -1.70663  -3.908 
 C                     7.14202  -0.03445  -0.10299 
 H                     7.19327  -0.18868  -1.18437 
 H                     7.12246   1.04453   0.10732 
 H                     8.01784  -0.47582   0.37802 
 C                     2.69777   0.19846   3.98073 
 H                     1.95353   0.6594    4.63353 
 H                     2.25311  -0.66089   3.4692 
 H                     3.5538   -0.12912   4.58545 
 C                    -2.94339   5.2263   -1.7381 
 H                    -3.04357   6.14353  -1.15428 
 H                    -1.89937   5.1002   -2.04707 
 H                    -3.57318   5.29639  -2.63632 
 Na                    1.50808   2.23658   1.31015 
 O                     3.24533   3.724     0.94808 
 C                     3.65394   3.84184  -0.41418 
 H                     4.69929   3.51989  -0.53089 
 H                     2.98358   3.1908   -0.98136 
 H                     3.56441   4.8822   -0.75645 
 C                     4.01946   4.51707   1.83486 
 H                     3.92284   5.5846    1.59454 
 H                     3.64458   4.33298   2.84391 
 H                     5.08156   4.23752   1.78654 
 C                    -4.08213  -2.43088   1.76933 
 F                    -4.43515  -3.71148   2.03073 
 F                    -5.18282  -1.80875   1.30096 
 F                    -3.76277  -1.86979   2.95854 
 C                    -2.25988  -1.6412   -2.83491 
 F                    -3.33684  -2.24935  -3.37776 
 F                    -1.19689  -1.90844  -3.62025 
 F                    -2.48696  -0.30613  -2.91145 
 
 Add virtual bond connecting atoms O53        and C34        Dist= 3.63D+00.
 Add virtual bond connecting atoms H37        and H18        Dist= 4.26D+00.
 Add virtual bond connecting atoms H37        and O19        Dist= 4.25D+00.
 Add virtual bond connecting atoms H38        and O19        Dist= 4.31D+00.
 Add virtual bond connecting atoms H64        and H18        Dist= 4.23D+00.
 Add virtual bond connecting atoms O84        and Na83       Dist= 4.38D+00.
 Add virtual bond connecting atoms H87        and O19        Dist= 4.24D+00.
 The following ModRedundant input section has been read:
 
 ITRead=  0  0  0  0  0  0  0  0  0  0  0  0  0  0  0  0  0  0  0  0
 ITRead=  0  0  0  0  0  0  0  0  0  0  0  0  0  0  0  0  0  0  0  0
 ITRead=  0  0  0  0  0  0  0  0  0  0  0  0  0  0  0  0  0  0  0  0
 ITRead=  0  0  0  0  0  0  0  0  0  0  0  0  0  0  0  0  0  0  0  0
 ITRead=  0  0  0  0  0  0  0  0  0  0  0  0  0  0  0  0  0  0  0  0
 MicOpt= -1 -1 -1 -1 -1 -1 -1 -1 -1 -1 -1 -1 -1 -1 -1 -1 -1 -1 -1 -1
 MicOpt= -1 -1 -1 -1 -1 -1 -1 -1 -1 -1 -1 -1 -1 -1 -1 -1 -1 -1 -1 -1
 MicOpt= -1 -1 -1 -1 -1 -1 -1 -1 -1 -1 -1 -1 -1 -1 -1 -1 -1 -1 -1 -1
 MicOpt= -1 -1 -1 -1 -1 -1 -1 -1 -1 -1 -1 -1 -1 -1 -1 -1 -1 -1 -1 -1
 MicOpt= -1 -1 -1 -1 -1 -1 -1 -1 -1 -1 -1 -1 -1 -1 -1 -1 -1 -1 -1 -1
 NAtoms=    100 NQM=      100 NQMF=       0 NMMI=      0 NMMIF=      0
                NMic=       0 NMicF=      0.
                    Isotopes and Nuclear Properties:
 (Nuclear quadrupole moments (NQMom) in fm**2, nuclear magnetic moments (NMagM)
  in nuclear magnetons)

  Atom         1           2           3           4           5           6           7           8           9          10
 IAtWgt=          12          12          12          12          12           1           1           1           1           1
 AtmWgt=  12.0000000  12.0000000  12.0000000  12.0000000  12.0000000   1.0078250   1.0078250   1.0078250   1.0078250   1.0078250
 NucSpn=           0           0           0           0           0           1           1           1           1           1
 AtZEff=   0.0000000   0.0000000   0.0000000   0.0000000   0.0000000   0.0000000   0.0000000   0.0000000   0.0000000   0.0000000
 NQMom=    0.0000000   0.0000000   0.0000000   0.0000000   0.0000000   0.0000000   0.0000000   0.0000000   0.0000000   0.0000000
 NMagM=    0.0000000   0.0000000   0.0000000   0.0000000   0.0000000   2.7928460   2.7928460   2.7928460   2.7928460   2.7928460
 AtZNuc=   6.0000000   6.0000000   6.0000000   6.0000000   6.0000000   1.0000000   1.0000000   1.0000000   1.0000000   1.0000000

  Atom        11          12          13          14          15          16          17          18          19          20
 IAtWgt=          16          16          16          16          16          12           1           1          16          12
 AtmWgt=  15.9949146  15.9949146  15.9949146  15.9949146  15.9949146  12.0000000   1.0078250   1.0078250  15.9949146  12.0000000
 NucSpn=           0           0           0           0           0           0           1           1           0           0
 AtZEff=   0.0000000   0.0000000   0.0000000   0.0000000   0.0000000   0.0000000   0.0000000   0.0000000   0.0000000   0.0000000
 NQMom=    0.0000000   0.0000000   0.0000000   0.0000000   0.0000000   0.0000000   0.0000000   0.0000000   0.0000000   0.0000000
 NMagM=    0.0000000   0.0000000   0.0000000   0.0000000   0.0000000   0.0000000   2.7928460   2.7928460   0.0000000   0.0000000
 AtZNuc=   8.0000000   8.0000000   8.0000000   8.0000000   8.0000000   6.0000000   1.0000000   1.0000000   8.0000000   6.0000000

  Atom        21          22          23          24          25          26          27          28          29          30
 IAtWgt=           1           1           1          12           1           1           1          12           1           1
 AtmWgt=   1.0078250   1.0078250   1.0078250  12.0000000   1.0078250   1.0078250   1.0078250  12.0000000   1.0078250   1.0078250
 NucSpn=           1           1           1           0           1           1           1           0           1           1
 AtZEff=   0.0000000   0.0000000   0.0000000   0.0000000   0.0000000   0.0000000   0.0000000   0.0000000   0.0000000   0.0000000
 NQMom=    0.0000000   0.0000000   0.0000000   0.0000000   0.0000000   0.0000000   0.0000000   0.0000000   0.0000000   0.0000000
 NMagM=    2.7928460   2.7928460   2.7928460   0.0000000   2.7928460   2.7928460   2.7928460   0.0000000   2.7928460   2.7928460
 AtZNuc=   1.0000000   1.0000000   1.0000000   6.0000000   1.0000000   1.0000000   1.0000000   6.0000000   1.0000000   1.0000000

  Atom        31          32          33          34          35          36          37          38          39          40
 IAtWgt=           1          12          12          12          12          12           1           1           1           1
 AtmWgt=   1.0078250  12.0000000  12.0000000  12.0000000  12.0000000  12.0000000   1.0078250   1.0078250   1.0078250   1.0078250
 NucSpn=           1           0           0           0           0           0           1           1           1           1
 AtZEff=   0.0000000   0.0000000   0.0000000   0.0000000   0.0000000   0.0000000   0.0000000   0.0000000   0.0000000   0.0000000
 NQMom=    0.0000000   0.0000000   0.0000000   0.0000000   0.0000000   0.0000000   0.0000000   0.0000000   0.0000000   0.0000000
 NMagM=    2.7928460   0.0000000   0.0000000   0.0000000   0.0000000   0.0000000   2.7928460   2.7928460   2.7928460   2.7928460
 AtZNuc=   1.0000000   6.0000000   6.0000000   6.0000000   6.0000000   6.0000000   1.0000000   1.0000000   1.0000000   1.0000000

  Atom        41          42          43          44          45          46          47          48          49          50
 IAtWgt=           1          16          16          16          16          16          12           1           1          16
 AtmWgt=   1.0078250  15.9949146  15.9949146  15.9949146  15.9949146  15.9949146  12.0000000   1.0078250   1.0078250  15.9949146
 NucSpn=           1           0           0           0           0           0           0           1           1           0
 AtZEff=   0.0000000   0.0000000   0.0000000   0.0000000   0.0000000   0.0000000   0.0000000   0.0000000   0.0000000   0.0000000
 NQMom=    0.0000000   0.0000000   0.0000000   0.0000000   0.0000000   0.0000000   0.0000000   0.0000000   0.0000000   0.0000000
 NMagM=    2.7928460   0.0000000   0.0000000   0.0000000   0.0000000   0.0000000   0.0000000   2.7928460   2.7928460   0.0000000
 AtZNuc=   1.0000000   8.0000000   8.0000000   8.0000000   8.0000000   8.0000000   6.0000000   1.0000000   1.0000000   8.0000000

  Atom        51          52          53          54          55          56          57          58          59          60
 IAtWgt=          32          16          16          12          12          12          12           1          12           1
 AtmWgt=  31.9720718  15.9949146  15.9949146  12.0000000  12.0000000  12.0000000  12.0000000   1.0078250  12.0000000   1.0078250
 NucSpn=           0           0           0           0           0           0           0           1           0           1
 AtZEff=   0.0000000   0.0000000   0.0000000   0.0000000   0.0000000   0.0000000   0.0000000   0.0000000   0.0000000   0.0000000
 NQMom=    0.0000000   0.0000000   0.0000000   0.0000000   0.0000000   0.0000000   0.0000000   0.0000000   0.0000000   0.0000000
 NMagM=    0.0000000   0.0000000   0.0000000   0.0000000   0.0000000   0.0000000   0.0000000   2.7928460   0.0000000   2.7928460
 AtZNuc=  16.0000000   8.0000000   8.0000000   6.0000000   6.0000000   6.0000000   6.0000000   1.0000000   6.0000000   1.0000000

  Atom        61          62          63          64          65          66          67          68          69          70
 IAtWgt=          12           1          12           1           1           1          12           1           1           1
 AtmWgt=  12.0000000   1.0078250  12.0000000   1.0078250   1.0078250   1.0078250  12.0000000   1.0078250   1.0078250   1.0078250
 NucSpn=           0           1           0           1           1           1           0           1           1           1
 AtZEff=   0.0000000   0.0000000   0.0000000   0.0000000   0.0000000   0.0000000   0.0000000   0.0000000   0.0000000   0.0000000
 NQMom=    0.0000000   0.0000000   0.0000000   0.0000000   0.0000000   0.0000000   0.0000000   0.0000000   0.0000000   0.0000000
 NMagM=    0.0000000   2.7928460   0.0000000   2.7928460   2.7928460   2.7928460   0.0000000   2.7928460   2.7928460   2.7928460
 AtZNuc=   6.0000000   1.0000000   6.0000000   1.0000000   1.0000000   1.0000000   6.0000000   1.0000000   1.0000000   1.0000000

  Atom        71          72          73          74          75          76          77          78          79          80
 IAtWgt=          12           1           1           1          12           1           1           1          12           1
 AtmWgt=  12.0000000   1.0078250   1.0078250   1.0078250  12.0000000   1.0078250   1.0078250   1.0078250  12.0000000   1.0078250
 NucSpn=           0           1           1           1           0           1           1           1           0           1
 AtZEff=   0.0000000   0.0000000   0.0000000   0.0000000   0.0000000   0.0000000   0.0000000   0.0000000   0.0000000   0.0000000
 NQMom=    0.0000000   0.0000000   0.0000000   0.0000000   0.0000000   0.0000000   0.0000000   0.0000000   0.0000000   0.0000000
 NMagM=    0.0000000   2.7928460   2.7928460   2.7928460   0.0000000   2.7928460   2.7928460   2.7928460   0.0000000   2.7928460
 AtZNuc=   6.0000000   1.0000000   1.0000000   1.0000000   6.0000000   1.0000000   1.0000000   1.0000000   6.0000000   1.0000000

  Atom        81          82          83          84          85          86          87          88          89          90
 IAtWgt=           1           1          23          16          12           1           1           1          12           1
 AtmWgt=   1.0078250   1.0078250  22.9897697  15.9949146  12.0000000   1.0078250   1.0078250   1.0078250  12.0000000   1.0078250
 NucSpn=           1           1           3           0           0           1           1           1           0           1
 AtZEff=   0.0000000   0.0000000   0.0000000   0.0000000   0.0000000   0.0000000   0.0000000   0.0000000   0.0000000   0.0000000
 NQMom=    0.0000000   0.0000000  10.4000000   0.0000000   0.0000000   0.0000000   0.0000000   0.0000000   0.0000000   0.0000000
 NMagM=    2.7928460   2.7928460   2.2175200   0.0000000   0.0000000   2.7928460   2.7928460   2.7928460   0.0000000   2.7928460
 AtZNuc=   1.0000000   1.0000000  11.0000000   8.0000000   6.0000000   1.0000000   1.0000000   1.0000000   6.0000000   1.0000000

  Atom        91          92          93          94          95          96          97          98          99         100
 IAtWgt=           1           1          12          19          19          19          12          19          19          19
 AtmWgt=   1.0078250   1.0078250  12.0000000  18.9984033  18.9984033  18.9984033  12.0000000  18.9984033  18.9984033  18.9984033
 NucSpn=           1           1           0           1           1           1           0           1           1           1
 AtZEff=   0.0000000   0.0000000   0.0000000   0.0000000   0.0000000   0.0000000   0.0000000   0.0000000   0.0000000   0.0000000
 NQMom=    0.0000000   0.0000000   0.0000000   0.0000000   0.0000000   0.0000000   0.0000000   0.0000000   0.0000000   0.0000000
 NMagM=    2.7928460   2.7928460   0.0000000   2.6288670   2.6288670   2.6288670   0.0000000   2.6288670   2.6288670   2.6288670
 AtZNuc=   1.0000000   1.0000000   6.0000000   9.0000000   9.0000000   9.0000000   6.0000000   9.0000000   9.0000000   9.0000000
 Leave Link  101 at Wed May  8 19:15:02 2019, MaxMem=  6442450944 cpu:              18.9 elap:               0.8
 (Enter /home/ekwan/sw/g16/l103.exe)

 GradGradGradGradGradGradGradGradGradGradGradGradGradGradGradGradGradGrad
 Berny optimization.
 Initialization pass.
                           ----------------------------
                           !    Initial Parameters    !
                           ! (Angstroms and Degrees)  !
 --------------------------                            --------------------------
 ! Name  Definition              Value          Derivative Info.                !
 --------------------------------------------------------------------------------
 ! R1    R(1,2)                  1.5278         calculate D2E/DX2 analytically  !
 ! R2    R(1,5)                  1.536          calculate D2E/DX2 analytically  !
 ! R3    R(1,8)                  1.0956         calculate D2E/DX2 analytically  !
 ! R4    R(1,14)                 1.4281         calculate D2E/DX2 analytically  !
 ! R5    R(2,3)                  1.5238         calculate D2E/DX2 analytically  !
 ! R6    R(2,7)                  1.0962         calculate D2E/DX2 analytically  !
 ! R7    R(2,13)                 1.4203         calculate D2E/DX2 analytically  !
 ! R8    R(3,6)                  1.0986         calculate D2E/DX2 analytically  !
 ! R9    R(3,11)                 1.4083         calculate D2E/DX2 analytically  !
 ! R10   R(3,12)                 1.4043         calculate D2E/DX2 analytically  !
 ! R11   R(4,5)                  1.5466         calculate D2E/DX2 analytically  !
 ! R12   R(4,9)                  1.0997         calculate D2E/DX2 analytically  !
 ! R13   R(4,11)                 1.4387         calculate D2E/DX2 analytically  !
 ! R14   R(4,16)                 1.5462         calculate D2E/DX2 analytically  !
 ! R15   R(5,10)                 1.0984         calculate D2E/DX2 analytically  !
 ! R16   R(5,15)                 1.4386         calculate D2E/DX2 analytically  !
 ! R17   R(12,79)                1.4232         calculate D2E/DX2 analytically  !
 ! R18   R(13,20)                1.4219         calculate D2E/DX2 analytically  !
 ! R19   R(14,24)                1.4228         calculate D2E/DX2 analytically  !
 ! R20   R(15,28)                1.436          calculate D2E/DX2 analytically  !
 ! R21   R(16,17)                1.1122         calculate D2E/DX2 analytically  !
 ! R22   R(16,18)                1.1174         calculate D2E/DX2 analytically  !
 ! R23   R(16,19)                1.3652         calculate D2E/DX2 analytically  !
 ! R24   R(18,37)                2.2557         calculate D2E/DX2 analytically  !
 ! R25   R(18,64)                2.2361         calculate D2E/DX2 analytically  !
 ! R26   R(19,37)                2.2481         calculate D2E/DX2 analytically  !
 ! R27   R(19,38)                2.2825         calculate D2E/DX2 analytically  !
 ! R28   R(19,83)                2.1808         calculate D2E/DX2 analytically  !
 ! R29   R(19,87)                2.2439         calculate D2E/DX2 analytically  !
 ! R30   R(20,21)                1.1001         calculate D2E/DX2 analytically  !
 ! R31   R(20,22)                1.0952         calculate D2E/DX2 analytically  !
 ! R32   R(20,23)                1.093          calculate D2E/DX2 analytically  !
 ! R33   R(24,25)                1.0996         calculate D2E/DX2 analytically  !
 ! R34   R(24,26)                1.0948         calculate D2E/DX2 analytically  !
 ! R35   R(24,27)                1.0905         calculate D2E/DX2 analytically  !
 ! R36   R(28,29)                1.0896         calculate D2E/DX2 analytically  !
 ! R37   R(28,30)                1.0951         calculate D2E/DX2 analytically  !
 ! R38   R(28,31)                1.0939         calculate D2E/DX2 analytically  !
 ! R39   R(32,33)                1.5309         calculate D2E/DX2 analytically  !
 ! R40   R(32,36)                1.5311         calculate D2E/DX2 analytically  !
 ! R41   R(32,39)                1.0942         calculate D2E/DX2 analytically  !
 ! R42   R(32,45)                1.4208         calculate D2E/DX2 analytically  !
 ! R43   R(33,34)                1.5076         calculate D2E/DX2 analytically  !
 ! R44   R(33,38)                1.0946         calculate D2E/DX2 analytically  !
 ! R45   R(33,44)                1.4153         calculate D2E/DX2 analytically  !
 ! R46   R(34,37)                1.0752         calculate D2E/DX2 analytically  !
 ! R47   R(34,42)                1.3159         calculate D2E/DX2 analytically  !
 ! R48   R(34,53)                1.922          calculate D2E/DX2 analytically  !
 ! R49   R(35,36)                1.5341         calculate D2E/DX2 analytically  !
 ! R50   R(35,40)                1.0924         calculate D2E/DX2 analytically  !
 ! R51   R(35,42)                1.4504         calculate D2E/DX2 analytically  !
 ! R52   R(35,47)                1.5381         calculate D2E/DX2 analytically  !
 ! R53   R(36,41)                1.1005         calculate D2E/DX2 analytically  !
 ! R54   R(36,46)                1.417          calculate D2E/DX2 analytically  !
 ! R55   R(43,51)                1.477          calculate D2E/DX2 analytically  !
 ! R56   R(44,63)                1.4275         calculate D2E/DX2 analytically  !
 ! R57   R(45,67)                1.4243         calculate D2E/DX2 analytically  !
 ! R58   R(46,71)                1.4253         calculate D2E/DX2 analytically  !
 ! R59   R(47,48)                1.0912         calculate D2E/DX2 analytically  !
 ! R60   R(47,49)                1.0968         calculate D2E/DX2 analytically  !
 ! R61   R(47,50)                1.4182         calculate D2E/DX2 analytically  !
 ! R62   R(50,75)                1.4313         calculate D2E/DX2 analytically  !
 ! R63   R(51,52)                1.4718         calculate D2E/DX2 analytically  !
 ! R64   R(51,53)                1.5371         calculate D2E/DX2 analytically  !
 ! R65   R(51,54)                1.798          calculate D2E/DX2 analytically  !
 ! R66   R(54,55)                1.3914         calculate D2E/DX2 analytically  !
 ! R67   R(54,56)                1.3952         calculate D2E/DX2 analytically  !
 ! R68   R(55,57)                1.3944         calculate D2E/DX2 analytically  !
 ! R69   R(55,58)                1.0837         calculate D2E/DX2 analytically  !
 ! R70   R(56,59)                1.3943         calculate D2E/DX2 analytically  !
 ! R71   R(56,60)                1.0844         calculate D2E/DX2 analytically  !
 ! R72   R(57,61)                1.392          calculate D2E/DX2 analytically  !
 ! R73   R(57,93)                1.5036         calculate D2E/DX2 analytically  !
 ! R74   R(59,61)                1.3966         calculate D2E/DX2 analytically  !
 ! R75   R(59,97)                1.5037         calculate D2E/DX2 analytically  !
 ! R76   R(61,62)                1.0832         calculate D2E/DX2 analytically  !
 ! R77   R(63,64)                1.0958         calculate D2E/DX2 analytically  !
 ! R78   R(63,65)                1.0965         calculate D2E/DX2 analytically  !
 ! R79   R(63,66)                1.0915         calculate D2E/DX2 analytically  !
 ! R80   R(67,68)                1.0986         calculate D2E/DX2 analytically  !
 ! R81   R(67,69)                1.0953         calculate D2E/DX2 analytically  !
 ! R82   R(67,70)                1.0926         calculate D2E/DX2 analytically  !
 ! R83   R(71,72)                1.0935         calculate D2E/DX2 analytically  !
 ! R84   R(71,73)                1.0995         calculate D2E/DX2 analytically  !
 ! R85   R(71,74)                1.0924         calculate D2E/DX2 analytically  !
 ! R86   R(75,76)                1.092          calculate D2E/DX2 analytically  !
 ! R87   R(75,77)                1.0945         calculate D2E/DX2 analytically  !
 ! R88   R(75,78)                1.0981         calculate D2E/DX2 analytically  !
 ! R89   R(79,80)                1.0919         calculate D2E/DX2 analytically  !
 ! R90   R(79,81)                1.0961         calculate D2E/DX2 analytically  !
 ! R91   R(79,82)                1.0992         calculate D2E/DX2 analytically  !
 ! R92   R(83,84)                2.3155         calculate D2E/DX2 analytically  !
 ! R93   R(84,85)                1.4271         calculate D2E/DX2 analytically  !
 ! R94   R(84,89)                1.4194         calculate D2E/DX2 analytically  !
 ! R95   R(85,86)                1.1            calculate D2E/DX2 analytically  !
 ! R96   R(85,87)                1.0931         calculate D2E/DX2 analytically  !
 ! R97   R(85,88)                1.0989         calculate D2E/DX2 analytically  !
 ! R98   R(89,90)                1.0985         calculate D2E/DX2 analytically  !
 ! R99   R(89,91)                1.0921         calculate D2E/DX2 analytically  !
 ! R100  R(89,92)                1.0993         calculate D2E/DX2 analytically  !
 ! R101  R(93,94)                1.3538         calculate D2E/DX2 analytically  !
 ! R102  R(93,95)                1.3483         calculate D2E/DX2 analytically  !
 ! R103  R(93,96)                1.3532         calculate D2E/DX2 analytically  !
 ! R104  R(97,98)                1.3507         calculate D2E/DX2 analytically  !
 ! R105  R(97,99)                1.3484         calculate D2E/DX2 analytically  !
 ! R106  R(97,100)               1.3564         calculate D2E/DX2 analytically  !
 ! A1    A(2,1,5)              111.3164         calculate D2E/DX2 analytically  !
 ! A2    A(2,1,8)              108.6249         calculate D2E/DX2 analytically  !
 ! A3    A(2,1,14)             109.6349         calculate D2E/DX2 analytically  !
 ! A4    A(5,1,8)              107.7401         calculate D2E/DX2 analytically  !
 ! A5    A(5,1,14)             109.7357         calculate D2E/DX2 analytically  !
 ! A6    A(8,1,14)             109.7523         calculate D2E/DX2 analytically  !
 ! A7    A(1,2,3)              109.1679         calculate D2E/DX2 analytically  !
 ! A8    A(1,2,7)              109.0299         calculate D2E/DX2 analytically  !
 ! A9    A(1,2,13)             111.2693         calculate D2E/DX2 analytically  !
 ! A10   A(3,2,7)              106.506          calculate D2E/DX2 analytically  !
 ! A11   A(3,2,13)             110.4232         calculate D2E/DX2 analytically  !
 ! A12   A(7,2,13)             110.3156         calculate D2E/DX2 analytically  !
 ! A13   A(2,3,6)              111.0297         calculate D2E/DX2 analytically  !
 ! A14   A(2,3,11)             108.7397         calculate D2E/DX2 analytically  !
 ! A15   A(2,3,12)             108.5153         calculate D2E/DX2 analytically  !
 ! A16   A(6,3,11)             105.1413         calculate D2E/DX2 analytically  !
 ! A17   A(6,3,12)             110.3155         calculate D2E/DX2 analytically  !
 ! A18   A(11,3,12)            113.0888         calculate D2E/DX2 analytically  !
 ! A19   A(5,4,9)              107.7794         calculate D2E/DX2 analytically  !
 ! A20   A(5,4,11)             111.9654         calculate D2E/DX2 analytically  !
 ! A21   A(5,4,16)             114.2626         calculate D2E/DX2 analytically  !
 ! A22   A(9,4,11)             109.5988         calculate D2E/DX2 analytically  !
 ! A23   A(9,4,16)             109.6712         calculate D2E/DX2 analytically  !
 ! A24   A(11,4,16)            103.4848         calculate D2E/DX2 analytically  !
 ! A25   A(1,5,4)              112.2194         calculate D2E/DX2 analytically  !
 ! A26   A(1,5,10)             108.7477         calculate D2E/DX2 analytically  !
 ! A27   A(1,5,15)             109.47           calculate D2E/DX2 analytically  !
 ! A28   A(4,5,10)             109.0127         calculate D2E/DX2 analytically  !
 ! A29   A(4,5,15)             108.0322         calculate D2E/DX2 analytically  !
 ! A30   A(10,5,15)            109.3213         calculate D2E/DX2 analytically  !
 ! A31   A(3,11,4)             116.5142         calculate D2E/DX2 analytically  !
 ! A32   A(3,12,79)            113.2151         calculate D2E/DX2 analytically  !
 ! A33   A(2,13,20)            113.5121         calculate D2E/DX2 analytically  !
 ! A34   A(1,14,24)            113.7953         calculate D2E/DX2 analytically  !
 ! A35   A(5,15,28)            114.9579         calculate D2E/DX2 analytically  !
 ! A36   A(4,16,17)            104.6321         calculate D2E/DX2 analytically  !
 ! A37   A(4,16,18)            104.7042         calculate D2E/DX2 analytically  !
 ! A38   A(4,16,19)            115.5978         calculate D2E/DX2 analytically  !
 ! A39   A(17,16,18)           104.4938         calculate D2E/DX2 analytically  !
 ! A40   A(17,16,19)           113.3765         calculate D2E/DX2 analytically  !
 ! A41   A(18,16,19)           112.9464         calculate D2E/DX2 analytically  !
 ! A42   A(16,18,37)            96.5382         calculate D2E/DX2 analytically  !
 ! A43   A(16,18,64)           111.0683         calculate D2E/DX2 analytically  !
 ! A44   A(37,18,64)            93.1436         calculate D2E/DX2 analytically  !
 ! A45   A(16,19,37)            89.937          calculate D2E/DX2 analytically  !
 ! A46   A(16,19,38)           109.7373         calculate D2E/DX2 analytically  !
 ! A47   A(16,19,83)           128.108          calculate D2E/DX2 analytically  !
 ! A48   A(16,19,87)           124.1049         calculate D2E/DX2 analytically  !
 ! A49   A(37,19,38)            70.7119         calculate D2E/DX2 analytically  !
 ! A50   A(37,19,83)            93.0717         calculate D2E/DX2 analytically  !
 ! A51   A(37,19,87)           140.4376         calculate D2E/DX2 analytically  !
 ! A52   A(38,19,83)           120.0609         calculate D2E/DX2 analytically  !
 ! A53   A(38,19,87)            78.3323         calculate D2E/DX2 analytically  !
 ! A54   A(83,19,87)            81.4665         calculate D2E/DX2 analytically  !
 ! A55   A(13,20,21)           111.2549         calculate D2E/DX2 analytically  !
 ! A56   A(13,20,22)           111.5254         calculate D2E/DX2 analytically  !
 ! A57   A(13,20,23)           106.7577         calculate D2E/DX2 analytically  !
 ! A58   A(21,20,22)           108.9515         calculate D2E/DX2 analytically  !
 ! A59   A(21,20,23)           108.8475         calculate D2E/DX2 analytically  !
 ! A60   A(22,20,23)           109.4409         calculate D2E/DX2 analytically  !
 ! A61   A(14,24,25)           110.9433         calculate D2E/DX2 analytically  !
 ! A62   A(14,24,26)           111.2942         calculate D2E/DX2 analytically  !
 ! A63   A(14,24,27)           106.5054         calculate D2E/DX2 analytically  !
 ! A64   A(25,24,26)           109.0702         calculate D2E/DX2 analytically  !
 ! A65   A(25,24,27)           109.1878         calculate D2E/DX2 analytically  !
 ! A66   A(26,24,27)           109.7935         calculate D2E/DX2 analytically  !
 ! A67   A(15,28,29)           111.3615         calculate D2E/DX2 analytically  !
 ! A68   A(15,28,30)           111.0921         calculate D2E/DX2 analytically  !
 ! A69   A(15,28,31)           106.2854         calculate D2E/DX2 analytically  !
 ! A70   A(29,28,30)           109.6183         calculate D2E/DX2 analytically  !
 ! A71   A(29,28,31)           109.7219         calculate D2E/DX2 analytically  !
 ! A72   A(30,28,31)           108.6727         calculate D2E/DX2 analytically  !
 ! A73   A(33,32,36)           108.7948         calculate D2E/DX2 analytically  !
 ! A74   A(33,32,39)           109.8929         calculate D2E/DX2 analytically  !
 ! A75   A(33,32,45)           109.5496         calculate D2E/DX2 analytically  !
 ! A76   A(36,32,39)           109.2066         calculate D2E/DX2 analytically  !
 ! A77   A(36,32,45)           108.667          calculate D2E/DX2 analytically  !
 ! A78   A(39,32,45)           110.6929         calculate D2E/DX2 analytically  !
 ! A79   A(32,33,34)           111.224          calculate D2E/DX2 analytically  !
 ! A80   A(32,33,38)           108.7298         calculate D2E/DX2 analytically  !
 ! A81   A(32,33,44)           112.2505         calculate D2E/DX2 analytically  !
 ! A82   A(34,33,38)           103.3415         calculate D2E/DX2 analytically  !
 ! A83   A(34,33,44)           110.249          calculate D2E/DX2 analytically  !
 ! A84   A(38,33,44)           110.6821         calculate D2E/DX2 analytically  !
 ! A85   A(33,34,37)           119.8329         calculate D2E/DX2 analytically  !
 ! A86   A(33,34,42)           120.7026         calculate D2E/DX2 analytically  !
 ! A87   A(33,34,53)            93.9813         calculate D2E/DX2 analytically  !
 ! A88   A(37,34,42)           114.3424         calculate D2E/DX2 analytically  !
 ! A89   A(37,34,53)            96.3055         calculate D2E/DX2 analytically  !
 ! A90   A(42,34,53)           102.5397         calculate D2E/DX2 analytically  !
 ! A91   A(36,35,40)           109.4482         calculate D2E/DX2 analytically  !
 ! A92   A(36,35,42)           112.6116         calculate D2E/DX2 analytically  !
 ! A93   A(36,35,47)           110.9054         calculate D2E/DX2 analytically  !
 ! A94   A(40,35,42)           105.8415         calculate D2E/DX2 analytically  !
 ! A95   A(40,35,47)           112.1231         calculate D2E/DX2 analytically  !
 ! A96   A(42,35,47)           105.7998         calculate D2E/DX2 analytically  !
 ! A97   A(32,36,35)           112.0591         calculate D2E/DX2 analytically  !
 ! A98   A(32,36,41)           108.0293         calculate D2E/DX2 analytically  !
 ! A99   A(32,36,46)           112.4519         calculate D2E/DX2 analytically  !
 ! A100  A(35,36,41)           108.9185         calculate D2E/DX2 analytically  !
 ! A101  A(35,36,46)           105.0187         calculate D2E/DX2 analytically  !
 ! A102  A(41,36,46)           110.3191         calculate D2E/DX2 analytically  !
 ! A103  A(18,37,19)            54.8411         calculate D2E/DX2 analytically  !
 ! A104  A(18,37,34)           124.1728         calculate D2E/DX2 analytically  !
 ! A105  A(19,37,34)            84.8035         calculate D2E/DX2 analytically  !
 ! A106  A(19,38,33)           111.256          calculate D2E/DX2 analytically  !
 ! A107  A(34,42,35)           119.882          calculate D2E/DX2 analytically  !
 ! A108  A(33,44,63)           113.9607         calculate D2E/DX2 analytically  !
 ! A109  A(32,45,67)           113.747          calculate D2E/DX2 analytically  !
 ! A110  A(36,46,71)           114.5794         calculate D2E/DX2 analytically  !
 ! A111  A(35,47,48)           109.187          calculate D2E/DX2 analytically  !
 ! A112  A(35,47,49)           108.6631         calculate D2E/DX2 analytically  !
 ! A113  A(35,47,50)           113.7387         calculate D2E/DX2 analytically  !
 ! A114  A(48,47,49)           109.044          calculate D2E/DX2 analytically  !
 ! A115  A(48,47,50)           104.9515         calculate D2E/DX2 analytically  !
 ! A116  A(49,47,50)           111.1199         calculate D2E/DX2 analytically  !
 ! A117  A(47,50,75)           113.8058         calculate D2E/DX2 analytically  !
 ! A118  A(43,51,52)           116.6111         calculate D2E/DX2 analytically  !
 ! A119  A(43,51,53)           112.4692         calculate D2E/DX2 analytically  !
 ! A120  A(43,51,54)           105.6958         calculate D2E/DX2 analytically  !
 ! A121  A(52,51,53)           109.519          calculate D2E/DX2 analytically  !
 ! A122  A(52,51,54)           108.0273         calculate D2E/DX2 analytically  !
 ! A123  A(53,51,54)           103.5195         calculate D2E/DX2 analytically  !
 ! A124  A(34,53,51)           120.1297         calculate D2E/DX2 analytically  !
 ! A125  A(51,54,55)           118.2589         calculate D2E/DX2 analytically  !
 ! A126  A(51,54,56)           120.5028         calculate D2E/DX2 analytically  !
 ! A127  A(55,54,56)           121.2381         calculate D2E/DX2 analytically  !
 ! A128  A(54,55,57)           119.2705         calculate D2E/DX2 analytically  !
 ! A129  A(54,55,58)           120.028          calculate D2E/DX2 analytically  !
 ! A130  A(57,55,58)           120.6797         calculate D2E/DX2 analytically  !
 ! A131  A(54,56,59)           118.6354         calculate D2E/DX2 analytically  !
 ! A132  A(54,56,60)           120.3045         calculate D2E/DX2 analytically  !
 ! A133  A(59,56,60)           121.026          calculate D2E/DX2 analytically  !
 ! A134  A(55,57,61)           120.5074         calculate D2E/DX2 analytically  !
 ! A135  A(55,57,93)           118.5086         calculate D2E/DX2 analytically  !
 ! A136  A(61,57,93)           120.9615         calculate D2E/DX2 analytically  !
 ! A137  A(56,59,61)           120.949          calculate D2E/DX2 analytically  !
 ! A138  A(56,59,97)           120.2927         calculate D2E/DX2 analytically  !
 ! A139  A(61,59,97)           118.6608         calculate D2E/DX2 analytically  !
 ! A140  A(57,61,59)           119.3845         calculate D2E/DX2 analytically  !
 ! A141  A(57,61,62)           120.216          calculate D2E/DX2 analytically  !
 ! A142  A(59,61,62)           120.3924         calculate D2E/DX2 analytically  !
 ! A143  A(44,63,64)           111.356          calculate D2E/DX2 analytically  !
 ! A144  A(44,63,65)           110.9171         calculate D2E/DX2 analytically  !
 ! A145  A(44,63,66)           106.2395         calculate D2E/DX2 analytically  !
 ! A146  A(64,63,65)           109.5308         calculate D2E/DX2 analytically  !
 ! A147  A(64,63,66)           109.1658         calculate D2E/DX2 analytically  !
 ! A148  A(65,63,66)           109.5597         calculate D2E/DX2 analytically  !
 ! A149  A(18,64,63)           136.7989         calculate D2E/DX2 analytically  !
 ! A150  A(45,67,68)           111.014          calculate D2E/DX2 analytically  !
 ! A151  A(45,67,69)           111.4081         calculate D2E/DX2 analytically  !
 ! A152  A(45,67,70)           106.5687         calculate D2E/DX2 analytically  !
 ! A153  A(68,67,69)           109.083          calculate D2E/DX2 analytically  !
 ! A154  A(68,67,70)           109.1553         calculate D2E/DX2 analytically  !
 ! A155  A(69,67,70)           109.5582         calculate D2E/DX2 analytically  !
 ! A156  A(46,71,72)           111.3492         calculate D2E/DX2 analytically  !
 ! A157  A(46,71,73)           110.9157         calculate D2E/DX2 analytically  !
 ! A158  A(46,71,74)           106.3589         calculate D2E/DX2 analytically  !
 ! A159  A(72,71,73)           109.1719         calculate D2E/DX2 analytically  !
 ! A160  A(72,71,74)           109.9313         calculate D2E/DX2 analytically  !
 ! A161  A(73,71,74)           109.0599         calculate D2E/DX2 analytically  !
 ! A162  A(50,75,76)           106.4413         calculate D2E/DX2 analytically  !
 ! A163  A(50,75,77)           111.5331         calculate D2E/DX2 analytically  !
 ! A164  A(50,75,78)           110.2594         calculate D2E/DX2 analytically  !
 ! A165  A(76,75,77)           109.5068         calculate D2E/DX2 analytically  !
 ! A166  A(76,75,78)           109.1481         calculate D2E/DX2 analytically  !
 ! A167  A(77,75,78)           109.87           calculate D2E/DX2 analytically  !
 ! A168  A(12,79,80)           106.7424         calculate D2E/DX2 analytically  !
 ! A169  A(12,79,81)           111.4746         calculate D2E/DX2 analytically  !
 ! A170  A(12,79,82)           110.8834         calculate D2E/DX2 analytically  !
 ! A171  A(80,79,81)           109.5578         calculate D2E/DX2 analytically  !
 ! A172  A(80,79,82)           109.3161         calculate D2E/DX2 analytically  !
 ! A173  A(81,79,82)           108.8278         calculate D2E/DX2 analytically  !
 ! A174  A(19,83,84)            94.1789         calculate D2E/DX2 analytically  !
 ! A175  A(83,84,85)           114.6535         calculate D2E/DX2 analytically  !
 ! A176  A(83,84,89)           132.1002         calculate D2E/DX2 analytically  !
 ! A177  A(85,84,89)           113.2089         calculate D2E/DX2 analytically  !
 ! A178  A(84,85,86)           110.4387         calculate D2E/DX2 analytically  !
 ! A179  A(84,85,87)           105.6946         calculate D2E/DX2 analytically  !
 ! A180  A(84,85,88)           110.6203         calculate D2E/DX2 analytically  !
 ! A181  A(86,85,87)           110.6963         calculate D2E/DX2 analytically  !
 ! A182  A(86,85,88)           108.7526         calculate D2E/DX2 analytically  !
 ! A183  A(87,85,88)           110.6273         calculate D2E/DX2 analytically  !
 ! A184  A(19,87,85)           143.9659         calculate D2E/DX2 analytically  !
 ! A185  A(84,89,90)           110.9983         calculate D2E/DX2 analytically  !
 ! A186  A(84,89,91)           107.2094         calculate D2E/DX2 analytically  !
 ! A187  A(84,89,92)           110.9393         calculate D2E/DX2 analytically  !
 ! A188  A(90,89,91)           109.6185         calculate D2E/DX2 analytically  !
 ! A189  A(90,89,92)           108.8135         calculate D2E/DX2 analytically  !
 ! A190  A(91,89,92)           109.2324         calculate D2E/DX2 analytically  !
 ! A191  A(57,93,94)           111.1041         calculate D2E/DX2 analytically  !
 ! A192  A(57,93,95)           112.7368         calculate D2E/DX2 analytically  !
 ! A193  A(57,93,96)           111.4253         calculate D2E/DX2 analytically  !
 ! A194  A(94,93,95)           106.897          calculate D2E/DX2 analytically  !
 ! A195  A(94,93,96)           106.5038         calculate D2E/DX2 analytically  !
 ! A196  A(95,93,96)           107.8567         calculate D2E/DX2 analytically  !
 ! A197  A(59,97,98)           111.7111         calculate D2E/DX2 analytically  !
 ! A198  A(59,97,99)           112.3852         calculate D2E/DX2 analytically  !
 ! A199  A(59,97,100)          110.893          calculate D2E/DX2 analytically  !
 ! A200  A(98,97,99)           107.7741         calculate D2E/DX2 analytically  !
 ! A201  A(98,97,100)          106.6786         calculate D2E/DX2 analytically  !
 ! A202  A(99,97,100)          107.109          calculate D2E/DX2 analytically  !
 ! D1    D(5,1,2,3)            -55.3203         calculate D2E/DX2 analytically  !
 ! D2    D(5,1,2,7)             60.6608         calculate D2E/DX2 analytically  !
 ! D3    D(5,1,2,13)          -177.4438         calculate D2E/DX2 analytically  !
 ! D4    D(8,1,2,3)             63.1473         calculate D2E/DX2 analytically  !
 ! D5    D(8,1,2,7)            179.1284         calculate D2E/DX2 analytically  !
 ! D6    D(8,1,2,13)           -58.9763         calculate D2E/DX2 analytically  !
 ! D7    D(14,1,2,3)          -176.9262         calculate D2E/DX2 analytically  !
 ! D8    D(14,1,2,7)           -60.9452         calculate D2E/DX2 analytically  !
 ! D9    D(14,1,2,13)           60.9502         calculate D2E/DX2 analytically  !
 ! D10   D(2,1,5,4)             46.6928         calculate D2E/DX2 analytically  !
 ! D11   D(2,1,5,10)           -73.9892         calculate D2E/DX2 analytically  !
 ! D12   D(2,1,5,15)           166.6317         calculate D2E/DX2 analytically  !
 ! D13   D(8,1,5,4)            -72.3048         calculate D2E/DX2 analytically  !
 ! D14   D(8,1,5,10)           167.0132         calculate D2E/DX2 analytically  !
 ! D15   D(8,1,5,15)            47.634          calculate D2E/DX2 analytically  !
 ! D16   D(14,1,5,4)           168.2401         calculate D2E/DX2 analytically  !
 ! D17   D(14,1,5,10)           47.5582         calculate D2E/DX2 analytically  !
 ! D18   D(14,1,5,15)          -71.821          calculate D2E/DX2 analytically  !
 ! D19   D(2,1,14,24)         -101.2716         calculate D2E/DX2 analytically  !
 ! D20   D(5,1,14,24)          136.1781         calculate D2E/DX2 analytically  !
 ! D21   D(8,1,14,24)           17.9636         calculate D2E/DX2 analytically  !
 ! D22   D(1,2,3,6)            176.4211         calculate D2E/DX2 analytically  !
 ! D23   D(1,2,3,11)            61.2113         calculate D2E/DX2 analytically  !
 ! D24   D(1,2,3,12)           -62.1783         calculate D2E/DX2 analytically  !
 ! D25   D(7,2,3,6)             58.8375         calculate D2E/DX2 analytically  !
 ! D26   D(7,2,3,11)           -56.3723         calculate D2E/DX2 analytically  !
 ! D27   D(7,2,3,12)          -179.7618         calculate D2E/DX2 analytically  !
 ! D28   D(13,2,3,6)           -60.9472         calculate D2E/DX2 analytically  !
 ! D29   D(13,2,3,11)         -176.157          calculate D2E/DX2 analytically  !
 ! D30   D(13,2,3,12)           60.4534         calculate D2E/DX2 analytically  !
 ! D31   D(1,2,13,20)         -106.8257         calculate D2E/DX2 analytically  !
 ! D32   D(3,2,13,20)          131.7806         calculate D2E/DX2 analytically  !
 ! D33   D(7,2,13,20)           14.3201         calculate D2E/DX2 analytically  !
 ! D34   D(2,3,11,4)           -61.9131         calculate D2E/DX2 analytically  !
 ! D35   D(6,3,11,4)           179.1158         calculate D2E/DX2 analytically  !
 ! D36   D(12,3,11,4)           58.6948         calculate D2E/DX2 analytically  !
 ! D37   D(2,3,12,79)         -174.4178         calculate D2E/DX2 analytically  !
 ! D38   D(6,3,12,79)          -52.5794         calculate D2E/DX2 analytically  !
 ! D39   D(11,3,12,79)          64.8467         calculate D2E/DX2 analytically  !
 ! D40   D(9,4,5,1)             77.2767         calculate D2E/DX2 analytically  !
 ! D41   D(9,4,5,10)          -162.1946         calculate D2E/DX2 analytically  !
 ! D42   D(9,4,5,15)           -43.4956         calculate D2E/DX2 analytically  !
 ! D43   D(11,4,5,1)           -43.3312         calculate D2E/DX2 analytically  !
 ! D44   D(11,4,5,10)           77.1975         calculate D2E/DX2 analytically  !
 ! D45   D(11,4,5,15)         -164.1035         calculate D2E/DX2 analytically  !
 ! D46   D(16,4,5,1)          -160.563          calculate D2E/DX2 analytically  !
 ! D47   D(16,4,5,10)          -40.0342         calculate D2E/DX2 analytically  !
 ! D48   D(16,4,5,15)           78.6647         calculate D2E/DX2 analytically  !
 ! D49   D(5,4,11,3)            52.9023         calculate D2E/DX2 analytically  !
 ! D50   D(9,4,11,3)           -66.6429         calculate D2E/DX2 analytically  !
 ! D51   D(16,4,11,3)          176.4313         calculate D2E/DX2 analytically  !
 ! D52   D(5,4,16,17)          168.1565         calculate D2E/DX2 analytically  !
 ! D53   D(5,4,16,18)           58.527          calculate D2E/DX2 analytically  !
 ! D54   D(5,4,16,19)          -66.4087         calculate D2E/DX2 analytically  !
 ! D55   D(9,4,16,17)          -70.724          calculate D2E/DX2 analytically  !
 ! D56   D(9,4,16,18)          179.6465         calculate D2E/DX2 analytically  !
 ! D57   D(9,4,16,19)           54.7108         calculate D2E/DX2 analytically  !
 ! D58   D(11,4,16,17)          46.1509         calculate D2E/DX2 analytically  !
 ! D59   D(11,4,16,18)         -63.4786         calculate D2E/DX2 analytically  !
 ! D60   D(11,4,16,19)         171.5857         calculate D2E/DX2 analytically  !
 ! D61   D(1,5,15,28)           84.7035         calculate D2E/DX2 analytically  !
 ! D62   D(4,5,15,28)         -152.8238         calculate D2E/DX2 analytically  !
 ! D63   D(10,5,15,28)         -34.3216         calculate D2E/DX2 analytically  !
 ! D64   D(3,12,79,80)         176.9622         calculate D2E/DX2 analytically  !
 ! D65   D(3,12,79,81)         -63.4342         calculate D2E/DX2 analytically  !
 ! D66   D(3,12,79,82)          57.9837         calculate D2E/DX2 analytically  !
 ! D67   D(2,13,20,21)         -62.5015         calculate D2E/DX2 analytically  !
 ! D68   D(2,13,20,22)          59.3702         calculate D2E/DX2 analytically  !
 ! D69   D(2,13,20,23)         178.87           calculate D2E/DX2 analytically  !
 ! D70   D(1,14,24,25)         -65.0936         calculate D2E/DX2 analytically  !
 ! D71   D(1,14,24,26)          56.551          calculate D2E/DX2 analytically  !
 ! D72   D(1,14,24,27)         176.1917         calculate D2E/DX2 analytically  !
 ! D73   D(5,15,28,29)         -46.4945         calculate D2E/DX2 analytically  !
 ! D74   D(5,15,28,30)          76.0034         calculate D2E/DX2 analytically  !
 ! D75   D(5,15,28,31)        -165.9507         calculate D2E/DX2 analytically  !
 ! D76   D(4,16,18,37)        -103.514          calculate D2E/DX2 analytically  !
 ! D77   D(4,16,18,64)         160.5566         calculate D2E/DX2 analytically  !
 ! D78   D(17,16,18,37)        146.7561         calculate D2E/DX2 analytically  !
 ! D79   D(17,16,18,64)         50.8267         calculate D2E/DX2 analytically  !
 ! D80   D(19,16,18,37)         23.0817         calculate D2E/DX2 analytically  !
 ! D81   D(19,16,18,64)        -72.8477         calculate D2E/DX2 analytically  !
 ! D82   D(4,16,19,37)          97.5565         calculate D2E/DX2 analytically  !
 ! D83   D(4,16,19,38)         166.9879         calculate D2E/DX2 analytically  !
 ! D84   D(4,16,19,83)           3.7011         calculate D2E/DX2 analytically  !
 ! D85   D(4,16,19,87)        -103.959          calculate D2E/DX2 analytically  !
 ! D86   D(17,16,19,37)       -141.6309         calculate D2E/DX2 analytically  !
 ! D87   D(17,16,19,38)        -72.1995         calculate D2E/DX2 analytically  !
 ! D88   D(17,16,19,83)        124.5137         calculate D2E/DX2 analytically  !
 ! D89   D(17,16,19,87)         16.8536         calculate D2E/DX2 analytically  !
 ! D90   D(18,16,19,37)        -23.005          calculate D2E/DX2 analytically  !
 ! D91   D(18,16,19,38)         46.4264         calculate D2E/DX2 analytically  !
 ! D92   D(18,16,19,83)       -116.8604         calculate D2E/DX2 analytically  !
 ! D93   D(18,16,19,87)        135.4795         calculate D2E/DX2 analytically  !
 ! D94   D(16,18,37,19)        -15.5545         calculate D2E/DX2 analytically  !
 ! D95   D(16,18,37,34)        -67.8139         calculate D2E/DX2 analytically  !
 ! D96   D(64,18,37,19)         96.0794         calculate D2E/DX2 analytically  !
 ! D97   D(64,18,37,34)         43.82           calculate D2E/DX2 analytically  !
 ! D98   D(16,18,64,63)        114.5089         calculate D2E/DX2 analytically  !
 ! D99   D(37,18,64,63)         16.2663         calculate D2E/DX2 analytically  !
 ! D100  D(16,19,37,18)         12.5955         calculate D2E/DX2 analytically  !
 ! D101  D(16,19,37,34)        151.5272         calculate D2E/DX2 analytically  !
 ! D102  D(38,19,37,18)        -98.3927         calculate D2E/DX2 analytically  !
 ! D103  D(38,19,37,34)         40.539          calculate D2E/DX2 analytically  !
 ! D104  D(83,19,37,18)        140.7639         calculate D2E/DX2 analytically  !
 ! D105  D(83,19,37,34)        -80.3044         calculate D2E/DX2 analytically  !
 ! D106  D(87,19,37,18)       -138.9285         calculate D2E/DX2 analytically  !
 ! D107  D(87,19,37,34)          0.0032         calculate D2E/DX2 analytically  !
 ! D108  D(16,19,38,33)        -93.5317         calculate D2E/DX2 analytically  !
 ! D109  D(37,19,38,33)        -10.8164         calculate D2E/DX2 analytically  !
 ! D110  D(83,19,38,33)         71.3122         calculate D2E/DX2 analytically  !
 ! D111  D(87,19,38,33)        144.1796         calculate D2E/DX2 analytically  !
 ! D112  D(16,19,83,84)       -126.3334         calculate D2E/DX2 analytically  !
 ! D113  D(37,19,83,84)        141.3346         calculate D2E/DX2 analytically  !
 ! D114  D(38,19,83,84)         71.8919         calculate D2E/DX2 analytically  !
 ! D115  D(87,19,83,84)          0.7438         calculate D2E/DX2 analytically  !
 ! D116  D(16,19,87,85)        131.0762         calculate D2E/DX2 analytically  !
 ! D117  D(37,19,87,85)        -84.0812         calculate D2E/DX2 analytically  !
 ! D118  D(38,19,87,85)       -122.8652         calculate D2E/DX2 analytically  !
 ! D119  D(83,19,87,85)          0.3785         calculate D2E/DX2 analytically  !
 ! D120  D(36,32,33,34)        -49.4086         calculate D2E/DX2 analytically  !
 ! D121  D(36,32,33,38)         63.7367         calculate D2E/DX2 analytically  !
 ! D122  D(36,32,33,44)       -173.4671         calculate D2E/DX2 analytically  !
 ! D123  D(39,32,33,34)         70.11           calculate D2E/DX2 analytically  !
 ! D124  D(39,32,33,38)       -176.7448         calculate D2E/DX2 analytically  !
 ! D125  D(39,32,33,44)        -53.9486         calculate D2E/DX2 analytically  !
 ! D126  D(45,32,33,34)       -168.0695         calculate D2E/DX2 analytically  !
 ! D127  D(45,32,33,38)        -54.9242         calculate D2E/DX2 analytically  !
 ! D128  D(45,32,33,44)         67.872          calculate D2E/DX2 analytically  !
 ! D129  D(33,32,36,35)         54.8233         calculate D2E/DX2 analytically  !
 ! D130  D(33,32,36,41)        -65.1628         calculate D2E/DX2 analytically  !
 ! D131  D(33,32,36,46)        172.8567         calculate D2E/DX2 analytically  !
 ! D132  D(39,32,36,35)        -65.1219         calculate D2E/DX2 analytically  !
 ! D133  D(39,32,36,41)        174.8919         calculate D2E/DX2 analytically  !
 ! D134  D(39,32,36,46)         52.9115         calculate D2E/DX2 analytically  !
 ! D135  D(45,32,36,35)        174.0373         calculate D2E/DX2 analytically  !
 ! D136  D(45,32,36,41)         54.0511         calculate D2E/DX2 analytically  !
 ! D137  D(45,32,36,46)        -67.9293         calculate D2E/DX2 analytically  !
 ! D138  D(33,32,45,67)       -101.5855         calculate D2E/DX2 analytically  !
 ! D139  D(36,32,45,67)        139.6744         calculate D2E/DX2 analytically  !
 ! D140  D(39,32,45,67)         19.7539         calculate D2E/DX2 analytically  !
 ! D141  D(32,33,34,37)       -165.0565         calculate D2E/DX2 analytically  !
 ! D142  D(32,33,34,42)         41.6715         calculate D2E/DX2 analytically  !
 ! D143  D(32,33,34,53)        -65.4532         calculate D2E/DX2 analytically  !
 ! D144  D(38,33,34,37)         78.4481         calculate D2E/DX2 analytically  !
 ! D145  D(38,33,34,42)        -74.8239         calculate D2E/DX2 analytically  !
 ! D146  D(38,33,34,53)        178.0515         calculate D2E/DX2 analytically  !
 ! D147  D(44,33,34,37)        -39.8706         calculate D2E/DX2 analytically  !
 ! D148  D(44,33,34,42)        166.8574         calculate D2E/DX2 analytically  !
 ! D149  D(44,33,34,53)         59.7328         calculate D2E/DX2 analytically  !
 ! D150  D(32,33,38,19)       -132.1755         calculate D2E/DX2 analytically  !
 ! D151  D(34,33,38,19)        -13.9287         calculate D2E/DX2 analytically  !
 ! D152  D(44,33,38,19)        104.0882         calculate D2E/DX2 analytically  !
 ! D153  D(32,33,44,63)       -115.0761         calculate D2E/DX2 analytically  !
 ! D154  D(34,33,44,63)        120.3248         calculate D2E/DX2 analytically  !
 ! D155  D(38,33,44,63)          6.6115         calculate D2E/DX2 analytically  !
 ! D156  D(33,34,37,18)        -38.3634         calculate D2E/DX2 analytically  !
 ! D157  D(33,34,37,19)        -78.8435         calculate D2E/DX2 analytically  !
 ! D158  D(42,34,37,18)        116.521          calculate D2E/DX2 analytically  !
 ! D159  D(42,34,37,19)         76.0408         calculate D2E/DX2 analytically  !
 ! D160  D(53,34,37,18)       -136.6365         calculate D2E/DX2 analytically  !
 ! D161  D(53,34,37,19)       -177.1166         calculate D2E/DX2 analytically  !
 ! D162  D(33,34,42,35)        -35.9718         calculate D2E/DX2 analytically  !
 ! D163  D(37,34,42,35)        169.3831         calculate D2E/DX2 analytically  !
 ! D164  D(53,34,42,35)         66.4321         calculate D2E/DX2 analytically  !
 ! D165  D(33,34,53,51)       -167.9637         calculate D2E/DX2 analytically  !
 ! D166  D(37,34,53,51)        -47.3397         calculate D2E/DX2 analytically  !
 ! D167  D(42,34,53,51)         69.366          calculate D2E/DX2 analytically  !
 ! D168  D(40,35,36,32)         69.3811         calculate D2E/DX2 analytically  !
 ! D169  D(40,35,36,41)       -171.153          calculate D2E/DX2 analytically  !
 ! D170  D(40,35,36,46)        -52.9878         calculate D2E/DX2 analytically  !
 ! D171  D(42,35,36,32)        -48.0489         calculate D2E/DX2 analytically  !
 ! D172  D(42,35,36,41)         71.4169         calculate D2E/DX2 analytically  !
 ! D173  D(42,35,36,46)       -170.4178         calculate D2E/DX2 analytically  !
 ! D174  D(47,35,36,32)       -166.3967         calculate D2E/DX2 analytically  !
 ! D175  D(47,35,36,41)        -46.9309         calculate D2E/DX2 analytically  !
 ! D176  D(47,35,36,46)         71.2344         calculate D2E/DX2 analytically  !
 ! D177  D(36,35,42,34)         38.0366         calculate D2E/DX2 analytically  !
 ! D178  D(40,35,42,34)        -81.5079         calculate D2E/DX2 analytically  !
 ! D179  D(47,35,42,34)        159.34           calculate D2E/DX2 analytically  !
 ! D180  D(36,35,47,48)         38.3472         calculate D2E/DX2 analytically  !
 ! D181  D(36,35,47,49)        -80.4817         calculate D2E/DX2 analytically  !
 ! D182  D(36,35,47,50)        155.1845         calculate D2E/DX2 analytically  !
 ! D183  D(40,35,47,48)        161.0324         calculate D2E/DX2 analytically  !
 ! D184  D(40,35,47,49)         42.2035         calculate D2E/DX2 analytically  !
 ! D185  D(40,35,47,50)        -82.1302         calculate D2E/DX2 analytically  !
 ! D186  D(42,35,47,48)        -84.0524         calculate D2E/DX2 analytically  !
 ! D187  D(42,35,47,49)        157.1187         calculate D2E/DX2 analytically  !
 ! D188  D(42,35,47,50)         32.7849         calculate D2E/DX2 analytically  !
 ! D189  D(32,36,46,71)         94.0838         calculate D2E/DX2 analytically  !
 ! D190  D(35,36,46,71)       -143.8021         calculate D2E/DX2 analytically  !
 ! D191  D(41,36,46,71)        -26.5882         calculate D2E/DX2 analytically  !
 ! D192  D(33,44,63,64)        -63.2761         calculate D2E/DX2 analytically  !
 ! D193  D(33,44,63,65)         58.9819         calculate D2E/DX2 analytically  !
 ! D194  D(33,44,63,66)        177.9701         calculate D2E/DX2 analytically  !
 ! D195  D(32,45,67,68)        -62.7946         calculate D2E/DX2 analytically  !
 ! D196  D(32,45,67,69)         58.9944         calculate D2E/DX2 analytically  !
 ! D197  D(32,45,67,70)        178.453          calculate D2E/DX2 analytically  !
 ! D198  D(36,46,71,72)        -62.0874         calculate D2E/DX2 analytically  !
 ! D199  D(36,46,71,73)         59.7058         calculate D2E/DX2 analytically  !
 ! D200  D(36,46,71,74)        178.1645         calculate D2E/DX2 analytically  !
 ! D201  D(35,47,50,75)         69.309          calculate D2E/DX2 analytically  !
 ! D202  D(48,47,50,75)       -171.4129         calculate D2E/DX2 analytically  !
 ! D203  D(49,47,50,75)        -53.69           calculate D2E/DX2 analytically  !
 ! D204  D(47,50,75,76)        173.1865         calculate D2E/DX2 analytically  !
 ! D205  D(47,50,75,77)        -67.4258         calculate D2E/DX2 analytically  !
 ! D206  D(47,50,75,78)         54.9266         calculate D2E/DX2 analytically  !
 ! D207  D(43,51,53,34)        -52.8658         calculate D2E/DX2 analytically  !
 ! D208  D(52,51,53,34)        175.7658         calculate D2E/DX2 analytically  !
 ! D209  D(54,51,53,34)         60.7461         calculate D2E/DX2 analytically  !
 ! D210  D(43,51,54,55)        -38.6536         calculate D2E/DX2 analytically  !
 ! D211  D(43,51,54,56)        141.5296         calculate D2E/DX2 analytically  !
 ! D212  D(52,51,54,55)         86.8501         calculate D2E/DX2 analytically  !
 ! D213  D(52,51,54,56)        -92.9667         calculate D2E/DX2 analytically  !
 ! D214  D(53,51,54,55)       -157.0696         calculate D2E/DX2 analytically  !
 ! D215  D(53,51,54,56)         23.1136         calculate D2E/DX2 analytically  !
 ! D216  D(51,54,55,57)       -179.4861         calculate D2E/DX2 analytically  !
 ! D217  D(51,54,55,58)          2.2021         calculate D2E/DX2 analytically  !
 ! D218  D(56,54,55,57)          0.3294         calculate D2E/DX2 analytically  !
 ! D219  D(56,54,55,58)       -177.9825         calculate D2E/DX2 analytically  !
 ! D220  D(51,54,56,59)       -179.4851         calculate D2E/DX2 analytically  !
 ! D221  D(51,54,56,60)         -1.5872         calculate D2E/DX2 analytically  !
 ! D222  D(55,54,56,59)          0.7036         calculate D2E/DX2 analytically  !
 ! D223  D(55,54,56,60)        178.6015         calculate D2E/DX2 analytically  !
 ! D224  D(54,55,57,61)         -0.6776         calculate D2E/DX2 analytically  !
 ! D225  D(54,55,57,93)        177.6149         calculate D2E/DX2 analytically  !
 ! D226  D(58,55,57,61)        177.623          calculate D2E/DX2 analytically  !
 ! D227  D(58,55,57,93)         -4.0845         calculate D2E/DX2 analytically  !
 ! D228  D(54,56,59,61)         -1.4134         calculate D2E/DX2 analytically  !
 ! D229  D(54,56,59,97)        174.9489         calculate D2E/DX2 analytically  !
 ! D230  D(60,56,59,61)       -179.2955         calculate D2E/DX2 analytically  !
 ! D231  D(60,56,59,97)         -2.9332         calculate D2E/DX2 analytically  !
 ! D232  D(55,57,61,59)         -0.0164         calculate D2E/DX2 analytically  !
 ! D233  D(55,57,61,62)       -179.0491         calculate D2E/DX2 analytically  !
 ! D234  D(93,57,61,59)       -178.2666         calculate D2E/DX2 analytically  !
 ! D235  D(93,57,61,62)          2.7007         calculate D2E/DX2 analytically  !
 ! D236  D(55,57,93,94)        -76.3842         calculate D2E/DX2 analytically  !
 ! D237  D(55,57,93,95)        163.6464         calculate D2E/DX2 analytically  !
 ! D238  D(55,57,93,96)         42.2069         calculate D2E/DX2 analytically  !
 ! D239  D(61,57,93,94)        101.9002         calculate D2E/DX2 analytically  !
 ! D240  D(61,57,93,95)        -18.0691         calculate D2E/DX2 analytically  !
 ! D241  D(61,57,93,96)       -139.5087         calculate D2E/DX2 analytically  !
 ! D242  D(56,59,61,57)          1.0806         calculate D2E/DX2 analytically  !
 ! D243  D(56,59,61,62)       -179.8884         calculate D2E/DX2 analytically  !
 ! D244  D(97,59,61,57)       -175.3398         calculate D2E/DX2 analytically  !
 ! D245  D(97,59,61,62)          3.6911         calculate D2E/DX2 analytically  !
 ! D246  D(56,59,97,98)        136.2005         calculate D2E/DX2 analytically  !
 ! D247  D(56,59,97,99)         14.9121         calculate D2E/DX2 analytically  !
 ! D248  D(56,59,97,100)      -104.9409         calculate D2E/DX2 analytically  !
 ! D249  D(61,59,97,98)        -47.3548         calculate D2E/DX2 analytically  !
 ! D250  D(61,59,97,99)       -168.6432         calculate D2E/DX2 analytically  !
 ! D251  D(61,59,97,100)        71.5038         calculate D2E/DX2 analytically  !
 ! D252  D(44,63,64,18)        -11.1976         calculate D2E/DX2 analytically  !
 ! D253  D(65,63,64,18)       -134.2524         calculate D2E/DX2 analytically  !
 ! D254  D(66,63,64,18)        105.7898         calculate D2E/DX2 analytically  !
 ! D255  D(19,83,84,85)         -1.9072         calculate D2E/DX2 analytically  !
 ! D256  D(19,83,84,89)       -179.4896         calculate D2E/DX2 analytically  !
 ! D257  D(83,84,85,86)       -117.7021         calculate D2E/DX2 analytically  !
 ! D258  D(83,84,85,87)          2.0651         calculate D2E/DX2 analytically  !
 ! D259  D(83,84,85,88)        121.8475         calculate D2E/DX2 analytically  !
 ! D260  D(89,84,85,86)         60.3464         calculate D2E/DX2 analytically  !
 ! D261  D(89,84,85,87)       -179.8864         calculate D2E/DX2 analytically  !
 ! D262  D(89,84,85,88)        -60.104          calculate D2E/DX2 analytically  !
 ! D263  D(83,84,89,90)       -120.5635         calculate D2E/DX2 analytically  !
 ! D264  D(83,84,89,91)         -0.8687         calculate D2E/DX2 analytically  !
 ! D265  D(83,84,89,92)        118.3235         calculate D2E/DX2 analytically  !
 ! D266  D(85,84,89,90)         61.8271         calculate D2E/DX2 analytically  !
 ! D267  D(85,84,89,91)       -178.4781         calculate D2E/DX2 analytically  !
 ! D268  D(85,84,89,92)        -59.2858         calculate D2E/DX2 analytically  !
 ! D269  D(84,85,87,19)         -1.7962         calculate D2E/DX2 analytically  !
 ! D270  D(86,85,87,19)        117.8015         calculate D2E/DX2 analytically  !
 ! D271  D(88,85,87,19)       -121.574          calculate D2E/DX2 analytically  !
 --------------------------------------------------------------------------------
 Trust Radius=3.00D-02 FncErr=1.00D-07 GrdErr=1.00D-06 EigMax=2.50D+02 EigMin=1.00D-04
 Number of steps in this run=    589 maximum allowed number of steps=    600.
 Search for a saddle point of order  1.
 Step   0 in ReCalcFC=30 IGetFC= 4 compute analytic Hessian.
 GradGradGradGradGradGradGradGradGradGradGradGradGradGradGradGradGradGrad

 Leave Link  103 at Wed May  8 19:15:02 2019, MaxMem=  6442450944 cpu:               6.9 elap:               0.3
 (Enter /home/ekwan/sw/g16/l202.exe)
 Stoichiometry    C30H47F6NaO15S
 Framework group  C1[X(C30H47F6NaO15S)]
 Deg. of freedom   294
 Full point group                 C1      NOp   1
 Largest Abelian subgroup         C1      NOp   1
 Largest concise Abelian subgroup C1      NOp   1
                         Standard orientation:                         
 ---------------------------------------------------------------------
 Center     Atomic      Atomic             Coordinates (Angstroms)
 Number     Number       Type             X           Y           Z
 ---------------------------------------------------------------------
      1          6           0        3.101333    1.772620   -0.650334
      2          6           0        3.966071    1.875348    0.605001
      3          6           0        3.361848    2.910970    1.545379
      4          6           0        1.110783    2.355353    0.848292
      5          6           0        1.639346    1.460840   -0.297280
      6          1           0        3.924807    2.964226    2.487254
      7          1           0        3.938448    0.917518    1.137423
      8          1           0        3.121078    2.737634   -1.168768
      9          1           0        0.888357    3.345906    0.425544
     10          1           0        1.566654    0.408253    0.008008
     11          8           0        2.069433    2.489107    1.912669
     12          8           0        3.371461    4.158331    0.900444
     13          8           0        5.305103    2.221209    0.281367
     14          8           0        3.618334    0.753813   -1.507114
     15          8           0        0.810000    1.679841   -1.452126
     16          6           0       -0.143947    1.799877    1.560851
     17          1           0       -0.252490    2.430208    2.470733
     18          1           0        0.169618    0.800050    1.949046
     19          8           0       -1.277327    1.744584    0.801849
     20          6           0        6.219115    1.140631    0.418679
     21          1           0        6.269559    0.790901    1.460464
     22          1           0        5.945856    0.298766   -0.226281
     23          1           0        7.201473    1.519619    0.125493
     24          6           0        4.380337    1.254440   -2.599454
     25          1           0        3.749377    1.841216   -3.282662
     26          1           0        5.209389    1.879596   -2.252474
     27          1           0        4.770255    0.384886   -3.129523
     28          6           0        0.733448    0.571590   -2.362104
     29          1           0        1.720421    0.158916   -2.568844
     30          1           0        0.080497   -0.215476   -1.970504
     31          1           0        0.295942    0.962449   -3.285417
     32          6           0       -4.228803   -1.035776    1.192070
     33          6           0       -2.809290   -0.568618    1.524111
     34          6           0       -1.952681   -0.502460    0.285240
     35          6           0       -3.820461   -0.263599   -1.195151
     36          6           0       -4.758320   -0.208468    0.017585
     37          1           0       -0.884007   -0.427728    0.377223
     38          1           0       -2.851146    0.472888    1.858158
     39          1           0       -4.216581   -2.093139    0.910992
     40          1           0       -3.845897   -1.265647   -1.629346
     41          1           0       -4.849702    0.836383    0.350758
     42          8           0       -2.435210   -0.020889   -0.840331
     43          8           0       -1.130400   -2.399212   -2.363528
     44          8           0       -2.192318   -1.383203    2.503306
     45          8           0       -5.073664   -0.824440    2.314668
     46          8           0       -6.004921   -0.683347   -0.460380
     47          6           0       -4.186238    0.821950   -2.221645
     48          1           0       -4.475588    1.731927   -1.693575
     49          1           0       -5.036151    0.468761   -2.818231
     50          8           0       -3.104429    1.209503   -3.052777
     51         16           0       -1.057614   -3.046342   -1.037799
     52          8           0       -1.224502   -4.508333   -1.007775
     53          8           0       -2.006473   -2.400008   -0.015685
     54          6           0        0.577135   -2.659637   -0.396865
     55          6           0        1.649357   -2.659472   -1.283683
     56          6           0        0.757440   -2.372247    0.956422
     57          6           0        2.928173   -2.373043   -0.807196
     58          1           0        1.482198   -2.853320   -2.336729
     59          6           0        2.040261   -2.066959    1.409566
     60          1           0       -0.092277   -2.354422    1.629990
     61          6           0        3.131175   -2.076202    0.537562
     62          1           0        4.124238   -1.839335    0.899673
     63          6           0       -1.913193   -0.706094    3.728632
     64          1           0       -1.194051    0.107301    3.580236
     65          1           0       -2.832361   -0.306202    4.173108
     66          1           0       -1.478299   -1.451417    4.397043
     67          6           0       -5.334033   -2.005522    3.067010
     68          1           0       -5.870310   -2.748492    2.460901
     69          1           0       -4.407518   -2.452009    3.443599
     70          1           0       -5.964187   -1.706634    3.907995
     71          6           0       -7.142022   -0.034452    0.102991
     72          1           0       -7.193265   -0.188684    1.184372
     73          1           0       -7.122464    1.044535   -0.107315
     74          1           0       -8.017843   -0.475816   -0.378019
     75          6           0       -2.697773    0.198458   -3.980731
     76          1           0       -1.953531    0.659396   -4.633532
     77          1           0       -2.253105   -0.660888   -3.469195
     78          1           0       -3.553802   -0.129118   -4.585448
     79          6           0        2.943391    5.226296    1.738104
     80          1           0        3.043565    6.143529    1.154280
     81          1           0        1.899370    5.100202    2.047074
     82          1           0        3.573176    5.296394    2.636315
     83         11           0       -1.508077    2.236577   -1.310152
     84          8           0       -3.245333    3.723997   -0.948078
     85          6           0       -3.653943    3.841843    0.414181
     86          1           0       -4.699285    3.519892    0.530892
     87          1           0       -2.983575    3.190798    0.981355
     88          1           0       -3.564405    4.882200    0.756449
     89          6           0       -4.019462    4.517070   -1.834860
     90          1           0       -3.922837    5.584595   -1.594544
     91          1           0       -3.644578    4.332984   -2.843910
     92          1           0       -5.081561    4.237516   -1.786538
     93          6           0        4.082131   -2.430878   -1.769331
     94          9           0        4.435154   -3.711479   -2.030727
     95          9           0        5.182821   -1.808753   -1.300955
     96          9           0        3.762765   -1.869790   -2.958536
     97          6           0        2.259876   -1.641204    2.834913
     98          9           0        3.336835   -2.249352    3.377755
     99          9           0        1.196894   -1.908440    3.620248
    100          9           0        2.486958   -0.306134    2.911452
 ---------------------------------------------------------------------
 Rotational constants (GHZ):           0.0693459           0.0414204           0.0372667
 Leave Link  202 at Wed May  8 19:15:03 2019, MaxMem=  6442450944 cpu:              12.3 elap:               0.5
 (Enter /home/ekwan/sw/g16/l301.exe)
 Standard basis: 6-31G(d) (6D, 7F)
 Ernie: Thresh=  0.10000D-02 Tol=  0.10000D-05 Strict=F.
 There are   897 symmetry adapted cartesian basis functions of A   symmetry.
 There are   897 symmetry adapted basis functions of A   symmetry.
   897 basis functions,  1720 primitive gaussians,   897 cartesian basis functions
   214 alpha electrons      214 beta electrons
       nuclear repulsion energy      9845.8908258002 Hartrees.
 IExCor=  402 DFT=T Ex+Corr=B3LYP ExCW=0 ScaHFX=  0.200000
 ScaDFX=  0.800000  0.720000  1.000000  0.810000 ScalE2=  1.000000  1.000000
 IRadAn=      5 IRanWt=     -1 IRanGd=            0 ICorTp=0 IEmpDi=141
 NAtoms=  100 NActive=  100 NUniq=  100 SFac= 1.00D+00 NAtFMM=   60 NAOKFM=T Big=T
 Integral buffers will be    131072 words long.
 Raffenetti 2 integral format.
 Two-electron integral symmetry is turned on.
 R6Disp:  Grimme-D3(BJ) Dispersion energy=       -0.2416282802 Hartrees.
 Nuclear repulsion after empirical dispersion term =     9845.6491975200 Hartrees.
 Force inversion solution in PCM.
[...]
 .00000245,-0.00000488,-0.00000406,0.00000387,0.,0.00000121,-0.00000201
 ,0.00000043,-0.00000164,-0.00000340,0.00001662,-0.00000557,-0.00044463
 ,-0.00004317,-0.00016345,0.00010570,0.00001674,0.00003928,0.00018744,0
 .00025461,-0.00007777,-0.00031059,0.00018038,-0.00021570,-0.00032515,0
 .00004609,0.00025765,0.00098959,-0.00040217,0.00110277,-0.00002231,-0.
 00054361,0.00047378,-0.00004598,-0.00001191,0.00001570,-0.00319046,0.0
 0938454,0.00463363,-0.00056082,-0.00026223,0.00052663,0.00063388,0.001
 11468,0.00048600,-0.00004938,0.00008592,-0.00005716,-0.00010317,-0.000
 54385,-0.00008560,-0.00006104,0.00013216,0.00006230,-0.00003372,0.0000
 9430,0.00001686,-0.00035559,0.00005222,0.00015678,-0.00000998,-0.00003
 155,-0.00001771,-0.00000208,0.00000296,-0.00000102,0.00000628,0.000001
 89,0.00000720,0.00000367,0.00000311,-0.00000028,-0.00000376,-0.0000065
 8,0.00000051,-0.00000053,-0.00000110,0.00000015,0.00000003,0.00000332,
 0.00000130,-0.00000072,-0.00000002,-0.00000069,-0.00000425,-0.00001504
 ,0.00000730,0.00000029,0.00000201,0.00000277,-0.00000053,-0.00000465,-
 0.00000227,-0.00000174,0.00000203,-0.00000120,0.00002234,0.00010498,-0
 .00009458,-0.00000056,-0.00003058,0.00000058,-0.00000207,0.00000418,0.
 00001468,-0.00000081,-0.00000433,0.00002186,0.00005713,0.00000270,0.00
 005594,-0.00002223,-0.00000539,-0.00001825,0.00000387,-0.00000427,0.00
 000872,-0.00000904,-0.00000011,-0.00000373,0.00002066,0.00001409,-0.00
 000956,-0.00000089,-0.00000098,-0.00000224,0.00001341,0.00000771,0.000
 01483,-0.00000129,-0.00000124,-0.00000134,0.00000120,-0.00000103,-0.00
 000268,-0.00000591,-0.00000070,-0.00000055,0.00032185,-0.00027340,-0.0
 0019783,-0.00014676,-0.00004718,0.00009424,-0.00011502,0.00005540,0.00
 000986,-0.00001568,0.00004526,0.00005195,0.02306362,-0.07490214,-0.019
 68017,-0.01667432,0.01150562,0.00726703,-0.05150051,0.08842769,-0.0000
 0869,0.00003869,0.00001527,-0.00017670,0.00038015,0.00019692,-0.000114
 88,0.00041890,-0.00009234,0.00013366,0.00017387,-0.00000644,0.00002489
 ,0.00052693,0.00024409,0.00001704,-0.00002900,0.00002740,-0.00015251,-
 0.00000665,0.00002647,0.00001912,-0.00005215,-0.00006357,-0.00005460,-
 0.00008355,0.00000947,0.00011978,-0.00006744,0.00004939,-0.00003740,-0
 .00039542,0.00001404,-0.00001391,-0.00033131,0.00007068,0.00026984,-0.
 00016581,-0.00006756,0.00015380,-0.00028280,-0.00022494,-0.00011823,-0
 .00031526,-0.00013328,0.00009833,0.00015001,-0.00005024,-0.00002180,-0
 .00011775,0.00008353,0.00007690,-0.00007250,-0.00008359,-0.00017389,-0
 .00018645,0.00011587,-0.00011311,-0.00000528,-0.00004421,-0.00000667,0
 .00002893,0.00000450,-0.00003263,0.00001817,0.00003891,0.00004194,-0.0
 0002451,-0.00000480,-0.00015626,0.00010572,0.00026251,-0.00000458,-0.0
 0004984,-0.00005566,0.00003953,-0.00004554,-0.00001877,-0.00002310,0.0
 0003701,0.00001502,-0.00006569,0.00013416,0.00000812,-0.00004638,0.000
 06248,0.00008590,0.00013471,0.00003622,-0.00000210,-0.00002629,-0.0000
 8045,-0.00005131,0.00008039,0.00005894,-0.00000159,-0.00019724,-0.0002
 9591,-0.00041280,0.00045562,0.00091114,-0.00013832,0.00020711,0.000013
 31,0.00003472,0.00007513,-0.00000993,-0.00006291,0.00003838,0.00012046
 ,-0.00000325,0.00000518,0.00000808,0.00003823,0.00002179,-0.00002126,-
 0.00000913,0.00000115,-0.00000138,0.00000955,-0.00000915,-0.00000758,0
 .00000446,-0.00033591,-0.00021888,-0.00008247,-0.00084875,-0.00000558,
 -0.00063518,0.00011590,0.00010376,0.00063171,-0.00006330,0.00001770,0.
 00015802,-0.00006053,-0.00000314,0.00004912,0.00003183,0.00001159,0.00
 000165,-0.00000482,-0.00001004,0.00000258,-0.00001002,-0.00000309,-0.0
 0001561,-0.00005061,-0.00004215,0.00001814,0.00317192,-0.00080821,0.00
 047761,-0.00082458,0.00072227,-0.00010739,-0.00121239,-0.00051685,0.00
 045162,0.00023914,0.00012483,-0.00033434,0.00012705,0.00014111,-0.0006
 5435,0.00130037,-0.00008266,-0.00097656,0.00264364,0.00044321,-0.00156
 109,-0.00000722,-0.00002979,-0.00001428,0.04061213,-0.00741449,-0.0286
 8007,-0.00018261,0.00032490,-0.00298713,-0.00600099,0.00207148,-0.0067
 5021,-0.00006782,-0.00027945,0.00044786,-0.00030513,-0.00025108,-0.001
 08258,-0.00010834,-0.00038052,-0.00010175,0.00023977,0.00005121,0.0003
 0351,-0.00038377,0.00043489,0.00062019,-0.00003704,-0.00006668,-0.0000
 6124,0.00001277,0.00000590,0.00001262,0.00000977,0.00002759,0.00000682
 ,-0.00000648,0.00000755,0.00000777,0.00003074,0.00002089,-0.00002098,-
 0.00000835,-0.00000249,0.00000812,-0.00000191,-0.00000407,0.00000062,-
 0.00000516,-0.00000228,0.00000134,0.00003602,0.00005242,0.00001098,0.0
 0000182,-0.00000103,0.00000649,0.00002274,0.00000428,0.00002239,-0.000
 02222,-0.00001094,-0.00001127,0.00003386,0.00011922,-0.00012118,-0.000
 00479,-0.00002693,0.00000814,-0.00001643,-0.00000275,0.00001033,0.0000
 1034,-0.00001131,0.00002854,0.00012965,0.00013959,0.00000095,-0.000026
 99,-0.00002519,0.00002847,0.00000555,-0.00000106,-0.00003626,-0.000012
 95,-0.00000031,-0.00000236,0.00002941,0.00002013,-0.00001513,-0.000003
 94,-0.00001065,0.00000102,0.00001257,0.00001200,0.00001099,0.00000012,
 -0.00000540,-0.00000076,0.00000045,0.00000200,0.00000327,-0.00000509,0
 .00000208,-0.00000144,-0.00260894,-0.00020128,0.00128566,0.00078616,0.
 00073820,-0.00053938,0.00072291,-0.00009771,-0.00026059,0.00048555,-0.
 00025397,-0.00110291,0.08720198,-0.01560628,-0.16708067,0.00347603,0.0
 0455938,0.01925512,-0.14201079,0.03657329,0.18355877,-0.00013111,0.000
 33240,-0.00024058,0.00016018,-0.00107343,-0.00054358,-0.00018095,-0.00
 047160,0.00010805,-0.00054547,-0.00012524,-0.00024208,-0.00015456,0.00
 015858,0.00003235,0.00005990,-0.00004964,0.00001326,-0.00032762,0.0005
 6614,0.00041997,0.00007086,-0.00001692,0.00012892,0.00011766,-0.000037
 91,-0.00001362,-0.00000730,-0.00007741,-0.00001549,0.00023257,-0.00005
 057,-0.00004402,0.00011035,0.00032169,-0.00002250,-0.00034350,0.000368
 93,0.00038161,0.00002088,-0.00013725,0.00014900,0.00016905,-0.00011052
 ,0.00010550,0.00054333,0.00164601,0.00078040,0.00001488,-0.00027758,0.
 00003243,-0.00139873,-0.00153032,-0.00078903,-0.00063320,-0.00029352,-
 0.00057832,0.00014833,0.00007017,-0.00018345,0.00003773,-0.00003991,0.
 00005577,-0.00000839,-0.00002398,-0.00001499,-0.00003569,0.00001373,0.
 00003928,0.00002965,-0.00001532,-0.00006422,0.00000444,0.00000937,0.00
 001414,0.00001084,-0.00000675,-0.00002001,-0.00001644,0.00000205,0.000
 01699,-0.00003686,0.00010147,-0.00002519,-0.00003005,0.00002144,0.0000
 0763,0.00004153,-0.00000700,0.00000292,-0.00000031,-0.00003077,-0.0000
 0065,0.00007595,-0.00002119,-0.00003398,0.00006196,0.00005615,0.000078
 73,0.00022867,-0.00004553,0.00020876,0.00012763,-0.00000726,0.00004296
 ,0.00004418,0.00002391,0.00002067,-0.00000943,0.00006310,0.00002170,0.
 00000430,0.00000344,-0.00000662,-0.00000069,-0.00000078,-0.00000246,-0
 .00001491,0.00000319,-0.00000096,-0.00000524,-0.00000753,-0.00000063,-
 0.00019214,-0.00007335,-0.00021759,-0.00012818,-0.00002240,-0.00019196
 ,-0.00015600,-0.00008332,-0.00002263,-0.00007824,0.00001500,0.00004433
 ,-0.00009275,-0.00001101,-0.00001325,0.00000018,0.00002606,0.00003111,
 0.00000195,-0.00000396,0.00000072,-0.00000446,-0.00000485,-0.00001292,
 0.00000280,-0.00001872,-0.00003608,0.00047568,-0.00019050,0.00040843,-
 0.00013332,0.00018072,-0.00008873,-0.00018834,0.00004306,-0.00010011,0
 .00030813,-0.00069414,0.00027768,0.00069696,0.00011253,-0.00031837,-0.
 00013540,-0.00054230,0.00032564,-0.00032385,-0.00057406,-0.00147693,0.
 00006121,0.00009695,0.00002192,0.00924235,0.01129328,-0.00446442,0.000
 30493,0.00028007,0.00030150,-0.00154050,0.00087525,0.00027690,0.000115
 70,0.00078218,-0.00000825,0.00010979,0.00001871,0.00002579,0.00005576,
 0.00011277,0.00003581,-0.00007917,-0.00001080,-0.00002769,0.00012806,-
 0.00004760,-0.00011489,0.00003053,-0.00003060,-0.00001653,-0.00000523,
 0.00000884,-0.00000276,0.00000145,-0.00000640,-0.00000819,-0.00000827,
 0.00000044,0.00000780,0.00003749,0.00002774,-0.00001613,0.00000114,-0.
 00000188,0.00000400,-0.00000219,-0.00000847,0.00000163,-0.00000890,-0.
 00000091,-0.00000042,0.00000328,0.00000521,0.00002524,0.00000290,-0.00
 000240,-0.00000418,0.00000306,0.00000172,0.00000875,-0.00000641,-0.000
 00050,-0.00000607,-0.00005426,-0.00006679,0.00008721,0.00000676,0.0000
 3117,-0.00000636,0.00001449,0.00000781,-0.00001930,0.00000671,0.000002
 49,-0.00001438,-0.00002334,0.00007150,0.00007315,-0.00001544,-0.000031
 07,-0.00001852,-0.00000872,0.00000324,0.00000860,-0.00000553,-0.000001
 30,-0.00000520,0.00003566,0.00003233,-0.00002182,-0.00000508,-0.000013
 81,-0.00000441,0.00001251,0.00001995,0.00002371,-0.00000321,-0.0000073
 5,-0.00000094,-0.00000100,0.00000050,-0.00000383,-0.00000364,-0.000001
 54,-0.00000217,-0.00075890,-0.00002829,0.00023427,0.00016864,0.0001022
 4,-0.00009481,0.00026137,-0.00009150,-0.00000745,0.00017802,-0.0000449
 2,-0.00024521,-0.07535883,0.03102166,-0.00522024,0.00253395,-0.0431866
 8,-0.00442327,-0.01904502,0.04871612,0.01328708,0.08513047,-0.00018933
 ,-0.00069387,0.00093192,-0.00054568,0.00204069,0.00098827,-0.00154376,
 0.00225876,0.00037528,0.00119244,0.00072984,0.00152813,0.00039117,0.00
 061023,0.00077190,-0.00001988,0.00007652,-0.00001687,-0.00065841,-0.00
 114261,0.00019251,-0.00003881,0.00002774,-0.00032401,-0.00011384,-0.00
 026570,-0.00039712,0.00010046,-0.00045315,0.00031201,-0.00042908,-0.00
 463459,-0.00143244,0.00018537,-0.00152400,-0.00022246,0.00134854,-0.00
 041713,-0.00079017,0.00030936,0.00048960,-0.00070458,-0.00045113,0.000
 20060,-0.00102139,0.00169625,0.00226082,0.00135261,-0.00006629,-0.0002
 5737,-0.00001321,-0.00043395,-0.00191352,-0.00043814,-0.00198656,0.000
 23130,-0.00123588,-0.00059216,-0.00056470,0.00014899,-0.00001959,0.000
 08678,0.00000327,0.00003203,0.00007837,-0.00001558,0.00012363,0.000027
 09,-0.00004816,-0.00018665,0.00014224,0.00032436,0.00000053,-0.0000370
 6,-0.00004897,0.00000072,-0.00001615,0.00002524,0.00007226,-0.00000745
 ,-0.00009781,0.00009139,-0.00061297,0.00041999,0.00009893,-0.00001796,
 -0.00005498,-0.00012497,0.00002240,0.00000491,-0.00003013,0.00012474,-
 0.00007071,0.00000709,-0.00000205,0.00003664,-0.00010730,-0.00009704,-
 0.00013054,0.00026532,-0.00214068,0.00046470,0.00003333,-0.00001618,0.
 00001855,-0.00000873,-0.00004199,-0.00001152,0.00006465,-0.00014764,0.
 00005453,0.00010241,0.00001020,-0.00004177,-0.00004768,0.00003385,-0.0
 0000235,-0.00004884,0.00001654,-0.00002208,0.00001336,0.00001717,-0.00
 000012,-0.00008831,0.00034064,-0.00013752,0.00090487,0.00019314,0.0007
 6197,0.00020828,0.00037541,-0.00010529,0.00001282,0.00006446,0.0000040
 4,0.00002674,0.00003551,0.00000191,-0.00000009,-0.00002079,-0.00001409
 ,0.00001545,0.00000301,0.00000335,-0.00000389,0.00000342,-0.00000011,0
 .00000691,0.00007400,-0.00002853,-0.00315284,0.00041176,-0.00021285,0.
 00075113,-0.00040879,0.00010897,0.00114552,0.00107950,-0.00058279,0.00
 088507,0.00106611,0.00156662,0.00015239,-0.00048185,0.00040468,-0.0026
 7247,-0.00132466,0.00210956,0.00021348,0.00092147,0.00132496,-0.000092
 40,-0.00016599,-0.00002696,0.01007512,-0.03115788,0.01310793,-0.000516
 87,-0.00073187,-0.00045703,0.00238097,0.00024412,-0.00074298,-0.000542
 77,-0.00094217,-0.00028156,0.00010270,-0.00045779,0.00003588,-0.000027
 31,0.00001237,-0.00005816,0.00003398,0.00009732,0.00004804,-0.00017391
 ,0.00008821,0.00018921,-0.00002013,-0.00004450,-0.00001800,-0.00000487
 ,0.00000426,-0.00000346,0.00000980,0.00000511,0.00001584,0.00001048,0.
 00000476,-0.00000384,-0.00002061,-0.00002525,0.00000850,0.00000011,-0.
 00000201,-0.00000215,0.00000111,0.00001043,0.00000312,0.00000003,0.000
 00099,-0.00000192,-0.00002960,-0.00007491,0.00002215,0.00000135,0.0000
 0875,0.00000954,-0.00001052,-0.00002154,-0.00001683,0.00000170,0.00001
 252,0.00000058,0.00009308,0.00041901,-0.00038986,-0.00000239,-0.000118
 67,0.00000648,-0.00000804,0.00001897,0.00006208,-0.00000168,-0.0000187
 4,0.00008837,0.00019129,-0.00002318,0.00019614,-0.00007511,-0.00001555
 ,-0.00006684,0.00000813,-0.00001997,0.00003310,-0.00003137,-0.00000189
 ,-0.00001313,0.00007331,0.00005021,-0.00003367,-0.00000394,-0.00000404
 ,-0.00000891,0.00004358,0.00002553,0.00005210,-0.00000486,-0.00000394,
 -0.00000486,0.00000412,-0.00000449,-0.00000979,-0.00002006,-0.00000341
 ,-0.00000208,0.00169634,-0.00022037,-0.00107069,-0.00045083,-0.0002805
 1,0.00033802,-0.00063408,0.00023744,0.00014452,-0.00033257,0.00023467,
 0.00068462,0.03000135,-0.23617606,0.03294048,-0.02915510,-0.06154001,-
 0.01604899,0.03793095,-0.03431136,-0.02093061,-0.04739200,0.36807740,-
 0.00005665,-0.00001119,0.00002555,0.00000425,0.00054332,0.00026041,0.0
 0031730,-0.00013611,-0.00047070,-0.00026474,0.00017009,-0.00033733,-0.
 00000740,0.00080876,0.00017334,0.00003729,-0.00007989,0.00006634,0.000
 71386,-0.00073062,-0.00128548,0.00002015,-0.00003314,-0.00007579,0.000
 02561,-0.00005584,0.00006772,0.00012851,-0.00016874,-0.00008609,-0.000
 28139,-0.00012541,0.00035148,-0.00005633,-0.00005211,0.00019834,0.0003
 3225,-0.00029823,-0.00007995,0.00012695,-0.00021415,-0.00010965,-0.000
 03645,-0.00036283,-0.00000739,0.00003067,0.00036087,0.00012978,-0.0000
 2376,-0.00019465,0.00007203,-0.00065384,-0.00036094,-0.00055557,-0.000
 10500,-0.00029606,0.00002635,-0.00017019,-0.00006801,-0.00008416,0.000
 02348,0.00003148,0.00003608,-0.00002477,0.00001845,0.00002875,0.000028
 41,-0.00000683,0.00001012,-0.00012371,0.00006741,0.00018844,-0.0000004
 5,-0.00003257,-0.00003763,0.00003076,-0.00003448,-0.00001663,-0.000016
 63,0.00002474,0.00000982,-0.00007807,0.00015024,0.00001305,-0.00005029
 ,0.00005184,0.00006987,0.00012266,0.00002227,-0.00000723,-0.00001618,-
 0.00007571,-0.00003684,0.00009280,0.00001544,-0.00003072,-0.00005397,-
 0.00010254,-0.00016379,0.00032662,0.00081795,-0.00005322,0.00019132,0.
 00000400,0.00004744,0.00007230,0.00001709,-0.00002007,0.00000724,0.000
 10536,-0.00000679,-0.00000928,0.00000473,0.00002299,0.00001854,-0.0000
 1768,-0.00000615,0.00000082,-0.00000158,0.00000758,-0.00001067,-0.0000
 1169,0.00000197,-0.00028531,-0.00021434,-0.00014334,-0.00085036,0.0000
 1140,-0.00065401,-0.00002514,-0.00007847,0.00034748,-0.00008993,0.0000
 1298,0.00011570,-0.00010001,-0.00001409,0.00001918,0.00002491,0.000024
 40,0.00001746,-0.00000413,-0.00000888,0.00000203,-0.00000905,-0.000004
 46,-0.00001673,-0.00003445,-0.00004712,-0.00000377,0.00271057,-0.00085
 784,0.00028859,-0.00063809,0.00058697,-0.00009703,-0.00096730,-0.00043
 381,0.00035709,-0.00043648,-0.00136023,-0.00188119,-0.00082742,0.00057
 134,-0.00056991,0.00323109,0.00121793,-0.00088224,-0.00031513,-0.00096
 204,0.00010396,0.00004157,0.00011335,0.00006422,-0.00944128,0.03640598
 ,-0.00466938,0.00005896,0.00071833,0.00001550,-0.00170113,0.00052399,0
 .00014135,0.00026891,0.00034413,-0.00002951,-0.00014697,0.00011345,-0.
 00032650,-0.00001859,-0.00011267,-0.00003723,0.00004168,-0.00002536,0.
 00006487,-0.00007707,0.00006039,0.00009726,0.00000449,-0.00005221,-0.0
 0004312,0.00000358,0.00000855,0.00000534,0.00000475,0.00000953,-0.0000
 0373,-0.00001090,0.00000384,0.00001019,0.00004565,0.00003379,-0.000024
 24,-0.00000401,-0.00000233,0.00000777,-0.00000274,-0.00000931,0.000000
 89,-0.00000890,-0.00000213,0.00000069,0.00003044,0.00004619,0.00001898
 ,0.00000296,-0.00000292,0.00000219,0.00001837,0.00000635,0.00002159,-0
 .00001966,-0.00000914,-0.00001094,0.00000532,0.00002127,-0.00005375,-0
 .00000668,-0.00000671,0.00001059,-0.00001266,-0.00000999,-0.00000163,0
 .00001283,-0.00001025,0.00001381,0.00007987,0.00013693,0.00000235,-0.0
 0001789,-0.00003125,0.00001898,-0.00000049,0.00000457,-0.00002630,-0.0
 0000678,0.00000002,-0.00000183,0.00002405,0.00002183,-0.00001636,-0.00
 000413,-0.00001345,-0.00000006,0.00001024,0.00001553,0.00001278,-0.000
 00073,-0.00000684,-0.00000033,-0.00000052,0.00000214,0.00000189,-0.000
 00317,0.00000137,-0.00000149,-0.00154974,-0.00024766,0.00112828,0.0004
 2622,0.00039019,-0.00033742,0.00055140,-0.00008350,-0.00017403,0.00030
 985,-0.00008196,-0.00054381,-0.00539195,0.03443647,-0.07996338,-0.0051
 1400,-0.02508112,0.01086603,0.01769697,-0.03200399,0.00597852,0.001906
 09,-0.01381218,0.07244143\\-0.00000073,-0.00000165,-0.00000052,0.00000
 021,0.00000001,-0.00000107,0.00000063,0.00000140,0.00000084,0.00000020
 ,0.00000084,0.00000160,-0.00000046,-0.00000082,0.00000003,0.00000123,0
 .00000269,0.00000060,0.00000063,0.00000080,-0.00000237,-0.00000130,-0.
 00000244,0.00000079,-0.00000032,0.00000041,0.00000319,0.,-0.00000038,-
 0.00000150,0.00000068,0.00000222,0.00000106,-0.00000033,0.00000076,0.0
 0000271,0.,-0.00000096,-0.00000142,-0.00000115,-0.00000300,-0.00000236
 ,-0.00000125,-0.00000223,0.00000127,0.00000122,0.00000210,0.00000192,0
 .00000129,0.00000350,0.00000273,0.00000124,0.00000265,0.00000004,0.,0.
 00000129,0.00000246,0.00000009,-0.00000079,-0.00000366,0.00000095,0.00
 000078,-0.00000417,-0.00000015,-0.00000156,-0.00000467,-0.00000014,-0.
 00000133,-0.00000379,-0.00000200,-0.00000468,-0.00000219,-0.00000260,-
 0.00000556,-0.00000091,-0.00000187,-0.00000437,-0.00000189,-0.00000220
 ,-0.00000554,-0.00000373,-0.00000182,-0.00000348,-0.00000044,-0.000001
 76,-0.00000416,-0.00000194,-0.00000129,-0.00000293,-0.00000129,-0.0000
 0229,-0.00000453,0.00000023,0.00000110,0.00000233,0.00000056,0.0000012
 2,0.00000258,0.00000008,0.00000058,0.00000075,-0.00000009,-0.00000079,
 -0.00000109,0.00000138,0.00000012,0.00000089,0.00000212,0.00000036,0.0
 0000052,-0.00000094,0.00000136,0.00000301,0.00000184,0.00000110,0.0000
 0199,-0.00000098,-0.00000085,-0.00000172,-0.00000006,0.00000011,0.0000
 0144,0.00000375,-0.00000037,-0.00000103,0.00000053,-0.00000097,-0.0000
 0334,-0.00000351,0.00000194,0.00000415,-0.00000126,0.00000182,0.000004
 22,0.00000139,-0.00000014,0.00000044,0.00000232,-0.00000165,-0.0000024
 2,0.00000311,-0.00000148,-0.00000183,0.00000467,-0.00000198,-0.0000031
 9,0.00000327,-0.00000261,-0.00000375,0.00000281,-0.00000022,-0.0000013
 8,-0.00000409,0.00000038,-0.00000157,-0.00000665,0.00000074,0.00000030
 ,-0.00000322,0.00000032,-0.00000084,-0.00000507,-0.00000042,-0.0000022
 3,-0.00000584,0.00000115,0.00000115,-0.00000500,-0.00000012,-0.0000018
 1,-0.00000643,-0.00000110,-0.00000367,-0.00000610,0.00000132,0.0000015
 9,-0.00000536,0.00000188,0.00000223,-0.00000440,0.00000092,0.00000007,
 -0.00000607,0.00000124,0.00000028,-0.00000653,0.00000282,0.00000561,-0
 .00000058,0.00000253,0.00000530,0.00000004,0.00000306,0.00000641,0.000
 00063,0.00000343,0.00000647,-0.00000199,0.00000260,0.00000533,-0.00000
 006,0.00000233,0.00000455,-0.00000075,0.00000300,0.00000558,-0.0000013
 2,0.00000315,0.00000665,0.00000080,0.00000021,0.00000147,0.00000402,0.
 00000094,0.00000294,0.00000384,-0.00000027,0.00000115,0.00000562,-0.00
 000011,0.00000088,0.00000402,-0.00000271,-0.00000538,0.00000121,-0.000
 00328,-0.00000639,0.00000139,-0.00000232,-0.00000461,-0.00000037,-0.00
 000313,-0.00000599,0.00000137,0.00000033,0.00000184,0.00000447,-0.0000
 0032,0.00000095,0.00000576,0.00000051,0.00000247,0.00000508,0.00000091
 ,0.00000298,0.00000417,-0.00000105,-0.00000243,0.00000337,-0.00000146,
 -0.00000110,0.00000662,-0.00000049,0.00000124,0.00000717,-0.00000020,0
 .00000151,0.00000740,0.00000018,0.00000205,0.00000572,-0.00000033,0.00
 000166,0.00000859,-0.00000209,-0.00000197,0.00000836,-0.00000212,-0.00
 000166,0.00000986,-0.00000276,-0.00000349,0.00000785,-0.00000204,-0.00
 000169,0.00000875,-0.00000079,-0.00000352,-0.00000719,-0.00000058,-0.0
 0000378,-0.00000939,-0.00000038,-0.00000301,-0.00000715,-0.00000160,-0
 .00000512,-0.00000631,0.00000231,0.00000349,-0.00000493,0.00000295,0.0
 0000411,-0.00000649,0.00000296,0.00000483,-0.00000452,0.00000214,0.000
 00357,-0.00000285\\\@


 MY DESCRIPTION OF EXPERIENCE IS NOT WHAT HAPPENS
 TO A MAN.  EXPERIENCE IS WHAT A MAN DOES WITH WHAT
 HAPPENS TO HIM.
                         - CHUCK KNOX, SEATTLE SEAHAWKS, 1985
 Job cpu time:       4 days 18 hours 51 minutes 41.9 seconds.
 Elapsed time:       0 days  4 hours  7 minutes 25.3 seconds.
 File lengths (MBytes):  RWF=   9685 Int=      0 D2E=      0 Chk=    106 Scr=      1
 Normal termination of Gaussian 16 at Thu May  9 03:43:13 2019.
