 Entering Gaussian System, Link 0=g16
 Input=clay_new-glu_gluC6-FCUL-Na_1Me2O-bisCF3-ts-b3lyp_d3bj-631gd-pcm_thf.gjf
 Output=clay_new-glu_gluC6-FCUL-Na_1Me2O-bisCF3-ts-b3lyp_d3bj-631gd-pcm_thf.out
 Initial command:
 /home/ekwan/sw/g16/l1.exe "/scratch/users/ekwan/clay_new-glu_gluC6-FCUL-Na_1Me2O-bisCF3-ts-b3lyp_d3bj-631gd-pcm_thf/Gau-1881.inp" -scrdir="/scratch/users/ekwan/clay_new-glu_gluC6-FCUL-Na_1Me2O-bisCF3-ts-b3lyp_d3bj-631gd-pcm_thf/"
 Entering Link 1 = /home/ekwan/sw/g16/l1.exe PID=      1882.
  
 Copyright (c) 1988,1990,1992,1993,1995,1998,2003,2009,2016,
            Gaussian, Inc.  All Rights Reserved.
  
 This is part of the Gaussian(R) 16 program.  It is based on
 the Gaussian(R) 09 system (copyright 2009, Gaussian, Inc.),
 the Gaussian(R) 03 system (copyright 2003, Gaussian, Inc.),
 the Gaussian(R) 98 system (copyright 1998, Gaussian, Inc.),
 the Gaussian(R) 94 system (copyright 1995, Gaussian, Inc.),
 the Gaussian 92(TM) system (copyright 1992, Gaussian, Inc.),
 the Gaussian 90(TM) system (copyright 1990, Gaussian, Inc.),
 the Gaussian 88(TM) system (copyright 1988, Gaussian, Inc.),
 the Gaussian 86(TM) system (copyright 1986, Carnegie Mellon
 University), and the Gaussian 82(TM) system (copyright 1983,
 Carnegie Mellon University). Gaussian is a federally registered
 trademark of Gaussian, Inc.
  
 This software contains proprietary and confidential information,
 including trade secrets, belonging to Gaussian, Inc.
  
 This software is provided under written license and may be
 used, copied, transmitted, or stored only in accord with that
 written license.
  
 The following legend is applicable only to US Government
 contracts under FAR:
  
                    RESTRICTED RIGHTS LEGEND
  
 Use, reproduction and disclosure by the US Government is
 subject to restrictions as set forth in subparagraphs (a)
 and (c) of the Commercial Computer Software - Restricted
 Rights clause in FAR 52.227-19.
  
 Gaussian, Inc.
 340 Quinnipiac St., Bldg. 40, Wallingford CT 06492
  
  
 ---------------------------------------------------------------
 Warning -- This program may not be used in any manner that
 competes with the business of Gaussian, Inc. or will provide
 assistance to any competitor of Gaussian, Inc.  The licensee
 of this program is prohibited from giving any competitor of
 Gaussian, Inc. access to this program.  By using this program,
 the user acknowledges that Gaussian, Inc. is engaged in the
 business of creating and licensing software in the field of
 computational chemistry and represents and warrants to the
 licensee that it is not a competitor of Gaussian, Inc. and that
 it will not use this program in any manner prohibited above.
 ---------------------------------------------------------------
  

 Cite this work as:
 Gaussian 16, Revision A.03,
 M. J. Frisch, G. W. Trucks, H. B. Schlegel, G. E. Scuseria, 
 M. A. Robb, J. R. Cheeseman, G. Scalmani, V. Barone, 
 G. A. Petersson, H. Nakatsuji, X. Li, M. Caricato, A. V. Marenich, 
 J. Bloino, B. G. Janesko, R. Gomperts, B. Mennucci, H. P. Hratchian, 
 J. V. Ortiz, A. F. Izmaylov, J. L. Sonnenberg, D. Williams-Young, 
 F. Ding, F. Lipparini, F. Egidi, J. Goings, B. Peng, A. Petrone, 
 T. Henderson, D. Ranasinghe, V. G. Zakrzewski, J. Gao, N. Rega, 
 G. Zheng, W. Liang, M. Hada, M. Ehara, K. Toyota, R. Fukuda, 
 J. Hasegawa, M. Ishida, T. Nakajima, Y. Honda, O. Kitao, H. Nakai, 
 T. Vreven, K. Throssell, J. A. Montgomery, Jr., J. E. Peralta, 
 F. Ogliaro, M. J. Bearpark, J. J. Heyd, E. N. Brothers, K. N. Kudin, 
 V. N. Staroverov, T. A. Keith, R. Kobayashi, J. Normand, 
 K. Raghavachari, A. P. Rendell, J. C. Burant, S. S. Iyengar, 
 J. Tomasi, M. Cossi, J. M. Millam, M. Klene, C. Adamo, R. Cammi, 
 J. W. Ochterski, R. L. Martin, K. Morokuma, O. Farkas, 
 J. B. Foresman, and D. J. Fox, Gaussian, Inc., Wallingford CT, 2016.
 
 ******************************************
 Gaussian 16:  AS64L-G16RevA.03 25-Dec-2016
                11-May-2019 
 ******************************************
 %mem=48GB
 %nprocshared=32
 Will use up to   32 processors via shared memory.
 ----------------------------------------------------------------------
 #p opt=(calcfc,ts,noeigentest,maxstep=3,recalc=30) freq=noraman b3lyp/
 6-31g(d) scrf=(solvent=tetrahydrofuran,pcm) pop=none empiricaldispersi
 on=gd3bj
 ----------------------------------------------------------------------
 1/5=1,8=3,10=4,11=1,18=20,26=3,38=1,71=30/1,3;
 2/9=110,12=2,17=6,18=5,40=1/2;
 3/5=1,6=6,7=1,11=2,25=1,30=1,70=2201,71=2,72=20,74=-5,124=41,140=1/1,2,3;
 4//1;
 5/5=2,38=5,53=20/2;
 8/6=4,10=90,11=11/1;
 11/6=1,8=1,9=11,15=111,16=1/1,2,10;
 10/6=1,13=1/2;
 7/10=1,18=20,25=1/1,2,3,16;
 1/5=1,8=3,10=4,11=1,18=20,26=3,71=30/3(2);
 2/9=110/2;
 99//99;
 2/9=110/2;
 3/5=1,6=6,7=1,11=2,25=1,30=1,70=2205,71=1,72=20,74=-5,124=41/1,2,3;
 4/5=5,16=3,69=1/1;
 5/5=2,38=5,53=20/2;
 7//1,2,3,16;
 1/5=1,8=3,11=1,18=20,26=3,71=30/3(-5);
 2/9=110/2;
 99/9=1/99;
 Leave Link    1 at Sat May 11 07:45:49 2019, MaxMem=  6442450944 cpu:               4.9 elap:               0.2
 (Enter /home/ekwan/sw/g16/l101.exe)
 -----
 title
 -----
 Symbolic Z-matrix:
 Charge =  0 Multiplicity = 1
 C                    -6.10029  -0.29793  -0.62931 
 C                    -5.56655  -1.05156   0.59261 
 C                    -4.24965  -1.75982   0.25878 
 C                    -3.70852  -0.16369  -1.47241 
 C                    -5.00723   0.6047   -1.20618 
 H                    -3.79246  -2.16348   1.17127 
 H                    -5.34449  -0.31625   1.37977 
 H                    -6.41035  -1.03223  -1.38385 
 H                    -3.89402  -0.92846  -2.23602 
 H                    -4.8037    1.39218  -0.46789 
 O                    -3.30174  -0.82556  -0.24099 
 O                    -4.51419  -2.78202  -0.65504 
 O                    -6.47595  -2.02035   1.08242 
 O                    -7.22015   0.47776  -0.20986 
 O                    -5.47114   1.192    -2.41737 
 C                    -2.53569   0.72957  -1.91251 
 H                    -2.83583   1.11885  -2.90869 
 H                    -1.6992    0.02274  -2.11372 
 O                    -2.19336   1.71789  -1.01712 
 C                    -7.33477  -1.55221   2.11462 
 H                    -6.75629  -1.18945   2.97819 
 H                    -7.98698  -0.74801   1.7617 
 H                    -7.93809  -2.4075    2.42944 
 C                    -8.26838   0.5569   -1.16798 
 H                    -7.92637   1.02201  -2.09774 
 H                    -8.67284  -0.44065  -1.39276 
 H                    -9.05734   1.16629  -0.71939 
 C                    -5.23411   2.59425  -2.49128 
 H                    -5.88533   3.13734  -1.7907 
 H                    -4.1886    2.83163  -2.26459 
 H                    -5.47292   2.90343  -3.51218 
 C                     1.5059    2.1587    1.12851 
 C                     0.53806   2.59955   0.03074 
 C                     0.44534   1.60508  -1.10553 
 C                     1.20338  -0.21556   0.26515 
 C                     1.25582   0.69179   1.50019 
 H                    -0.1443    1.87141  -1.96599 
 H                    -0.47411   2.57842   0.45774 
 H                     2.53343   2.26709   0.77268 
 H                     2.21932  -0.33904  -0.09589 
 H                     0.31812   0.62393   2.07207 
 O                     0.4458    0.32549  -0.85356 
 O                     3.81778   3.15692  -0.96803 
 O                     0.8219    3.89609  -0.42393 
 O                     1.30455   2.941     2.29588 
 O                     2.31828   0.1569    2.27015 
 C                     0.62844  -1.5877    0.53875 
 H                    -0.46897  -1.5247    0.60508 
 H                     1.02687  -1.94414   1.50019 
 O                     1.01321  -2.44018  -0.51736 
 S                     3.5197    2.12742  -1.98068 
 O                     4.15131   2.28266  -3.30231 
 O                     2.01345   1.87186  -2.17963 
 C                     4.10113   0.57281  -1.28604 
 C                     4.66482   0.56904  -0.01373 
 C                     3.85017  -0.61757  -1.96832 
 C                     4.93303  -0.65031   0.6054 
 H                     4.83492   1.50547   0.50051 
 C                     4.13588  -1.82829  -1.3397 
 H                     3.3861   -0.60078  -2.94737 
 C                     4.66727  -1.8512   -0.04947 
 H                     4.84195  -2.79694   0.44933 
 C                    -0.35327   4.62692  -0.78541 
 H                    -1.03991   4.01169  -1.37673 
 H                    -0.88007   4.97441   0.11514 
 H                    -0.01973   5.48923  -1.36571 
 C                     2.19595   4.05091   2.40589 
 H                     3.23842   3.7087    2.45735 
 H                     2.08202   4.7344    1.56009 
 H                     1.9391    4.56251   3.33621 
 C                     2.18912   0.30082   3.68134 
 H                     2.2129    1.35183   3.98099 
 H                     1.25237  -0.1536    4.03524 
 H                     3.03643  -0.23241   4.11401 
 C                     0.60477  -3.78068  -0.30949 
 H                     0.94297  -4.35093  -1.17517 
 H                     1.06096  -4.19887   0.60031 
 H                    -0.48829  -3.85756  -0.22317 
 C                    -3.38425  -3.60674  -0.92104 
 H                    -3.72783  -4.40875  -1.57658 
 H                    -2.58518  -3.04451  -1.41692 
 H                    -2.99283  -4.04108   0.01016 
 Na                   -2.45827   0.93355   1.0095 
 O                    -2.76511  -0.20837   2.98562 
 C                    -3.77414   0.16804   3.91837 
 H                    -3.33087   0.44155   4.88462 
 H                    -4.29745   1.03131   3.50228 
 H                    -4.48768  -0.65281   4.06844 
 C                    -2.01265  -1.33047   3.43334 
 H                    -2.66446  -2.20213   3.57871 
 H                    -1.27438  -1.55726   2.66347 
 H                    -1.49819  -1.10451   4.37662 
 C                     5.47781  -0.68521   2.00688 
 F                     6.79068  -1.01341   2.0241 
 F                     4.83797  -1.61061   2.76066 
 F                     5.35491   0.50178   2.63391 
 C                     3.86202  -3.12366  -2.05447 
 F                     2.79816  -3.03282  -2.87722 
 F                     3.62358  -4.1343   -1.18769 
 F                     4.91754  -3.50105  -2.8139 
 
 Add virtual bond connecting atoms O53        and C34        Dist= 3.63D+00.
 Add virtual bond connecting atoms O19        and H37        Dist= 4.28D+00.
 Add virtual bond connecting atoms H91        and H48        Dist= 4.18D+00.
 ITRead=  0  0  0  0  0  0  0  0  0  0  0  0  0  0  0  0  0  0  0  0
 ITRead=  0  0  0  0  0  0  0  0  0  0  0  0  0  0  0  0  0  0  0  0
 ITRead=  0  0  0  0  0  0  0  0  0  0  0  0  0  0  0  0  0  0  0  0
 ITRead=  0  0  0  0  0  0  0  0  0  0  0  0  0  0  0  0  0  0  0  0
 ITRead=  0  0  0  0  0  0  0  0  0  0  0  0  0  0  0  0  0  0  0  0
 MicOpt= -1 -1 -1 -1 -1 -1 -1 -1 -1 -1 -1 -1 -1 -1 -1 -1 -1 -1 -1 -1
 MicOpt= -1 -1 -1 -1 -1 -1 -1 -1 -1 -1 -1 -1 -1 -1 -1 -1 -1 -1 -1 -1
 MicOpt= -1 -1 -1 -1 -1 -1 -1 -1 -1 -1 -1 -1 -1 -1 -1 -1 -1 -1 -1 -1
 MicOpt= -1 -1 -1 -1 -1 -1 -1 -1 -1 -1 -1 -1 -1 -1 -1 -1 -1 -1 -1 -1
 MicOpt= -1 -1 -1 -1 -1 -1 -1 -1 -1 -1 -1 -1 -1 -1 -1 -1 -1 -1 -1 -1
 NAtoms=    100 NQM=      100 NQMF=       0 NMMI=      0 NMMIF=      0
                NMic=       0 NMicF=      0.
                    Isotopes and Nuclear Properties:
 (Nuclear quadrupole moments (NQMom) in fm**2, nuclear magnetic moments (NMagM)
  in nuclear magnetons)

  Atom         1           2           3           4           5           6           7           8           9          10
 IAtWgt=          12          12          12          12          12           1           1           1           1           1
 AtmWgt=  12.0000000  12.0000000  12.0000000  12.0000000  12.0000000   1.0078250   1.0078250   1.0078250   1.0078250   1.0078250
 NucSpn=           0           0           0           0           0           1           1           1           1           1
 AtZEff=   0.0000000   0.0000000   0.0000000   0.0000000   0.0000000   0.0000000   0.0000000   0.0000000   0.0000000   0.0000000
 NQMom=    0.0000000   0.0000000   0.0000000   0.0000000   0.0000000   0.0000000   0.0000000   0.0000000   0.0000000   0.0000000
 NMagM=    0.0000000   0.0000000   0.0000000   0.0000000   0.0000000   2.7928460   2.7928460   2.7928460   2.7928460   2.7928460
 AtZNuc=   6.0000000   6.0000000   6.0000000   6.0000000   6.0000000   1.0000000   1.0000000   1.0000000   1.0000000   1.0000000

  Atom        11          12          13          14          15          16          17          18          19          20
 IAtWgt=          16          16          16          16          16          12           1           1          16          12
 AtmWgt=  15.9949146  15.9949146  15.9949146  15.9949146  15.9949146  12.0000000   1.0078250   1.0078250  15.9949146  12.0000000
 NucSpn=           0           0           0           0           0           0           1           1           0           0
 AtZEff=   0.0000000   0.0000000   0.0000000   0.0000000   0.0000000   0.0000000   0.0000000   0.0000000   0.0000000   0.0000000
 NQMom=    0.0000000   0.0000000   0.0000000   0.0000000   0.0000000   0.0000000   0.0000000   0.0000000   0.0000000   0.0000000
 NMagM=    0.0000000   0.0000000   0.0000000   0.0000000   0.0000000   0.0000000   2.7928460   2.7928460   0.0000000   0.0000000
 AtZNuc=   8.0000000   8.0000000   8.0000000   8.0000000   8.0000000   6.0000000   1.0000000   1.0000000   8.0000000   6.0000000

  Atom        21          22          23          24          25          26          27          28          29          30
 IAtWgt=           1           1           1          12           1           1           1          12           1           1
 AtmWgt=   1.0078250   1.0078250   1.0078250  12.0000000   1.0078250   1.0078250   1.0078250  12.0000000   1.0078250   1.0078250
 NucSpn=           1           1           1           0           1           1           1           0           1           1
 AtZEff=   0.0000000   0.0000000   0.0000000   0.0000000   0.0000000   0.0000000   0.0000000   0.0000000   0.0000000   0.0000000
 NQMom=    0.0000000   0.0000000   0.0000000   0.0000000   0.0000000   0.0000000   0.0000000   0.0000000   0.0000000   0.0000000
 NMagM=    2.7928460   2.7928460   2.7928460   0.0000000   2.7928460   2.7928460   2.7928460   0.0000000   2.7928460   2.7928460
 AtZNuc=   1.0000000   1.0000000   1.0000000   6.0000000   1.0000000   1.0000000   1.0000000   6.0000000   1.0000000   1.0000000

  Atom        31          32          33          34          35          36          37          38          39          40
 IAtWgt=           1          12          12          12          12          12           1           1           1           1
 AtmWgt=   1.0078250  12.0000000  12.0000000  12.0000000  12.0000000  12.0000000   1.0078250   1.0078250   1.0078250   1.0078250
 NucSpn=           1           0           0           0           0           0           1           1           1           1
 AtZEff=   0.0000000   0.0000000   0.0000000   0.0000000   0.0000000   0.0000000   0.0000000   0.0000000   0.0000000   0.0000000
 NQMom=    0.0000000   0.0000000   0.0000000   0.0000000   0.0000000   0.0000000   0.0000000   0.0000000   0.0000000   0.0000000
 NMagM=    2.7928460   0.0000000   0.0000000   0.0000000   0.0000000   0.0000000   2.7928460   2.7928460   2.7928460   2.7928460
 AtZNuc=   1.0000000   6.0000000   6.0000000   6.0000000   6.0000000   6.0000000   1.0000000   1.0000000   1.0000000   1.0000000

  Atom        41          42          43          44          45          46          47          48          49          50
 IAtWgt=           1          16          16          16          16          16          12           1           1          16
 AtmWgt=   1.0078250  15.9949146  15.9949146  15.9949146  15.9949146  15.9949146  12.0000000   1.0078250   1.0078250  15.9949146
 NucSpn=           1           0           0           0           0           0           0           1           1           0
 AtZEff=   0.0000000   0.0000000   0.0000000   0.0000000   0.0000000   0.0000000   0.0000000   0.0000000   0.0000000   0.0000000
 NQMom=    0.0000000   0.0000000   0.0000000   0.0000000   0.0000000   0.0000000   0.0000000   0.0000000   0.0000000   0.0000000
 NMagM=    2.7928460   0.0000000   0.0000000   0.0000000   0.0000000   0.0000000   0.0000000   2.7928460   2.7928460   0.0000000
 AtZNuc=   1.0000000   8.0000000   8.0000000   8.0000000   8.0000000   8.0000000   6.0000000   1.0000000   1.0000000   8.0000000

  Atom        51          52          53          54          55          56          57          58          59          60
 IAtWgt=          32          16          16          12          12          12          12           1          12           1
 AtmWgt=  31.9720718  15.9949146  15.9949146  12.0000000  12.0000000  12.0000000  12.0000000   1.0078250  12.0000000   1.0078250
 NucSpn=           0           0           0           0           0           0           0           1           0           1
 AtZEff=   0.0000000   0.0000000   0.0000000   0.0000000   0.0000000   0.0000000   0.0000000   0.0000000   0.0000000   0.0000000
 NQMom=    0.0000000   0.0000000   0.0000000   0.0000000   0.0000000   0.0000000   0.0000000   0.0000000   0.0000000   0.0000000
 NMagM=    0.0000000   0.0000000   0.0000000   0.0000000   0.0000000   0.0000000   0.0000000   2.7928460   0.0000000   2.7928460
 AtZNuc=  16.0000000   8.0000000   8.0000000   6.0000000   6.0000000   6.0000000   6.0000000   1.0000000   6.0000000   1.0000000

  Atom        61          62          63          64          65          66          67          68          69          70
 IAtWgt=          12           1          12           1           1           1          12           1           1           1
 AtmWgt=  12.0000000   1.0078250  12.0000000   1.0078250   1.0078250   1.0078250  12.0000000   1.0078250   1.0078250   1.0078250
 NucSpn=           0           1           0           1           1           1           0           1           1           1
 AtZEff=   0.0000000   0.0000000   0.0000000   0.0000000   0.0000000   0.0000000   0.0000000   0.0000000   0.0000000   0.0000000
 NQMom=    0.0000000   0.0000000   0.0000000   0.0000000   0.0000000   0.0000000   0.0000000   0.0000000   0.0000000   0.0000000
 NMagM=    0.0000000   2.7928460   0.0000000   2.7928460   2.7928460   2.7928460   0.0000000   2.7928460   2.7928460   2.7928460
 AtZNuc=   6.0000000   1.0000000   6.0000000   1.0000000   1.0000000   1.0000000   6.0000000   1.0000000   1.0000000   1.0000000

  Atom        71          72          73          74          75          76          77          78          79          80
 IAtWgt=          12           1           1           1          12           1           1           1          12           1
 AtmWgt=  12.0000000   1.0078250   1.0078250   1.0078250  12.0000000   1.0078250   1.0078250   1.0078250  12.0000000   1.0078250
 NucSpn=           0           1           1           1           0           1           1           1           0           1
 AtZEff=   0.0000000   0.0000000   0.0000000   0.0000000   0.0000000   0.0000000   0.0000000   0.0000000   0.0000000   0.0000000
 NQMom=    0.0000000   0.0000000   0.0000000   0.0000000   0.0000000   0.0000000   0.0000000   0.0000000   0.0000000   0.0000000
 NMagM=    0.0000000   2.7928460   2.7928460   2.7928460   0.0000000   2.7928460   2.7928460   2.7928460   0.0000000   2.7928460
 AtZNuc=   6.0000000   1.0000000   1.0000000   1.0000000   6.0000000   1.0000000   1.0000000   1.0000000   6.0000000   1.0000000

  Atom        81          82          83          84          85          86          87          88          89          90
 IAtWgt=           1           1          23          16          12           1           1           1          12           1
 AtmWgt=   1.0078250   1.0078250  22.9897697  15.9949146  12.0000000   1.0078250   1.0078250   1.0078250  12.0000000   1.0078250
 NucSpn=           1           1           3           0           0           1           1           1           0           1
 AtZEff=   0.0000000   0.0000000   0.0000000   0.0000000   0.0000000   0.0000000   0.0000000   0.0000000   0.0000000   0.0000000
 NQMom=    0.0000000   0.0000000  10.4000000   0.0000000   0.0000000   0.0000000   0.0000000   0.0000000   0.0000000   0.0000000
 NMagM=    2.7928460   2.7928460   2.2175200   0.0000000   0.0000000   2.7928460   2.7928460   2.7928460   0.0000000   2.7928460
 AtZNuc=   1.0000000   1.0000000  11.0000000   8.0000000   6.0000000   1.0000000   1.0000000   1.0000000   6.0000000   1.0000000

  Atom        91          92          93          94          95          96          97          98          99         100
 IAtWgt=           1           1          12          19          19          19          12          19          19          19
 AtmWgt=   1.0078250   1.0078250  12.0000000  18.9984033  18.9984033  18.9984033  12.0000000  18.9984033  18.9984033  18.9984033
 NucSpn=           1           1           0           1           1           1           0           1           1           1
 AtZEff=   0.0000000   0.0000000   0.0000000   0.0000000   0.0000000   0.0000000   0.0000000   0.0000000   0.0000000   0.0000000
 NQMom=    0.0000000   0.0000000   0.0000000   0.0000000   0.0000000   0.0000000   0.0000000   0.0000000   0.0000000   0.0000000
 NMagM=    2.7928460   2.7928460   0.0000000   2.6288670   2.6288670   2.6288670   0.0000000   2.6288670   2.6288670   2.6288670
 AtZNuc=   1.0000000   1.0000000   6.0000000   9.0000000   9.0000000   9.0000000   6.0000000   9.0000000   9.0000000   9.0000000
 Leave Link  101 at Sat May 11 07:45:50 2019, MaxMem=  6442450944 cpu:              19.0 elap:               0.7
 (Enter /home/ekwan/sw/g16/l103.exe)

 GradGradGradGradGradGradGradGradGradGradGradGradGradGradGradGradGradGrad
 Berny optimization.
 Initialization pass.
                           ----------------------------
                           !    Initial Parameters    !
                           ! (Angstroms and Degrees)  !
 --------------------------                            --------------------------
 ! Name  Definition              Value          Derivative Info.                !
 --------------------------------------------------------------------------------
 ! R1    R(1,2)                  1.5316         calculate D2E/DX2 analytically  !
 ! R2    R(1,5)                  1.5305         calculate D2E/DX2 analytically  !
 ! R3    R(1,8)                  1.0976         calculate D2E/DX2 analytically  !
 ! R4    R(1,14)                 1.4254         calculate D2E/DX2 analytically  !
 ! R5    R(2,3)                  1.5321         calculate D2E/DX2 analytically  !
 ! R6    R(2,7)                  1.0998         calculate D2E/DX2 analytically  !
 ! R7    R(2,13)                 1.4161         calculate D2E/DX2 analytically  !
 ! R8    R(3,6)                  1.0975         calculate D2E/DX2 analytically  !
 ! R9    R(3,11)                 1.4217         calculate D2E/DX2 analytically  !
 ! R10   R(3,12)                 1.3964         calculate D2E/DX2 analytically  !
 ! R11   R(4,5)                  1.5323         calculate D2E/DX2 analytically  !
 ! R12   R(4,9)                  1.0965         calculate D2E/DX2 analytically  !
 ! R13   R(4,11)                 1.456          calculate D2E/DX2 analytically  !
 ! R14   R(4,16)                 1.5386         calculate D2E/DX2 analytically  !
 ! R15   R(5,10)                 1.0985         calculate D2E/DX2 analytically  !
 ! R16   R(5,15)                 1.4238         calculate D2E/DX2 analytically  !
 ! R17   R(12,79)                1.424          calculate D2E/DX2 analytically  !
 ! R18   R(13,20)                1.422          calculate D2E/DX2 analytically  !
 ! R19   R(14,24)                1.4223         calculate D2E/DX2 analytically  !
 ! R20   R(15,28)                1.4241         calculate D2E/DX2 analytically  !
 ! R21   R(16,17)                1.1109         calculate D2E/DX2 analytically  !
 ! R22   R(16,18)                1.1135         calculate D2E/DX2 analytically  !
 ! R23   R(16,19)                1.3768         calculate D2E/DX2 analytically  !
 ! R24   R(19,37)                2.2633         calculate D2E/DX2 analytically  !
 ! R25   R(19,83)                2.1892         calculate D2E/DX2 analytically  !
 ! R26   R(20,21)                1.1009         calculate D2E/DX2 analytically  !
 ! R27   R(20,22)                1.0939         calculate D2E/DX2 analytically  !
 ! R28   R(20,23)                1.093          calculate D2E/DX2 analytically  !
 ! R29   R(24,25)                1.0944         calculate D2E/DX2 analytically  !
 ! R30   R(24,26)                1.0996         calculate D2E/DX2 analytically  !
 ! R31   R(24,27)                1.0932         calculate D2E/DX2 analytically  !
 ! R32   R(28,29)                1.0999         calculate D2E/DX2 analytically  !
 ! R33   R(28,30)                1.0958         calculate D2E/DX2 analytically  !
 ! R34   R(28,31)                1.0931         calculate D2E/DX2 analytically  !
 ! R35   R(32,33)                1.5284         calculate D2E/DX2 analytically  !
 ! R36   R(32,36)                1.5338         calculate D2E/DX2 analytically  !
 ! R37   R(32,39)                1.0928         calculate D2E/DX2 analytically  !
 ! R38   R(32,45)                1.4196         calculate D2E/DX2 analytically  !
 ! R39   R(33,34)                1.5128         calculate D2E/DX2 analytically  !
 ! R40   R(33,38)                1.0988         calculate D2E/DX2 analytically  !
 ! R41   R(33,44)                1.403          calculate D2E/DX2 analytically  !
 ! R42   R(34,37)                1.0766         calculate D2E/DX2 analytically  !
 ! R43   R(34,42)                1.3042         calculate D2E/DX2 analytically  !
 ! R44   R(34,53)                1.9193         calculate D2E/DX2 analytically  !
 ! R45   R(35,36)                1.5334         calculate D2E/DX2 analytically  !
 ! R46   R(35,40)                1.0852         calculate D2E/DX2 analytically  !
 ! R47   R(35,42)                1.4554         calculate D2E/DX2 analytically  !
 ! R48   R(35,47)                1.5127         calculate D2E/DX2 analytically  !
 ! R49   R(36,41)                1.1004         calculate D2E/DX2 analytically  !
 ! R50   R(36,46)                1.417          calculate D2E/DX2 analytically  !
 ! R51   R(43,51)                1.4745         calculate D2E/DX2 analytically  !
 ! R52   R(44,63)                1.4303         calculate D2E/DX2 analytically  !
 ! R53   R(45,67)                1.4278         calculate D2E/DX2 analytically  !
 ! R54   R(46,71)                1.4244         calculate D2E/DX2 analytically  !
 ! R55   R(47,48)                1.1012         calculate D2E/DX2 analytically  !
 ! R56   R(47,49)                1.1001         calculate D2E/DX2 analytically  !
 ! R57   R(47,50)                1.4107         calculate D2E/DX2 analytically  !
 ! R58   R(48,91)                2.2106         calculate D2E/DX2 analytically  !
 ! R59   R(50,75)                1.4167         calculate D2E/DX2 analytically  !
 ! R60   R(51,52)                1.473          calculate D2E/DX2 analytically  !
 ! R61   R(51,53)                1.5407         calculate D2E/DX2 analytically  !
 ! R62   R(51,54)                1.7993         calculate D2E/DX2 analytically  !
 ! R63   R(54,55)                1.3916         calculate D2E/DX2 analytically  !
 ! R64   R(54,56)                1.3948         calculate D2E/DX2 analytically  !
 ! R65   R(55,57)                1.3936         calculate D2E/DX2 analytically  !
 ! R66   R(55,58)                1.0818         calculate D2E/DX2 analytically  !
 ! R67   R(56,59)                1.3938         calculate D2E/DX2 analytically  !
 ! R68   R(56,60)                1.0836         calculate D2E/DX2 analytically  !
 ! R69   R(57,61)                1.3934         calculate D2E/DX2 analytically  !
 ! R70   R(57,93)                1.504          calculate D2E/DX2 analytically  !
 ! R71   R(59,61)                1.3956         calculate D2E/DX2 analytically  !
 ! R72   R(59,97)                1.5046         calculate D2E/DX2 analytically  !
 ! R73   R(61,62)                1.0834         calculate D2E/DX2 analytically  !
 ! R74   R(63,64)                1.0953         calculate D2E/DX2 analytically  !
 ! R75   R(63,65)                1.0997         calculate D2E/DX2 analytically  !
 ! R76   R(63,66)                1.0916         calculate D2E/DX2 analytically  !
 ! R77   R(67,68)                1.0984         calculate D2E/DX2 analytically  !
 ! R78   R(67,69)                1.0934         calculate D2E/DX2 analytically  !
 ! R79   R(67,70)                1.0923         calculate D2E/DX2 analytically  !
 ! R80   R(71,72)                1.0931         calculate D2E/DX2 analytically  !
 ! R81   R(71,73)                1.0997         calculate D2E/DX2 analytically  !
 ! R82   R(71,74)                1.0906         calculate D2E/DX2 analytically  !
 ! R83   R(75,76)                1.0904         calculate D2E/DX2 analytically  !
 ! R84   R(75,77)                1.1003         calculate D2E/DX2 analytically  !
 ! R85   R(75,78)                1.0992         calculate D2E/DX2 analytically  !
 ! R86   R(79,80)                1.0913         calculate D2E/DX2 analytically  !
 ! R87   R(79,81)                1.0957         calculate D2E/DX2 analytically  !
 ! R88   R(79,82)                1.0995         calculate D2E/DX2 analytically  !
 ! R89   R(83,84)                2.3029         calculate D2E/DX2 analytically  !
 ! R90   R(84,85)                1.4247         calculate D2E/DX2 analytically  !
 ! R91   R(84,89)                1.4233         calculate D2E/DX2 analytically  !
 ! R92   R(85,86)                1.0977         calculate D2E/DX2 analytically  !
 ! R93   R(85,87)                1.0919         calculate D2E/DX2 analytically  !
 ! R94   R(85,88)                1.0979         calculate D2E/DX2 analytically  !
 ! R95   R(89,90)                1.0981         calculate D2E/DX2 analytically  !
 ! R96   R(89,91)                1.0905         calculate D2E/DX2 analytically  !
 ! R97   R(89,92)                1.098          calculate D2E/DX2 analytically  !
 ! R98   R(93,94)                1.3534         calculate D2E/DX2 analytically  !
 ! R99   R(93,95)                1.3542         calculate D2E/DX2 analytically  !
 ! R100  R(93,96)                1.348          calculate D2E/DX2 analytically  !
 ! R101  R(97,98)                1.348          calculate D2E/DX2 analytically  !
 ! R102  R(97,99)                1.3526         calculate D2E/DX2 analytically  !
 ! R103  R(97,100)               1.354          calculate D2E/DX2 analytically  !
 ! A1    A(2,1,5)              109.9999         calculate D2E/DX2 analytically  !
 ! A2    A(2,1,8)              108.5238         calculate D2E/DX2 analytically  !
 ! A3    A(2,1,14)             107.8657         calculate D2E/DX2 analytically  !
 ! A4    A(5,1,8)              109.7069         calculate D2E/DX2 analytically  !
 ! A5    A(5,1,14)             110.5537         calculate D2E/DX2 analytically  !
 ! A6    A(8,1,14)             110.1475         calculate D2E/DX2 analytically  !
 ! A7    A(1,2,3)              110.6808         calculate D2E/DX2 analytically  !
 ! A8    A(1,2,7)              108.2025         calculate D2E/DX2 analytically  !
 ! A9    A(1,2,13)             112.8774         calculate D2E/DX2 analytically  !
 ! A10   A(3,2,7)              106.9458         calculate D2E/DX2 analytically  !
 ! A11   A(3,2,13)             108.1247         calculate D2E/DX2 analytically  !
 ! A12   A(7,2,13)             109.8455         calculate D2E/DX2 analytically  !
 ! A13   A(2,3,6)              110.2987         calculate D2E/DX2 analytically  !
 ! A14   A(2,3,11)             110.2374         calculate D2E/DX2 analytically  !
 ! A15   A(2,3,12)             108.5514         calculate D2E/DX2 analytically  !
 ! A16   A(6,3,11)             104.8456         calculate D2E/DX2 analytically  !
 ! A17   A(6,3,12)             110.7179         calculate D2E/DX2 analytically  !
 ! A18   A(11,3,12)            112.1676         calculate D2E/DX2 analytically  !
 ! A19   A(5,4,9)              109.108          calculate D2E/DX2 analytically  !
 ! A20   A(5,4,11)             108.5296         calculate D2E/DX2 analytically  !
 ! A21   A(5,4,16)             113.8688         calculate D2E/DX2 analytically  !
 ! A22   A(9,4,11)             108.6144         calculate D2E/DX2 analytically  !
 ! A23   A(9,4,16)             109.5535         calculate D2E/DX2 analytically  !
 ! A24   A(11,4,16)            107.0306         calculate D2E/DX2 analytically  !
 ! A25   A(1,5,4)              112.0286         calculate D2E/DX2 analytically  !
 ! A26   A(1,5,10)             107.5657         calculate D2E/DX2 analytically  !
 ! A27   A(1,5,15)             109.3429         calculate D2E/DX2 analytically  !
 ! A28   A(4,5,10)             108.6163         calculate D2E/DX2 analytically  !
 ! A29   A(4,5,15)             109.5848         calculate D2E/DX2 analytically  !
 ! A30   A(10,5,15)            109.6591         calculate D2E/DX2 analytically  !
 ! A31   A(3,11,4)             114.1905         calculate D2E/DX2 analytically  !
 ! A32   A(3,12,79)            113.321          calculate D2E/DX2 analytically  !
 ! A33   A(2,13,20)            114.4361         calculate D2E/DX2 analytically  !
 ! A34   A(1,14,24)            114.2718         calculate D2E/DX2 analytically  !
 ! A35   A(5,15,28)            113.3343         calculate D2E/DX2 analytically  !
 ! A36   A(4,16,17)            104.7149         calculate D2E/DX2 analytically  !
 ! A37   A(4,16,18)            104.8213         calculate D2E/DX2 analytically  !
 ! A38   A(4,16,19)            114.8517         calculate D2E/DX2 analytically  !
 ! A39   A(17,16,18)           105.2705         calculate D2E/DX2 analytically  !
 ! A40   A(17,16,19)           113.5047         calculate D2E/DX2 analytically  !
 ! A41   A(18,16,19)           112.7307         calculate D2E/DX2 analytically  !
 ! A42   A(16,19,37)            90.0658         calculate D2E/DX2 analytically  !
 ! A43   A(16,19,83)           108.3464         calculate D2E/DX2 analytically  !
 ! A44   A(37,19,83)           121.464          calculate D2E/DX2 analytically  !
 ! A45   A(13,20,21)           111.1318         calculate D2E/DX2 analytically  !
 ! A46   A(13,20,22)           111.5869         calculate D2E/DX2 analytically  !
 ! A47   A(13,20,23)           106.5489         calculate D2E/DX2 analytically  !
 ! A48   A(21,20,22)           108.9119         calculate D2E/DX2 analytically  !
 ! A49   A(21,20,23)           108.7816         calculate D2E/DX2 analytically  !
 ! A50   A(22,20,23)           109.8216         calculate D2E/DX2 analytically  !
 ! A51   A(14,24,25)           111.4452         calculate D2E/DX2 analytically  !
 ! A52   A(14,24,26)           110.9949         calculate D2E/DX2 analytically  !
 ! A53   A(14,24,27)           106.6472         calculate D2E/DX2 analytically  !
 ! A54   A(25,24,26)           109.0755         calculate D2E/DX2 analytically  !
 ! A55   A(25,24,27)           109.7092         calculate D2E/DX2 analytically  !
 ! A56   A(26,24,27)           108.9123         calculate D2E/DX2 analytically  !
 ! A57   A(15,28,29)           110.7681         calculate D2E/DX2 analytically  !
 ! A58   A(15,28,30)           111.1846         calculate D2E/DX2 analytically  !
 ! A59   A(15,28,31)           106.895          calculate D2E/DX2 analytically  !
 ! A60   A(29,28,30)           109.035          calculate D2E/DX2 analytically  !
 ! A61   A(29,28,31)           109.0177         calculate D2E/DX2 analytically  !
 ! A62   A(30,28,31)           109.9003         calculate D2E/DX2 analytically  !
 ! A63   A(33,32,36)           110.2826         calculate D2E/DX2 analytically  !
 ! A64   A(33,32,39)           109.4471         calculate D2E/DX2 analytically  !
 ! A65   A(33,32,45)           109.9896         calculate D2E/DX2 analytically  !
 ! A66   A(36,32,39)           109.0912         calculate D2E/DX2 analytically  !
 ! A67   A(36,32,45)           107.7363         calculate D2E/DX2 analytically  !
 ! A68   A(39,32,45)           110.2719         calculate D2E/DX2 analytically  !
 ! A69   A(32,33,34)           112.8708         calculate D2E/DX2 analytically  !
 ! A70   A(32,33,38)           107.3768         calculate D2E/DX2 analytically  !
 ! A71   A(32,33,44)           111.7895         calculate D2E/DX2 analytically  !
 ! A72   A(34,33,38)           102.8729         calculate D2E/DX2 analytically  !
 ! A73   A(34,33,44)           112.1158         calculate D2E/DX2 analytically  !
 ! A74   A(38,33,44)           109.2744         calculate D2E/DX2 analytically  !
 ! A75   A(33,34,37)           118.1158         calculate D2E/DX2 analytically  !
 ! A76   A(33,34,42)           119.9889         calculate D2E/DX2 analytically  !
 ! A77   A(33,34,53)           106.1932         calculate D2E/DX2 analytically  !
 ! A78   A(37,34,42)           113.4125         calculate D2E/DX2 analytically  !
 ! A79   A(37,34,53)            88.0405         calculate D2E/DX2 analytically  !
 ! A80   A(42,34,53)           104.1356         calculate D2E/DX2 analytically  !
 ! A81   A(36,35,40)           107.6536         calculate D2E/DX2 analytically  !
 ! A82   A(36,35,42)           114.6406         calculate D2E/DX2 analytically  !
 ! A83   A(36,35,47)           113.8327         calculate D2E/DX2 analytically  !
 ! A84   A(40,35,42)           105.8949         calculate D2E/DX2 analytically  !
 ! A85   A(40,35,47)           108.2263         calculate D2E/DX2 analytically  !
 ! A86   A(42,35,47)           106.1649         calculate D2E/DX2 analytically  !
 ! A87   A(32,36,35)           112.1059         calculate D2E/DX2 analytically  !
 ! A88   A(32,36,41)           108.8964         calculate D2E/DX2 analytically  !
 ! A89   A(32,36,46)           111.7438         calculate D2E/DX2 analytically  !
 ! A90   A(35,36,41)           110.6665         calculate D2E/DX2 analytically  !
 ! A91   A(35,36,46)           103.8822         calculate D2E/DX2 analytically  !
 ! A92   A(41,36,46)           109.4672         calculate D2E/DX2 analytically  !
 ! A93   A(19,37,34)            98.279          calculate D2E/DX2 analytically  !
 ! A94   A(34,42,35)           120.8935         calculate D2E/DX2 analytically  !
 ! A95   A(33,44,63)           112.8224         calculate D2E/DX2 analytically  !
 ! A96   A(32,45,67)           113.777          calculate D2E/DX2 analytically  !
 ! A97   A(36,46,71)           115.6086         calculate D2E/DX2 analytically  !
 ! A98   A(35,47,48)           109.7406         calculate D2E/DX2 analytically  !
 ! A99   A(35,47,49)           108.3202         calculate D2E/DX2 analytically  !
 ! A100  A(35,47,50)           108.0033         calculate D2E/DX2 analytically  !
 ! A101  A(48,47,49)           109.0769         calculate D2E/DX2 analytically  !
 ! A102  A(48,47,50)           110.577          calculate D2E/DX2 analytically  !
 ! A103  A(49,47,50)           111.0821         calculate D2E/DX2 analytically  !
 ! A104  A(47,48,91)           114.7286         calculate D2E/DX2 analytically  !
 ! A105  A(47,50,75)           112.5388         calculate D2E/DX2 analytically  !
 ! A106  A(43,51,52)           117.1249         calculate D2E/DX2 analytically  !
 ! A107  A(43,51,53)           113.7117         calculate D2E/DX2 analytically  !
 ! A108  A(43,51,54)           105.8305         calculate D2E/DX2 analytically  !
 ! A109  A(52,51,53)           108.7128         calculate D2E/DX2 analytically  !
 ! A110  A(52,51,54)           107.391          calculate D2E/DX2 analytically  !
 ! A111  A(53,51,54)           102.8535         calculate D2E/DX2 analytically  !
 ! A112  A(34,53,51)           138.5509         calculate D2E/DX2 analytically  !
 ! A113  A(51,54,55)           119.0917         calculate D2E/DX2 analytically  !
 ! A114  A(51,54,56)           119.3665         calculate D2E/DX2 analytically  !
 ! A115  A(55,54,56)           121.1849         calculate D2E/DX2 analytically  !
 ! A116  A(54,55,57)           119.1117         calculate D2E/DX2 analytically  !
 ! A117  A(54,55,58)           119.7325         calculate D2E/DX2 analytically  !
 ! A118  A(57,55,58)           121.062          calculate D2E/DX2 analytically  !
 ! A119  A(54,56,59)           118.9362         calculate D2E/DX2 analytically  !
 ! A120  A(54,56,60)           120.3844         calculate D2E/DX2 analytically  !
 ! A121  A(59,56,60)           120.5809         calculate D2E/DX2 analytically  !
 ! A122  A(55,57,61)           120.5694         calculate D2E/DX2 analytically  !
 ! A123  A(55,57,93)           120.2639         calculate D2E/DX2 analytically  !
 ! A124  A(61,57,93)           119.1443         calculate D2E/DX2 analytically  !
 ! A125  A(56,59,61)           120.6166         calculate D2E/DX2 analytically  !
 ! A126  A(56,59,97)           119.7546         calculate D2E/DX2 analytically  !
 ! A127  A(61,59,97)           119.6278         calculate D2E/DX2 analytically  !
 ! A128  A(57,61,59)           119.5365         calculate D2E/DX2 analytically  !
 ! A129  A(57,61,62)           120.3445         calculate D2E/DX2 analytically  !
 ! A130  A(59,61,62)           120.0912         calculate D2E/DX2 analytically  !
 ! A131  A(44,63,64)           111.3771         calculate D2E/DX2 analytically  !
 ! A132  A(44,63,65)           110.3703         calculate D2E/DX2 analytically  !
 ! A133  A(44,63,66)           106.6746         calculate D2E/DX2 analytically  !
 ! A134  A(64,63,65)           108.6203         calculate D2E/DX2 analytically  !
 ! A135  A(64,63,66)           110.3824         calculate D2E/DX2 analytically  !
 ! A136  A(65,63,66)           109.3973         calculate D2E/DX2 analytically  !
 ! A137  A(45,67,68)           110.7294         calculate D2E/DX2 analytically  !
 ! A138  A(45,67,69)           111.179          calculate D2E/DX2 analytically  !
 ! A139  A(45,67,70)           106.4333         calculate D2E/DX2 analytically  !
 ! A140  A(68,67,69)           109.2617         calculate D2E/DX2 analytically  !
 ! A141  A(68,67,70)           109.2189         calculate D2E/DX2 analytically  !
 ! A142  A(69,67,70)           109.9706         calculate D2E/DX2 analytically  !
 ! A143  A(46,71,72)           111.5154         calculate D2E/DX2 analytically  !
 ! A144  A(46,71,73)           110.7526         calculate D2E/DX2 analytically  !
 ! A145  A(46,71,74)           105.8545         calculate D2E/DX2 analytically  !
 ! A146  A(72,71,73)           109.1247         calculate D2E/DX2 analytically  !
 ! A147  A(72,71,74)           110.1473         calculate D2E/DX2 analytically  !
 ! A148  A(73,71,74)           109.3954         calculate D2E/DX2 analytically  !
 ! A149  A(50,75,76)           106.7946         calculate D2E/DX2 analytically  !
 ! A150  A(50,75,77)           111.1868         calculate D2E/DX2 analytically  !
 ! A151  A(50,75,78)           111.3718         calculate D2E/DX2 analytically  !
 ! A152  A(76,75,77)           109.2133         calculate D2E/DX2 analytically  !
 ! A153  A(76,75,78)           109.5247         calculate D2E/DX2 analytically  !
 ! A154  A(77,75,78)           108.7102         calculate D2E/DX2 analytically  !
 ! A155  A(12,79,80)           106.7392         calculate D2E/DX2 analytically  !
 ! A156  A(12,79,81)           111.4722         calculate D2E/DX2 analytically  !
 ! A157  A(12,79,82)           110.6748         calculate D2E/DX2 analytically  !
 ! A158  A(80,79,81)           109.5633         calculate D2E/DX2 analytically  !
 ! A159  A(80,79,82)           109.2985         calculate D2E/DX2 analytically  !
 ! A160  A(81,79,82)           109.0484         calculate D2E/DX2 analytically  !
 ! A161  A(83,84,85)           121.6783         calculate D2E/DX2 analytically  !
 ! A162  A(83,84,89)           126.1874         calculate D2E/DX2 analytically  !
 ! A163  A(85,84,89)           112.134          calculate D2E/DX2 analytically  !
 ! A164  A(84,85,86)           110.8628         calculate D2E/DX2 analytically  !
 ! A165  A(84,85,87)           107.3879         calculate D2E/DX2 analytically  !
 ! A166  A(84,85,88)           110.6244         calculate D2E/DX2 analytically  !
 ! A167  A(86,85,87)           109.3887         calculate D2E/DX2 analytically  !
 ! A168  A(86,85,88)           109.1718         calculate D2E/DX2 analytically  !
 ! A169  A(87,85,88)           109.3719         calculate D2E/DX2 analytically  !
 ! A170  A(84,89,90)           110.7106         calculate D2E/DX2 analytically  !
 ! A171  A(84,89,91)           107.4454         calculate D2E/DX2 analytically  !
 ! A172  A(84,89,92)           110.8374         calculate D2E/DX2 analytically  !
 ! A173  A(90,89,91)           109.2832         calculate D2E/DX2 analytically  !
 ! A174  A(90,89,92)           109.1331         calculate D2E/DX2 analytically  !
 ! A175  A(91,89,92)           109.3972         calculate D2E/DX2 analytically  !
 ! A176  A(48,91,89)           154.2866         calculate D2E/DX2 analytically  !
 ! A177  A(57,93,94)           111.6446         calculate D2E/DX2 analytically  !
 ! A178  A(57,93,95)           111.3078         calculate D2E/DX2 analytically  !
 ! A179  A(57,93,96)           112.3319         calculate D2E/DX2 analytically  !
 ! A180  A(94,93,95)           106.5911         calculate D2E/DX2 analytically  !
 ! A181  A(94,93,96)           107.2204         calculate D2E/DX2 analytically  !
 ! A182  A(95,93,96)           107.441          calculate D2E/DX2 analytically  !
 ! A183  A(59,97,98)           112.0608         calculate D2E/DX2 analytically  !
 ! A184  A(59,97,99)           111.7733         calculate D2E/DX2 analytically  !
 ! A185  A(59,97,100)          111.3781         calculate D2E/DX2 analytically  !
 ! A186  A(98,97,99)           107.5997         calculate D2E/DX2 analytically  !
 ! A187  A(98,97,100)          106.9598         calculate D2E/DX2 analytically  !
 ! A188  A(99,97,100)          106.7732         calculate D2E/DX2 analytically  !
 ! A189  L(19,83,84,1,-1)      175.517          calculate D2E/DX2 analytically  !
 ! A190  L(19,83,84,1,-2)      172.3519         calculate D2E/DX2 analytically  !
 ! D1    D(5,1,2,3)            -51.7587         calculate D2E/DX2 analytically  !
 ! D2    D(5,1,2,7)             65.1187         calculate D2E/DX2 analytically  !
 ! D3    D(5,1,2,13)          -173.1032         calculate D2E/DX2 analytically  !
 ! D4    D(8,1,2,3)             68.2683         calculate D2E/DX2 analytically  !
 ! D5    D(8,1,2,7)           -174.8544         calculate D2E/DX2 analytically  !
 ! D6    D(8,1,2,13)           -53.0763         calculate D2E/DX2 analytically  !
 ! D7    D(14,1,2,3)          -172.4134         calculate D2E/DX2 analytically  !
 ! D8    D(14,1,2,7)           -55.5361         calculate D2E/DX2 analytically  !
 ! D9    D(14,1,2,13)           66.2421         calculate D2E/DX2 analytically  !
 ! D10   D(2,1,5,4)             52.3778         calculate D2E/DX2 analytically  !
 ! D11   D(2,1,5,10)           -66.9164         calculate D2E/DX2 analytically  !
 ! D12   D(2,1,5,15)           174.0638         calculate D2E/DX2 analytically  !
 ! D13   D(8,1,5,4)            -66.9293         calculate D2E/DX2 analytically  !
 ! D14   D(8,1,5,10)           173.7765         calculate D2E/DX2 analytically  !
 ! D15   D(8,1,5,15)            54.7568         calculate D2E/DX2 analytically  !
 ! D16   D(14,1,5,4)           171.3995         calculate D2E/DX2 analytically  !
 ! D17   D(14,1,5,10)           52.1053         calculate D2E/DX2 analytically  !
 ! D18   D(14,1,5,15)          -66.9144         calculate D2E/DX2 analytically  !
 ! D19   D(2,1,14,24)         -143.2818         calculate D2E/DX2 analytically  !
 ! D20   D(5,1,14,24)           96.4111         calculate D2E/DX2 analytically  !
 ! D21   D(8,1,14,24)          -24.9999         calculate D2E/DX2 analytically  !
 ! D22   D(1,2,3,6)            171.0932         calculate D2E/DX2 analytically  !
 ! D23   D(1,2,3,11)            55.7829         calculate D2E/DX2 analytically  !
 ! D24   D(1,2,3,12)           -67.4406         calculate D2E/DX2 analytically  !
 ! D25   D(7,2,3,6)             53.4434         calculate D2E/DX2 analytically  !
 ! D26   D(7,2,3,11)           -61.8668         calculate D2E/DX2 analytically  !
 ! D27   D(7,2,3,12)           174.9097         calculate D2E/DX2 analytically  !
 ! D28   D(13,2,3,6)           -64.7961         calculate D2E/DX2 analytically  !
 ! D29   D(13,2,3,11)          179.8936         calculate D2E/DX2 analytically  !
 ! D30   D(13,2,3,12)           56.6701         calculate D2E/DX2 analytically  !
 ! D31   D(1,2,13,20)          -93.1315         calculate D2E/DX2 analytically  !
 ! D32   D(3,2,13,20)          144.0866         calculate D2E/DX2 analytically  !
 ! D33   D(7,2,13,20)           27.7153         calculate D2E/DX2 analytically  !
 ! D34   D(2,3,11,4)           -61.5493         calculate D2E/DX2 analytically  !
 ! D35   D(6,3,11,4)           179.7504         calculate D2E/DX2 analytically  !
 ! D36   D(12,3,11,4)           59.5391         calculate D2E/DX2 analytically  !
 ! D37   D(2,3,12,79)         -173.2515         calculate D2E/DX2 analytically  !
 ! D38   D(6,3,12,79)          -52.0428         calculate D2E/DX2 analytically  !
 ! D39   D(11,3,12,79)          64.6942         calculate D2E/DX2 analytically  !
 ! D40   D(9,4,5,1)             63.3819         calculate D2E/DX2 analytically  !
 ! D41   D(9,4,5,10)          -177.9435         calculate D2E/DX2 analytically  !
 ! D42   D(9,4,5,15)           -58.1652         calculate D2E/DX2 analytically  !
 ! D43   D(11,4,5,1)           -54.8079         calculate D2E/DX2 analytically  !
 ! D44   D(11,4,5,10)           63.8668         calculate D2E/DX2 analytically  !
 ! D45   D(11,4,5,15)         -176.355          calculate D2E/DX2 analytically  !
 ! D46   D(16,4,5,1)          -173.892          calculate D2E/DX2 analytically  !
 ! D47   D(16,4,5,10)          -55.2173         calculate D2E/DX2 analytically  !
 ! D48   D(16,4,5,15)           64.5609         calculate D2E/DX2 analytically  !
 ! D49   D(5,4,11,3)            60.4256         calculate D2E/DX2 analytically  !
 ! D50   D(9,4,11,3)           -58.0768         calculate D2E/DX2 analytically  !
 ! D51   D(16,4,11,3)         -176.2754         calculate D2E/DX2 analytically  !
 ! D52   D(5,4,16,17)          -66.57           calculate D2E/DX2 analytically  !
 ! D53   D(5,4,16,18)         -177.129          calculate D2E/DX2 analytically  !
 ! D54   D(5,4,16,19)           58.6043         calculate D2E/DX2 analytically  !
 ! D55   D(9,4,16,17)           55.9118         calculate D2E/DX2 analytically  !
 ! D56   D(9,4,16,18)          -54.6472         calculate D2E/DX2 analytically  !
 ! D57   D(9,4,16,19)         -178.9139         calculate D2E/DX2 analytically  !
 ! D58   D(11,4,16,17)         173.4966         calculate D2E/DX2 analytically  !
 ! D59   D(11,4,16,18)          62.9375         calculate D2E/DX2 analytically  !
 ! D60   D(11,4,16,19)         -61.3291         calculate D2E/DX2 analytically  !
 ! D61   D(1,5,15,28)          132.7399         calculate D2E/DX2 analytically  !
 ! D62   D(4,5,15,28)         -104.1116         calculate D2E/DX2 analytically  !
 ! D63   D(10,5,15,28)          15.0259         calculate D2E/DX2 analytically  !
 ! D64   D(3,12,79,80)         175.4949         calculate D2E/DX2 analytically  !
 ! D65   D(3,12,79,81)         -64.898          calculate D2E/DX2 analytically  !
 ! D66   D(3,12,79,82)          56.6549         calculate D2E/DX2 analytically  !
 ! D67   D(2,13,20,21)         -58.7393         calculate D2E/DX2 analytically  !
 ! D68   D(2,13,20,22)          63.0379         calculate D2E/DX2 analytically  !
 ! D69   D(2,13,20,23)        -177.0945         calculate D2E/DX2 analytically  !
 ! D70   D(1,14,24,25)         -60.7547         calculate D2E/DX2 analytically  !
 ! D71   D(1,14,24,26)          61.0372         calculate D2E/DX2 analytically  !
 ! D72   D(1,14,24,27)         179.5337         calculate D2E/DX2 analytically  !
 ! D73   D(5,15,28,29)         -70.5624         calculate D2E/DX2 analytically  !
 ! D74   D(5,15,28,30)          50.8414         calculate D2E/DX2 analytically  !
 ! D75   D(5,15,28,31)         170.7909         calculate D2E/DX2 analytically  !
 ! D76   D(4,16,19,37)         159.324          calculate D2E/DX2 analytically  !
 ! D77   D(4,16,19,83)          35.9367         calculate D2E/DX2 analytically  !
 ! D78   D(17,16,19,37)        -80.2322         calculate D2E/DX2 analytically  !
 ! D79   D(17,16,19,83)        156.3805         calculate D2E/DX2 analytically  !
 ! D80   D(18,16,19,37)         39.3448         calculate D2E/DX2 analytically  !
 ! D81   D(18,16,19,83)        -84.0425         calculate D2E/DX2 analytically  !
 ! D82   D(16,19,37,34)       -118.8973         calculate D2E/DX2 analytically  !
 ! D83   D(83,19,37,34)         -7.1989         calculate D2E/DX2 analytically  !
 ! D84   D(16,19,84,85)       -112.2527         calculate D2E/DX2 analytically  !
 ! D85   D(16,19,84,89)         63.3379         calculate D2E/DX2 analytically  !
 ! D86   D(37,19,84,85)        148.9956         calculate D2E/DX2 analytically  !
 ! D87   D(37,19,84,89)        -35.4138         calculate D2E/DX2 analytically  !
 ! D88   D(36,32,33,34)        -46.8198         calculate D2E/DX2 analytically  !
 ! D89   D(36,32,33,38)         65.8464         calculate D2E/DX2 analytically  !
 ! D90   D(36,32,33,44)       -174.3129         calculate D2E/DX2 analytically  !
 ! D91   D(39,32,33,34)         73.1985         calculate D2E/DX2 analytically  !
 ! D92   D(39,32,33,38)       -174.1353         calculate D2E/DX2 analytically  !
 ! D93   D(39,32,33,44)        -54.2946         calculate D2E/DX2 analytically  !
 ! D94   D(45,32,33,34)       -165.5073         calculate D2E/DX2 analytically  !
 ! D95   D(45,32,33,38)        -52.841          calculate D2E/DX2 analytically  !
 ! D96   D(45,32,33,44)         66.9996         calculate D2E/DX2 analytically  !
 ! D97   D(33,32,36,35)         49.8881         calculate D2E/DX2 analytically  !
 ! D98   D(33,32,36,41)        -72.9091         calculate D2E/DX2 analytically  !
 ! D99   D(33,32,36,46)        166.0429         calculate D2E/DX2 analytically  !
 ! D100  D(39,32,36,35)        -70.3447         calculate D2E/DX2 analytically  !
 ! D101  D(39,32,36,41)        166.8582         calculate D2E/DX2 analytically  !
 ! D102  D(39,32,36,46)         45.8101         calculate D2E/DX2 analytically  !
 ! D103  D(45,32,36,35)        169.9435         calculate D2E/DX2 analytically  !
 ! D104  D(45,32,36,41)         47.1463         calculate D2E/DX2 analytically  !
 ! D105  D(45,32,36,46)        -73.9017         calculate D2E/DX2 analytically  !
 ! D106  D(33,32,45,67)        -95.9155         calculate D2E/DX2 analytically  !
 ! D107  D(36,32,45,67)        143.8441         calculate D2E/DX2 analytically  !
 ! D108  D(39,32,45,67)         24.8838         calculate D2E/DX2 analytically  !
 ! D109  D(32,33,34,37)       -174.6086         calculate D2E/DX2 analytically  !
 ! D110  D(32,33,34,42)         39.4477         calculate D2E/DX2 analytically  !
 ! D111  D(32,33,34,53)        -78.017          calculate D2E/DX2 analytically  !
 ! D112  D(38,33,34,37)         69.9941         calculate D2E/DX2 analytically  !
 ! D113  D(38,33,34,42)        -75.9496         calculate D2E/DX2 analytically  !
 ! D114  D(38,33,34,53)        166.5857         calculate D2E/DX2 analytically  !
 ! D115  D(44,33,34,37)        -47.2875         calculate D2E/DX2 analytically  !
 ! D116  D(44,33,34,42)        166.7688         calculate D2E/DX2 analytically  !
 ! D117  D(44,33,34,53)         49.3041         calculate D2E/DX2 analytically  !
 ! D118  D(32,33,44,63)       -145.481          calculate D2E/DX2 analytically  !
 ! D119  D(34,33,44,63)         86.6214         calculate D2E/DX2 analytically  !
 ! D120  D(38,33,44,63)        -26.7613         calculate D2E/DX2 analytically  !
 ! D121  D(33,34,37,19)        -71.1034         calculate D2E/DX2 analytically  !
 ! D122  D(42,34,37,19)         76.989          calculate D2E/DX2 analytically  !
 ! D123  D(53,34,37,19)       -178.4465         calculate D2E/DX2 analytically  !
 ! D124  D(33,34,42,35)        -33.2591         calculate D2E/DX2 analytically  !
 ! D125  D(37,34,42,35)        179.3047         calculate D2E/DX2 analytically  !
 ! D126  D(53,34,42,35)         85.2549         calculate D2E/DX2 analytically  !
 ! D127  D(33,34,53,51)         41.6531         calculate D2E/DX2 analytically  !
 ! D128  D(37,34,53,51)        160.4088         calculate D2E/DX2 analytically  !
 ! D129  D(42,34,53,51)        -85.9268         calculate D2E/DX2 analytically  !
 ! D130  D(40,35,36,32)         74.3234         calculate D2E/DX2 analytically  !
 ! D131  D(40,35,36,41)       -163.8868         calculate D2E/DX2 analytically  !
 ! D132  D(40,35,36,46)        -46.4914         calculate D2E/DX2 analytically  !
 ! D133  D(42,35,36,32)        -43.2044         calculate D2E/DX2 analytically  !
 ! D134  D(42,35,36,41)         78.5854         calculate D2E/DX2 analytically  !
 ! D135  D(42,35,36,46)       -164.0193         calculate D2E/DX2 analytically  !
 ! D136  D(47,35,36,32)       -165.7158         calculate D2E/DX2 analytically  !
 ! D137  D(47,35,36,41)        -43.926          calculate D2E/DX2 analytically  !
 ! D138  D(47,35,36,46)         73.4693         calculate D2E/DX2 analytically  !
 ! D139  D(36,35,42,34)         34.9887         calculate D2E/DX2 analytically  !
 ! D140  D(40,35,42,34)        -83.5351         calculate D2E/DX2 analytically  !
 ! D141  D(47,35,42,34)        161.5587         calculate D2E/DX2 analytically  !
 ! D142  D(36,35,47,48)         77.6084         calculate D2E/DX2 analytically  !
 ! D143  D(36,35,47,49)        -41.3781         calculate D2E/DX2 analytically  !
 ! D144  D(36,35,47,50)       -161.7774         calculate D2E/DX2 analytically  !
 ! D145  D(40,35,47,48)       -162.7547         calculate D2E/DX2 analytically  !
 ! D146  D(40,35,47,49)         78.2589         calculate D2E/DX2 analytically  !
 ! D147  D(40,35,47,50)        -42.1404         calculate D2E/DX2 analytically  !
 ! D148  D(42,35,47,48)        -49.4476         calculate D2E/DX2 analytically  !
 ! D149  D(42,35,47,49)       -168.4341         calculate D2E/DX2 analytically  !
 ! D150  D(42,35,47,50)         71.1666         calculate D2E/DX2 analytically  !
 ! D151  D(32,36,46,71)         89.8709         calculate D2E/DX2 analytically  !
 ! D152  D(35,36,46,71)       -149.0711         calculate D2E/DX2 analytically  !
 ! D153  D(41,36,46,71)        -30.8451         calculate D2E/DX2 analytically  !
 ! D154  D(33,44,63,64)        -44.4829         calculate D2E/DX2 analytically  !
 ! D155  D(33,44,63,65)         76.2543         calculate D2E/DX2 analytically  !
 ! D156  D(33,44,63,66)       -164.9923         calculate D2E/DX2 analytically  !
 ! D157  D(32,45,67,68)        -61.3408         calculate D2E/DX2 analytically  !
 ! D158  D(32,45,67,69)         60.3208         calculate D2E/DX2 analytically  !
 ! D159  D(32,45,67,70)       -179.9333         calculate D2E/DX2 analytically  !
 ! D160  D(36,46,71,72)        -64.8753         calculate D2E/DX2 analytically  !
 ! D161  D(36,46,71,73)         56.8587         calculate D2E/DX2 analytically  !
 ! D162  D(36,46,71,74)        175.3341         calculate D2E/DX2 analytically  !
 ! D163  D(35,47,48,91)       -102.0835         calculate D2E/DX2 analytically  !
 ! D164  D(49,47,48,91)         16.4363         calculate D2E/DX2 analytically  !
 ! D165  D(50,47,48,91)        138.8736         calculate D2E/DX2 analytically  !
 ! D166  D(35,47,50,75)        175.7391         calculate D2E/DX2 analytically  !
 ! D167  D(48,47,50,75)        -64.1711         calculate D2E/DX2 analytically  !
 ! D168  D(49,47,50,75)         57.0861         calculate D2E/DX2 analytically  !
 ! D169  D(47,48,91,89)        153.3396         calculate D2E/DX2 analytically  !
 ! D170  D(47,50,75,76)        179.738          calculate D2E/DX2 analytically  !
 ! D171  D(47,50,75,77)        -61.2069         calculate D2E/DX2 analytically  !
 ! D172  D(47,50,75,78)         60.2007         calculate D2E/DX2 analytically  !
 ! D173  D(43,51,53,34)        -45.6673         calculate D2E/DX2 analytically  !
 ! D174  D(52,51,53,34)       -178.0855         calculate D2E/DX2 analytically  !
 ! D175  D(54,51,53,34)         68.2753         calculate D2E/DX2 analytically  !
 ! D176  D(43,51,54,55)          1.1459         calculate D2E/DX2 analytically  !
 ! D177  D(43,51,54,56)        174.3702         calculate D2E/DX2 analytically  !
 ! D178  D(52,51,54,55)        126.9784         calculate D2E/DX2 analytically  !
 ! D179  D(52,51,54,56)        -59.7974         calculate D2E/DX2 analytically  !
 ! D180  D(53,51,54,55)       -118.4204         calculate D2E/DX2 analytically  !
 ! D181  D(53,51,54,56)         54.8039         calculate D2E/DX2 analytically  !
 ! D182  D(51,54,55,57)        170.5809         calculate D2E/DX2 analytically  !
 ! D183  D(51,54,55,58)         -5.9356         calculate D2E/DX2 analytically  !
 ! D184  D(56,54,55,57)         -2.516          calculate D2E/DX2 analytically  !
 ! D185  D(56,54,55,58)       -179.0326         calculate D2E/DX2 analytically  !
 ! D186  D(51,54,56,59)       -171.1541         calculate D2E/DX2 analytically  !
 ! D187  D(51,54,56,60)          5.2577         calculate D2E/DX2 analytically  !
 ! D188  D(55,54,56,59)          1.9242         calculate D2E/DX2 analytically  !
 ! D189  D(55,54,56,60)        178.336          calculate D2E/DX2 analytically  !
 ! D190  D(54,55,57,61)          1.3277         calculate D2E/DX2 analytically  !
 ! D191  D(54,55,57,93)       -176.9343         calculate D2E/DX2 analytically  !
 ! D192  D(58,55,57,61)        177.7965         calculate D2E/DX2 analytically  !
 ! D193  D(58,55,57,93)         -0.4656         calculate D2E/DX2 analytically  !
 ! D194  D(54,56,59,61)         -0.1376         calculate D2E/DX2 analytically  !
 ! D195  D(54,56,59,97)        179.509          calculate D2E/DX2 analytically  !
 ! D196  D(60,56,59,61)       -176.5422         calculate D2E/DX2 analytically  !
 ! D197  D(60,56,59,97)          3.1044         calculate D2E/DX2 analytically  !
 ! D198  D(55,57,61,59)          0.4092         calculate D2E/DX2 analytically  !
 ! D199  D(55,57,61,62)       -177.6743         calculate D2E/DX2 analytically  !
 ! D200  D(93,57,61,59)        178.6905         calculate D2E/DX2 analytically  !
 ! D201  D(93,57,61,62)          0.6071         calculate D2E/DX2 analytically  !
 ! D202  D(55,57,93,94)       -105.8036         calculate D2E/DX2 analytically  !
 ! D203  D(55,57,93,95)        135.2154         calculate D2E/DX2 analytically  !
 ! D204  D(55,57,93,96)         14.6832         calculate D2E/DX2 analytically  !
 ! D205  D(61,57,93,94)         75.9097         calculate D2E/DX2 analytically  !
 ! D206  D(61,57,93,95)        -43.0713         calculate D2E/DX2 analytically  !
 ! D207  D(61,57,93,96)       -163.6034         calculate D2E/DX2 analytically  !
 ! D208  D(56,59,61,57)         -1.0112         calculate D2E/DX2 analytically  !
 ! D209  D(56,59,61,62)        177.0772         calculate D2E/DX2 analytically  !
 ! D210  D(97,59,61,57)        179.3418         calculate D2E/DX2 analytically  !
 ! D211  D(97,59,61,62)         -2.5698         calculate D2E/DX2 analytically  !
 ! D212  D(56,59,97,98)        -32.0431         calculate D2E/DX2 analytically  !
 ! D213  D(56,59,97,99)       -152.9195         calculate D2E/DX2 analytically  !
 ! D214  D(56,59,97,100)        87.7349         calculate D2E/DX2 analytically  !
 ! D215  D(61,59,97,98)        147.607          calculate D2E/DX2 analytically  !
 ! D216  D(61,59,97,99)         26.7306         calculate D2E/DX2 analytically  !
 ! D217  D(61,59,97,100)       -92.615          calculate D2E/DX2 analytically  !
 ! D218  D(83,84,85,86)       -119.4498         calculate D2E/DX2 analytically  !
 ! D219  D(83,84,85,87)         -0.0022         calculate D2E/DX2 analytically  !
 ! D220  D(83,84,85,88)        119.2885         calculate D2E/DX2 analytically  !
 ! D221  D(89,84,85,86)         60.3558         calculate D2E/DX2 analytically  !
 ! D222  D(89,84,85,87)        179.8034         calculate D2E/DX2 analytically  !
 ! D223  D(89,84,85,88)        -60.906          calculate D2E/DX2 analytically  !
 ! D224  D(83,84,89,90)       -120.004          calculate D2E/DX2 analytically  !
 ! D225  D(83,84,89,91)         -0.7365         calculate D2E/DX2 analytically  !
 ! D226  D(83,84,89,92)        118.7421         calculate D2E/DX2 analytically  !
 ! D227  D(85,84,89,90)         60.2011         calculate D2E/DX2 analytically  !
 ! D228  D(85,84,89,91)        179.4685         calculate D2E/DX2 analytically  !
 ! D229  D(85,84,89,92)        -61.0529         calculate D2E/DX2 analytically  !
 ! D230  D(84,89,91,48)        -22.6436         calculate D2E/DX2 analytically  !
 ! D231  D(90,89,91,48)         97.5337         calculate D2E/DX2 analytically  !
 ! D232  D(92,89,91,48)       -143.0382         calculate D2E/DX2 analytically  !
 --------------------------------------------------------------------------------
 Trust Radius=3.00D-02 FncErr=1.00D-07 GrdErr=1.00D-06 EigMax=2.50D+02 EigMin=1.00D-04
 Number of steps in this run=    535 maximum allowed number of steps=    600.
 Search for a saddle point of order  1.
 Step   0 in ReCalcFC=30 IGetFC= 4 compute analytic Hessian.
 GradGradGradGradGradGradGradGradGradGradGradGradGradGradGradGradGradGrad

 Leave Link  103 at Sat May 11 07:45:50 2019, MaxMem=  6442450944 cpu:               5.2 elap:               0.2
 (Enter /home/ekwan/sw/g16/l202.exe)
 Stoichiometry    C30H47F6NaO15S
 Framework group  C1[X(C30H47F6NaO15S)]
 Deg. of freedom   294
 Full point group                 C1      NOp   1
 Largest Abelian subgroup         C1      NOp   1
 Largest concise Abelian subgroup C1      NOp   1
                         Standard orientation:                         
 ---------------------------------------------------------------------
 Center     Atomic      Atomic             Coordinates (Angstroms)
 Number     Number       Type             X           Y           Z
 ---------------------------------------------------------------------
      1          6           0       -6.100294   -0.297929   -0.629308
      2          6           0       -5.566554   -1.051563    0.592612
      3          6           0       -4.249649   -1.759824    0.258780
      4          6           0       -3.708516   -0.163694   -1.472412
      5          6           0       -5.007232    0.604698   -1.206179
      6          1           0       -3.792460   -2.163477    1.171268
      7          1           0       -5.344486   -0.316245    1.379773
      8          1           0       -6.410349   -1.032233   -1.383847
      9          1           0       -3.894020   -0.928459   -2.236024
     10          1           0       -4.803701    1.392177   -0.467885
     11          8           0       -3.301744   -0.825561   -0.240992
     12          8           0       -4.514192   -2.782021   -0.655042
     13          8           0       -6.475954   -2.020348    1.082420
     14          8           0       -7.220152    0.477757   -0.209864
     15          8           0       -5.471137    1.191996   -2.417374
     16          6           0       -2.535687    0.729572   -1.912508
     17          1           0       -2.835825    1.118845   -2.908694
     18          1           0       -1.699195    0.022742   -2.113717
     19          8           0       -2.193357    1.717892   -1.017124
     20          6           0       -7.334772   -1.552208    2.114623
     21          1           0       -6.756292   -1.189449    2.978190
     22          1           0       -7.986978   -0.748012    1.761704
     23          1           0       -7.938094   -2.407495    2.429440
     24          6           0       -8.268381    0.556900   -1.167983
     25          1           0       -7.926370    1.022009   -2.097735
     26          1           0       -8.672840   -0.440653   -1.392764
     27          1           0       -9.057344    1.166291   -0.719390
     28          6           0       -5.234106    2.594250   -2.491283
     29          1           0       -5.885325    3.137342   -1.790701
     30          1           0       -4.188596    2.831632   -2.264585
     31          1           0       -5.472921    2.903425   -3.512183
     32          6           0        1.505904    2.158705    1.128509
     33          6           0        0.538060    2.599553    0.030743
     34          6           0        0.445341    1.605075   -1.105534
     35          6           0        1.203379   -0.215557    0.265150
     36          6           0        1.255823    0.691794    1.500189
     37          1           0       -0.144296    1.871410   -1.965991
     38          1           0       -0.474106    2.578422    0.457744
     39          1           0        2.533426    2.267086    0.772684
     40          1           0        2.219324   -0.339041   -0.095891
     41          1           0        0.318120    0.623925    2.072067
     42          8           0        0.445799    0.325492   -0.853561
     43          8           0        3.817776    3.156917   -0.968030
     44          8           0        0.821904    3.896090   -0.423927
     45          8           0        1.304547    2.940998    2.295879
     46          8           0        2.318282    0.156900    2.270145
     47          6           0        0.628439   -1.587703    0.538753
     48          1           0       -0.468970   -1.524698    0.605076
     49          1           0        1.026872   -1.944139    1.500192
     50          8           0        1.013210   -2.440180   -0.517357
     51         16           0        3.519700    2.127422   -1.980676
     52          8           0        4.151306    2.282662   -3.302310
     53          8           0        2.013447    1.871862   -2.179629
     54          6           0        4.101126    0.572810   -1.286036
     55          6           0        4.664820    0.569041   -0.013725
     56          6           0        3.850166   -0.617569   -1.968324
     57          6           0        4.933026   -0.650314    0.605397
     58          1           0        4.834915    1.505472    0.500505
     59          6           0        4.135880   -1.828286   -1.339703
     60          1           0        3.386095   -0.600779   -2.947370
     61          6           0        4.667273   -1.851195   -0.049472
     62          1           0        4.841952   -2.796935    0.449327
     63          6           0       -0.353271    4.626925   -0.785414
     64          1           0       -1.039910    4.011687   -1.376727
     65          1           0       -0.880069    4.974407    0.115137
     66          1           0       -0.019728    5.489225   -1.365712
     67          6           0        2.195950    4.050905    2.405888
     68          1           0        3.238419    3.708700    2.457350
     69          1           0        2.082022    4.734399    1.560091
     70          1           0        1.939098    4.562509    3.336206
     71          6           0        2.189122    0.300823    3.681340
     72          1           0        2.212898    1.351827    3.980987
     73          1           0        1.252372   -0.153603    4.035236
     74          1           0        3.036426   -0.232413    4.114012
     75          6           0        0.604767   -3.780678   -0.309489
     76          1           0        0.942973   -4.350931   -1.175166
     77          1           0        1.060958   -4.198865    0.600314
     78          1           0       -0.488290   -3.857558   -0.223174
     79          6           0       -3.384252   -3.606741   -0.921040
     80          1           0       -3.727831   -4.408751   -1.576582
     81          1           0       -2.585183   -3.044506   -1.416915
     82          1           0       -2.992833   -4.041083    0.010156
     83         11           0       -2.458273    0.933553    1.009499
     84          8           0       -2.765110   -0.208374    2.985620
     85          6           0       -3.774136    0.168038    3.918365
     86          1           0       -3.330872    0.441553    4.884621
     87          1           0       -4.297452    1.031306    3.502282
     88          1           0       -4.487682   -0.652810    4.068442
     89          6           0       -2.012650   -1.330468    3.433337
     90          1           0       -2.664463   -2.202134    3.578706
     91          1           0       -1.274382   -1.557255    2.663466
     92          1           0       -1.498193   -1.104505    4.376621
     93          6           0        5.477806   -0.685212    2.006879
     94          9           0        6.790681   -1.013410    2.024096
     95          9           0        4.837967   -1.610612    2.760663
     96          9           0        5.354913    0.501776    2.633908
     97          6           0        3.862020   -3.123657   -2.054466
     98          9           0        2.798160   -3.032818   -2.877220
     99          9           0        3.623582   -4.134301   -1.187685
    100          9           0        4.917541   -3.501054   -2.813895
 ---------------------------------------------------------------------
 Rotational constants (GHZ):           0.0760497           0.0311570           0.0296103
 Leave Link  202 at Sat May 11 07:45:51 2019, MaxMem=  6442450944 cpu:               4.8 elap:               0.2
 (Enter /home/ekwan/sw/g16/l301.exe)
 Standard basis: 6-31G(d) (6D, 7F)
 Ernie: Thresh=  0.10000D-02 Tol=  0.10000D-05 Strict=F.
 There are   897 symmetry adapted cartesian basis functions of A   symmetry.
 There are   897 symmetry adapted basis functions of A   symmetry.
   897 basis functions,  1720 primitive gaussians,   897 cartesian basis functions
   214 alpha electrons      214 beta electrons
       nuclear repulsion energy      9459.5312121283 Hartrees.
 IExCor=  402 DFT=T Ex+Corr=B3LYP ExCW=0 ScaHFX=  0.200000
 ScaDFX=  0.800000  0.720000  1.000000  0.810000 ScalE2=  1.000000  1.000000
 IRadAn=      5 IRanWt=     -1 IRanGd=            0 ICorTp=0 IEmpDi=141
 NAtoms=  100 NActive=  100 NUniq=  100 SFac= 1.00D+00 NAtFMM=   60 NAOKFM=T Big=T
 Integral buffers will be    131072 words long.
 Raffenetti 2 integral format.
 Two-electron integral symmetry is turned on.
 R6Disp:  Grimme-D3(BJ) Dispersion energy=       -0.2323147244 Hartrees.
 Nuclear repulsion after empirical dispersion term =     9459.2988974039 Hartrees.
 Force inversion solution in PCM.
 ------------------------------------------------------------------------------
 Polarizable Continuum Model (PCM)
 =================================
 Model                : PCM.
 Atomic radii         : UFF (Universal Force Field).
 Polarization charges : Total charges.
 Charge compensation  : None.
 Solution method      : Matrix inversion.
 Cavity type          : Scaled VdW (van der Waals Surface) (Alpha=1.100).
 Cavity algorithm     : GePol (No added spheres)
                        Default sphere list used, NSphG=  100.
                        Lebedev-Laikov grids with approx.  5.0 points / Ang**2.
                        Smoothing algorithm: York/Karplus (Gamma=1.0000).
                        Polarization charges: spherical gaussians, with
                                              point-specific exponents (IZeta= 3).
                        Self-potential: point-specific (ISelfS= 7).
                        Self-field    : sphere-specific E.n sum rule (ISelfD= 2).
 1st derivatives      : Analytical E(r).r(x)/FMM algorithm (CHGder, D1EAlg=3).
                        Cavity 1st derivative terms included.
 2nd derivatives      : Analytical E(r).r(xy)/FMM algorithm (CHGder, D2EAlg=3).
                        Cavity 2nd derivative terms included.
 Solvent              : TetraHydroFuran, Eps=   7.425700 Eps(inf)=   1.974025
 ------------------------------------------------------------------------------
 GePol: Number of generator spheres                  =     100
 GePol: Total number of spheres                      =     100
 GePol: Number of exposed spheres                    =     100 (100.00%)
 GePol: Number of points                             =    6274
 GePol: Average weight of points                     =       0.12
 GePol: Minimum weight of points                     =   0.24D-11
 GePol: Maximum weight of points                     =    0.21593
 GePol: Number of points with low weight             =     413
 GePol: Fraction of low-weight points (<1% of avg)   =       6.58%
 GePol: Cavity surface area                          =    778.306 Ang**2
 GePol: Cavity volume                                =    980.870 Ang**3
 Leave Link  301 at Sat May 11 07:45:51 2019, MaxMem=  6442450944 cpu:               7.7 elap:               0.3
 (Enter /home/ekwan/sw/g16/l302.exe)
 NPDir=0 NMtPBC=     1 NCelOv=     1 NCel=       1 NClECP=     1 NCelD=      1
         NCelK=      1 NCelE2=     1 NClLst=     1 CellRange=     0.0.
 One-electron integrals computed using PRISM.
 One-electron integral symmetry used in STVInt
 NBasis=   897 RedAO= T EigKep=  4.11D-04  NBF=   897
 NBsUse=   897 1.00D-06 EigRej= -1.00D+00 NBFU=   897
 Precomputing XC quadrature grid using
 IXCGrd= 4 IRadAn=           5 IRanWt=          -1 IRanGd=           0 AccXCQ= 0.00D+00.
 Generated NRdTot=       0 NPtTot=           0 NUsed=           0 NTot=          32
 NSgBfM=   852   838   840   847   852 MxSgAt=   100 MxSgA2=   100.
 Leave Link  302 at Sat May 11 07:46:09 2019, MaxMem=  6442450944 cpu:             500.4 elap:              17.3
 (Enter /home/ekwan/sw/g16/l303.exe)
 DipDrv:  MaxL=1.
 Leave Link  303 at Sat May 11 07:46:09 2019, MaxMem=  6442450944 cpu:              15.3 elap:               0.7
 (Enter /home/ekwan/sw/g16/l401.exe)
 ExpMin= 2.60D-02 ExpMax= 2.19D+04 ExpMxC= 3.30D+03 IAcc=3 IRadAn=         5 AccDes= 0.00D+00
 Harris functional with IExCor=  402 and IRadAn=       5 diagonalized for initial guess.
 HarFok:  IExCor=  402 AccDes= 0.00D+00 IRadAn=         5 IDoV= 1 UseB2=F ITyADJ=14
 ICtDFT=  3500011 ScaDFX=  1.000000  1.000000  1.000000  1.000000
 FoFCou: FMM=F IPFlag=           0 FMFlag=      100000 FMFlg1=        2001
         NFxFlg=           0 DoJE=T BraDBF=F KetDBF=T FulRan=T
         wScrn=  0.000000 ICntrl=       500 IOpCl=  0 I1Cent=   200000004 NGrid=           0
         NMat0=    1 NMatS0=      1 NMatT0=    0 NMatD0=    1 NMtDS0=    0 NMtDT0=    0
 Petite list used in FoFCou.
 Harris En= -3459.35372371786    
 JPrj=0 DoOrth=F DoCkMO=F.
 Leave Link  401 at Sat May 11 07:46:30 2019, MaxMem=  6442450944 cpu:             600.8 elap:              20.9
 (Enter /home/ekwan/sw/g16/l502.exe)
 Integral symmetry usage will be decided dynamically.
 Closed shell SCF:
 Using DIIS extrapolation, IDIIS=  1040.
 NGot=  6442450944 LenX=  6440803163 LenY=  6439997657
 Requested convergence on RMS density matrix=1.00D-08 within 128 cycles.
 Requested convergence on MAX density matrix=1.00D-06.
 Requested convergence on             energy=1.00D-06.
 No special actions if energy rises.
 Fock matrices will be formed incrementally for  20 cycles.

 Cycle   1  Pass 1  IDiag  1:
 FoFJK:  IHMeth= 1 ICntrl=       0 DoSepK=F KAlg= 0 I1Cent=           0 FoldK=F
[...]
 59,0.00013628,-0.00017258,0.00000218,0.00007537,-0.00015317,-0.0001967
 1,0.00018354,0.00007188,-0.00036622,0.00018207,-0.00036873,-0.00021500
 ,0.00001171,0.00009375,0.00001921,-0.00002317,-0.00000189,0.00000042,0
 .00017556,0.00074540,-0.00009730,-0.00163393,0.00286022,-0.00240273,0.
 00008705,-0.00073971,0.00093969,0.00167911,-0.00048182,0.00037833,0.00
 184048,-0.00236730,0.00053661,-0.00003942,-0.00081344,0.00005574,-0.00
 451696,-0.00343889,-0.00636448,0.00043378,-0.00038885,-0.00060649,-0.0
 0003227,0.00009151,-0.00004209,-0.00972911,-0.04019606,0.03063140,-0.0
 0030900,0.00068907,0.00019549,0.00076053,-0.00145377,0.00208634,-0.001
 54403,-0.00138044,-0.00138227,-0.00012999,0.00011027,-0.00002651,0.000
 00853,0.00000156,0.00000122,0.00003402,-0.00001840,-0.00001730,0.00000
 553,-0.00001592,0.00000794,0.00002801,0.00010316,0.00001815,0.00000250
 ,-0.00001418,0.00001742,-0.00000591,-0.00000060,0.00000336,0.00000538,
 -0.00002083,-0.00002263,-0.00001901,-0.00000936,0.00028264,0.00001096,
 -0.00001024,-0.00003580,0.00006496,-0.00000386,-0.00005896,-0.00003604
 ,-0.00000527,0.00000971,0.00012696,-0.00132349,-0.00055896,0.00070104,
 0.00013345,0.00088228,0.00016344,0.00010954,-0.00045859,-0.00014892,0.
 00046611,0.00016003,0.00004289,-0.00005800,0.00002794,-0.00000150,0.00
 000115,0.00000075,0.00000785,-0.00001167,0.00001635,0.00001178,0.00001
 879,-0.00003333,-0.00007566,-0.00005752,0.00005224,-0.00001163,0.00004
 853,-0.00001751,-0.00000699,-0.00000595,-0.00000060,-0.00000033,-0.000
 00243,0.00000196,-0.00000372,0.00000305,-0.00000073,0.00000548,0.00000
 396,0.00000059,0.00001601,-0.00004027,0.00000714,0.00001590,0.00000624
 ,-0.00000695,-0.00000304,-0.00001772,0.00000394,-0.00000330,-0.0000007
 4,0.00000132,0.00088902,-0.00056358,0.00231381,-0.00069556,0.00021479,
 -0.00055352,0.00003505,0.00042393,-0.00079598,-0.00020179,-0.00018548,
 -0.00067685,-0.03216335,-0.19991821,0.07345714,0.01840698,-0.00699160,
 0.03201769,0.04103895,0.24422792,0.00000026,0.00000568,-0.00000928,-0.
 00000392,0.00000435,-0.00000525,-0.00000131,0.00003428,-0.00002946,-0.
 00000731,0.00002080,-0.00004942,-0.00000049,0.00000095,-0.00000667,-0.
 00000266,-0.00000730,0.00001085,-0.00000050,0.00000057,0.00000114,0.00
 000095,0.00000086,0.00000064,0.00000744,0.00000654,0.00000553,-0.00000
 044,0.00000225,0.00000336,0.00001004,-0.00004020,0.00005587,0.00002908
 ,-0.00002744,0.00002620,0.00000178,-0.00000769,0.00001029,0.00000218,-
 0.00000443,0.00001184,-0.00000045,-0.00000983,0.00001789,0.00001177,-0
 .00005041,-0.00005150,0.00000715,-0.00000521,0.00001676,-0.00001862,0.
 00001803,-0.00000104,0.00002055,0.00002678,0.00006151,-0.00000278,0.00
 000002,-0.00000503,0.00000093,0.00000240,0.00000237,0.00000188,-0.0000
 0100,0.00000025,-0.00000164,-0.00000016,-0.00000021,-0.00000343,0.0000
 0057,-0.00000663,0.00000101,-0.00000151,0.00000199,0.00000057,0.000000
 38,-0.00000035,0.00000007,0.00000046,0.00000072,0.00000455,0.00000236,
 -0.00000465,-0.00000310,0.00000037,0.00000245,-0.00000097,-0.00000091,
 -0.00000336,0.00000282,-0.00000231,0.00000272,-0.00000515,0.00003620,-
 0.00002522,-0.00001752,0.00001631,-0.00001727,0.00008666,0.00012042,-0
 .00009019,-0.00004794,0.00016655,-0.00017924,-0.00002859,0.00000392,0.
 00002778,-0.00000227,-0.00002088,0.00000071,-0.00000283,0.00000368,0.0
 0000221,0.00000331,0.00000230,-0.00000402,0.00000761,0.00002678,-0.000
 01896,0.00000909,-0.00000403,0.00000341,0.00002379,-0.00020678,0.00014
 671,-0.00000658,0.00000015,0.00010664,0.00001281,-0.00003359,0.0000280
 5,-0.00000789,-0.00005505,0.00000191,0.00002115,-0.00008471,0.00000376
 ,-0.00014878,0.00038987,0.00038817,0.00009991,-0.00009628,-0.00010834,
 -0.00001584,0.00001010,0.00000772,0.00084390,-0.00048811,-0.00004910,0
 .00003927,0.00008992,-0.00029987,-0.00002983,-0.00000270,0.00013805,-0
 .00002096,-0.00001888,0.00011611,0.00002891,-0.00064759,-0.00046255,0.
 00020988,-0.00055669,0.00029968,-0.00024955,0.00049521,0.00033039,0.00
 020968,0.00027562,0.00148410,0.00008452,-0.00010037,0.00008998,0.00045
 927,0.00013007,0.00530969,0.00001451,-0.00055769,0.00022099,-0.0029322
 8,-0.00140318,-0.00335986,0.00075260,-0.00206542,0.00128039,-0.0000157
 6,0.00000682,-0.00000935,0.00000446,0.00000061,-0.00000045,0.00000217,
 0.00000017,0.00000370,0.00000156,-0.00000651,0.00000070,0.00001880,0.0
 0002240,-0.00000234,-0.00000181,-0.00000028,-0.00000086,-0.00000127,-0
 .00000665,0.00000180,-0.00000247,-0.00000317,-0.00000201,-0.00000491,0
 .00001873,0.00003593,0.00000076,-0.00001347,-0.00000739,-0.00000800,0.
 00000188,-0.00000114,0.00000781,0.00001004,0.00001059,-0.00002633,0.00
 018228,-0.00006433,-0.00035725,0.00009316,-0.00065190,-0.00018701,-0.0
 0005102,0.00055478,0.00018921,-0.00035011,-0.00001881,-0.00001669,0.00
 003037,-0.00003661,0.00001172,0.00000600,0.00000291,-0.00001110,0.0000
 0299,-0.00002421,-0.00001730,-0.00002179,0.00002974,-0.00002047,0.0000
 2830,-0.00002151,0.00004215,-0.00004284,0.00000056,-0.00001767,0.00000
 634,0.00001726,0.00000116,0.00000131,-0.00000284,0.00000510,-0.0000056
 0,-0.00000030,0.00000081,0.00000151,-0.00000382,-0.00003830,0.00003721
 ,0.00000288,0.00000041,-0.00000221,0.00000019,0.00000322,0.00000436,-0
 .00000154,0.00000313,-0.00000208,0.00000098,0.00025404,0.00047068,0.00
 013011,-0.00008357,-0.00002997,-0.00001947,-0.00009777,-0.00014768,0.0
 0001046,-0.00001598,-0.00012186,-0.00005010,0.01875952,0.08255915,-0.1
 2726336,-0.02251872,0.04057960,-0.04352872,-0.03501772,-0.14540733,0.2
 0604043,0.00003058,-0.00000385,-0.00000459,0.00002460,0.00000846,-0.00
 001993,0.00004558,-0.00000188,-0.00004830,0.00000584,-0.00000868,0.000
 00027,0.00001965,-0.00003473,0.00001674,0.00000592,0.00000052,0.000001
 40,0.00000040,-0.00000040,0.00000309,0.00000056,-0.00000151,0.00000199
 ,0.00000004,0.00000150,0.00000151,0.00000109,0.00000593,-0.00000124,-0
 .00006947,0.00001921,0.00001474,-0.00008227,0.00003421,0.00002751,-0.0
 0003808,-0.00000394,0.00002810,-0.00004985,0.00001599,0.00000004,-0.00
 002629,0.00003021,-0.00001833,0.00007555,-0.00004781,0.00000591,-0.000
 01574,0.00000475,-0.00001701,-0.00002804,0.00003041,0.00002322,-0.0001
 3343,0.00006241,0.00002466,0.00001733,-0.00000920,-0.00002076,0.000000
 29,0.00000170,0.00000254,-0.00000257,0.00000405,0.00000104,-0.00000283
 ,-0.00000168,0.00000329,0.00001904,-0.00000046,0.00001473,0.00000195,-
 0.00000058,-0.00000242,-0.00000210,-0.00000177,-0.00000301,-0.00000523
 ,0.00000237,0.00000017,0.00001023,-0.00002604,-0.00000076,-0.00000507,
 0.00000578,0.00000457,0.00000186,-0.00000700,0.00000442,-0.00000169,0.
 00000225,-0.00000366,0.00004818,-0.00009691,-0.00007732,0.00000818,-0.
 00011533,0.00002967,0.00020922,-0.00031649,-0.00004022,0.00018787,-0.0
 0014930,0.00006132,-0.00001114,-0.00001282,-0.00014055,0.00000594,0.00
 000344,0.00001939,-0.00000601,0.00000684,0.00001022,-0.00000827,-0.000
 02834,-0.00000883,0.00002334,-0.00002208,-0.00003457,-0.00003989,0.000
 02184,0.00003166,-0.00010776,0.00035679,-0.00005201,0.00001415,0.00051
 105,-0.00000784,-0.00005964,0.00015238,-0.00002349,0.00001213,0.000172
 96,0.00011719,-0.00004882,0.00006112,0.00022835,0.00011894,-0.00056067
 ,-0.00048218,-0.00013650,0.00008824,0.00014185,-0.00001507,0.00003325,
 0.00012023,-0.00070168,0.00024918,0.00070706,0.00012056,-0.00116278,0.
 00076911,0.00012818,0.00027446,-0.00042929,-0.00024760,0.00030209,-0.0
 0017173,0.00031050,0.00045411,-0.00019179,0.00000275,-0.00004993,0.000
 32592,0.00073073,-0.00017834,0.00048473,0.00075953,0.00072363,0.000723
 01,-0.00008817,-0.00001358,0.00004587,-0.00197637,0.00723293,0.0120306
 0,-0.00044202,-0.00033887,0.00016490,-0.00058974,0.00166465,-0.0006938
 9,-0.00051521,-0.00013486,0.00004944,0.00007593,-0.00006520,0.00001368
 ,-0.00000636,-0.00000604,0.00000440,-0.00001906,0.00000971,0.00000880,
 -0.00000462,0.00001567,-0.00000664,-0.00006624,-0.00008631,-0.00000873
 ,0.00000981,0.00000505,-0.00000559,0.00000490,0.00000902,-0.00000537,0
 .00000318,0.00001692,0.00001396,0.00000463,-0.00001752,-0.00020288,-0.
 00000699,0.00002162,0.00002984,-0.00001899,0.00000144,0.00003082,0.000
 01008,-0.00000860,0.00000055,0.00032967,0.00017108,-0.00043514,0.00032
 499,0.00038031,0.00010926,0.00003754,-0.00001153,0.00001693,-0.0001867
 3,0.00008800,0.00013262,0.00007804,-0.00000804,-0.00002342,-0.00000924
 ,-0.00000401,-0.00000472,-0.00000665,-0.00002131,0.00003144,0.00000795
 ,0.00001498,-0.00000838,0.00005946,-0.00003264,-0.00004274,-0.00004635
 ,0.00003631,0.00003237,0.00003282,-0.00001177,-0.00003453,-0.00000031,
 0.00000083,0.00000757,-0.00000605,0.00000531,-0.00000024,-0.00000487,-
 0.00000310,0.00000451,0.00003878,-0.00002829,-0.00001965,-0.00000871,0
 .00000026,0.00000263,-0.00000614,0.00000350,-0.00000662,-0.00000329,0.
 00000747,0.00000763,-0.00065574,0.00029004,-0.00098378,0.00047250,-0.0
 0013739,0.00022372,0.00007425,-0.00009158,0.00027830,0.00012396,0.0001
 6440,0.00037643,-0.16267061,0.04868333,0.07673781,-0.07810388,0.022286
 20,0.00481971,-0.01964482,-0.01481132,0.03970780,0.26230296,-0.0000181
 3,-0.00000831,0.00000552,-0.00001130,-0.00000915,0.00001007,-0.0000427
 2,-0.00006159,0.00000919,0.00000545,-0.00001405,0.00001700,-0.00001206
 ,0.00001689,-0.00001172,0.00000030,0.00000308,-0.00000284,-0.00000251,
 0.00000336,0.00000121,0.00000367,0.00000193,0.00000062,0.00000776,0.00
 000948,0.00000126,-0.00000450,0.00000064,0.00000546,0.00004602,0.00003
 809,-0.00001731,0.00001061,0.00004055,0.00001088,0.00001928,0.00001220
 ,-0.00001250,0.00002937,-0.00000067,-0.00000022,0.00001940,0.00000070,
 0.00000771,-0.00006596,-0.00006790,-0.00008404,0.00001729,0.00000401,0
 .00002689,-0.00000106,-0.00000642,-0.00000334,0.00023223,0.00003896,0.
 00002570,-0.00000633,0.00000135,0.00000591,0.00000055,-0.00000124,-0.0
 0000004,-0.00000026,-0.00000147,-0.00000067,0.00000253,0.00000154,-0.0
 0000196,-0.00001253,-0.00000294,-0.00000981,-0.00000143,0.00000013,0.0
 0000058,0.00000223,0.00000308,0.00000181,0.00000198,-0.00000088,0.0000
 0040,-0.00001397,0.00000027,0.00000014,0.00000308,-0.00000169,-0.00000
 186,0.00000002,0.00000752,-0.00000457,0.00000230,-0.00000083,0.0000029
 4,-0.00014973,0.00008744,0.00018765,0.00003100,0.00015972,-0.00005098,
 -0.00071794,0.00005691,0.00027953,-0.00045837,0.00000757,-0.00001090,-
 0.00004608,0.00005370,0.00008084,0.00000788,0.00000523,-0.00005786,0.0
 0002377,-0.00002456,-0.00002666,0.00001099,0.00008423,0.00002726,-0.00
 019182,0.00008010,0.00011470,0.00007822,-0.00003354,-0.00006614,0.0002
 4472,-0.00010290,-0.00002956,0.00017082,-0.00090026,0.00006181,0.00011
 479,-0.00018063,0.00002866,0.00005630,-0.00018999,-0.00017103,0.000197
 12,-0.00000367,-0.00035089,-0.00004670,-0.00014809,-0.00000076,0.00006
 131,0.00006153,-0.00000839,-0.00000871,-0.00000453,-0.00000332,0.00021
 879,0.00031719,-0.00005887,-0.00102192,0.00219518,-0.00143929,0.000020
 03,-0.00056687,0.00071394,0.00104558,-0.00045645,0.00028732,-0.0013246
 5,-0.00019190,0.00044766,-0.00010982,-0.00048384,-0.00090275,-0.000980
 80,0.00072140,-0.00142236,-0.00180221,-0.00131105,-0.00032965,0.000208
 40,0.00011121,-0.00007210,0.02562983,-0.01043371,-0.02796434,0.0007721
 6,0.00011753,-0.00021150,0.00179049,-0.00259402,0.00183132,0.00066246,
 0.00007660,-0.00059235,-0.00011975,0.00009602,-0.00002568,0.00000998,0
 .00000285,-0.00000051,0.00002936,-0.00001492,-0.00001234,0.00000632,-0
 .00001903,0.00000780,0.00004270,0.00011440,0.00001385,-0.00000022,-0.0
 0001188,0.00001388,-0.00000559,-0.00000818,0.00000486,0.00000228,-0.00
 002199,-0.00002103,-0.00000927,0.00000933,0.00029293,0.00000952,-0.000
 02115,-0.00004000,0.00005191,-0.00000163,-0.00005899,-0.00002576,0.000
 00291,0.00001443,-0.00002276,-0.00034477,-0.00002999,0.00011115,-0.000
 00032,0.00011256,0.00002895,0.00003600,-0.00009884,0.00003591,0.000076
 86,-0.00000908,-0.00000030,-0.00002020,0.00000562,0.00000608,0.0000046
 2,0.00000307,0.00000159,-0.00000053,-0.00000797,-0.00000186,-0.0000014
 1,-0.00000476,-0.00007859,-0.00002084,0.00003361,0.00002611,0.00000257
 ,-0.00001959,-0.00002259,0.00000247,0.00001700,0.00000037,-0.00000125,
 -0.00000189,0.00000143,-0.00000215,-0.00000045,0.00000549,0.00000440,-
 0.00000268,-0.00001631,-0.00000277,0.00001004,0.00001265,0.00000327,-0
 .00000438,0.00000122,-0.00001036,-0.00000021,-0.00000090,-0.00000320,0
 .00000112,0.00085120,-0.00060565,0.00215678,-0.00068974,0.00022953,-0.
 00048054,-0.00001942,0.00029699,-0.00065857,-0.00016874,-0.00022191,-0
 .00069047,0.04887020,-0.09935421,-0.04319147,0.01769376,0.00935950,0.0
 0178614,-0.02523786,0.01208340,0.02675424,-0.06607568,0.09184710,-0.00
 001851,-0.00000217,-0.00000005,-0.00001450,-0.00000517,0.00000746,-0.0
 0003827,-0.00002348,0.00000012,-0.00000078,0.00000272,-0.00001366,-0.0
 0001285,0.00002006,-0.00001688,-0.00000197,-0.00000189,0.00000350,-0.0
 0000216,0.00000266,0.00000087,0.00000304,0.00000226,0.00000031,0.00000
 989,0.00001059,0.00000339,-0.00000378,0.00000059,0.00000625,0.00004991
 ,0.00000114,0.00001542,0.00003791,0.00000580,0.00001564,0.00002134,0.0
 0000456,-0.00000804,0.00003165,-0.00000622,0.00000666,0.00001852,-0.00
 001170,0.00002025,-0.00005800,-0.00006907,-0.00009463,0.00002091,-0.00
 000103,0.00003356,-0.00000578,-0.00000104,-0.00000713,0.00021197,0.000
 03223,0.00004910,-0.00000912,0.00000279,0.00000509,0.00000085,0.000000
 19,0.00000082,0.00000138,-0.00000235,-0.00000052,0.00000129,0.00000124
 ,-0.00000207,-0.00001440,-0.00000139,-0.00001381,-0.00000083,-0.000000
 74,0.00000210,0.00000230,0.00000264,0.00000163,0.00000244,-0.00000078,
 0.00000067,-0.00000929,0.00000724,-0.00000283,0.00000131,-0.00000218,-
 0.00000064,-0.00000101,0.00000651,-0.00000649,0.00000399,-0.00000248,0
 .00000462,-0.00013306,0.00010015,0.00014730,0.00001555,0.00015322,-0.0
 0005405,-0.00055832,0.00015820,0.00018053,-0.00039765,0.00010928,-0.00
 009631,-0.00003937,0.00003904,0.00010874,0.00000549,-0.00000607,-0.000
 05022,0.00001853,-0.00001932,-0.00002110,0.00001424,0.00007029,0.00002
 302,-0.00015669,0.00005547,0.00008281,0.00006836,-0.00003108,-0.000056
 90,0.00021829,-0.00024272,0.00005334,0.00016524,-0.00090334,0.00009546
 ,0.00010779,-0.00018444,0.00004104,0.00003968,-0.00020460,-0.00015389,
 0.00015647,-0.00004883,-0.00029743,-0.00013395,0.00012052,0.00024496,0
 .00011085,-0.00000249,-0.00007107,-0.00000748,-0.00000403,-0.00001952,
 0.00057358,-0.00001156,-0.00022537,-0.00098872,0.00202164,-0.00164650,
 -0.00004521,-0.00048947,0.00081888,0.00086824,-0.00040276,0.00032267,-
 0.00150962,-0.00169357,-0.00000604,0.00032570,-0.00091175,0.00014132,-
 0.00039923,0.00049903,-0.00325798,-0.00108041,-0.00015209,0.00028069,0
 .00021175,0.00006662,-0.00005395,0.02373668,-0.01855708,-0.01168150,0.
 00085822,-0.00015297,-0.00023715,0.00001423,-0.00104819,0.00128311,0.0
 0079736,0.00025895,-0.00008556,-0.00011405,0.00009022,-0.00002921,0.00
 001173,0.00000371,-0.00000165,0.00002740,-0.00001333,-0.00000821,0.000
 00638,-0.00002165,0.00000744,0.00005534,0.00011520,0.00001077,-0.00000
 330,-0.00001020,0.00001128,-0.00000583,-0.00001102,0.00000550,-0.00000
 016,-0.00002122,-0.00001954,-0.00001088,0.00001929,0.00026747,0.000008
 55,-0.00002606,-0.00003772,0.00003653,-0.00000046,-0.00004900,-0.00001
 621,0.00000858,0.00001338,-0.00024833,-0.00007112,0.00016657,-0.000196
 38,-0.00003559,-0.00025314,-0.00005457,0.00000559,0.00012168,0.0001341
 5,-0.00010697,-0.00007457,-0.00002370,0.00000451,-0.00001067,0.0000110
 1,0.00000711,0.00000399,-0.00000343,0.00000524,-0.00002284,-0.00001052
 ,-0.00001413,0.00001367,-0.00007606,0.00000225,0.00001927,0.00004878,-
 0.00002739,-0.00001895,-0.00003111,0.00000758,0.00002702,0.00000094,-0
 .00000033,-0.00000415,0.00000475,-0.00000542,-0.00000036,0.00000512,0.
 00000440,-0.00000479,-0.00003764,0.00002253,0.00001149,0.00001036,0.00
 000104,-0.00000328,0.00000394,-0.00000572,-0.00000043,0.00000142,-0.00
 000465,0.00000024,0.00090727,-0.00022224,0.00164738,-0.00058465,0.0001
 3856,-0.00036294,-0.00007661,0.00016357,-0.00051851,-0.00016465,-0.000
 23002,-0.00056398,0.07758838,-0.04315026,-0.13501758,-0.01009562,0.005
 41060,0.02078176,0.04435678,0.01555209,-0.04056336,-0.13454911,0.04385
 817,0.16863594\\0.00000089,0.00000219,-0.00000324,-0.00000146,0.000006
 74,0.00000057,-0.00000228,0.00000374,0.00000535,0.00000124,-0.00000466
 ,-0.00000208,0.00000189,-0.00000146,-0.00000602,-0.00000319,0.00000751
 ,0.00000687,-0.00000129,0.00000999,-0.00000254,0.00000026,-0.00000121,
 -0.00000083,0.00000127,-0.00000734,0.00000160,0.00000255,0.00000103,-0
 .00000952,-0.00000059,0.00000029,0.00000122,-0.00000222,0.00000029,0.0
 0000847,-0.00000332,0.00001019,0.00000390,0.00000101,0.00000523,-0.000
 00770,0.00000365,-0.00000653,-0.00000952,0.00000272,-0.00000683,-0.000
 00472,0.00000431,-0.00001174,-0.00000663,0.00000212,-0.00000968,-0.000
 00052,0.00000338,-0.00000487,-0.00000747,-0.00000311,0.00001514,0.0000
 0102,-0.00000401,0.00001869,-0.00000020,-0.00000250,0.00001486,-0.0000
 0332,-0.00000479,0.00001756,0.00000403,0.00000179,0.00000233,-0.000009
 59,0.00000336,-0.00000234,-0.00001097,0.00000091,0.00000141,-0.0000051
 9,0.00000217,0.00000500,-0.00001251,0.00000595,-0.00000690,-0.00001515
 ,0.00000537,-0.00000326,-0.00001832,0.00000516,-0.00000740,-0.00001543
 ,0.00000676,-0.00001135,-0.00001704,0.00000172,0.00000098,-0.00000715,
 0.00000429,-0.00000236,-0.00000998,0.00000042,-0.00000721,-0.00000490,
 0.00000099,-0.00000212,0.00000267,-0.00000006,0.00000329,-0.00000077,0
 .00000520,-0.00001008,-0.00000825,0.00000220,-0.00000022,-0.00001054,0
 .00000186,-0.00000159,-0.00000679,-0.00000058,-0.00000455,0.00000419,-
 0.00000129,0.00000700,-0.00000138,0.00000084,-0.00000647,0.00000010,0.
 00000495,-0.00001116,-0.00000958,0.00000494,-0.00000499,-0.00001524,0.
 00000134,0.00000657,-0.00001064,-0.00000193,0.00000480,0.00000301,-0.0
 0000246,-0.00000157,0.00000880,-0.00000250,0.00000217,0.00000766,-0.00
 000353,0.00000383,0.00001036,-0.00000143,-0.00000611,0.00001316,0.0000
 0381,-0.00001334,-0.00000374,0.00000625,-0.00002119,-0.00000597,0.0000
 0513,-0.00001554,-0.00000545,0.00000242,-0.00001192,0.00000207,0.00000
 113,-0.00000665,0.00000339,0.00000077,-0.00001509,0.00000642,-0.000001
 24,-0.00000600,0.00000846,0.00000136,-0.00000581,-0.00000137,-0.000000
 62,-0.00001384,0.00001348,0.00000248,-0.00001884,0.00000720,-0.0000019
 0,-0.00000641,0.00001326,-0.00000334,-0.00000613,0.00001810,0.00000555
 ,-0.00000547,-0.00001994,0.00000646,-0.00000638,-0.00001783,0.00000588
 ,-0.00000044,-0.00002168,0.00000767,-0.00000806,-0.00002320,0.00000311
 ,0.00000546,-0.00001468,0.00000162,0.00000528,-0.00001225,0.00000402,0
 .00000250,-0.00001794,0.00000220,0.00001048,-0.00001711,-0.00000356,0.
 00001190,0.00000170,-0.00000214,0.00001271,-0.00000298,-0.00000346,0.0
 0001420,0.00000257,-0.00000356,0.00001239,0.00000501,-0.00000398,-0.00
 000364,0.00001778,-0.00000376,-0.00000833,0.00002100,-0.00000504,-0.00
 000071,0.00002047,-0.00000382,-0.00000274,0.00001762,-0.00000295,-0.00
 000262,0.00001309,-0.00000327,-0.00000464,0.00001720,-0.00000210,-0.00
 000532,0.00001189,-0.00000428,0.00000140,0.00001600,0.00000028,0.00000
 506,-0.00000521,-0.00000285,0.00001405,-0.00000068,-0.00000352,0.00001
 858,-0.00000282,-0.00000398,0.00002288,-0.00000435,-0.00000220,0.00001
 925,-0.00000822,-0.00000448,0.00002096,-0.00000074,-0.00000429,0.00001
 701,0.00000478,-0.00000584,0.00001634,0.00000845,-0.00000436,0.0000092
 6,0.00000650,-0.00000501,0.00001914,0.00000434,-0.00000289,0.00000069,
 0.00000932,-0.00000244,-0.00000079,0.00001176,-0.00000404,0.00000441,0
 .00001242,-0.00000189,0.00000342,0.00000385,-0.00000112,-0.00001491,0.
 00001824,-0.00000055,-0.00001796,0.00001690,-0.00000360,-0.00001128,0.
 00002258,-0.00000106,-0.00002018,0.00002106\\\@


 IF AT FIRST YOU DON'T SUCCEED, TRY LOOKING IN 
 THE WASTEBASKET FOR THE DIRECTIONS.
 Job cpu time:       4 days  6 hours 34 minutes 56.8 seconds.
 Elapsed time:       0 days  3 hours 27 minutes 16.1 seconds.
 File lengths (MBytes):  RWF=   9797 Int=      0 D2E=      0 Chk=     85 Scr=      1
 Normal termination of Gaussian 16 at Sat May 11 14:45:57 2019.
