 Entering Gaussian System, Link 0=g16
 Input=clay_new-glu_gluC6-BAUL-Na_1Me2O-bisCF3-ts-b3lyp_d3bj-631gd-pcm_thf.gjf
 Output=clay_new-glu_gluC6-BAUL-Na_1Me2O-bisCF3-ts-b3lyp_d3bj-631gd-pcm_thf.out
 Initial command:
 /home/ekwan/sw/g16/l1.exe "/scratch/users/ekwan/clay_new-glu_gluC6-BAUL-Na_1Me2O-bisCF3-ts-b3lyp_d3bj-631gd-pcm_thf/Gau-945.inp" -scrdir="/scratch/users/ekwan/clay_new-glu_gluC6-BAUL-Na_1Me2O-bisCF3-ts-b3lyp_d3bj-631gd-pcm_thf/"
 Entering Link 1 = /home/ekwan/sw/g16/l1.exe PID=       949.
  
 Copyright (c) 1988,1990,1992,1993,1995,1998,2003,2009,2016,
            Gaussian, Inc.  All Rights Reserved.
  
 This is part of the Gaussian(R) 16 program.  It is based on
 the Gaussian(R) 09 system (copyright 2009, Gaussian, Inc.),
 the Gaussian(R) 03 system (copyright 2003, Gaussian, Inc.),
 the Gaussian(R) 98 system (copyright 1998, Gaussian, Inc.),
 the Gaussian(R) 94 system (copyright 1995, Gaussian, Inc.),
 the Gaussian 92(TM) system (copyright 1992, Gaussian, Inc.),
 the Gaussian 90(TM) system (copyright 1990, Gaussian, Inc.),
 the Gaussian 88(TM) system (copyright 1988, Gaussian, Inc.),
 the Gaussian 86(TM) system (copyright 1986, Carnegie Mellon
 University), and the Gaussian 82(TM) system (copyright 1983,
 Carnegie Mellon University). Gaussian is a federally registered
 trademark of Gaussian, Inc.
  
 This software contains proprietary and confidential information,
 including trade secrets, belonging to Gaussian, Inc.
  
 This software is provided under written license and may be
 used, copied, transmitted, or stored only in accord with that
 written license.
  
 The following legend is applicable only to US Government
 contracts under FAR:
  
                    RESTRICTED RIGHTS LEGEND
  
 Use, reproduction and disclosure by the US Government is
 subject to restrictions as set forth in subparagraphs (a)
 and (c) of the Commercial Computer Software - Restricted
 Rights clause in FAR 52.227-19.
  
 Gaussian, Inc.
 340 Quinnipiac St., Bldg. 40, Wallingford CT 06492
  
  
 ---------------------------------------------------------------
 Warning -- This program may not be used in any manner that
 competes with the business of Gaussian, Inc. or will provide
 assistance to any competitor of Gaussian, Inc.  The licensee
 of this program is prohibited from giving any competitor of
 Gaussian, Inc. access to this program.  By using this program,
 the user acknowledges that Gaussian, Inc. is engaged in the
 business of creating and licensing software in the field of
 computational chemistry and represents and warrants to the
 licensee that it is not a competitor of Gaussian, Inc. and that
 it will not use this program in any manner prohibited above.
 ---------------------------------------------------------------
  

 Cite this work as:
 Gaussian 16, Revision A.03,
 M. J. Frisch, G. W. Trucks, H. B. Schlegel, G. E. Scuseria, 
 M. A. Robb, J. R. Cheeseman, G. Scalmani, V. Barone, 
 G. A. Petersson, H. Nakatsuji, X. Li, M. Caricato, A. V. Marenich, 
 J. Bloino, B. G. Janesko, R. Gomperts, B. Mennucci, H. P. Hratchian, 
 J. V. Ortiz, A. F. Izmaylov, J. L. Sonnenberg, D. Williams-Young, 
 F. Ding, F. Lipparini, F. Egidi, J. Goings, B. Peng, A. Petrone, 
 T. Henderson, D. Ranasinghe, V. G. Zakrzewski, J. Gao, N. Rega, 
 G. Zheng, W. Liang, M. Hada, M. Ehara, K. Toyota, R. Fukuda, 
 J. Hasegawa, M. Ishida, T. Nakajima, Y. Honda, O. Kitao, H. Nakai, 
 T. Vreven, K. Throssell, J. A. Montgomery, Jr., J. E. Peralta, 
 F. Ogliaro, M. J. Bearpark, J. J. Heyd, E. N. Brothers, K. N. Kudin, 
 V. N. Staroverov, T. A. Keith, R. Kobayashi, J. Normand, 
 K. Raghavachari, A. P. Rendell, J. C. Burant, S. S. Iyengar, 
 J. Tomasi, M. Cossi, J. M. Millam, M. Klene, C. Adamo, R. Cammi, 
 J. W. Ochterski, R. L. Martin, K. Morokuma, O. Farkas, 
 J. B. Foresman, and D. J. Fox, Gaussian, Inc., Wallingford CT, 2016.
 
 ******************************************
 Gaussian 16:  AS64L-G16RevA.03 25-Dec-2016
                 8-May-2019 
 ******************************************
 %mem=48GB
 %nprocshared=32
 Will use up to   32 processors via shared memory.
 ----------------------------------------------------------------------
 #p opt=(ts,noeigentest,calcfc,maxstep=3,modredundant,recalc=30) freq=n
 oraman b3lyp 6-31g* pop=none scrf=(solvent=tetrahydrofuran,pcm) empiri
 caldispersion=gd3bj
 ----------------------------------------------------------------------
 1/5=1,8=3,10=4,11=1,18=120,26=3,38=1,71=30/1,3;
 2/9=110,12=2,17=6,18=5,40=1/2;
 3/5=1,6=6,7=1,11=2,25=1,30=1,70=2201,71=2,72=20,74=-5,124=41,140=1/1,2,3;
 4//1;
 5/5=2,38=5,53=20/2;
 8/6=4,10=90,11=11/1;
 11/6=1,8=1,9=11,15=111,16=1/1,2,10;
 10/6=1,13=1/2;
 7/10=1,18=20,25=1/1,2,3,16;
 1/5=1,8=3,10=4,11=1,18=20,26=3,71=30/3(2);
 2/9=110/2;
 99//99;
 2/9=110/2;
 3/5=1,6=6,7=1,11=2,25=1,30=1,70=2205,71=1,72=20,74=-5,124=41/1,2,3;
 4/5=5,16=3,69=1/1;
 5/5=2,38=5,53=20/2;
 7//1,2,3,16;
 1/5=1,8=3,11=1,18=20,26=3,71=30/3(-5);
 2/9=110/2;
 99/9=1/99;
 Leave Link    1 at Wed May  8 08:00:40 2019, MaxMem=  6442450944 cpu:               6.2 elap:               0.2
 (Enter /home/ekwan/sw/g16/l101.exe)
 -----
 title
 -----
 Symbolic Z-matrix:
 Charge =  0 Multiplicity = 1
 C                    -6.31085  -0.96186  -0.50096 
 C                    -6.22231   0.54814  -0.26904 
 C                    -5.61453   0.87012   1.10689 
 C                    -4.42678  -1.23857   1.18285 
 C                    -4.985    -1.6451   -0.18259 
 H                    -5.36521   1.93734   1.19532 
 H                    -5.53861   0.96896  -1.02593 
 H                    -7.09015  -1.37587   0.15136 
 H                    -5.09734  -1.59172   1.97516 
 H                    -4.25649  -1.35349  -0.94843 
 O                    -4.36003   0.21508   1.24727 
 O                    -6.53059   0.50142   2.09113 
 O                    -7.51667   1.08981  -0.4428 
 O                    -6.61384  -1.22936  -1.86554 
 O                    -5.18231  -3.05371  -0.20927 
 C                    -3.00074  -1.76872   1.41881 
 H                    -3.11689  -2.86803   1.52853 
 H                    -2.71242  -1.4028    2.43327 
 O                    -2.10615  -1.40755   0.43927 
 C                    -7.55355   2.50527  -0.51272 
 H                    -7.34216   2.97217   0.45871 
 H                    -6.83667   2.88746  -1.25533 
 H                    -8.565     2.78036  -0.81996 
 C                    -7.97691  -1.53788  -2.11621 
 H                    -8.2898   -2.42971  -1.5543 
 H                    -8.63465  -0.70087  -1.85681 
 H                    -8.05961  -1.74739  -3.1862 
 C                    -4.25354  -3.73727  -1.0401 
 H                    -4.40311  -3.47141  -2.09642 
 H                    -3.2201   -3.50506  -0.7555 
 H                    -4.44007  -4.80697  -0.9117 
 C                     1.62449  -0.04695  -0.79832 
 C                     0.70658  -1.0846   -0.16358 
 C                     0.23885  -0.70007   1.22257 
 C                     0.67308   1.64151   0.85473 
 C                     1.06462   1.3601   -0.60011 
 H                    -0.29854  -1.4203    1.81355 
 H                    -0.22899  -1.08928  -0.73258 
 H                     2.6133   -0.10508  -0.34231 
 H                     1.57295   1.76527   1.45711 
 H                     0.19188   1.47353  -1.25059 
 O                    -0.06194   0.54327   1.49362 
 O                     1.84585  -1.16197   2.26758 
 O                     1.30168  -2.35758  -0.19585 
 O                     1.70971  -0.2947   -2.19652 
 O                     2.04424   2.34604  -0.89441 
 C                    -0.17643   2.87912   1.02893 
 H                     0.40579   3.73991   0.67752 
 H                    -0.40809   3.02005   2.09277 
 O                    -1.38036   2.75881   0.27799 
 S                     2.93635  -0.32408   2.94188 
 O                     3.55777  -1.09315   4.03333 
 O                     2.50035   1.05243   3.26232 
 C                     4.16824  -0.17476   1.64054 
 C                     4.75221  -1.33953   1.14524 
 C                     4.43282   1.0649    1.06549 
 C                     5.61336  -1.25423   0.05362 
 H                     4.52494  -2.29848   1.59537 
 C                     5.27756   1.12975  -0.04153 
 H                     3.95889   1.95601   1.45414 
 C                     5.87658  -0.02288  -0.54708 
 H                     6.53189   0.03362  -1.40889 
 C                     0.38983  -3.39638  -0.56453 
 H                    -0.55576  -3.29598  -0.02251 
 H                     0.18414  -3.36252  -1.64359 
 H                     0.87808  -4.34194  -0.31912 
 C                     2.95325  -0.8516   -2.61216 
 H                     3.7661   -0.12355  -2.49224 
 H                     3.19238  -1.75956  -2.05063 
 H                     2.84595  -1.09599  -3.67169 
 C                     1.96238   2.89504  -2.20602 
 H                     2.093     2.12197  -2.96922 
 H                     0.99806   3.39853  -2.36041 
 H                     2.76999   3.62417  -2.2812 
 C                    -2.19651   3.9239    0.3806 
 H                    -3.09709   3.73709  -0.20805 
 H                    -2.47474   4.11658   1.42473 
 H                    -1.67256   4.79978  -0.02193 
 C                    -6.13165   0.87803   3.40697 
 H                    -6.96476   0.63402   4.06825 
 H                    -5.23726   0.33174   3.72589 
 H                    -5.92913   1.95722   3.4571 
 Na                   -2.48475   0.72648  -0.00647 
 O                    -1.97564   0.59613  -2.23777 
 C                    -1.88423  -0.71682  -2.79349 
 H                    -0.87324  -0.89102  -3.18388 
 H                    -2.09278  -1.40643  -1.97322 
 H                    -2.61847  -0.84721  -3.59974 
 C                    -1.72992   1.61712  -3.19441 
 H                    -2.48243   1.59423  -3.99426 
 H                    -1.78393   2.57132  -2.6657 
 H                    -0.73195   1.502    -3.63797 
 C                     5.5037    2.42745  -0.76523 
 F                     5.07194   2.34047  -2.05039 
 F                     6.81674   2.74489  -0.82549 
 F                     4.85988   3.46126  -0.19388 
 C                     6.1846   -2.5081   -0.54957 
 F                     6.31229  -3.49395   0.36011 
 F                     7.39908  -2.29225  -1.09814 
 F                     5.38778  -2.98366  -1.53973 
 
 Add virtual bond connecting atoms O43        and C34        Dist= 3.73D+00.
 Add virtual bond connecting atoms H37        and O19        Dist= 4.29D+00.
 Add virtual bond connecting atoms H38        and O19        Dist= 4.22D+00.
 Add virtual bond connecting atoms H38        and H87        Dist= 4.27D+00.
 Add virtual bond connecting atoms O50        and Na83       Dist= 4.40D+00.
 The following ModRedundant input section has been read:
 
 ITRead=  0  0  0  0  0  0  0  0  0  0  0  0  0  0  0  0  0  0  0  0
 ITRead=  0  0  0  0  0  0  0  0  0  0  0  0  0  0  0  0  0  0  0  0
 ITRead=  0  0  0  0  0  0  0  0  0  0  0  0  0  0  0  0  0  0  0  0
 ITRead=  0  0  0  0  0  0  0  0  0  0  0  0  0  0  0  0  0  0  0  0
 ITRead=  0  0  0  0  0  0  0  0  0  0  0  0  0  0  0  0  0  0  0  0
 MicOpt= -1 -1 -1 -1 -1 -1 -1 -1 -1 -1 -1 -1 -1 -1 -1 -1 -1 -1 -1 -1
 MicOpt= -1 -1 -1 -1 -1 -1 -1 -1 -1 -1 -1 -1 -1 -1 -1 -1 -1 -1 -1 -1
 MicOpt= -1 -1 -1 -1 -1 -1 -1 -1 -1 -1 -1 -1 -1 -1 -1 -1 -1 -1 -1 -1
 MicOpt= -1 -1 -1 -1 -1 -1 -1 -1 -1 -1 -1 -1 -1 -1 -1 -1 -1 -1 -1 -1
 MicOpt= -1 -1 -1 -1 -1 -1 -1 -1 -1 -1 -1 -1 -1 -1 -1 -1 -1 -1 -1 -1
 NAtoms=    100 NQM=      100 NQMF=       0 NMMI=      0 NMMIF=      0
                NMic=       0 NMicF=      0.
                    Isotopes and Nuclear Properties:
 (Nuclear quadrupole moments (NQMom) in fm**2, nuclear magnetic moments (NMagM)
  in nuclear magnetons)

  Atom         1           2           3           4           5           6           7           8           9          10
 IAtWgt=          12          12          12          12          12           1           1           1           1           1
 AtmWgt=  12.0000000  12.0000000  12.0000000  12.0000000  12.0000000   1.0078250   1.0078250   1.0078250   1.0078250   1.0078250
 NucSpn=           0           0           0           0           0           1           1           1           1           1
 AtZEff=   0.0000000   0.0000000   0.0000000   0.0000000   0.0000000   0.0000000   0.0000000   0.0000000   0.0000000   0.0000000
 NQMom=    0.0000000   0.0000000   0.0000000   0.0000000   0.0000000   0.0000000   0.0000000   0.0000000   0.0000000   0.0000000
 NMagM=    0.0000000   0.0000000   0.0000000   0.0000000   0.0000000   2.7928460   2.7928460   2.7928460   2.7928460   2.7928460
 AtZNuc=   6.0000000   6.0000000   6.0000000   6.0000000   6.0000000   1.0000000   1.0000000   1.0000000   1.0000000   1.0000000

  Atom        11          12          13          14          15          16          17          18          19          20
 IAtWgt=          16          16          16          16          16          12           1           1          16          12
 AtmWgt=  15.9949146  15.9949146  15.9949146  15.9949146  15.9949146  12.0000000   1.0078250   1.0078250  15.9949146  12.0000000
 NucSpn=           0           0           0           0           0           0           1           1           0           0
 AtZEff=   0.0000000   0.0000000   0.0000000   0.0000000   0.0000000   0.0000000   0.0000000   0.0000000   0.0000000   0.0000000
 NQMom=    0.0000000   0.0000000   0.0000000   0.0000000   0.0000000   0.0000000   0.0000000   0.0000000   0.0000000   0.0000000
 NMagM=    0.0000000   0.0000000   0.0000000   0.0000000   0.0000000   0.0000000   2.7928460   2.7928460   0.0000000   0.0000000
 AtZNuc=   8.0000000   8.0000000   8.0000000   8.0000000   8.0000000   6.0000000   1.0000000   1.0000000   8.0000000   6.0000000

  Atom        21          22          23          24          25          26          27          28          29          30
 IAtWgt=           1           1           1          12           1           1           1          12           1           1
 AtmWgt=   1.0078250   1.0078250   1.0078250  12.0000000   1.0078250   1.0078250   1.0078250  12.0000000   1.0078250   1.0078250
 NucSpn=           1           1           1           0           1           1           1           0           1           1
 AtZEff=   0.0000000   0.0000000   0.0000000   0.0000000   0.0000000   0.0000000   0.0000000   0.0000000   0.0000000   0.0000000
 NQMom=    0.0000000   0.0000000   0.0000000   0.0000000   0.0000000   0.0000000   0.0000000   0.0000000   0.0000000   0.0000000
 NMagM=    2.7928460   2.7928460   2.7928460   0.0000000   2.7928460   2.7928460   2.7928460   0.0000000   2.7928460   2.7928460
 AtZNuc=   1.0000000   1.0000000   1.0000000   6.0000000   1.0000000   1.0000000   1.0000000   6.0000000   1.0000000   1.0000000

  Atom        31          32          33          34          35          36          37          38          39          40
 IAtWgt=           1          12          12          12          12          12           1           1           1           1
 AtmWgt=   1.0078250  12.0000000  12.0000000  12.0000000  12.0000000  12.0000000   1.0078250   1.0078250   1.0078250   1.0078250
 NucSpn=           1           0           0           0           0           0           1           1           1           1
 AtZEff=   0.0000000   0.0000000   0.0000000   0.0000000   0.0000000   0.0000000   0.0000000   0.0000000   0.0000000   0.0000000
 NQMom=    0.0000000   0.0000000   0.0000000   0.0000000   0.0000000   0.0000000   0.0000000   0.0000000   0.0000000   0.0000000
 NMagM=    2.7928460   0.0000000   0.0000000   0.0000000   0.0000000   0.0000000   2.7928460   2.7928460   2.7928460   2.7928460
 AtZNuc=   1.0000000   6.0000000   6.0000000   6.0000000   6.0000000   6.0000000   1.0000000   1.0000000   1.0000000   1.0000000

  Atom        41          42          43          44          45          46          47          48          49          50
 IAtWgt=           1          16          16          16          16          16          12           1           1          16
 AtmWgt=   1.0078250  15.9949146  15.9949146  15.9949146  15.9949146  15.9949146  12.0000000   1.0078250   1.0078250  15.9949146
 NucSpn=           1           0           0           0           0           0           0           1           1           0
 AtZEff=   0.0000000   0.0000000   0.0000000   0.0000000   0.0000000   0.0000000   0.0000000   0.0000000   0.0000000   0.0000000
 NQMom=    0.0000000   0.0000000   0.0000000   0.0000000   0.0000000   0.0000000   0.0000000   0.0000000   0.0000000   0.0000000
 NMagM=    2.7928460   0.0000000   0.0000000   0.0000000   0.0000000   0.0000000   0.0000000   2.7928460   2.7928460   0.0000000
 AtZNuc=   1.0000000   8.0000000   8.0000000   8.0000000   8.0000000   8.0000000   6.0000000   1.0000000   1.0000000   8.0000000

  Atom        51          52          53          54          55          56          57          58          59          60
 IAtWgt=          32          16          16          12          12          12          12           1          12           1
 AtmWgt=  31.9720718  15.9949146  15.9949146  12.0000000  12.0000000  12.0000000  12.0000000   1.0078250  12.0000000   1.0078250
 NucSpn=           0           0           0           0           0           0           0           1           0           1
 AtZEff=   0.0000000   0.0000000   0.0000000   0.0000000   0.0000000   0.0000000   0.0000000   0.0000000   0.0000000   0.0000000
 NQMom=    0.0000000   0.0000000   0.0000000   0.0000000   0.0000000   0.0000000   0.0000000   0.0000000   0.0000000   0.0000000
 NMagM=    0.0000000   0.0000000   0.0000000   0.0000000   0.0000000   0.0000000   0.0000000   2.7928460   0.0000000   2.7928460
 AtZNuc=  16.0000000   8.0000000   8.0000000   6.0000000   6.0000000   6.0000000   6.0000000   1.0000000   6.0000000   1.0000000

  Atom        61          62          63          64          65          66          67          68          69          70
 IAtWgt=          12           1          12           1           1           1          12           1           1           1
 AtmWgt=  12.0000000   1.0078250  12.0000000   1.0078250   1.0078250   1.0078250  12.0000000   1.0078250   1.0078250   1.0078250
 NucSpn=           0           1           0           1           1           1           0           1           1           1
 AtZEff=   0.0000000   0.0000000   0.0000000   0.0000000   0.0000000   0.0000000   0.0000000   0.0000000   0.0000000   0.0000000
 NQMom=    0.0000000   0.0000000   0.0000000   0.0000000   0.0000000   0.0000000   0.0000000   0.0000000   0.0000000   0.0000000
 NMagM=    0.0000000   2.7928460   0.0000000   2.7928460   2.7928460   2.7928460   0.0000000   2.7928460   2.7928460   2.7928460
 AtZNuc=   6.0000000   1.0000000   6.0000000   1.0000000   1.0000000   1.0000000   6.0000000   1.0000000   1.0000000   1.0000000

  Atom        71          72          73          74          75          76          77          78          79          80
 IAtWgt=          12           1           1           1          12           1           1           1          12           1
 AtmWgt=  12.0000000   1.0078250   1.0078250   1.0078250  12.0000000   1.0078250   1.0078250   1.0078250  12.0000000   1.0078250
 NucSpn=           0           1           1           1           0           1           1           1           0           1
 AtZEff=   0.0000000   0.0000000   0.0000000   0.0000000   0.0000000   0.0000000   0.0000000   0.0000000   0.0000000   0.0000000
 NQMom=    0.0000000   0.0000000   0.0000000   0.0000000   0.0000000   0.0000000   0.0000000   0.0000000   0.0000000   0.0000000
 NMagM=    0.0000000   2.7928460   2.7928460   2.7928460   0.0000000   2.7928460   2.7928460   2.7928460   0.0000000   2.7928460
 AtZNuc=   6.0000000   1.0000000   1.0000000   1.0000000   6.0000000   1.0000000   1.0000000   1.0000000   6.0000000   1.0000000

  Atom        81          82          83          84          85          86          87          88          89          90
 IAtWgt=           1           1          23          16          12           1           1           1          12           1
 AtmWgt=   1.0078250   1.0078250  22.9897697  15.9949146  12.0000000   1.0078250   1.0078250   1.0078250  12.0000000   1.0078250
 NucSpn=           1           1           3           0           0           1           1           1           0           1
 AtZEff=   0.0000000   0.0000000   0.0000000   0.0000000   0.0000000   0.0000000   0.0000000   0.0000000   0.0000000   0.0000000
 NQMom=    0.0000000   0.0000000  10.4000000   0.0000000   0.0000000   0.0000000   0.0000000   0.0000000   0.0000000   0.0000000
 NMagM=    2.7928460   2.7928460   2.2175200   0.0000000   0.0000000   2.7928460   2.7928460   2.7928460   0.0000000   2.7928460
 AtZNuc=   1.0000000   1.0000000  11.0000000   8.0000000   6.0000000   1.0000000   1.0000000   1.0000000   6.0000000   1.0000000

  Atom        91          92          93          94          95          96          97          98          99         100
 IAtWgt=           1           1          12          19          19          19          12          19          19          19
 AtmWgt=   1.0078250   1.0078250  12.0000000  18.9984033  18.9984033  18.9984033  12.0000000  18.9984033  18.9984033  18.9984033
 NucSpn=           1           1           0           1           1           1           0           1           1           1
 AtZEff=   0.0000000   0.0000000   0.0000000   0.0000000   0.0000000   0.0000000   0.0000000   0.0000000   0.0000000   0.0000000
 NQMom=    0.0000000   0.0000000   0.0000000   0.0000000   0.0000000   0.0000000   0.0000000   0.0000000   0.0000000   0.0000000
 NMagM=    2.7928460   2.7928460   0.0000000   2.6288670   2.6288670   2.6288670   0.0000000   2.6288670   2.6288670   2.6288670
 AtZNuc=   1.0000000   1.0000000   6.0000000   9.0000000   9.0000000   9.0000000   6.0000000   9.0000000   9.0000000   9.0000000
 Leave Link  101 at Wed May  8 08:00:41 2019, MaxMem=  6442450944 cpu:              18.2 elap:               0.7
 (Enter /home/ekwan/sw/g16/l103.exe)

 GradGradGradGradGradGradGradGradGradGradGradGradGradGradGradGradGradGrad
 Berny optimization.
 Initialization pass.
                           ----------------------------
                           !    Initial Parameters    !
                           ! (Angstroms and Degrees)  !
 --------------------------                            --------------------------
 ! Name  Definition              Value          Derivative Info.                !
 --------------------------------------------------------------------------------
 ! R1    R(1,2)                  1.5303         calculate D2E/DX2 analytically  !
 ! R2    R(1,5)                  1.5251         calculate D2E/DX2 analytically  !
 ! R3    R(1,8)                  1.0974         calculate D2E/DX2 analytically  !
 ! R4    R(1,14)                 1.4232         calculate D2E/DX2 analytically  !
 ! R5    R(2,3)                  1.5383         calculate D2E/DX2 analytically  !
 ! R6    R(2,7)                  1.1034         calculate D2E/DX2 analytically  !
 ! R7    R(2,13)                 1.4138         calculate D2E/DX2 analytically  !
 ! R8    R(3,6)                  1.0995         calculate D2E/DX2 analytically  !
 ! R9    R(3,11)                 1.4222         calculate D2E/DX2 analytically  !
 ! R10   R(3,12)                 1.3942         calculate D2E/DX2 analytically  !
 ! R11   R(4,5)                  1.5301         calculate D2E/DX2 analytically  !
 ! R12   R(4,9)                  1.0964         calculate D2E/DX2 analytically  !
 ! R13   R(4,11)                 1.4566         calculate D2E/DX2 analytically  !
 ! R14   R(4,16)                 1.5396         calculate D2E/DX2 analytically  !
 ! R15   R(5,10)                 1.0965         calculate D2E/DX2 analytically  !
 ! R16   R(5,15)                 1.4226         calculate D2E/DX2 analytically  !
 ! R17   R(12,79)                1.4256         calculate D2E/DX2 analytically  !
 ! R18   R(13,20)                1.4177         calculate D2E/DX2 analytically  !
 ! R19   R(14,24)                1.4199         calculate D2E/DX2 analytically  !
 ! R20   R(15,28)                1.4213         calculate D2E/DX2 analytically  !
 ! R21   R(16,17)                1.1109         calculate D2E/DX2 analytically  !
 ! R22   R(16,18)                1.1163         calculate D2E/DX2 analytically  !
 ! R23   R(16,19)                1.3749         calculate D2E/DX2 analytically  !
 ! R24   R(19,37)                2.2707         calculate D2E/DX2 analytically  !
 ! R25   R(19,38)                2.2357         calculate D2E/DX2 analytically  !
 ! R26   R(19,83)                2.2127         calculate D2E/DX2 analytically  !
 ! R27   R(20,21)                1.0983         calculate D2E/DX2 analytically  !
 ! R28   R(20,22)                1.1007         calculate D2E/DX2 analytically  !
 ! R29   R(20,23)                1.0923         calculate D2E/DX2 analytically  !
 ! R30   R(24,25)                1.0995         calculate D2E/DX2 analytically  !
 ! R31   R(24,26)                1.0957         calculate D2E/DX2 analytically  !
 ! R32   R(24,27)                1.0934         calculate D2E/DX2 analytically  !
 ! R33   R(28,29)                1.0995         calculate D2E/DX2 analytically  !
 ! R34   R(28,30)                1.0968         calculate D2E/DX2 analytically  !
 ! R35   R(28,31)                1.0934         calculate D2E/DX2 analytically  !
 ! R36   R(32,33)                1.5239         calculate D2E/DX2 analytically  !
 ! R37   R(32,36)                1.5273         calculate D2E/DX2 analytically  !
 ! R38   R(32,39)                1.0904         calculate D2E/DX2 analytically  !
 ! R39   R(32,45)                1.4225         calculate D2E/DX2 analytically  !
 ! R40   R(33,34)                1.5126         calculate D2E/DX2 analytically  !
 ! R41   R(33,38)                1.095          calculate D2E/DX2 analytically  !
 ! R42   R(33,44)                1.4056         calculate D2E/DX2 analytically  !
 ! R43   R(34,37)                1.0755         calculate D2E/DX2 analytically  !
 ! R44   R(34,42)                1.3076         calculate D2E/DX2 analytically  !
 ! R45   R(34,43)                1.9718         calculate D2E/DX2 analytically  !
 ! R46   R(35,36)                1.5327         calculate D2E/DX2 analytically  !
 ! R47   R(35,40)                1.0899         calculate D2E/DX2 analytically  !
 ! R48   R(35,42)                1.4678         calculate D2E/DX2 analytically  !
 ! R49   R(35,47)                1.5112         calculate D2E/DX2 analytically  !
 ! R50   R(36,41)                1.0944         calculate D2E/DX2 analytically  !
 ! R51   R(36,46)                1.4207         calculate D2E/DX2 analytically  !
 ! R52   R(38,87)                2.2613         calculate D2E/DX2 analytically  !
 ! R53   R(43,51)                1.5316         calculate D2E/DX2 analytically  !
 ! R54   R(44,63)                1.4306         calculate D2E/DX2 analytically  !
 ! R55   R(45,67)                1.4245         calculate D2E/DX2 analytically  !
 ! R56   R(46,71)                1.4242         calculate D2E/DX2 analytically  !
 ! R57   R(47,48)                1.097          calculate D2E/DX2 analytically  !
 ! R58   R(47,49)                1.0979         calculate D2E/DX2 analytically  !
 ! R59   R(47,50)                1.424          calculate D2E/DX2 analytically  !
 ! R60   R(50,75)                1.4262         calculate D2E/DX2 analytically  !
 ! R61   R(50,83)                2.3305         calculate D2E/DX2 analytically  !
 ! R62   R(51,52)                1.4727         calculate D2E/DX2 analytically  !
 ! R63   R(51,53)                1.479          calculate D2E/DX2 analytically  !
 ! R64   R(51,54)                1.7981         calculate D2E/DX2 analytically  !
 ! R65   R(54,55)                1.3939         calculate D2E/DX2 analytically  !
 ! R66   R(54,56)                1.3919         calculate D2E/DX2 analytically  !
 ! R67   R(55,57)                1.393          calculate D2E/DX2 analytically  !
 ! R68   R(55,58)                1.0834         calculate D2E/DX2 analytically  !
 ! R69   R(56,59)                1.394          calculate D2E/DX2 analytically  !
 ! R70   R(56,60)                1.0815         calculate D2E/DX2 analytically  !
 ! R71   R(57,61)                1.3951         calculate D2E/DX2 analytically  !
 ! R72   R(57,97)                1.5041         calculate D2E/DX2 analytically  !
 ! R73   R(59,61)                1.3939         calculate D2E/DX2 analytically  !
 ! R74   R(59,93)                1.503          calculate D2E/DX2 analytically  !
 ! R75   R(61,62)                1.0841         calculate D2E/DX2 analytically  !
 ! R76   R(63,64)                1.0945         calculate D2E/DX2 analytically  !
 ! R77   R(63,65)                1.099          calculate D2E/DX2 analytically  !
 ! R78   R(63,66)                1.0921         calculate D2E/DX2 analytically  !
 ! R79   R(67,68)                1.0978         calculate D2E/DX2 analytically  !
 ! R80   R(67,69)                1.094          calculate D2E/DX2 analytically  !
 ! R81   R(67,70)                1.0926         calculate D2E/DX2 analytically  !
 ! R82   R(71,72)                1.0941         calculate D2E/DX2 analytically  !
 ! R83   R(71,73)                1.0987         calculate D2E/DX2 analytically  !
 ! R84   R(71,74)                1.0906         calculate D2E/DX2 analytically  !
 ! R85   R(75,76)                1.092          calculate D2E/DX2 analytically  !
 ! R86   R(75,77)                1.0976         calculate D2E/DX2 analytically  !
 ! R87   R(75,78)                1.0971         calculate D2E/DX2 analytically  !
 ! R88   R(79,80)                1.0913         calculate D2E/DX2 analytically  !
 ! R89   R(79,81)                1.0955         calculate D2E/DX2 analytically  !
 ! R90   R(79,82)                1.0992         calculate D2E/DX2 analytically  !
 ! R91   R(83,84)                2.2924         calculate D2E/DX2 analytically  !
 ! R92   R(84,85)                1.4286         calculate D2E/DX2 analytically  !
 ! R93   R(84,89)                1.4205         calculate D2E/DX2 analytically  !
 ! R94   R(85,86)                1.0977         calculate D2E/DX2 analytically  !
 ! R95   R(85,87)                1.0917         calculate D2E/DX2 analytically  !
 ! R96   R(85,88)                1.0983         calculate D2E/DX2 analytically  !
 ! R97   R(89,90)                1.0984         calculate D2E/DX2 analytically  !
 ! R98   R(89,91)                1.0922         calculate D2E/DX2 analytically  !
 ! R99   R(89,92)                1.0982         calculate D2E/DX2 analytically  !
 ! R100  R(93,94)                1.3585         calculate D2E/DX2 analytically  !
 ! R101  R(93,95)                1.3522         calculate D2E/DX2 analytically  !
 ! R102  R(93,96)                1.3453         calculate D2E/DX2 analytically  !
 ! R103  R(97,98)                1.3475         calculate D2E/DX2 analytically  !
 ! R104  R(97,99)                1.35           calculate D2E/DX2 analytically  !
 ! R105  R(97,100)               1.357          calculate D2E/DX2 analytically  !
 ! A1    A(2,1,5)              111.1071         calculate D2E/DX2 analytically  !
 ! A2    A(2,1,8)              108.8618         calculate D2E/DX2 analytically  !
 ! A3    A(2,1,14)             110.0661         calculate D2E/DX2 analytically  !
 ! A4    A(5,1,8)              108.9205         calculate D2E/DX2 analytically  !
 ! A5    A(5,1,14)             107.5188         calculate D2E/DX2 analytically  !
 ! A6    A(8,1,14)             110.3563         calculate D2E/DX2 analytically  !
 ! A7    A(1,2,3)              111.4055         calculate D2E/DX2 analytically  !
 ! A8    A(1,2,7)              107.9531         calculate D2E/DX2 analytically  !
 ! A9    A(1,2,13)             107.8452         calculate D2E/DX2 analytically  !
 ! A10   A(3,2,7)              106.7941         calculate D2E/DX2 analytically  !
 ! A11   A(3,2,13)             113.0446         calculate D2E/DX2 analytically  !
 ! A12   A(7,2,13)             109.6853         calculate D2E/DX2 analytically  !
 ! A13   A(2,3,6)              111.3889         calculate D2E/DX2 analytically  !
 ! A14   A(2,3,11)             109.9017         calculate D2E/DX2 analytically  !
 ! A15   A(2,3,12)             108.4512         calculate D2E/DX2 analytically  !
 ! A16   A(6,3,11)             103.8335         calculate D2E/DX2 analytically  !
 ! A17   A(6,3,12)             110.4199         calculate D2E/DX2 analytically  !
 ! A18   A(11,3,12)            112.8357         calculate D2E/DX2 analytically  !
 ! A19   A(5,4,9)              109.6434         calculate D2E/DX2 analytically  !
 ! A20   A(5,4,11)             108.7432         calculate D2E/DX2 analytically  !
 ! A21   A(5,4,16)             112.5318         calculate D2E/DX2 analytically  !
 ! A22   A(9,4,11)             108.5121         calculate D2E/DX2 analytically  !
 ! A23   A(9,4,16)             110.1711         calculate D2E/DX2 analytically  !
 ! A24   A(11,4,16)            107.1226         calculate D2E/DX2 analytically  !
 ! A25   A(1,5,4)              112.6069         calculate D2E/DX2 analytically  !
 ! A26   A(1,5,10)             108.2191         calculate D2E/DX2 analytically  !
 ! A27   A(1,5,15)             108.608          calculate D2E/DX2 analytically  !
 ! A28   A(4,5,10)             108.073          calculate D2E/DX2 analytically  !
 ! A29   A(4,5,15)             109.2928         calculate D2E/DX2 analytically  !
 ! A30   A(10,5,15)            110.0221         calculate D2E/DX2 analytically  !
 ! A31   A(3,11,4)             114.511          calculate D2E/DX2 analytically  !
 ! A32   A(3,12,79)            113.4443         calculate D2E/DX2 analytically  !
 ! A33   A(2,13,20)            114.356          calculate D2E/DX2 analytically  !
 ! A34   A(1,14,24)            114.4877         calculate D2E/DX2 analytically  !
 ! A35   A(5,15,28)            113.3613         calculate D2E/DX2 analytically  !
 ! A36   A(4,16,17)            105.0136         calculate D2E/DX2 analytically  !
 ! A37   A(4,16,18)            105.4046         calculate D2E/DX2 analytically  !
 ! A38   A(4,16,19)            113.7683         calculate D2E/DX2 analytically  !
 ! A39   A(17,16,18)           105.1668         calculate D2E/DX2 analytically  !
 ! A40   A(17,16,19)           113.4763         calculate D2E/DX2 analytically  !
 ! A41   A(18,16,19)           113.1601         calculate D2E/DX2 analytically  !
 ! A42   A(16,19,37)            94.8932         calculate D2E/DX2 analytically  !
 ! A43   A(16,19,38)           163.1719         calculate D2E/DX2 analytically  !
 ! A44   A(16,19,83)           106.5913         calculate D2E/DX2 analytically  !
 ! A45   A(37,19,38)            69.4907         calculate D2E/DX2 analytically  !
 ! A46   A(37,19,83)           105.2802         calculate D2E/DX2 analytically  !
 ! A47   A(38,19,83)            84.3055         calculate D2E/DX2 analytically  !
 ! A48   A(13,20,21)           112.074          calculate D2E/DX2 analytically  !
 ! A49   A(13,20,22)           111.2864         calculate D2E/DX2 analytically  !
 ! A50   A(13,20,23)           106.8233         calculate D2E/DX2 analytically  !
 ! A51   A(21,20,22)           108.8906         calculate D2E/DX2 analytically  !
 ! A52   A(21,20,23)           108.6593         calculate D2E/DX2 analytically  !
 ! A53   A(22,20,23)           109.0193         calculate D2E/DX2 analytically  !
 ! A54   A(14,24,25)           111.0513         calculate D2E/DX2 analytically  !
 ! A55   A(14,24,26)           111.6237         calculate D2E/DX2 analytically  !
 ! A56   A(14,24,27)           106.6786         calculate D2E/DX2 analytically  !
 ! A57   A(25,24,26)           109.1347         calculate D2E/DX2 analytically  !
 ! A58   A(25,24,27)           108.8537         calculate D2E/DX2 analytically  !
 ! A59   A(26,24,27)           109.4292         calculate D2E/DX2 analytically  !
 ! A60   A(15,28,29)           110.8802         calculate D2E/DX2 analytically  !
 ! A61   A(15,28,30)           111.2361         calculate D2E/DX2 analytically  !
 ! A62   A(15,28,31)           106.8809         calculate D2E/DX2 analytically  !
 ! A63   A(29,28,30)           109.0443         calculate D2E/DX2 analytically  !
 ! A64   A(29,28,31)           109.0366         calculate D2E/DX2 analytically  !
 ! A65   A(30,28,31)           109.7183         calculate D2E/DX2 analytically  !
 ! A66   A(33,32,36)           110.6383         calculate D2E/DX2 analytically  !
 ! A67   A(33,32,39)           109.6168         calculate D2E/DX2 analytically  !
 ! A68   A(33,32,45)           109.0808         calculate D2E/DX2 analytically  !
 ! A69   A(36,32,39)           109.1026         calculate D2E/DX2 analytically  !
 ! A70   A(36,32,45)           108.0575         calculate D2E/DX2 analytically  !
 ! A71   A(39,32,45)           110.3294         calculate D2E/DX2 analytically  !
 ! A72   A(32,33,34)           113.2572         calculate D2E/DX2 analytically  !
 ! A73   A(32,33,38)           107.5242         calculate D2E/DX2 analytically  !
 ! A74   A(32,33,44)           110.6164         calculate D2E/DX2 analytically  !
 ! A75   A(34,33,38)           102.3022         calculate D2E/DX2 analytically  !
 ! A76   A(34,33,44)           112.469          calculate D2E/DX2 analytically  !
 ! A77   A(38,33,44)           110.2389         calculate D2E/DX2 analytically  !
 ! A78   A(33,34,37)           119.196          calculate D2E/DX2 analytically  !
 ! A79   A(33,34,42)           120.1859         calculate D2E/DX2 analytically  !
 ! A80   A(33,34,43)           100.0265         calculate D2E/DX2 analytically  !
 ! A81   A(37,34,42)           114.0729         calculate D2E/DX2 analytically  !
 ! A82   A(37,34,43)            87.6576         calculate D2E/DX2 analytically  !
 ! A83   A(42,34,43)           107.4792         calculate D2E/DX2 analytically  !
 ! A84   A(36,35,40)           109.5454         calculate D2E/DX2 analytically  !
 ! A85   A(36,35,42)           113.8103         calculate D2E/DX2 analytically  !
 ! A86   A(36,35,47)           113.7907         calculate D2E/DX2 analytically  !
 ! A87   A(40,35,42)           104.9411         calculate D2E/DX2 analytically  !
 ! A88   A(40,35,47)           107.9032         calculate D2E/DX2 analytically  !
 ! A89   A(42,35,47)           106.3247         calculate D2E/DX2 analytically  !
 ! A90   A(32,36,35)           112.7053         calculate D2E/DX2 analytically  !
 ! A91   A(32,36,41)           108.1011         calculate D2E/DX2 analytically  !
 ! A92   A(32,36,46)           111.082          calculate D2E/DX2 analytically  !
 ! A93   A(35,36,41)           109.9652         calculate D2E/DX2 analytically  !
 ! A94   A(35,36,46)           104.2033         calculate D2E/DX2 analytically  !
 ! A95   A(41,36,46)           110.7832         calculate D2E/DX2 analytically  !
 ! A96   A(19,37,34)            93.5218         calculate D2E/DX2 analytically  !
 ! A97   A(19,38,33)           116.4626         calculate D2E/DX2 analytically  !
 ! A98   A(19,38,87)            64.8854         calculate D2E/DX2 analytically  !
 ! A99   A(34,42,35)           120.3985         calculate D2E/DX2 analytically  !
 ! A100  A(34,43,51)           133.2703         calculate D2E/DX2 analytically  !
 ! A101  A(33,44,63)           113.1846         calculate D2E/DX2 analytically  !
 ! A102  A(32,45,67)           114.0272         calculate D2E/DX2 analytically  !
 ! A103  A(36,46,71)           114.7496         calculate D2E/DX2 analytically  !
 ! A104  A(35,47,48)           107.899          calculate D2E/DX2 analytically  !
 ! A105  A(35,47,49)           109.6001         calculate D2E/DX2 analytically  !
 ! A106  A(35,47,50)           110.1993         calculate D2E/DX2 analytically  !
 ! A107  A(48,47,49)           108.7641         calculate D2E/DX2 analytically  !
 ! A108  A(48,47,50)           110.2472         calculate D2E/DX2 analytically  !
 ! A109  A(49,47,50)           110.087          calculate D2E/DX2 analytically  !
 ! A110  A(47,50,75)           112.1391         calculate D2E/DX2 analytically  !
 ! A111  A(47,50,83)           122.5951         calculate D2E/DX2 analytically  !
 ! A112  A(75,50,83)           116.7439         calculate D2E/DX2 analytically  !
 ! A113  A(43,51,52)           109.9392         calculate D2E/DX2 analytically  !
 ! A114  A(43,51,53)           113.2432         calculate D2E/DX2 analytically  !
 ! A115  A(43,51,54)           102.3913         calculate D2E/DX2 analytically  !
 ! A116  A(52,51,53)           116.7327         calculate D2E/DX2 analytically  !
 ! A117  A(52,51,54)           106.8964         calculate D2E/DX2 analytically  !
 ! A118  A(53,51,54)           106.3472         calculate D2E/DX2 analytically  !
 ! A119  A(51,54,55)           118.3446         calculate D2E/DX2 analytically  !
 ! A120  A(51,54,56)           120.2104         calculate D2E/DX2 analytically  !
 ! A121  A(55,54,56)           121.1823         calculate D2E/DX2 analytically  !
 ! A122  A(54,55,57)           119.0955         calculate D2E/DX2 analytically  !
 ! A123  A(54,55,58)           120.2701         calculate D2E/DX2 analytically  !
 ! A124  A(57,55,58)           120.6272         calculate D2E/DX2 analytically  !
 ! A125  A(54,56,59)           118.9926         calculate D2E/DX2 analytically  !
 ! A126  A(54,56,60)           120.1349         calculate D2E/DX2 analytically  !
 ! A127  A(59,56,60)           120.8359         calculate D2E/DX2 analytically  !
 ! A128  A(55,57,61)           120.5369         calculate D2E/DX2 analytically  !
 ! A129  A(55,57,97)           119.8671         calculate D2E/DX2 analytically  !
 ! A130  A(61,57,97)           119.4363         calculate D2E/DX2 analytically  !
 ! A131  A(56,59,61)           120.6616         calculate D2E/DX2 analytically  !
 ! A132  A(56,59,93)           120.9118         calculate D2E/DX2 analytically  !
 ! A133  A(61,59,93)           118.3385         calculate D2E/DX2 analytically  !
 ! A134  A(57,61,59)           119.5118         calculate D2E/DX2 analytically  !
 ! A135  A(57,61,62)           120.1531         calculate D2E/DX2 analytically  !
 ! A136  A(59,61,62)           120.3301         calculate D2E/DX2 analytically  !
 ! A137  A(44,63,64)           110.8816         calculate D2E/DX2 analytically  !
 ! A138  A(44,63,65)           110.485          calculate D2E/DX2 analytically  !
 ! A139  A(44,63,66)           106.6082         calculate D2E/DX2 analytically  !
 ! A140  A(64,63,65)           108.7661         calculate D2E/DX2 analytically  !
 ! A141  A(64,63,66)           110.7549         calculate D2E/DX2 analytically  !
 ! A142  A(65,63,66)           109.3285         calculate D2E/DX2 analytically  !
 ! A143  A(45,67,68)           110.807          calculate D2E/DX2 analytically  !
 ! A144  A(45,67,69)           111.4377         calculate D2E/DX2 analytically  !
 ! A145  A(45,67,70)           106.538          calculate D2E/DX2 analytically  !
 ! A146  A(68,67,69)           109.4196         calculate D2E/DX2 analytically  !
 ! A147  A(68,67,70)           109.0858         calculate D2E/DX2 analytically  !
 ! A148  A(69,67,70)           109.4851         calculate D2E/DX2 analytically  !
 ! A149  A(46,71,72)           111.294          calculate D2E/DX2 analytically  !
 ! A150  A(46,71,73)           110.8844         calculate D2E/DX2 analytically  !
 ! A151  A(46,71,74)           106.1775         calculate D2E/DX2 analytically  !
 ! A152  A(72,71,73)           109.3009         calculate D2E/DX2 analytically  !
 ! A153  A(72,71,74)           109.6255         calculate D2E/DX2 analytically  !
 ! A154  A(73,71,74)           109.5033         calculate D2E/DX2 analytically  !
 ! A155  A(50,75,76)           107.0623         calculate D2E/DX2 analytically  !
 ! A156  A(50,75,77)           110.9104         calculate D2E/DX2 analytically  !
 ! A157  A(50,75,78)           110.6394         calculate D2E/DX2 analytically  !
 ! A158  A(76,75,77)           109.4977         calculate D2E/DX2 analytically  !
 ! A159  A(76,75,78)           109.4293         calculate D2E/DX2 analytically  !
 ! A160  A(77,75,78)           109.2643         calculate D2E/DX2 analytically  !
 ! A161  A(12,79,80)           106.6542         calculate D2E/DX2 analytically  !
 ! A162  A(12,79,81)           111.4345         calculate D2E/DX2 analytically  !
 ! A163  A(12,79,82)           110.6724         calculate D2E/DX2 analytically  !
 ! A164  A(80,79,81)           109.5948         calculate D2E/DX2 analytically  !
 ! A165  A(80,79,82)           109.4241         calculate D2E/DX2 analytically  !
 ! A166  A(81,79,82)           109.0207         calculate D2E/DX2 analytically  !
 ! A167  A(19,83,50)           137.3403         calculate D2E/DX2 analytically  !
 ! A168  A(19,83,84)            95.9258         calculate D2E/DX2 analytically  !
 ! A169  A(50,83,84)            93.6207         calculate D2E/DX2 analytically  !
 ! A170  A(83,84,85)           116.4291         calculate D2E/DX2 analytically  !
 ! A171  A(83,84,89)           130.7715         calculate D2E/DX2 analytically  !
 ! A172  A(85,84,89)           112.7994         calculate D2E/DX2 analytically  !
 ! A173  A(84,85,86)           110.0677         calculate D2E/DX2 analytically  !
 ! A174  A(84,85,87)           106.0234         calculate D2E/DX2 analytically  !
 ! A175  A(84,85,88)           110.6029         calculate D2E/DX2 analytically  !
 ! A176  A(86,85,87)           110.0549         calculate D2E/DX2 analytically  !
 ! A177  A(86,85,88)           109.6231         calculate D2E/DX2 analytically  !
 ! A178  A(87,85,88)           110.4181         calculate D2E/DX2 analytically  !
 ! A179  A(38,87,85)            99.5654         calculate D2E/DX2 analytically  !
 ! A180  A(84,89,90)           110.9101         calculate D2E/DX2 analytically  !
 ! A181  A(84,89,91)           107.0594         calculate D2E/DX2 analytically  !
 ! A182  A(84,89,92)           110.7231         calculate D2E/DX2 analytically  !
 ! A183  A(90,89,91)           109.6832         calculate D2E/DX2 analytically  !
 ! A184  A(90,89,92)           109.0424         calculate D2E/DX2 analytically  !
 ! A185  A(91,89,92)           109.393          calculate D2E/DX2 analytically  !
 ! A186  A(59,93,94)           110.635          calculate D2E/DX2 analytically  !
 ! A187  A(59,93,95)           111.7313         calculate D2E/DX2 analytically  !
 ! A188  A(59,93,96)           112.7696         calculate D2E/DX2 analytically  !
 ! A189  A(94,93,95)           106.3482         calculate D2E/DX2 analytically  !
 ! A190  A(94,93,96)           107.3901         calculate D2E/DX2 analytically  !
 ! A191  A(95,93,96)           107.6521         calculate D2E/DX2 analytically  !
 ! A192  A(57,97,98)           112.0345         calculate D2E/DX2 analytically  !
 ! A193  A(57,97,99)           111.7979         calculate D2E/DX2 analytically  !
 ! A194  A(57,97,100)          111.2082         calculate D2E/DX2 analytically  !
 ! A195  A(98,97,99)           107.8212         calculate D2E/DX2 analytically  !
 ! A196  A(98,97,100)          106.9677         calculate D2E/DX2 analytically  !
 ! A197  A(99,97,100)          106.7247         calculate D2E/DX2 analytically  !
 ! A198  L(33,38,87,19,-1)     181.3481         calculate D2E/DX2 analytically  !
 ! A199  L(33,38,87,19,-2)     188.939          calculate D2E/DX2 analytically  !
 ! D1    D(5,1,2,3)            -49.1723         calculate D2E/DX2 analytically  !
 ! D2    D(5,1,2,7)             67.7794         calculate D2E/DX2 analytically  !
 ! D3    D(5,1,2,13)          -173.7764         calculate D2E/DX2 analytically  !
 ! D4    D(8,1,2,3)             70.7728         calculate D2E/DX2 analytically  !
 ! D5    D(8,1,2,7)           -172.2755         calculate D2E/DX2 analytically  !
 ! D6    D(8,1,2,13)           -53.8312         calculate D2E/DX2 analytically  !
 ! D7    D(14,1,2,3)          -168.1534         calculate D2E/DX2 analytically  !
 ! D8    D(14,1,2,7)           -51.2017         calculate D2E/DX2 analytically  !
 ! D9    D(14,1,2,13)           67.2426         calculate D2E/DX2 analytically  !
 ! D10   D(2,1,5,4)             49.7081         calculate D2E/DX2 analytically  !
 ! D11   D(2,1,5,10)           -69.688          calculate D2E/DX2 analytically  !
 ! D12   D(2,1,5,15)           170.8953         calculate D2E/DX2 analytically  !
 ! D13   D(8,1,5,4)            -70.2021         calculate D2E/DX2 analytically  !
 ! D14   D(8,1,5,10)           170.4018         calculate D2E/DX2 analytically  !
 ! D15   D(8,1,5,15)            50.985          calculate D2E/DX2 analytically  !
 ! D16   D(14,1,5,4)           170.2065         calculate D2E/DX2 analytically  !
 ! D17   D(14,1,5,10)           50.8104         calculate D2E/DX2 analytically  !
 ! D18   D(14,1,5,15)          -68.6063         calculate D2E/DX2 analytically  !
 ! D19   D(2,1,14,24)         -100.4131         calculate D2E/DX2 analytically  !
 ! D20   D(5,1,14,24)          138.4332         calculate D2E/DX2 analytically  !
 ! D21   D(8,1,14,24)           19.7612         calculate D2E/DX2 analytically  !
 ! D22   D(1,2,3,6)            168.6605         calculate D2E/DX2 analytically  !
 ! D23   D(1,2,3,11)            54.1479         calculate D2E/DX2 analytically  !
 ! D24   D(1,2,3,12)           -69.6247         calculate D2E/DX2 analytically  !
 ! D25   D(7,2,3,6)             51.0063         calculate D2E/DX2 analytically  !
 ! D26   D(7,2,3,11)           -63.5064         calculate D2E/DX2 analytically  !
 ! D27   D(7,2,3,12)           172.7211         calculate D2E/DX2 analytically  !
 ! D28   D(13,2,3,6)           -69.7082         calculate D2E/DX2 analytically  !
 ! D29   D(13,2,3,11)          175.7792         calculate D2E/DX2 analytically  !
 ! D30   D(13,2,3,12)           52.0067         calculate D2E/DX2 analytically  !
 ! D31   D(1,2,13,20)         -168.5319         calculate D2E/DX2 analytically  !
 ! D32   D(3,2,13,20)           67.853          calculate D2E/DX2 analytically  !
 ! D33   D(7,2,13,20)          -51.2033         calculate D2E/DX2 analytically  !
 ! D34   D(2,3,11,4)           -61.5339         calculate D2E/DX2 analytically  !
 ! D35   D(6,3,11,4)           179.2179         calculate D2E/DX2 analytically  !
 ! D36   D(12,3,11,4)           59.6424         calculate D2E/DX2 analytically  !
 ! D37   D(2,3,12,79)         -174.0049         calculate D2E/DX2 analytically  !
 ! D38   D(6,3,12,79)          -51.698          calculate D2E/DX2 analytically  !
 ! D39   D(11,3,12,79)          63.9983         calculate D2E/DX2 analytically  !
 ! D40   D(9,4,5,1)             65.122          calculate D2E/DX2 analytically  !
 ! D41   D(9,4,5,10)          -175.3971         calculate D2E/DX2 analytically  !
 ! D42   D(9,4,5,15)           -55.6737         calculate D2E/DX2 analytically  !
 ! D43   D(11,4,5,1)           -53.3756         calculate D2E/DX2 analytically  !
 ! D44   D(11,4,5,10)           66.1054         calculate D2E/DX2 analytically  !
 ! D45   D(11,4,5,15)         -174.1713         calculate D2E/DX2 analytically  !
 ! D46   D(16,4,5,1)          -171.8895         calculate D2E/DX2 analytically  !
 ! D47   D(16,4,5,10)          -52.4086         calculate D2E/DX2 analytically  !
 ! D48   D(16,4,5,15)           67.3148         calculate D2E/DX2 analytically  !
 ! D49   D(5,4,11,3)            60.7634         calculate D2E/DX2 analytically  !
 ! D50   D(9,4,11,3)           -58.4443         calculate D2E/DX2 analytically  !
 ! D51   D(16,4,11,3)         -177.3689         calculate D2E/DX2 analytically  !
 ! D52   D(5,4,16,17)          -69.5164         calculate D2E/DX2 analytically  !
 ! D53   D(5,4,16,18)          179.6981         calculate D2E/DX2 analytically  !
 ! D54   D(5,4,16,19)           55.1493         calculate D2E/DX2 analytically  !
 ! D55   D(9,4,16,17)           53.176          calculate D2E/DX2 analytically  !
 ! D56   D(9,4,16,18)          -57.6095         calculate D2E/DX2 analytically  !
 ! D57   D(9,4,16,19)          177.8417         calculate D2E/DX2 analytically  !
 ! D58   D(11,4,16,17)         171.023          calculate D2E/DX2 analytically  !
 ! D59   D(11,4,16,18)          60.2375         calculate D2E/DX2 analytically  !
 ! D60   D(11,4,16,19)         -64.3113         calculate D2E/DX2 analytically  !
 ! D61   D(1,5,15,28)          127.9434         calculate D2E/DX2 analytically  !
 ! D62   D(4,5,15,28)         -108.8538         calculate D2E/DX2 analytically  !
 ! D63   D(10,5,15,28)           9.6614         calculate D2E/DX2 analytically  !
 ! D64   D(3,12,79,80)         174.2145         calculate D2E/DX2 analytically  !
 ! D65   D(3,12,79,81)         -66.2146         calculate D2E/DX2 analytically  !
 ! D66   D(3,12,79,82)          55.2755         calculate D2E/DX2 analytically  !
 ! D67   D(2,13,20,21)         -70.8446         calculate D2E/DX2 analytically  !
 ! D68   D(2,13,20,22)          51.3603         calculate D2E/DX2 analytically  !
 ! D69   D(2,13,20,23)         170.2542         calculate D2E/DX2 analytically  !
 ! D70   D(1,14,24,25)         -59.9065         calculate D2E/DX2 analytically  !
 ! D71   D(1,14,24,26)          62.1256         calculate D2E/DX2 analytically  !
 ! D72   D(1,14,24,27)        -178.3822         calculate D2E/DX2 analytically  !
 ! D73   D(5,15,28,29)         -66.3653         calculate D2E/DX2 analytically  !
 ! D74   D(5,15,28,30)          55.1626         calculate D2E/DX2 analytically  !
 ! D75   D(5,15,28,31)         174.9115         calculate D2E/DX2 analytically  !
 ! D76   D(4,16,19,37)         151.0164         calculate D2E/DX2 analytically  !
 ! D77   D(4,16,19,38)         172.3326         calculate D2E/DX2 analytically  !
 ! D78   D(4,16,19,83)          43.4686         calculate D2E/DX2 analytically  !
 ! D79   D(17,16,19,37)        -88.9921         calculate D2E/DX2 analytically  !
 ! D80   D(17,16,19,38)        -67.6759         calculate D2E/DX2 analytically  !
 ! D81   D(17,16,19,83)        163.4601         calculate D2E/DX2 analytically  !
 ! D82   D(18,16,19,37)         30.746          calculate D2E/DX2 analytically  !
 ! D83   D(18,16,19,38)         52.0621         calculate D2E/DX2 analytically  !
 ! D84   D(18,16,19,83)        -76.8018         calculate D2E/DX2 analytically  !
 ! D85   D(16,19,37,34)       -153.1507         calculate D2E/DX2 analytically  !
 ! D86   D(38,19,37,34)         33.3007         calculate D2E/DX2 analytically  !
 ! D87   D(83,19,37,34)        -44.4588         calculate D2E/DX2 analytically  !
 ! D88   D(16,19,38,33)        -22.3522         calculate D2E/DX2 analytically  !
 ! D89   D(16,19,38,87)        148.7087         calculate D2E/DX2 analytically  !
 ! D90   D(37,19,38,33)          0.3971         calculate D2E/DX2 analytically  !
 ! D91   D(37,19,38,87)        171.4581         calculate D2E/DX2 analytically  !
 ! D92   D(83,19,38,33)        109.0643         calculate D2E/DX2 analytically  !
 ! D93   D(83,19,38,87)        -79.8748         calculate D2E/DX2 analytically  !
 ! D94   D(16,19,83,50)        111.735          calculate D2E/DX2 analytically  !
 ! D95   D(16,19,83,84)       -146.3575         calculate D2E/DX2 analytically  !
 ! D96   D(37,19,83,50)         11.7341         calculate D2E/DX2 analytically  !
 ! D97   D(37,19,83,84)        113.6416         calculate D2E/DX2 analytically  !
 ! D98   D(38,19,83,50)        -55.1719         calculate D2E/DX2 analytically  !
 ! D99   D(38,19,83,84)         46.7357         calculate D2E/DX2 analytically  !
 ! D100  D(36,32,33,34)        -45.2161         calculate D2E/DX2 analytically  !
 ! D101  D(36,32,33,38)         67.0501         calculate D2E/DX2 analytically  !
 ! D102  D(36,32,33,44)       -172.5266         calculate D2E/DX2 analytically  !
 ! D103  D(39,32,33,34)         75.1478         calculate D2E/DX2 analytically  !
 ! D104  D(39,32,33,38)       -172.586          calculate D2E/DX2 analytically  !
 ! D105  D(39,32,33,44)        -52.1627         calculate D2E/DX2 analytically  !
 ! D106  D(45,32,33,34)       -163.9515         calculate D2E/DX2 analytically  !
 ! D107  D(45,32,33,38)        -51.6853         calculate D2E/DX2 analytically  !
 ! D108  D(45,32,33,44)         68.738          calculate D2E/DX2 analytically  !
 ! D109  D(33,32,36,35)         49.5333         calculate D2E/DX2 analytically  !
 ! D110  D(33,32,36,41)        -72.2141         calculate D2E/DX2 analytically  !
 ! D111  D(33,32,36,46)        166.0437         calculate D2E/DX2 analytically  !
 ! D112  D(39,32,36,35)        -71.137          calculate D2E/DX2 analytically  !
 ! D113  D(39,32,36,41)        167.1156         calculate D2E/DX2 analytically  !
 ! D114  D(39,32,36,46)         45.3733         calculate D2E/DX2 analytically  !
 ! D115  D(45,32,36,35)        168.8878         calculate D2E/DX2 analytically  !
 ! D116  D(45,32,36,41)         47.1404         calculate D2E/DX2 analytically  !
 ! D117  D(45,32,36,46)        -74.6019         calculate D2E/DX2 analytically  !
 ! D118  D(33,32,45,67)       -106.7008         calculate D2E/DX2 analytically  !
 ! D119  D(36,32,45,67)        132.9642         calculate D2E/DX2 analytically  !
 ! D120  D(39,32,45,67)         13.7634         calculate D2E/DX2 analytically  !
 ! D121  D(32,33,34,37)       -171.5006         calculate D2E/DX2 analytically  !
 ! D122  D(32,33,34,42)         38.5479         calculate D2E/DX2 analytically  !
 ! D123  D(32,33,34,43)        -78.5628         calculate D2E/DX2 analytically  !
 ! D124  D(38,33,34,37)         73.0847         calculate D2E/DX2 analytically  !
 ! D125  D(38,33,34,42)        -76.8669         calculate D2E/DX2 analytically  !
 ! D126  D(38,33,34,43)        166.0224         calculate D2E/DX2 analytically  !
 ! D127  D(44,33,34,37)        -45.167          calculate D2E/DX2 analytically  !
 ! D128  D(44,33,34,42)        164.8815         calculate D2E/DX2 analytically  !
 ! D129  D(44,33,34,43)         47.7708         calculate D2E/DX2 analytically  !
 ! D130  D(32,33,38,19)       -143.5693         calculate D2E/DX2 analytically  !
 ! D131  D(34,33,38,19)        -24.0532         calculate D2E/DX2 analytically  !
 ! D132  D(44,33,38,19)         95.7691         calculate D2E/DX2 analytically  !
 ! D133  D(32,33,44,63)       -137.3129         calculate D2E/DX2 analytically  !
 ! D134  D(34,33,44,63)         94.9439         calculate D2E/DX2 analytically  !
 ! D135  D(38,33,44,63)        -18.5238         calculate D2E/DX2 analytically  !
 ! D136  D(32,33,87,85)          2.2715         calculate D2E/DX2 analytically  !
 ! D137  D(34,33,87,85)        124.5942         calculate D2E/DX2 analytically  !
 ! D138  D(44,33,87,85)       -116.6821         calculate D2E/DX2 analytically  !
 ! D139  D(33,34,37,19)        -67.2465         calculate D2E/DX2 analytically  !
 ! D140  D(42,34,37,19)         84.4552         calculate D2E/DX2 analytically  !
 ! D141  D(43,34,37,19)       -167.427          calculate D2E/DX2 analytically  !
 ! D142  D(33,34,42,35)        -34.0235         calculate D2E/DX2 analytically  !
 ! D143  D(37,34,42,35)        174.5807         calculate D2E/DX2 analytically  !
 ! D144  D(43,34,42,35)         79.2013         calculate D2E/DX2 analytically  !
 ! D145  D(33,34,43,51)        106.4474         calculate D2E/DX2 analytically  !
 ! D146  D(37,34,43,51)       -134.3076         calculate D2E/DX2 analytically  !
 ! D147  D(42,34,43,51)        -19.7806         calculate D2E/DX2 analytically  !
 ! D148  D(40,35,36,32)         72.9119         calculate D2E/DX2 analytically  !
 ! D149  D(40,35,36,41)       -166.402          calculate D2E/DX2 analytically  !
 ! D150  D(40,35,36,46)        -47.6268         calculate D2E/DX2 analytically  !
 ! D151  D(42,35,36,32)        -44.198          calculate D2E/DX2 analytically  !
 ! D152  D(42,35,36,41)         76.4881         calculate D2E/DX2 analytically  !
 ! D153  D(42,35,36,46)       -164.7367         calculate D2E/DX2 analytically  !
 ! D154  D(47,35,36,32)       -166.2236         calculate D2E/DX2 analytically  !
 ! D155  D(47,35,36,41)        -45.5374         calculate D2E/DX2 analytically  !
 ! D156  D(47,35,36,46)         73.2377         calculate D2E/DX2 analytically  !
 ! D157  D(36,35,42,34)         36.4927         calculate D2E/DX2 analytically  !
 ! D158  D(40,35,42,34)        -83.2579         calculate D2E/DX2 analytically  !
 ! D159  D(47,35,42,34)        162.5568         calculate D2E/DX2 analytically  !
 ! D160  D(36,35,47,48)        -61.1939         calculate D2E/DX2 analytically  !
 ! D161  D(36,35,47,49)       -179.4772         calculate D2E/DX2 analytically  !
 ! D162  D(36,35,47,50)         59.226          calculate D2E/DX2 analytically  !
 ! D163  D(40,35,47,48)         60.5854         calculate D2E/DX2 analytically  !
 ! D164  D(40,35,47,49)        -57.6979         calculate D2E/DX2 analytically  !
 ! D165  D(40,35,47,50)       -178.9947         calculate D2E/DX2 analytically  !
 ! D166  D(42,35,47,48)        172.7301         calculate D2E/DX2 analytically  !
 ! D167  D(42,35,47,49)         54.4468         calculate D2E/DX2 analytically  !
 ! D168  D(42,35,47,50)        -66.8501         calculate D2E/DX2 analytically  !
 ! D169  D(32,36,46,71)         97.1926         calculate D2E/DX2 analytically  !
 ! D170  D(35,36,46,71)       -141.1864         calculate D2E/DX2 analytically  !
 ! D171  D(41,36,46,71)        -22.9709         calculate D2E/DX2 analytically  !
 ! D172  D(19,38,87,85)        143.1701         calculate D2E/DX2 analytically  !
 ! D173  D(34,43,51,52)        155.9909         calculate D2E/DX2 analytically  !
 ! D174  D(34,43,51,53)         23.4134         calculate D2E/DX2 analytically  !
 ! D175  D(34,43,51,54)        -90.665          calculate D2E/DX2 analytically  !
 ! D176  D(33,44,63,64)        -45.6357         calculate D2E/DX2 analytically  !
 ! D177  D(33,44,63,65)         75.0338         calculate D2E/DX2 analytically  !
 ! D178  D(33,44,63,66)       -166.2718         calculate D2E/DX2 analytically  !
 ! D179  D(32,45,67,68)        -67.7596         calculate D2E/DX2 analytically  !
 ! D180  D(32,45,67,69)         54.3356         calculate D2E/DX2 analytically  !
 ! D181  D(32,45,67,70)        173.7032         calculate D2E/DX2 analytically  !
 ! D182  D(36,46,71,72)        -60.5857         calculate D2E/DX2 analytically  !
 ! D183  D(36,46,71,73)         61.3122         calculate D2E/DX2 analytically  !
 ! D184  D(36,46,71,74)       -179.8221         calculate D2E/DX2 analytically  !
 ! D185  D(35,47,50,75)       -178.2213         calculate D2E/DX2 analytically  !
 ! D186  D(35,47,50,83)         34.9761         calculate D2E/DX2 analytically  !
 ! D187  D(48,47,50,75)        -59.2245         calculate D2E/DX2 analytically  !
 ! D188  D(48,47,50,83)        153.9728         calculate D2E/DX2 analytically  !
 ! D189  D(49,47,50,75)         60.7725         calculate D2E/DX2 analytically  !
 ! D190  D(49,47,50,83)        -86.0301         calculate D2E/DX2 analytically  !
 ! D191  D(47,50,75,76)       -179.0984         calculate D2E/DX2 analytically  !
 ! D192  D(47,50,75,77)        -59.691          calculate D2E/DX2 analytically  !
 ! D193  D(47,50,75,78)         61.73           calculate D2E/DX2 analytically  !
 ! D194  D(83,50,75,76)        -30.1992         calculate D2E/DX2 analytically  !
 ! D195  D(83,50,75,77)         89.2083         calculate D2E/DX2 analytically  !
 ! D196  D(83,50,75,78)       -149.3708         calculate D2E/DX2 analytically  !
 ! D197  D(47,50,83,19)         -7.8476         calculate D2E/DX2 analytically  !
 ! D198  D(47,50,83,84)       -110.6346         calculate D2E/DX2 analytically  !
 ! D199  D(75,50,83,19)       -153.2432         calculate D2E/DX2 analytically  !
 ! D200  D(75,50,83,84)        103.9698         calculate D2E/DX2 analytically  !
 ! D201  D(43,51,54,55)        -60.9684         calculate D2E/DX2 analytically  !
 ! D202  D(43,51,54,56)        113.2132         calculate D2E/DX2 analytically  !
 ! D203  D(52,51,54,55)         54.6036         calculate D2E/DX2 analytically  !
 ! D204  D(52,51,54,56)       -131.2147         calculate D2E/DX2 analytically  !
 ! D205  D(53,51,54,55)        179.9855         calculate D2E/DX2 analytically  !
 ! D206  D(53,51,54,56)         -5.8328         calculate D2E/DX2 analytically  !
 ! D207  D(51,54,55,57)        174.02           calculate D2E/DX2 analytically  !
 ! D208  D(51,54,55,58)         -5.0086         calculate D2E/DX2 analytically  !
 ! D209  D(56,54,55,57)         -0.1025         calculate D2E/DX2 analytically  !
 ! D210  D(56,54,55,58)       -179.1312         calculate D2E/DX2 analytically  !
 ! D211  D(51,54,56,59)       -172.7466         calculate D2E/DX2 analytically  !
 ! D212  D(51,54,56,60)          5.0695         calculate D2E/DX2 analytically  !
 ! D213  D(55,54,56,59)          1.2673         calculate D2E/DX2 analytically  !
 ! D214  D(55,54,56,60)        179.0833         calculate D2E/DX2 analytically  !
 ! D215  D(54,55,57,61)         -0.7564         calculate D2E/DX2 analytically  !
 ! D216  D(54,55,57,97)       -176.1368         calculate D2E/DX2 analytically  !
 ! D217  D(58,55,57,61)        178.2687         calculate D2E/DX2 analytically  !
 ! D218  D(58,55,57,97)          2.8883         calculate D2E/DX2 analytically  !
 ! D219  D(54,56,59,61)         -1.5953         calculate D2E/DX2 analytically  !
 ! D220  D(54,56,59,93)        174.9344         calculate D2E/DX2 analytically  !
 ! D221  D(60,56,59,61)       -179.3955         calculate D2E/DX2 analytically  !
 ! D222  D(60,56,59,93)         -2.8659         calculate D2E/DX2 analytically  !
 ! D223  D(55,57,61,59)          0.4314         calculate D2E/DX2 analytically  !
 ! D224  D(55,57,61,62)       -178.7492         calculate D2E/DX2 analytically  !
 ! D225  D(97,57,61,59)        175.8316         calculate D2E/DX2 analytically  !
 ! D226  D(97,57,61,62)         -3.349          calculate D2E/DX2 analytically  !
 ! D227  D(55,57,97,98)        -29.1441         calculate D2E/DX2 analytically  !
 ! D228  D(55,57,97,99)       -150.3054         calculate D2E/DX2 analytically  !
 ! D229  D(55,57,97,100)        90.5091         calculate D2E/DX2 analytically  !
 ! D230  D(61,57,97,98)        155.4244         calculate D2E/DX2 analytically  !
 ! D231  D(61,57,97,99)         34.2631         calculate D2E/DX2 analytically  !
 ! D232  D(61,57,97,100)       -84.9223         calculate D2E/DX2 analytically  !
 ! D233  D(56,59,61,57)          0.761          calculate D2E/DX2 analytically  !
 ! D234  D(56,59,61,62)        179.9402         calculate D2E/DX2 analytically  !
 ! D235  D(93,59,61,57)       -175.8563         calculate D2E/DX2 analytically  !
 ! D236  D(93,59,61,62)          3.3229         calculate D2E/DX2 analytically  !
 ! D237  D(56,59,93,94)       -117.8124         calculate D2E/DX2 analytically  !
 ! D238  D(56,59,93,95)        123.9014         calculate D2E/DX2 analytically  !
 ! D239  D(56,59,93,96)          2.4804         calculate D2E/DX2 analytically  !
 ! D240  D(61,59,93,94)         58.7961         calculate D2E/DX2 analytically  !
 ! D241  D(61,59,93,95)        -59.4901         calculate D2E/DX2 analytically  !
 ! D242  D(61,59,93,96)        179.0888         calculate D2E/DX2 analytically  !
 ! D243  D(19,83,84,85)         13.8298         calculate D2E/DX2 analytically  !
 ! D244  D(19,83,84,89)       -166.2909         calculate D2E/DX2 analytically  !
 ! D245  D(50,83,84,85)        152.1945         calculate D2E/DX2 analytically  !
 ! D246  D(50,83,84,89)        -27.9262         calculate D2E/DX2 analytically  !
 ! D247  D(83,84,85,86)       -118.9426         calculate D2E/DX2 analytically  !
 ! D248  D(83,84,85,87)          0.0538         calculate D2E/DX2 analytically  !
 ! D249  D(83,84,85,88)        119.772          calculate D2E/DX2 analytically  !
 ! D250  D(89,84,85,86)         61.1566         calculate D2E/DX2 analytically  !
 ! D251  D(89,84,85,87)       -179.847          calculate D2E/DX2 analytically  !
 ! D252  D(89,84,85,88)        -60.1288         calculate D2E/DX2 analytically  !
 ! D253  D(83,84,89,90)       -117.3251         calculate D2E/DX2 analytically  !
 ! D254  D(83,84,89,91)          2.3052         calculate D2E/DX2 analytically  !
 ! D255  D(83,84,89,92)        121.4783         calculate D2E/DX2 analytically  !
 ! D256  D(85,84,89,90)         62.5576         calculate D2E/DX2 analytically  !
 ! D257  D(85,84,89,91)       -177.8121         calculate D2E/DX2 analytically  !
 ! D258  D(85,84,89,92)        -58.639          calculate D2E/DX2 analytically  !
 ! D259  D(84,85,87,38)        -69.2728         calculate D2E/DX2 analytically  !
 ! D260  D(86,85,87,38)         49.7321         calculate D2E/DX2 analytically  !
 ! D261  D(88,85,87,38)        170.8882         calculate D2E/DX2 analytically  !
 --------------------------------------------------------------------------------
 Trust Radius=3.00D-02 FncErr=1.00D-07 GrdErr=1.00D-06 EigMax=2.50D+02 EigMin=1.00D-04
 Number of steps in this run=    575 maximum allowed number of steps=    600.
 Search for a saddle point of order  1.
 Step   0 in ReCalcFC=30 IGetFC= 4 compute analytic Hessian.
 GradGradGradGradGradGradGradGradGradGradGradGradGradGradGradGradGradGrad

 Leave Link  103 at Wed May  8 08:00:41 2019, MaxMem=  6442450944 cpu:               4.6 elap:               0.2
 (Enter /home/ekwan/sw/g16/l202.exe)
 Stoichiometry    C30H47F6NaO15S
 Framework group  C1[X(C30H47F6NaO15S)]
 Deg. of freedom   294
 Full point group                 C1      NOp   1
 Largest Abelian subgroup         C1      NOp   1
 Largest concise Abelian subgroup C1      NOp   1
                         Standard orientation:                         
 ---------------------------------------------------------------------
 Center     Atomic      Atomic             Coordinates (Angstroms)
 Number     Number       Type             X           Y           Z
 ---------------------------------------------------------------------
      1          6           0       -6.310853   -0.961857   -0.500955
      2          6           0       -6.222307    0.548138   -0.269039
      3          6           0       -5.614533    0.870121    1.106889
      4          6           0       -4.426778   -1.238572    1.182848
      5          6           0       -4.985001   -1.645096   -0.182590
      6          1           0       -5.365208    1.937343    1.195315
      7          1           0       -5.538608    0.968960   -1.025930
      8          1           0       -7.090149   -1.375872    0.151355
      9          1           0       -5.097341   -1.591720    1.975163
     10          1           0       -4.256493   -1.353489   -0.948426
     11          8           0       -4.360025    0.215076    1.247272
     12          8           0       -6.530587    0.501420    2.091131
     13          8           0       -7.516667    1.089812   -0.442796
     14          8           0       -6.613838   -1.229362   -1.865544
     15          8           0       -5.182307   -3.053709   -0.209266
     16          6           0       -3.000738   -1.768718    1.418809
     17          1           0       -3.116894   -2.868029    1.528526
     18          1           0       -2.712423   -1.402802    2.433274
     19          8           0       -2.106148   -1.407550    0.439268
     20          6           0       -7.553553    2.505268   -0.512720
     21          1           0       -7.342160    2.972169    0.458705
     22          1           0       -6.836670    2.887460   -1.255326
     23          1           0       -8.565004    2.780358   -0.819961
     24          6           0       -7.976909   -1.537883   -2.116215
     25          1           0       -8.289802   -2.429707   -1.554300
     26          1           0       -8.634654   -0.700867   -1.856813
     27          1           0       -8.059608   -1.747392   -3.186203
     28          6           0       -4.253536   -3.737265   -1.040103
     29          1           0       -4.403113   -3.471405   -2.096425
     30          1           0       -3.220100   -3.505060   -0.755497
     31          1           0       -4.440065   -4.806971   -0.911704
     32          6           0        1.624487   -0.046952   -0.798318
     33          6           0        0.706582   -1.084602   -0.163580
     34          6           0        0.238849   -0.700071    1.222568
     35          6           0        0.673078    1.641505    0.854725
     36          6           0        1.064616    1.360098   -0.600114
     37          1           0       -0.298539   -1.420301    1.813551
     38          1           0       -0.228994   -1.089276   -0.732583
     39          1           0        2.613303   -0.105083   -0.342313
     40          1           0        1.572946    1.765274    1.457110
     41          1           0        0.191884    1.473529   -1.250593
     42          8           0       -0.061939    0.543267    1.493624
     43          8           0        1.845852   -1.161975    2.267577
     44          8           0        1.301677   -2.357582   -0.195845
     45          8           0        1.709710   -0.294701   -2.196515
     46          8           0        2.044239    2.346036   -0.894409
     47          6           0       -0.176432    2.879117    1.028927
     48          1           0        0.405787    3.739905    0.677516
     49          1           0       -0.408092    3.020050    2.092768
     50          8           0       -1.380355    2.758814    0.277992
     51         16           0        2.936349   -0.324083    2.941879
     52          8           0        3.557774   -1.093148    4.033334
     53          8           0        2.500354    1.052431    3.262318
     54          6           0        4.168237   -0.174755    1.640544
     55          6           0        4.752207   -1.339528    1.145237
     56          6           0        4.432815    1.064902    1.065487
     57          6           0        5.613364   -1.254226    0.053618
     58          1           0        4.524937   -2.298479    1.595374
     59          6           0        5.277563    1.129749   -0.041530
     60          1           0        3.958888    1.956006    1.454141
     61          6           0        5.876582   -0.022875   -0.547075
     62          1           0        6.531886    0.033620   -1.408887
     63          6           0        0.389826   -3.396381   -0.564531
     64          1           0       -0.555762   -3.295984   -0.022511
     65          1           0        0.184143   -3.362519   -1.643592
     66          1           0        0.878078   -4.341942   -0.319118
     67          6           0        2.953253   -0.851601   -2.612164
     68          1           0        3.766098   -0.123554   -2.492238
     69          1           0        3.192383   -1.759560   -2.050627
     70          1           0        2.845951   -1.095989   -3.671688
     71          6           0        1.962383    2.895040   -2.206025
     72          1           0        2.093002    2.121975   -2.969218
     73          1           0        0.998064    3.398529   -2.360414
     74          1           0        2.769992    3.624166   -2.281196
     75          6           0       -2.196508    3.923899    0.380601
     76          1           0       -3.097091    3.737086   -0.208046
     77          1           0       -2.474738    4.116584    1.424733
     78          1           0       -1.672563    4.799776   -0.021933
     79          6           0       -6.131646    0.878029    3.406965
     80          1           0       -6.964760    0.634016    4.068247
     81          1           0       -5.237256    0.331735    3.725889
     82          1           0       -5.929126    1.957217    3.457096
     83         11           0       -2.484751    0.726478   -0.006473
     84          8           0       -1.975635    0.596132   -2.237769
     85          6           0       -1.884225   -0.716820   -2.793486
     86          1           0       -0.873242   -0.891023   -3.183878
     87          1           0       -2.092780   -1.406429   -1.973220
     88          1           0       -2.618473   -0.847205   -3.599737
     89          6           0       -1.729924    1.617119   -3.194411
     90          1           0       -2.482428    1.594227   -3.994262
     91          1           0       -1.783934    2.571324   -2.665697
     92          1           0       -0.731954    1.501996   -3.637971
     93          6           0        5.503695    2.427449   -0.765228
     94          9           0        5.071939    2.340474   -2.050391
     95          9           0        6.816736    2.744891   -0.825491
     96          9           0        4.859884    3.461263   -0.193883
     97          6           0        6.184596   -2.508096   -0.549566
     98          9           0        6.312286   -3.493945    0.360108
     99          9           0        7.399084   -2.292255   -1.098139
    100          9           0        5.387781   -2.983662   -1.539727
 ---------------------------------------------------------------------
 Rotational constants (GHZ):           0.0931347           0.0272812           0.0260913
 Leave Link  202 at Wed May  8 08:00:42 2019, MaxMem=  6442450944 cpu:               7.3 elap:               0.6
 (Enter /home/ekwan/sw/g16/l301.exe)
 Standard basis: 6-31G(d) (6D, 7F)
 Ernie: Thresh=  0.10000D-02 Tol=  0.10000D-05 Strict=F.
 There are   897 symmetry adapted cartesian basis functions of A   symmetry.
 There are   897 symmetry adapted basis functions of A   symmetry.
   897 basis functions,  1720 primitive gaussians,   897 cartesian basis functions
   214 alpha electrons      214 beta electrons
       nuclear repulsion energy      9409.1114985098 Hartrees.
 IExCor=  402 DFT=T Ex+Corr=B3LYP ExCW=0 ScaHFX=  0.200000
 ScaDFX=  0.800000  0.720000  1.000000  0.810000 ScalE2=  1.000000  1.000000
 IRadAn=      5 IRanWt=     -1 IRanGd=            0 ICorTp=0 IEmpDi=141
 NAtoms=  100 NActive=  100 NUniq=  100 SFac= 1.00D+00 NAtFMM=   60 NAOKFM=T Big=T
 Integral buffers will be    131072 words long.
 Raffenetti 2 integral format.
 Two-electron integral symmetry is turned on.
 R6Disp:  Grimme-D3(BJ) Dispersion energy=       -0.2348647680 Hartrees.
 Nuclear repulsion after empirical dispersion term =     9408.8766337417 Hartrees.
 Force inversion solution in PCM.
 ------------------------------------------------------------------------------
 Polarizable Continuum Model (PCM)
 =================================
 Model                : PCM.
 Atomic radii         : UFF (Universal Force Field).
 Polarization charges : Total charges.
 Charge compensation  : None.
 Solution method      : Matrix inversion.
 Cavity type          : Scaled VdW (van der Waals Surface) (Alpha=1.100).
 Cavity algorithm     : GePol (No added spheres)
                        Default sphere list used, NSphG=  100.
                        Lebedev-Laikov grids with approx.  5.0 points / Ang**2.
                        Smoothing algorithm: York/Karplus (Gamma=1.0000).
                        Polarization charges: spherical gaussians, with
                                              point-specific exponents (IZeta= 3).
                        Self-potential: point-specific (ISelfS= 7).
                        Self-field    : sphere-specific E.n sum rule (ISelfD= 2).
 1st derivatives      : Analytical E(r).r(x)/FMM algorithm (CHGder, D1EAlg=3).
                        Cavity 1st derivative terms included.
 2nd derivatives      : Analytical E(r).r(xy)/FMM algorithm (CHGder, D2EAlg=3).
                        Cavity 2nd derivative terms included.
[...]
 00016514,0.00009654,-0.00007026,0.00011357,-0.00004715,0.00004784,0.00
 000218,0.00000315,0.00000177,0.00000403,0.00000964,-0.00000377,-0.0000
 0244,0.00007755,-0.00004692,0.00001166,-0.00148454,-0.00086086,0.00132
 644,0.00016797,0.00033784,-0.00056847,0.00056696,-0.00023287,-0.000477
 00,0.00053603,-0.00052139,-0.00181885,0.00087415,-0.00401585,0.0011720
 5,0.00060348,-0.00010742,-0.00065701,0.02416957,0.00777573,-0.01400949
 ,0.00034670,0.00010975,-0.00008236,0.00011526,0.00091499,-0.00038051,0
 .00004962,0.00004916,-0.00004044,0.00138205,-0.00229185,0.00054034,0.0
 0143246,-0.00055728,-0.00140220,-0.00003705,-0.00010559,-0.00003194,0.
 00000917,0.00000467,0.00000711,0.00001965,0.00001037,0.00001482,0.0000
 0562,0.00003156,-0.00000518,-0.00002200,-0.00032464,0.00011393,0.00000
 476,0.00008878,-0.00007033,0.00015143,0.00001062,-0.00007477,0.0000259
 7,0.00003138,0.00001621,-0.00000737,0.00004325,-0.00011154,-0.00000346
 ,-0.00000125,0.00001495,0.00002535,-0.00000881,0.00001933,-0.00001397,
 0.00001533,-0.00000280,-0.00002408,0.00003741,0.00000712,0.00000818,-0
 .00000420,0.00000321,0.00000170,-0.00000541,-0.00000409,0.00000038,-0.
 00000622,-0.00000100,-0.00000235,-0.00000102,0.00000015,0.00000152,-0.
 00000004,-0.00000056,-0.00000036,-0.00000159,0.00000058,-0.00000078,0.
 00000128,-0.00000067,-0.00005717,0.00000147,-0.00001528,0.00001738,0.0
 0001887,0.00002441,-0.00000081,-0.00002079,-0.00000942,-0.00000239,-0.
 00000280,-0.00000340,-0.00000261,-0.00000328,-0.00000815,0.00000513,-0
 .00000058,0.00000697,-0.00000445,0.00000516,-0.00000737,0.00000565,0.0
 0000086,0.00000365,-0.00000559,0.00000368,-0.00000056,-0.00000034,-0.0
 0000356,-0.00000480,0.00015520,0.00124631,-0.00057107,0.00003077,-0.00
 026400,0.00036402,-0.00024027,-0.00031960,0.00014980,0.00005592,-0.000
 41880,0.00004343,-0.00740206,-0.07843596,0.00389628,-0.03578487,-0.012
 48659,0.03552167,0.04571327,0.08585135,-0.00001004,0.00000187,-0.00001
 226,-0.00000659,0.00000697,-0.00000698,-0.00003001,0.00001488,-0.00000
 413,0.00000158,0.00001339,-0.00000747,-0.00000269,-0.00001371,-0.00000
 952,0.00000226,-0.00000155,-0.00000151,-0.00000043,-0.00000081,0.00000
 104,0.00000173,-0.00000035,0.00000148,0.00000875,-0.00000246,-0.000001
 28,-0.00000438,-0.00000007,-0.00000542,0.00002800,-0.00001386,0.000009
 82,0.00001438,-0.00000283,-0.00000033,0.00001113,-0.00000813,0.0000069
 5,0.00001427,0.00000278,0.00001674,0.00000751,0.00000963,0.00001158,-0
 .00006343,-0.00003142,0.00007070,0.00001152,0.00001421,-0.00001012,0.0
 0000227,-0.00000023,-0.00001327,0.00016069,0.00003890,0.00001311,-0.00
 000008,0.00000522,-0.00000293,-0.00000092,-0.00000047,0.00000107,-0.00
 000144,-0.00000105,0.00000007,0.00000149,-0.00000095,0.00000030,-0.000
 00956,-0.00000289,-0.00000277,0.00000096,0.00000027,-0.00000047,0.0000
 0172,-0.00000001,-0.00000050,0.00000164,0.00000074,0.00000218,-0.00000
 609,-0.00000344,-0.00001295,0.00000223,-0.00000097,0.00000559,0.000002
 91,-0.00000478,-0.00000250,0.00000140,0.00000230,0.,-0.00018046,-0.000
 01593,-0.00026528,0.00006531,-0.00007420,0.00002368,-0.00057247,0.0001
 2898,-0.00027545,-0.00004909,0.00002193,-0.00005316,-0.00002399,0.0000
 4579,-0.00000627,0.00002046,-0.00002276,0.00004423,0.00000055,0.000019
 79,0.00000768,-0.00003431,-0.00000798,-0.00004941,-0.00005808,0.000043
 51,0.00000064,0.00001765,-0.00002292,0.00001165,0.00014914,-0.00013135
 ,0.00005664,0.00085010,0.00031810,0.00002359,0.00009028,0.00011375,0.0
 0007885,-0.00001478,0.00009066,0.00023609,0.00007221,-0.00012628,0.000
 17407,-0.00005261,0.00005896,-0.00000276,0.00000479,-0.00000275,0.0000
 0632,0.00001093,-0.00000346,-0.00000122,0.00008841,-0.00006481,0.00001
 813,-0.00154173,-0.00061926,0.00125729,0.00020446,0.00023034,-0.000532
 47,0.00057816,-0.00031151,-0.00045061,-0.00014765,-0.00047333,-0.00139
 775,0.00087003,-0.00334674,0.00136523,0.00038001,-0.00012199,-0.000290
 22,0.02771843,0.00020080,-0.00457967,-0.00013307,0.00033165,0.00069641
 ,-0.00042351,-0.00071541,-0.00016470,0.00001957,0.00000511,0.00014217,
 0.00012293,0.00153872,-0.00166465,0.00000869,-0.00098553,0.00095005,-0
 .00006999,-0.00009254,-0.00006396,0.00001037,0.00000506,0.00000678,0.0
 0002345,0.00000619,0.00002832,-0.00000099,0.00000623,-0.00000369,0.000
 03393,-0.00014488,0.00001543,0.00000839,0.00003831,-0.00006979,0.00009
 607,-0.00004735,-0.00004264,0.00005379,0.00001872,0.00004975,0.0000048
 5,0.00006236,-0.00016145,0.00000330,0.00000635,0.00002139,0.00002400,-
 0.00001060,0.00002930,-0.00001367,0.00000177,-0.00000152,-0.00002896,0
 .00005104,0.00000487,0.00001025,-0.00000441,0.00000340,0.00000229,-0.0
 0000662,-0.00000327,-0.00000089,-0.00000973,-0.00000064,-0.00000544,0.
 00000271,-0.00000143,0.00000159,0.00000041,-0.00000060,0.00000117,-0.0
 0000235,0.00000101,-0.00000099,-0.00000007,-0.00000039,-0.00006965,0.0
 0001674,-0.00002644,0.00001759,-0.00000059,0.00004208,-0.00000060,-0.0
 0001405,-0.00001056,-0.00000249,-0.00000179,-0.00000842,-0.00000657,-0
 .00000438,-0.00001065,0.00000813,-0.00000250,0.00000862,0.00000320,0.0
 0002005,-0.00002313,0.00000692,0.00000002,0.00000649,-0.00000607,0.000
 00242,-0.00000103,-0.00000344,-0.00000343,-0.00000445,0.00045312,0.000
 96287,-0.00087437,0.00000564,-0.00022744,0.00044725,-0.00033838,-0.000
 28226,0.00018688,-0.00001007,-0.00035001,0.00012652,0.07576880,0.00031
 403,-0.10723306,0.03602207,0.03015597,-0.02901934,-0.11255139,-0.02110
 131,0.12529420,0.00000669,-0.00000323,0.00000088,0.00000944,-0.0000050
 2,-0.00000190,0.00002599,-0.00001454,-0.00000948,-0.00000222,-0.000014
 72,-0.00000010,0.00000795,-0.00000458,-0.00000234,-0.00000239,0.000003
 14,0.00000227,-0.00000287,-0.00000156,0.00000143,-0.00000265,-0.000000
 38,0.,-0.00000751,0.00000229,0.00000319,0.00000234,-0.00000040,0.00000
 429,-0.00001985,0.00002125,0.00000538,-0.00001115,0.00000549,0.0000177
 5,-0.00001160,0.00001157,0.00000083,-0.00001362,0.00000172,-0.00000105
 ,-0.00002257,0.00001494,0.00001266,0.00004904,0.00001835,-0.00007015,-
 0.00000680,-0.00001096,0.00000730,-0.00000332,0.00000396,0.00002176,-0
 .00010997,0.00000625,0.00007772,0.00000155,-0.00000758,-0.00000286,0.0
 0000094,0.00000155,0.00000154,-0.00000011,0.00000047,0.00000067,-0.000
 00119,0.00000103,-0.00000055,0.00001097,0.00000213,-0.00000024,-0.0000
 0029,-0.00000137,0.00000060,-0.00000246,0.00000125,0.00000045,0.000000
 12,-0.00000054,0.00000016,0.00002492,-0.00000588,-0.00001013,-0.000000
 11,-0.00000025,0.00000074,-0.00000374,-0.00000003,-0.00000281,-0.00000
 019,-0.00000094,0.00000037,0.00011735,-0.00019479,-0.00067746,0.000120
 62,-0.00013599,0.00003331,-0.00014402,-0.00006171,-0.00025616,-0.00000
 278,0.00003869,-0.00007989,-0.00004269,-0.00015748,0.00004975,0.000005
 90,0.00000879,0.00004398,-0.00000128,0.00003811,0.00001186,-0.00002409
 ,-0.00005850,-0.00003567,-0.00001884,0.00001103,-0.00001184,0.00001336
 ,0.00000787,0.00000615,0.00000689,0.00003182,0.00008985,0.00034592,0.0
 0020451,0.00021106,-0.00024665,0.00003708,0.00012316,-0.00110589,0.001
 11555,0.00024076,0.00004107,0.00012514,-0.00001831,0.00001297,-0.00002
 511,0.00003153,0.00000075,-0.00000081,-0.00000772,-0.00002076,0.000015
 56,0.00000875,-0.00003258,0.00003968,0.00001384,-0.00055105,-0.0003600
 4,0.00005445,0.00012069,0.00005316,-0.00002373,0.00018360,-0.00004434,
 -0.00006239,0.00066527,-0.00052733,-0.00048327,-0.00043394,-0.00105083
 ,-0.00001013,0.00012767,0.00033607,-0.00029465,0.00777760,-0.00045901,
 -0.00380445,-0.00024702,0.00002758,-0.00007760,-0.00024451,-0.00004090
 ,0.00014327,-0.00000794,-0.00001929,-0.00002730,0.00035249,-0.00008171
 ,0.00048385,-0.00020456,0.00032477,-0.00008672,0.00010754,0.00009144,0
 .00003152,-0.00002412,-0.00001218,0.00000523,0.00001677,-0.00000418,-0
 .00000016,0.00002391,0.00002482,-0.00002771,0.00021272,-0.00213223,0.0
 0096586,0.00011037,0.00004306,-0.00000567,-0.00042725,0.00176915,-0.00
 059211,-0.00009157,0.00022521,-0.00026975,0.00001859,-0.00007355,0.000
 01717,-0.00000717,-0.00002478,0.00003920,-0.00001682,0.00001388,0.0000
 0016,0.00000499,0.00002447,-0.00000157,0.00002172,-0.00003480,-0.00000
 482,-0.00000328,0.00000226,-0.00000280,-0.00000321,0.00000501,0.000005
 37,0.00000003,0.00000567,-0.00000122,-0.00000100,-0.00000567,-0.000010
 21,-0.00000109,-0.00000012,0.00000136,0.00000043,0.00000012,-0.0000001
 3,0.00000095,0.00000216,0.00000058,0.00005634,-0.00002531,-0.00002556,
 -0.00004063,0.00004602,-0.00000772,0.00004508,-0.00003037,-0.00002338,
 -0.00001006,0.00000711,0.00003028,0.00000717,0.00000447,-0.00000338,-0
 .00001695,0.00000546,-0.00000401,0.00002315,-0.00003044,0.00001390,-0.
 00000889,0.00000045,-0.00000728,0.00000124,0.00000545,0.00000381,-0.00
 000535,-0.00000270,0.00000786,-0.00021559,0.00006810,-0.00024707,0.000
 08573,0.00000312,0.00015165,0.00006107,-0.00002570,0.00003461,0.000059
 50,-0.00007866,0.00002815,-0.11415450,-0.03709070,-0.06427845,-0.00408
 371,0.00820536,-0.03334766,-0.06835058,-0.03188598,-0.02763046,0.18012
 559,-0.00000848,-0.00000108,-0.00001221,-0.00000618,0.00000161,-0.0000
 0529,-0.00002585,0.00000582,-0.00000395,0.00000518,0.00000187,-0.00001
 031,-0.00000350,-0.00003278,-0.00000817,0.00000183,0.00000231,-0.00000
 094,-0.00000052,-0.00000016,0.00000036,0.00000254,-0.00000016,0.000001
 38,0.00001154,-0.00000198,-0.00000167,-0.00000360,0.00000043,-0.000007
 31,0.00002325,0.00000782,0.00000958,0.00001431,0.00000359,-0.00000010,
 0.00000844,0.00000288,0.00000516,0.00001156,0.00000896,0.00001670,-0.0
 0000606,0.00003731,0.00001930,-0.00007741,-0.00005518,0.00009042,0.000
 01965,0.00002646,-0.00001311,0.00000159,-0.00000108,-0.00001763,0.0001
 9067,0.00009626,0.00002220,-0.00000161,-0.00000287,-0.00000138,-0.0000
 0081,0.00000030,0.00000183,-0.00000044,-0.00000038,-0.00000109,0.00000
 123,-0.00000036,0.00000025,-0.00000815,-0.00000568,-0.00000200,0.00000
 203,0.00000112,-0.00000142,0.00000036,0.00000091,-0.00000009,0.0000019
 2,-0.00000008,0.00000232,0.00001144,-0.00001448,-0.00002064,0.00000018
 ,-0.00000037,0.00000468,0.00000026,-0.00001137,-0.00000354,0.00000524,
 0.00000626,0.00000119,-0.00031531,-0.00001718,-0.00030549,0.00013894,-
 0.00032817,0.00004023,-0.00079860,0.00010901,-0.00043903,-0.00010975,-
 0.00003402,-0.00005765,-0.00007773,0.00000543,-0.00001397,0.00003499,-
 0.00003999,0.00005958,-0.00001612,0.00005345,0.00001221,-0.00006284,-0
 .00005051,-0.00008237,-0.00009256,0.00007033,0.00001187,0.00002886,-0.
 00002464,0.00001980,0.00020935,-0.00005684,0.00009507,0.00134630,0.000
 62596,0.00002336,0.00001385,0.00035191,0.00011675,0.00015779,0.0000991
 9,0.00038755,0.00018354,-0.00013117,0.00022818,-0.00007985,0.00008346,
 -0.00000005,0.00000465,0.00000428,0.00000679,0.00001711,-0.00000751,-0
 .00000384,0.00013392,-0.00007982,0.00002240,-0.00209323,-0.00108570,0.
 00221947,0.00029275,0.00040372,-0.00082665,0.00072069,-0.00028622,-0.0
 0075894,0.00207455,-0.00105237,0.00040798,-0.00231909,-0.00277239,0.00
 132879,0.00054220,-0.00042615,-0.00085544,-0.01564565,-0.01416640,-0.0
 3398293,-0.00051141,-0.00002996,-0.00073201,0.00121069,-0.00003294,0.0
 0056643,-0.00013417,0.00004824,-0.00003356,0.00107544,0.00125867,-0.00
 152786,-0.00067921,0.00000471,-0.00025374,-0.00004961,-0.00017949,-0.0
 0005807,0.00001109,0.00001007,0.00001479,0.00004143,0.00001383,0.00002
 926,0.00001835,0.00006467,-0.00002125,0.00007680,-0.00021794,0.0000521
 0,-0.00002085,0.00020791,-0.00015416,0.00142099,-0.00098744,0.00001797
 ,0.00006857,-0.00001434,0.00011022,-0.00000147,0.00008388,-0.00020942,
 -0.00000388,0.00000106,0.00002720,0.00004335,-0.00001818,0.00003924,-0
 .00002318,0.00002074,-0.00000607,-0.00004028,0.00006391,0.00001067,0.0
 0001434,-0.00000702,0.00000525,0.00000278,-0.00000928,-0.00000626,0.00
 000030,-0.00001071,-0.00000187,-0.00000493,-0.00000223,-0.00000244,0.0
 0000234,0.00000002,-0.00000068,-0.00000017,-0.00000287,0.00000106,-0.0
 0000118,0.00000238,-0.00000092,-0.00009349,-0.00000160,-0.00002855,0.0
 0002808,0.00003984,0.00004648,0.00000164,-0.00004206,-0.00001798,-0.00
 000708,-0.00000677,-0.00000667,-0.00000351,-0.00000561,-0.00001512,0.0
 0000950,-0.00000050,0.00001192,-0.00000653,0.00000827,-0.00001273,0.00
 001056,0.00000152,0.00000584,-0.00000994,0.00000749,-0.00000064,-0.000
 00149,-0.00000624,-0.00001000,0.00059911,0.00178591,-0.00119740,0.0000
 3981,-0.00038446,0.00061175,-0.00046629,-0.00048949,0.00025921,0.00001
 869,-0.00071399,0.00012239,-0.03877945,-0.10747700,-0.06012290,0.01568
 881,0.01551862,0.02745423,-0.02568757,0.00386003,-0.00548799,0.0616836
 3,0.10631480,-0.00000669,-0.00000123,-0.00001494,-0.00000013,0.0000030
 7,-0.00000982,-0.00001469,0.00000396,-0.00001302,0.00000071,0.00000126
 ,-0.00001020,0.00000304,-0.00002558,-0.00001362,0.00000072,0.00000164,
 0.00000023,-0.00000302,-0.00000218,0.00000229,0.00000011,-0.00000069,0
 .00000187,0.00000527,-0.00000100,0.00000104,-0.00000340,-0.00000032,-0
 .00000356,0.00001726,0.00000562,0.00001654,0.00000854,0.00000269,0.000
 01435,0.00000345,0.00000257,0.00000894,0.00000576,0.00000663,0.0000204
 7,-0.00001263,0.00003143,0.00002751,-0.00004050,-0.00002798,0.00003365
 ,0.00000993,0.00001122,-0.00000723,0.00000027,0.00000281,0.00000085,0.
 00011396,0.00006195,0.00007620,0.00000080,-0.00000208,-0.00000566,-0.0
 0000032,0.00000093,0.00000287,-0.00000164,-0.00000075,0.00000032,0.000
 00080,-0.00000017,-0.00000012,-0.00000238,-0.00000260,-0.00000364,0.00
 000124,-0.00000061,-0.00000033,-0.00000028,0.00000131,-0.00000012,0.00
 000229,0.00000024,0.00000299,0.00001683,-0.00001218,-0.00002735,0.0000
 0252,-0.00000145,0.00000777,-0.00000021,-0.00000742,-0.00000592,0.0000
 0248,0.00000305,0.00000046,-0.00016248,-0.00014391,-0.00086705,0.00016
 995,-0.00019938,0.00005693,-0.00080295,0.00008558,-0.00052156,-0.00007
 534,0.00004424,-0.00011949,-0.00009212,-0.00008660,0.00004218,0.000028
 01,-0.00002052,0.00008464,0.00000100,0.00004973,0.00001600,-0.00005832
 ,-0.00006869,-0.00009194,-0.00008948,0.00006012,0.00000390,0.00003719,
 -0.00001918,0.00001955,0.00018914,-0.00010499,0.00012982,0.00129266,0.
 00051563,0.00014063,-0.00004739,0.00019190,0.00019475,-0.00075714,0.00
 088738,0.00049741,0.00017338,-0.00005948,0.00021887,-0.00006073,0.0000
 5266,0.00002087,0.00000587,-0.00000069,0.00000138,-0.00000102,0.000006
 68,0.00000444,0.00009117,-0.00004785,0.00003341,-0.00203330,-0.0007280
 0,0.00162867,0.00035465,0.00026717,-0.00065482,0.00066188,-0.00030300,
 -0.00056692,0.00109963,-0.00001907,0.00058668,-0.00049302,-0.00127349,
 0.00123797,-0.00014497,-0.00087825,0.00007727,-0.01625742,-0.02233733,
 -0.01867480,-0.00079201,0.00017057,-0.00030654,0.00183098,-0.00157594,
 0.00035610,-0.00014656,0.00000318,-0.00003008,0.00102156,0.00120436,-0
 .00323947,-0.00089742,-0.00031471,-0.00034594,-0.00002878,-0.00007859,
 -0.00007670,-0.00000023,0.00000123,0.00001838,0.00005152,0.00000523,0.
 00004337,0.00001262,0.00002869,-0.00002959,0.00033653,-0.00162476,0.00
 089412,0.00006449,0.00002409,-0.00009531,0.00078077,0.00043507,-0.0005
 0673,0.00003693,0.00010319,-0.00008006,0.00001673,0.00002312,-0.000205
 47,-0.00000440,-0.00000986,0.00005820,0.00002337,-0.00000430,0.0000403
 5,-0.00001701,0.00002984,-0.00000608,-0.00002095,0.00003610,0.00000325
 ,0.00001076,-0.00000389,0.00000229,0.00000038,-0.00000465,-0.00000039,
 -0.00000072,-0.00000720,-0.00000220,-0.00000738,-0.00000264,-0.0000104
 2,0.00000122,0.00000031,0.00000037,0.00000147,-0.00000285,0.00000116,-
 0.00000045,0.00000230,-0.00000012,-0.00004602,-0.00000419,-0.00005198,
 -0.00000781,0.00004919,0.00004945,0.00003744,-0.00005120,-0.00003566,-
 0.00001345,0.00000185,0.00001323,-0.00000269,-0.00000200,-0.00001704,-
 0.00000245,0.00000145,0.00000885,0.00002030,-0.00000281,-0.00001502,0.
 00000288,0.00000069,0.00000201,-0.00000788,0.00000899,0.00000232,-0.00
 000842,-0.00000743,-0.00000140,0.00068339,0.00159568,-0.00147269,0.000
 06900,-0.00031084,0.00076063,-0.00042301,-0.00043783,0.00027631,0.0000
 2556,-0.00074009,0.00016031,-0.06558771,-0.05914373,-0.16704011,-0.036
 45075,0.01362914,-0.05959587,-0.01320847,-0.00175366,0.01588323,0.1295
 0773,0.07280412,0.23098934\\0.00000071,-0.00000268,-0.00000121,-0.0000
 0075,-0.00000178,-0.00000004,-0.00000084,-0.00000325,0.00000064,0.0000
 0036,-0.00000225,-0.00000082,0.00000088,-0.00000208,-0.00000018,-0.000
 00011,-0.00000072,0.00000173,0.00000056,-0.00000171,-0.00000178,0.0000
 0032,-0.00000300,-0.00000056,0.00000067,-0.00000246,-0.00000099,0.0000
 0057,-0.00000161,-0.00000048,-0.00000032,-0.00000211,-0.00000070,-0.00
 000062,-0.00000338,-0.00000072,-0.00000038,-0.00000308,-0.00000047,0.0
 0000039,-0.00000226,-0.00000079,0.00000129,-0.00000154,-0.00000160,0.0
 0000113,0.00000332,0.00000210,0.00000094,-0.00000199,-0.00000154,0.000
 00054,-0.00000200,-0.00000053,-0.00000058,-0.00000792,-0.00000453,-0.0
 0000088,-0.00000269,-0.00000005,-0.00000119,-0.00000293,0.00000052,-0.
 00000136,-0.00000232,0.00000072,-0.00000122,-0.00000331,0.00000020,0.0
 0000078,-0.00000321,-0.00000089,0.00000146,-0.00000245,-0.00000176,0.0
 0000041,-0.00000273,-0.00000082,0.00000117,-0.00000209,-0.00000118,0.0
 0000148,-0.00000119,-0.00000216,0.00000210,-0.00000116,-0.00000156,0.0
 0000202,-0.00000072,-0.00000145,0.00000234,-0.00000141,-0.00000189,-0.
 00000004,0.00000110,-0.00000029,0.00000106,0.00000002,0.00000025,0.000
 00014,0.00000051,-0.00000107,-0.00000100,0.00000019,-0.00000001,0.0000
 0142,-0.00000008,0.00000242,0.00000045,-0.00000069,-0.00000047,0.00000
 030,0.00000384,0.00000045,0.00000012,0.00000164,0.00000010,-0.00000098
 ,0.00000071,0.00000084,-0.00000056,0.00000098,0.,-0.00000100,-0.000000
 05,-0.00000008,0.00000078,-0.00000011,0.00000126,-0.00000003,0.0000017
 4,-0.00000064,0.00000123,0.00000125,0.00000025,-0.00000116,0.00000157,
 0.00000117,-0.00000140,0.00000005,0.00000119,-0.00000193,0.00000017,0.
 00000135,-0.00000139,-0.00000042,0.00000072,-0.00000176,-0.00000112,0.
 00000229,-0.00000049,0.00000059,-0.00000046,0.00000043,0.00000053,-0.0
 0000022,-0.00000091,0.00000043,0.00000088,-0.00000008,0.00000131,-0.00
 000008,0.00000135,0.00000309,-0.00000112,-0.00000076,0.00000141,0.0000
 0068,-0.00000005,0.00000282,0.00000103,0.00000073,0.00000125,-0.000000
 12,0.00000011,0.00000251,0.00000081,-0.00000119,0.00000172,0.00000111,
 0.00000028,0.00000297,0.00000121,0.00000012,0.00000388,0.00000062,0.00
 000217,0.00000068,-0.00000128,0.00000113,0.00000026,-0.00000113,0.0000
 0153,0.00000102,-0.00000113,0.00000186,0.00000094,-0.00000141,0.000000
 01,0.00000319,-0.00000032,0.00000037,0.00000276,0.00000041,0.00000122,
 0.00000206,-0.00000002,0.00000087,0.00000288,0.00000015,-0.00000186,0.
 00000205,0.00000100,-0.00000068,0.00000229,0.00000100,-0.00000092,0.00
 000145,0.00000142,-0.00000119,0.00000247,0.00000152,-0.00000280,-0.000
 00154,-0.00000080,-0.00000050,0.00000100,0.00000208,-0.00000175,-0.000
 00139,0.00000103,-0.00000217,-0.00000054,0.00000132,-0.00000053,-0.000
 00358,0.00000002,-0.00000058,-0.00000418,-0.00000042,-0.00000051,-0.00
 000332,-0.00000028,-0.00000121,-0.00000366,0.00000022,-0.00000016,-0.0
 0000195,0.00000068,-0.00000349,0.00000122,-0.00000003,0.00000096,0.000
 00095,-0.00000087,0.00000138,0.00000106,-0.00000011,0.00000004,-0.0000
 0003,0.00000019,0.00000098,0.00000026,-0.00000055,0.00000164,-0.000000
 16,0.00000066,-0.00000018,0.00000017,-0.00000009,-0.00000117,0.0000000
 3,0.00000018,-0.00000072,0.00000183,0.00000094,-0.00000161,0.00000304,
 0.00000101,-0.00000094,0.00000351,0.00000168,-0.00000072,0.00000367,0.
 00000143,-0.00000131,0.00000270,0.00000191,0.00000132,0.00000327,0.000
 00015,0.00000151,0.00000330,-0.00000092,0.00000122,0.00000402,-0.00000
 026,0.00000114,0.00000321,-0.00000064\\\@


 ABSOLUTISM, OBSOLETISM -- IF IT WORKS, IT'S OUT OF DATE

                          -- STAFFORD BEER
 Job cpu time:       4 days  9 hours 44 minutes  0.0 seconds.
 Elapsed time:       0 days  3 hours 31 minutes 51.4 seconds.
 File lengths (MBytes):  RWF=   9783 Int=      0 D2E=      0 Chk=     86 Scr=      1
 Normal termination of Gaussian 16 at Wed May  8 15:05:14 2019.
