 Entering Gaussian System, Link 0=g16
 Input=clay_new-glu_gluC6-ADDR-Na_1Me2O-bisCF3-ts-b3lyp_d3bj-631gd-pcm_thf.gjf
 Output=clay_new-glu_gluC6-ADDR-Na_1Me2O-bisCF3-ts-b3lyp_d3bj-631gd-pcm_thf.out
 Initial command:
 /home/ekwan/sw/g16/l1.exe "/scratch/users/ekwan/clay_new-glu_gluC6-ADDR-Na_1Me2O-bisCF3-ts-b3lyp_d3bj-631gd-pcm_thf/Gau-19284.inp" -scrdir="/scratch/users/ekwan/clay_new-glu_gluC6-ADDR-Na_1Me2O-bisCF3-ts-b3lyp_d3bj-631gd-pcm_thf/"
 Entering Link 1 = /home/ekwan/sw/g16/l1.exe PID=     19285.
  
 Copyright (c) 1988,1990,1992,1993,1995,1998,2003,2009,2016,
            Gaussian, Inc.  All Rights Reserved.
  
 This is part of the Gaussian(R) 16 program.  It is based on
 the Gaussian(R) 09 system (copyright 2009, Gaussian, Inc.),
 the Gaussian(R) 03 system (copyright 2003, Gaussian, Inc.),
 the Gaussian(R) 98 system (copyright 1998, Gaussian, Inc.),
 the Gaussian(R) 94 system (copyright 1995, Gaussian, Inc.),
 the Gaussian 92(TM) system (copyright 1992, Gaussian, Inc.),
 the Gaussian 90(TM) system (copyright 1990, Gaussian, Inc.),
 the Gaussian 88(TM) system (copyright 1988, Gaussian, Inc.),
 the Gaussian 86(TM) system (copyright 1986, Carnegie Mellon
 University), and the Gaussian 82(TM) system (copyright 1983,
 Carnegie Mellon University). Gaussian is a federally registered
 trademark of Gaussian, Inc.
  
 This software contains proprietary and confidential information,
 including trade secrets, belonging to Gaussian, Inc.
  
 This software is provided under written license and may be
 used, copied, transmitted, or stored only in accord with that
 written license.
  
 The following legend is applicable only to US Government
 contracts under FAR:
  
                    RESTRICTED RIGHTS LEGEND
  
 Use, reproduction and disclosure by the US Government is
 subject to restrictions as set forth in subparagraphs (a)
 and (c) of the Commercial Computer Software - Restricted
 Rights clause in FAR 52.227-19.
  
 Gaussian, Inc.
 340 Quinnipiac St., Bldg. 40, Wallingford CT 06492
  
  
 ---------------------------------------------------------------
 Warning -- This program may not be used in any manner that
 competes with the business of Gaussian, Inc. or will provide
 assistance to any competitor of Gaussian, Inc.  The licensee
 of this program is prohibited from giving any competitor of
 Gaussian, Inc. access to this program.  By using this program,
 the user acknowledges that Gaussian, Inc. is engaged in the
 business of creating and licensing software in the field of
 computational chemistry and represents and warrants to the
 licensee that it is not a competitor of Gaussian, Inc. and that
 it will not use this program in any manner prohibited above.
 ---------------------------------------------------------------
  

 Cite this work as:
 Gaussian 16, Revision A.03,
 M. J. Frisch, G. W. Trucks, H. B. Schlegel, G. E. Scuseria, 
 M. A. Robb, J. R. Cheeseman, G. Scalmani, V. Barone, 
 G. A. Petersson, H. Nakatsuji, X. Li, M. Caricato, A. V. Marenich, 
 J. Bloino, B. G. Janesko, R. Gomperts, B. Mennucci, H. P. Hratchian, 
 J. V. Ortiz, A. F. Izmaylov, J. L. Sonnenberg, D. Williams-Young, 
 F. Ding, F. Lipparini, F. Egidi, J. Goings, B. Peng, A. Petrone, 
 T. Henderson, D. Ranasinghe, V. G. Zakrzewski, J. Gao, N. Rega, 
 G. Zheng, W. Liang, M. Hada, M. Ehara, K. Toyota, R. Fukuda, 
 J. Hasegawa, M. Ishida, T. Nakajima, Y. Honda, O. Kitao, H. Nakai, 
 T. Vreven, K. Throssell, J. A. Montgomery, Jr., J. E. Peralta, 
 F. Ogliaro, M. J. Bearpark, J. J. Heyd, E. N. Brothers, K. N. Kudin, 
 V. N. Staroverov, T. A. Keith, R. Kobayashi, J. Normand, 
 K. Raghavachari, A. P. Rendell, J. C. Burant, S. S. Iyengar, 
 J. Tomasi, M. Cossi, J. M. Millam, M. Klene, C. Adamo, R. Cammi, 
 J. W. Ochterski, R. L. Martin, K. Morokuma, O. Farkas, 
 J. B. Foresman, and D. J. Fox, Gaussian, Inc., Wallingford CT, 2016.
 
 ******************************************
 Gaussian 16:  AS64L-G16RevA.03 25-Dec-2016
                 9-May-2019 
 ******************************************
 %mem=48GB
 %nprocshared=32
 Will use up to   32 processors via shared memory.
 ----------------------------------------------------------------------
 #p opt=(calcfc,ts,noeigentest,maxstep=1,recalc=30) freq=noraman b3lyp/
 6-31g(d) scrf=(solvent=tetrahydrofuran,pcm) pop=none empiricaldispersi
 on=gd3bj
 ----------------------------------------------------------------------
 1/5=1,8=1,10=4,11=1,18=20,26=3,38=1,71=30/1,3;
 2/9=110,12=2,17=6,18=5,40=1/2;
 3/5=1,6=6,7=1,11=2,25=1,30=1,70=2201,71=2,72=20,74=-5,124=41,140=1/1,2,3;
 4//1;
 5/5=2,38=5,53=20/2;
 8/6=4,10=90,11=11/1;
 11/6=1,8=1,9=11,15=111,16=1/1,2,10;
 10/6=1,13=1/2;
 7/10=1,18=20,25=1/1,2,3,16;
 1/5=1,8=1,10=4,11=1,18=20,26=3,71=30/3(2);
 2/9=110/2;
 99//99;
 2/9=110/2;
 3/5=1,6=6,7=1,11=2,25=1,30=1,70=2205,71=1,72=20,74=-5,124=41/1,2,3;
 4/5=5,16=3,69=1/1;
 5/5=2,38=5,53=20/2;
 7//1,2,3,16;
 1/5=1,8=1,11=1,18=20,26=3,71=30/3(-5);
 2/9=110/2;
 99/9=1/99;
 Leave Link    1 at Thu May  9 22:43:08 2019, MaxMem=  6442450944 cpu:               4.9 elap:               0.2
 (Enter /home/ekwan/sw/g16/l101.exe)
 -----
 title
 -----
 Symbolic Z-matrix:
 Charge =  0 Multiplicity = 1
 C                     2.64338   2.12009  -0.66537 
 C                     3.77126   1.98174   0.35708 
 C                     3.34705   2.57343   1.70072 
 C                     1.03345   2.00615   1.3842 
 C                     1.26434   1.70793  -0.11263 
 H                     4.11314   2.4162    2.47212 
 H                     3.96255   0.91485   0.52751 
 H                     2.59116   3.1741   -0.96922 
 H                     0.66565   3.03832   1.46582 
 H                     1.16857   0.62586  -0.28403 
 O                     2.22597   1.86061   2.16889 
 O                     3.10698   3.94496   1.53065 
 O                     4.92214   2.60412  -0.18921 
 O                     2.87949   1.29282  -1.80323 
 O                     0.21581   2.3864   -0.82022 
 C                     0.02854   1.03716   2.0453 
 H                     0.08707   1.25033   3.13445 
 H                     0.49517   0.02886   1.93441 
 O                    -1.24518   1.09118   1.55518 
 C                     6.1285    2.29838   0.49274 
 H                     6.17324   2.76698   1.48519 
 H                     6.26057   1.21416   0.60499 
 H                     6.94309   2.69602  -0.11731 
 C                     3.67629   1.87077  -2.82827 
 H                     3.30479   2.87051  -3.09753 
 H                     4.72385   1.95108  -2.5273 
 H                     3.59014   1.21223  -3.69495 
 C                     0.11003   2.07392  -2.21294 
 H                     0.9194    2.53091  -2.78916 
 H                     0.10486   0.99265  -2.37751 
 H                    -0.8415    2.49762  -2.5439 
 C                    -4.13078  -1.44827   0.32884 
 C                    -2.78636  -1.1927    1.01492 
 C                    -1.72674  -0.7115    0.04816 
 C                    -3.29396  -0.11323  -1.63747 
 C                    -4.44506  -0.31124  -0.64903 
 H                    -0.69046  -0.70161   0.33329 
 H                    -2.91615  -0.3453    1.69303 
 H                    -4.09384  -2.39289  -0.22612 
 H                    -3.16202  -1.01985  -2.23149 
 H                    -4.59794   0.61582  -0.08501 
 O                    -2.03914   0.11144  -0.93427 
 O                    -0.49803  -1.44986  -2.96149 
 O                    -2.35526  -2.33082   1.73366 
 O                    -5.1727   -1.47369   1.29346 
 O                    -5.58717  -0.62749  -1.42852 
 C                    -3.46209   1.0556   -2.58009 
 H                    -4.41191   0.93025  -3.11339 
 H                    -2.64277   1.05794  -3.31026 
 O                    -3.46068   2.27242  -1.84058 
 S                    -0.50046  -2.55519  -1.98172 
 O                    -0.51631  -3.92128  -2.53411 
 O                    -1.60513  -2.41269  -0.92356 
 C                     1.00687  -2.37338  -1.01919 
 C                     2.16981  -1.94388  -1.65545 
 C                     1.00245  -2.70274   0.33397 
 C                     3.34948  -1.85963  -0.92069 
 H                     2.14884  -1.66953  -2.70207 
 C                     2.18528  -2.57762   1.06389 
 H                     0.08413  -3.03137   0.8071 
 C                     3.36287  -2.1662    0.44153 
 H                     4.28213  -2.08883   1.01102 
 C                    -1.75981  -2.02922   2.99545 
 H                    -0.8418   -1.44284   2.88762 
 H                    -2.45956  -1.47781   3.63686 
 H                    -1.51868  -2.98902   3.45631 
 C                    -5.49651  -2.77445   1.77379 
 H                    -5.8252   -3.42528   0.95148 
 H                    -4.64401  -3.23973   2.2785 
 H                    -6.31995  -2.64826   2.48087 
 C                    -6.7766    0.03773  -1.0193 
 H                    -7.01612  -0.18817   0.02486 
 H                    -6.68688   1.12612  -1.14658 
 H                    -7.57656  -0.32993  -1.66632 
 C                    -3.74254   3.40071  -2.66312 
 H                    -3.69686   4.28427  -2.02324 
 H                    -3.0026    3.49592  -3.46895 
 H                    -4.74413   3.31874  -3.10391 
 C                     2.84038   4.62345   2.75349 
 H                     2.73368   5.68229   2.50947 
 H                     1.91832   4.2604    3.22215 
 H                     3.67163   4.49506   3.46116 
 Na                   -2.01371   2.4481    0.04886 
 O                    -4.04044   2.64791   1.25397 
 C                    -4.06055   2.08394   2.56554 
 H                    -4.79729   1.26965   2.61809 
 H                    -3.05552   1.69176   2.73328 
 H                    -4.31394   2.84846   3.31328 
 C                    -5.2814    3.2338    0.89484 
 H                    -5.52129   4.0824    1.55066 
 H                    -5.19104   3.57969  -0.13582 
 H                    -6.09534   2.49814   0.95824 
 C                     4.64434  -1.49313  -1.59299 
 F                     5.49804  -2.54516  -1.59381 
 F                     5.28543  -0.48694  -0.9526 
 F                     4.47423  -1.11743  -2.87438 
 C                     2.16843  -2.83316   2.546 
 F                     1.90295  -1.69978   3.24165 
 F                     3.35465  -3.29616   2.99196 
 F                     1.21966  -3.73097   2.88984 
 
 Add virtual bond connecting atoms O53        and C34        Dist= 3.71D+00.
 Add virtual bond connecting atoms H37        and H18        Dist= 4.01D+00.
 Add virtual bond connecting atoms H37        and O19        Dist= 4.23D+00.
 Add virtual bond connecting atoms H38        and O19        Dist= 4.17D+00.
 Add virtual bond connecting atoms H64        and H18        Dist= 4.17D+00.
 Add virtual bond connecting atoms O84        and Na83       Dist= 4.47D+00.
 Add virtual bond connecting atoms H87        and O19        Dist= 4.24D+00.
 Add virtual bond connecting atoms H87        and H38        Dist= 4.33D+00.
 ITRead=  0  0  0  0  0  0  0  0  0  0  0  0  0  0  0  0  0  0  0  0
 ITRead=  0  0  0  0  0  0  0  0  0  0  0  0  0  0  0  0  0  0  0  0
 ITRead=  0  0  0  0  0  0  0  0  0  0  0  0  0  0  0  0  0  0  0  0
 ITRead=  0  0  0  0  0  0  0  0  0  0  0  0  0  0  0  0  0  0  0  0
 ITRead=  0  0  0  0  0  0  0  0  0  0  0  0  0  0  0  0  0  0  0  0
 MicOpt= -1 -1 -1 -1 -1 -1 -1 -1 -1 -1 -1 -1 -1 -1 -1 -1 -1 -1 -1 -1
 MicOpt= -1 -1 -1 -1 -1 -1 -1 -1 -1 -1 -1 -1 -1 -1 -1 -1 -1 -1 -1 -1
 MicOpt= -1 -1 -1 -1 -1 -1 -1 -1 -1 -1 -1 -1 -1 -1 -1 -1 -1 -1 -1 -1
 MicOpt= -1 -1 -1 -1 -1 -1 -1 -1 -1 -1 -1 -1 -1 -1 -1 -1 -1 -1 -1 -1
 MicOpt= -1 -1 -1 -1 -1 -1 -1 -1 -1 -1 -1 -1 -1 -1 -1 -1 -1 -1 -1 -1
 NAtoms=    100 NQM=      100 NQMF=       0 NMMI=      0 NMMIF=      0
                NMic=       0 NMicF=      0.
                    Isotopes and Nuclear Properties:
 (Nuclear quadrupole moments (NQMom) in fm**2, nuclear magnetic moments (NMagM)
  in nuclear magnetons)

  Atom         1           2           3           4           5           6           7           8           9          10
 IAtWgt=          12          12          12          12          12           1           1           1           1           1
 AtmWgt=  12.0000000  12.0000000  12.0000000  12.0000000  12.0000000   1.0078250   1.0078250   1.0078250   1.0078250   1.0078250
 NucSpn=           0           0           0           0           0           1           1           1           1           1
 AtZEff=   0.0000000   0.0000000   0.0000000   0.0000000   0.0000000   0.0000000   0.0000000   0.0000000   0.0000000   0.0000000
 NQMom=    0.0000000   0.0000000   0.0000000   0.0000000   0.0000000   0.0000000   0.0000000   0.0000000   0.0000000   0.0000000
 NMagM=    0.0000000   0.0000000   0.0000000   0.0000000   0.0000000   2.7928460   2.7928460   2.7928460   2.7928460   2.7928460
 AtZNuc=   6.0000000   6.0000000   6.0000000   6.0000000   6.0000000   1.0000000   1.0000000   1.0000000   1.0000000   1.0000000

  Atom        11          12          13          14          15          16          17          18          19          20
 IAtWgt=          16          16          16          16          16          12           1           1          16          12
 AtmWgt=  15.9949146  15.9949146  15.9949146  15.9949146  15.9949146  12.0000000   1.0078250   1.0078250  15.9949146  12.0000000
 NucSpn=           0           0           0           0           0           0           1           1           0           0
 AtZEff=   0.0000000   0.0000000   0.0000000   0.0000000   0.0000000   0.0000000   0.0000000   0.0000000   0.0000000   0.0000000
 NQMom=    0.0000000   0.0000000   0.0000000   0.0000000   0.0000000   0.0000000   0.0000000   0.0000000   0.0000000   0.0000000
 NMagM=    0.0000000   0.0000000   0.0000000   0.0000000   0.0000000   0.0000000   2.7928460   2.7928460   0.0000000   0.0000000
 AtZNuc=   8.0000000   8.0000000   8.0000000   8.0000000   8.0000000   6.0000000   1.0000000   1.0000000   8.0000000   6.0000000

  Atom        21          22          23          24          25          26          27          28          29          30
 IAtWgt=           1           1           1          12           1           1           1          12           1           1
 AtmWgt=   1.0078250   1.0078250   1.0078250  12.0000000   1.0078250   1.0078250   1.0078250  12.0000000   1.0078250   1.0078250
 NucSpn=           1           1           1           0           1           1           1           0           1           1
 AtZEff=   0.0000000   0.0000000   0.0000000   0.0000000   0.0000000   0.0000000   0.0000000   0.0000000   0.0000000   0.0000000
 NQMom=    0.0000000   0.0000000   0.0000000   0.0000000   0.0000000   0.0000000   0.0000000   0.0000000   0.0000000   0.0000000
 NMagM=    2.7928460   2.7928460   2.7928460   0.0000000   2.7928460   2.7928460   2.7928460   0.0000000   2.7928460   2.7928460
 AtZNuc=   1.0000000   1.0000000   1.0000000   6.0000000   1.0000000   1.0000000   1.0000000   6.0000000   1.0000000   1.0000000

  Atom        31          32          33          34          35          36          37          38          39          40
 IAtWgt=           1          12          12          12          12          12           1           1           1           1
 AtmWgt=   1.0078250  12.0000000  12.0000000  12.0000000  12.0000000  12.0000000   1.0078250   1.0078250   1.0078250   1.0078250
 NucSpn=           1           0           0           0           0           0           1           1           1           1
 AtZEff=   0.0000000   0.0000000   0.0000000   0.0000000   0.0000000   0.0000000   0.0000000   0.0000000   0.0000000   0.0000000
 NQMom=    0.0000000   0.0000000   0.0000000   0.0000000   0.0000000   0.0000000   0.0000000   0.0000000   0.0000000   0.0000000
 NMagM=    2.7928460   0.0000000   0.0000000   0.0000000   0.0000000   0.0000000   2.7928460   2.7928460   2.7928460   2.7928460
 AtZNuc=   1.0000000   6.0000000   6.0000000   6.0000000   6.0000000   6.0000000   1.0000000   1.0000000   1.0000000   1.0000000

  Atom        41          42          43          44          45          46          47          48          49          50
 IAtWgt=           1          16          16          16          16          16          12           1           1          16
 AtmWgt=   1.0078250  15.9949146  15.9949146  15.9949146  15.9949146  15.9949146  12.0000000   1.0078250   1.0078250  15.9949146
 NucSpn=           1           0           0           0           0           0           0           1           1           0
 AtZEff=   0.0000000   0.0000000   0.0000000   0.0000000   0.0000000   0.0000000   0.0000000   0.0000000   0.0000000   0.0000000
 NQMom=    0.0000000   0.0000000   0.0000000   0.0000000   0.0000000   0.0000000   0.0000000   0.0000000   0.0000000   0.0000000
 NMagM=    2.7928460   0.0000000   0.0000000   0.0000000   0.0000000   0.0000000   0.0000000   2.7928460   2.7928460   0.0000000
 AtZNuc=   1.0000000   8.0000000   8.0000000   8.0000000   8.0000000   8.0000000   6.0000000   1.0000000   1.0000000   8.0000000

  Atom        51          52          53          54          55          56          57          58          59          60
 IAtWgt=          32          16          16          12          12          12          12           1          12           1
 AtmWgt=  31.9720718  15.9949146  15.9949146  12.0000000  12.0000000  12.0000000  12.0000000   1.0078250  12.0000000   1.0078250
 NucSpn=           0           0           0           0           0           0           0           1           0           1
 AtZEff=   0.0000000   0.0000000   0.0000000   0.0000000   0.0000000   0.0000000   0.0000000   0.0000000   0.0000000   0.0000000
 NQMom=    0.0000000   0.0000000   0.0000000   0.0000000   0.0000000   0.0000000   0.0000000   0.0000000   0.0000000   0.0000000
 NMagM=    0.0000000   0.0000000   0.0000000   0.0000000   0.0000000   0.0000000   0.0000000   2.7928460   0.0000000   2.7928460
 AtZNuc=  16.0000000   8.0000000   8.0000000   6.0000000   6.0000000   6.0000000   6.0000000   1.0000000   6.0000000   1.0000000

  Atom        61          62          63          64          65          66          67          68          69          70
 IAtWgt=          12           1          12           1           1           1          12           1           1           1
 AtmWgt=  12.0000000   1.0078250  12.0000000   1.0078250   1.0078250   1.0078250  12.0000000   1.0078250   1.0078250   1.0078250
 NucSpn=           0           1           0           1           1           1           0           1           1           1
 AtZEff=   0.0000000   0.0000000   0.0000000   0.0000000   0.0000000   0.0000000   0.0000000   0.0000000   0.0000000   0.0000000
 NQMom=    0.0000000   0.0000000   0.0000000   0.0000000   0.0000000   0.0000000   0.0000000   0.0000000   0.0000000   0.0000000
 NMagM=    0.0000000   2.7928460   0.0000000   2.7928460   2.7928460   2.7928460   0.0000000   2.7928460   2.7928460   2.7928460
 AtZNuc=   6.0000000   1.0000000   6.0000000   1.0000000   1.0000000   1.0000000   6.0000000   1.0000000   1.0000000   1.0000000

  Atom        71          72          73          74          75          76          77          78          79          80
 IAtWgt=          12           1           1           1          12           1           1           1          12           1
 AtmWgt=  12.0000000   1.0078250   1.0078250   1.0078250  12.0000000   1.0078250   1.0078250   1.0078250  12.0000000   1.0078250
 NucSpn=           0           1           1           1           0           1           1           1           0           1
 AtZEff=   0.0000000   0.0000000   0.0000000   0.0000000   0.0000000   0.0000000   0.0000000   0.0000000   0.0000000   0.0000000
 NQMom=    0.0000000   0.0000000   0.0000000   0.0000000   0.0000000   0.0000000   0.0000000   0.0000000   0.0000000   0.0000000
 NMagM=    0.0000000   2.7928460   2.7928460   2.7928460   0.0000000   2.7928460   2.7928460   2.7928460   0.0000000   2.7928460
 AtZNuc=   6.0000000   1.0000000   1.0000000   1.0000000   6.0000000   1.0000000   1.0000000   1.0000000   6.0000000   1.0000000

  Atom        81          82          83          84          85          86          87          88          89          90
 IAtWgt=           1           1          23          16          12           1           1           1          12           1
 AtmWgt=   1.0078250   1.0078250  22.9897697  15.9949146  12.0000000   1.0078250   1.0078250   1.0078250  12.0000000   1.0078250
 NucSpn=           1           1           3           0           0           1           1           1           0           1
 AtZEff=   0.0000000   0.0000000   0.0000000   0.0000000   0.0000000   0.0000000   0.0000000   0.0000000   0.0000000   0.0000000
 NQMom=    0.0000000   0.0000000  10.4000000   0.0000000   0.0000000   0.0000000   0.0000000   0.0000000   0.0000000   0.0000000
 NMagM=    2.7928460   2.7928460   2.2175200   0.0000000   0.0000000   2.7928460   2.7928460   2.7928460   0.0000000   2.7928460
 AtZNuc=   1.0000000   1.0000000  11.0000000   8.0000000   6.0000000   1.0000000   1.0000000   1.0000000   6.0000000   1.0000000

  Atom        91          92          93          94          95          96          97          98          99         100
 IAtWgt=           1           1          12          19          19          19          12          19          19          19
 AtmWgt=   1.0078250   1.0078250  12.0000000  18.9984033  18.9984033  18.9984033  12.0000000  18.9984033  18.9984033  18.9984033
 NucSpn=           1           1           0           1           1           1           0           1           1           1
 AtZEff=   0.0000000   0.0000000   0.0000000   0.0000000   0.0000000   0.0000000   0.0000000   0.0000000   0.0000000   0.0000000
 NQMom=    0.0000000   0.0000000   0.0000000   0.0000000   0.0000000   0.0000000   0.0000000   0.0000000   0.0000000   0.0000000
 NMagM=    2.7928460   2.7928460   0.0000000   2.6288670   2.6288670   2.6288670   0.0000000   2.6288670   2.6288670   2.6288670
 AtZNuc=   1.0000000   1.0000000   6.0000000   9.0000000   9.0000000   9.0000000   6.0000000   9.0000000   9.0000000   9.0000000
 Leave Link  101 at Thu May  9 22:43:09 2019, MaxMem=  6442450944 cpu:              17.6 elap:               0.7
 (Enter /home/ekwan/sw/g16/l103.exe)

 GradGradGradGradGradGradGradGradGradGradGradGradGradGradGradGradGradGrad
 Berny optimization.
 Initialization pass.
                           ----------------------------
                           !    Initial Parameters    !
                           ! (Angstroms and Degrees)  !
 --------------------------                            --------------------------
 ! Name  Definition              Value          Derivative Info.                !
 --------------------------------------------------------------------------------
 ! R1    R(1,2)                  1.5286         calculate D2E/DX2 analytically  !
 ! R2    R(1,5)                  1.5418         calculate D2E/DX2 analytically  !
 ! R3    R(1,8)                  1.0982         calculate D2E/DX2 analytically  !
 ! R4    R(1,14)                 1.4265         calculate D2E/DX2 analytically  !
 ! R5    R(2,3)                  1.5282         calculate D2E/DX2 analytically  !
 ! R6    R(2,7)                  1.0972         calculate D2E/DX2 analytically  !
 ! R7    R(2,13)                 1.4178         calculate D2E/DX2 analytically  !
 ! R8    R(3,6)                  1.0985         calculate D2E/DX2 analytically  !
 ! R9    R(3,11)                 1.4086         calculate D2E/DX2 analytically  !
 ! R10   R(3,12)                 1.4027         calculate D2E/DX2 analytically  !
 ! R11   R(4,5)                  1.5436         calculate D2E/DX2 analytically  !
 ! R12   R(4,9)                  1.0988         calculate D2E/DX2 analytically  !
 ! R13   R(4,11)                 1.4349         calculate D2E/DX2 analytically  !
 ! R14   R(4,16)                 1.5446         calculate D2E/DX2 analytically  !
 ! R15   R(5,10)                 1.0997         calculate D2E/DX2 analytically  !
 ! R16   R(5,15)                 1.4354         calculate D2E/DX2 analytically  !
 ! R17   R(12,79)                1.4236         calculate D2E/DX2 analytically  !
 ! R18   R(13,20)                1.4191         calculate D2E/DX2 analytically  !
 ! R19   R(14,24)                1.4211         calculate D2E/DX2 analytically  !
 ! R20   R(15,28)                1.4313         calculate D2E/DX2 analytically  !
 ! R21   R(16,17)                1.1114         calculate D2E/DX2 analytically  !
 ! R22   R(16,18)                1.1166         calculate D2E/DX2 analytically  !
 ! R23   R(16,19)                1.3658         calculate D2E/DX2 analytically  !
 ! R24   R(18,37)                2.122          calculate D2E/DX2 analytically  !
 ! R25   R(18,64)                2.205          calculate D2E/DX2 analytically  !
 ! R26   R(19,37)                2.2394         calculate D2E/DX2 analytically  !
 ! R27   R(19,38)                2.2079         calculate D2E/DX2 analytically  !
 ! R28   R(19,83)                2.1682         calculate D2E/DX2 analytically  !
 ! R29   R(19,87)                2.2419         calculate D2E/DX2 analytically  !
 ! R30   R(20,21)                1.0984         calculate D2E/DX2 analytically  !
 ! R31   R(20,22)                1.098          calculate D2E/DX2 analytically  !
 ! R32   R(20,23)                1.0926         calculate D2E/DX2 analytically  !
 ! R33   R(24,25)                1.1            calculate D2E/DX2 analytically  !
 ! R34   R(24,26)                1.0929         calculate D2E/DX2 analytically  !
 ! R35   R(24,27)                1.0919         calculate D2E/DX2 analytically  !
 ! R36   R(28,29)                1.0936         calculate D2E/DX2 analytically  !
 ! R37   R(28,30)                1.0937         calculate D2E/DX2 analytically  !
 ! R38   R(28,31)                1.0929         calculate D2E/DX2 analytically  !
 ! R39   R(32,33)                1.5308         calculate D2E/DX2 analytically  !
 ! R40   R(32,36)                1.5323         calculate D2E/DX2 analytically  !
 ! R41   R(32,39)                1.0962         calculate D2E/DX2 analytically  !
 ! R42   R(32,45)                1.4201         calculate D2E/DX2 analytically  !
 ! R43   R(33,34)                1.5129         calculate D2E/DX2 analytically  !
 ! R44   R(33,38)                1.0931         calculate D2E/DX2 analytically  !
 ! R45   R(33,44)                1.4134         calculate D2E/DX2 analytically  !
 ! R46   R(34,37)                1.0748         calculate D2E/DX2 analytically  !
 ! R47   R(34,42)                1.3191         calculate D2E/DX2 analytically  !
 ! R48   R(34,53)                1.9629         calculate D2E/DX2 analytically  !
 ! R49   R(35,36)                1.5301         calculate D2E/DX2 analytically  !
 ! R50   R(35,40)                1.0919         calculate D2E/DX2 analytically  !
 ! R51   R(35,42)                1.4559         calculate D2E/DX2 analytically  !
 ! R52   R(35,47)                1.5109         calculate D2E/DX2 analytically  !
 ! R53   R(36,41)                1.0959         calculate D2E/DX2 analytically  !
 ! R54   R(36,46)                1.4185         calculate D2E/DX2 analytically  !
 ! R55   R(38,87)                2.2915         calculate D2E/DX2 analytically  !
 ! R56   R(43,51)                1.4771         calculate D2E/DX2 analytically  !
 ! R57   R(44,63)                1.4275         calculate D2E/DX2 analytically  !
 ! R58   R(45,67)                1.4239         calculate D2E/DX2 analytically  !
 ! R59   R(46,71)                1.4229         calculate D2E/DX2 analytically  !
 ! R60   R(47,48)                1.0965         calculate D2E/DX2 analytically  !
 ! R61   R(47,49)                1.0975         calculate D2E/DX2 analytically  !
 ! R62   R(47,50)                1.4239         calculate D2E/DX2 analytically  !
 ! R63   R(50,75)                1.4245         calculate D2E/DX2 analytically  !
 ! R64   R(51,52)                1.4736         calculate D2E/DX2 analytically  !
 ! R65   R(51,53)                1.5363         calculate D2E/DX2 analytically  !
 ! R66   R(51,54)                1.7977         calculate D2E/DX2 analytically  !
 ! R67   R(54,55)                1.3935         calculate D2E/DX2 analytically  !
 ! R68   R(54,56)                1.3927         calculate D2E/DX2 analytically  !
 ! R69   R(55,57)                1.3923         calculate D2E/DX2 analytically  !
 ! R70   R(55,58)                1.0822         calculate D2E/DX2 analytically  !
 ! R71   R(56,59)                1.3955         calculate D2E/DX2 analytically  !
 ! R72   R(56,60)                1.084          calculate D2E/DX2 analytically  !
 ! R73   R(57,61)                1.3964         calculate D2E/DX2 analytically  !
 ! R74   R(57,93)                1.5043         calculate D2E/DX2 analytically  !
 ! R75   R(59,61)                1.394          calculate D2E/DX2 analytically  !
 ! R76   R(59,97)                1.5041         calculate D2E/DX2 analytically  !
 ! R77   R(61,62)                1.0841         calculate D2E/DX2 analytically  !
 ! R78   R(63,64)                1.0946         calculate D2E/DX2 analytically  !
 ! R79   R(63,65)                1.0978         calculate D2E/DX2 analytically  !
 ! R80   R(63,66)                1.0917         calculate D2E/DX2 analytically  !
 ! R81   R(67,68)                1.099          calculate D2E/DX2 analytically  !
 ! R82   R(67,69)                1.0945         calculate D2E/DX2 analytically  !
 ! R83   R(67,70)                1.0927         calculate D2E/DX2 analytically  !
 ! R84   R(71,72)                1.0948         calculate D2E/DX2 analytically  !
 ! R85   R(71,73)                1.0995         calculate D2E/DX2 analytically  !
 ! R86   R(71,74)                1.0926         calculate D2E/DX2 analytically  !
 ! R87   R(75,76)                1.0919         calculate D2E/DX2 analytically  !
 ! R88   R(75,77)                1.0981         calculate D2E/DX2 analytically  !
 ! R89   R(75,78)                1.0974         calculate D2E/DX2 analytically  !
 ! R90   R(79,80)                1.0918         calculate D2E/DX2 analytically  !
 ! R91   R(79,81)                1.0962         calculate D2E/DX2 analytically  !
 ! R92   R(79,82)                1.0992         calculate D2E/DX2 analytically  !
 ! R93   R(83,84)                2.3664         calculate D2E/DX2 analytically  !
 ! R94   R(84,85)                1.4278         calculate D2E/DX2 analytically  !
 ! R95   R(84,89)                1.4185         calculate D2E/DX2 analytically  !
 ! R96   R(85,86)                1.0994         calculate D2E/DX2 analytically  !
 ! R97   R(85,87)                1.0918         calculate D2E/DX2 analytically  !
 ! R98   R(85,88)                1.099          calculate D2E/DX2 analytically  !
 ! R99   R(89,90)                1.099          calculate D2E/DX2 analytically  !
 ! R100  R(89,91)                1.0909         calculate D2E/DX2 analytically  !
 ! R101  R(89,92)                1.099          calculate D2E/DX2 analytically  !
 ! R102  R(93,94)                1.3548         calculate D2E/DX2 analytically  !
 ! R103  R(93,95)                1.3541         calculate D2E/DX2 analytically  !
 ! R104  R(93,96)                1.3461         calculate D2E/DX2 analytically  !
 ! R105  R(97,98)                1.3561         calculate D2E/DX2 analytically  !
 ! R106  R(97,99)                1.3492         calculate D2E/DX2 analytically  !
 ! R107  R(97,100)               1.3507         calculate D2E/DX2 analytically  !
 ! A1    A(2,1,5)              113.3263         calculate D2E/DX2 analytically  !
 ! A2    A(2,1,8)              107.8798         calculate D2E/DX2 analytically  !
 ! A3    A(2,1,14)             111.0345         calculate D2E/DX2 analytically  !
 ! A4    A(5,1,8)              108.2541         calculate D2E/DX2 analytically  !
 ! A5    A(5,1,14)             106.199          calculate D2E/DX2 analytically  !
 ! A6    A(8,1,14)             110.1075         calculate D2E/DX2 analytically  !
 ! A7    A(1,2,3)              110.3793         calculate D2E/DX2 analytically  !
 ! A8    A(1,2,7)              108.6953         calculate D2E/DX2 analytically  !
 ! A9    A(1,2,13)             107.5461         calculate D2E/DX2 analytically  !
 ! A10   A(3,2,7)              106.7561         calculate D2E/DX2 analytically  !
 ! A11   A(3,2,13)             113.2114         calculate D2E/DX2 analytically  !
 ! A12   A(7,2,13)             110.1915         calculate D2E/DX2 analytically  !
 ! A13   A(2,3,6)              111.6185         calculate D2E/DX2 analytically  !
 ! A14   A(2,3,11)             108.4954         calculate D2E/DX2 analytically  !
 ! A15   A(2,3,12)             108.6314         calculate D2E/DX2 analytically  !
 ! A16   A(6,3,11)             104.4314         calculate D2E/DX2 analytically  !
 ! A17   A(6,3,12)             110.1476         calculate D2E/DX2 analytically  !
 ! A18   A(11,3,12)            113.5079         calculate D2E/DX2 analytically  !
 ! A19   A(5,4,9)              107.6732         calculate D2E/DX2 analytically  !
 ! A20   A(5,4,11)             112.7286         calculate D2E/DX2 analytically  !
 ! A21   A(5,4,16)             113.0258         calculate D2E/DX2 analytically  !
 ! A22   A(9,4,11)             109.4412         calculate D2E/DX2 analytically  !
 ! A23   A(9,4,16)             109.8609         calculate D2E/DX2 analytically  !
 ! A24   A(11,4,16)            104.064          calculate D2E/DX2 analytically  !
 ! A25   A(1,5,4)              115.4535         calculate D2E/DX2 analytically  !
 ! A26   A(1,5,10)             106.5617         calculate D2E/DX2 analytically  !
 ! A27   A(1,5,15)             110.5045         calculate D2E/DX2 analytically  !
 ! A28   A(4,5,10)             109.1594         calculate D2E/DX2 analytically  !
 ! A29   A(4,5,15)             106.1065         calculate D2E/DX2 analytically  !
 ! A30   A(10,5,15)            108.9434         calculate D2E/DX2 analytically  !
 ! A31   A(3,11,4)             115.3634         calculate D2E/DX2 analytically  !
 ! A32   A(3,12,79)            113.1972         calculate D2E/DX2 analytically  !
 ! A33   A(2,13,20)            114.2235         calculate D2E/DX2 analytically  !
 ! A34   A(1,14,24)            115.6131         calculate D2E/DX2 analytically  !
 ! A35   A(5,15,28)            115.4972         calculate D2E/DX2 analytically  !
 ! A36   A(4,16,17)            105.3586         calculate D2E/DX2 analytically  !
 ! A37   A(4,16,18)            104.6023         calculate D2E/DX2 analytically  !
 ! A38   A(4,16,19)            115.3608         calculate D2E/DX2 analytically  !
 ! A39   A(17,16,18)           104.3903         calculate D2E/DX2 analytically  !
 ! A40   A(17,16,19)           113.1538         calculate D2E/DX2 analytically  !
 ! A41   A(18,16,19)           112.9428         calculate D2E/DX2 analytically  !
 ! A42   A(16,18,37)            98.7595         calculate D2E/DX2 analytically  !
 ! A43   A(16,18,64)           107.8421         calculate D2E/DX2 analytically  !
 ! A44   A(37,18,64)            75.9745         calculate D2E/DX2 analytically  !
 ! A45   A(16,19,37)            86.1658         calculate D2E/DX2 analytically  !
 ! A46   A(16,19,38)           131.1212         calculate D2E/DX2 analytically  !
 ! A47   A(16,19,83)           127.2014         calculate D2E/DX2 analytically  !
 ! A48   A(16,19,87)           125.1053         calculate D2E/DX2 analytically  !
 ! A49   A(37,19,38)            72.5828         calculate D2E/DX2 analytically  !
 ! A50   A(37,19,83)           102.108          calculate D2E/DX2 analytically  !
 ! A51   A(37,19,87)           134.526          calculate D2E/DX2 analytically  !
 ! A52   A(38,19,83)           100.5034         calculate D2E/DX2 analytically  !
 ! A53   A(83,19,87)            84.9051         calculate D2E/DX2 analytically  !
 ! A54   A(13,20,21)           112.1422         calculate D2E/DX2 analytically  !
 ! A55   A(13,20,22)           111.3538         calculate D2E/DX2 analytically  !
 ! A56   A(13,20,23)           106.6815         calculate D2E/DX2 analytically  !
 ! A57   A(21,20,22)           108.9048         calculate D2E/DX2 analytically  !
 ! A58   A(21,20,23)           108.5925         calculate D2E/DX2 analytically  !
 ! A59   A(22,20,23)           109.073          calculate D2E/DX2 analytically  !
 ! A60   A(14,24,25)           110.9049         calculate D2E/DX2 analytically  !
 ! A61   A(14,24,26)           111.6344         calculate D2E/DX2 analytically  !
 ! A62   A(14,24,27)           106.4386         calculate D2E/DX2 analytically  !
 ! A63   A(25,24,26)           108.9257         calculate D2E/DX2 analytically  !
 ! A64   A(25,24,27)           109.0994         calculate D2E/DX2 analytically  !
 ! A65   A(26,24,27)           109.7874         calculate D2E/DX2 analytically  !
 ! A66   A(15,28,29)           111.5169         calculate D2E/DX2 analytically  !
 ! A67   A(15,28,30)           111.2597         calculate D2E/DX2 analytically  !
 ! A68   A(15,28,31)           105.9248         calculate D2E/DX2 analytically  !
 ! A69   A(29,28,30)           109.7148         calculate D2E/DX2 analytically  !
 ! A70   A(29,28,31)           108.8323         calculate D2E/DX2 analytically  !
 ! A71   A(30,28,31)           109.4866         calculate D2E/DX2 analytically  !
 ! A72   A(33,32,36)           110.0146         calculate D2E/DX2 analytically  !
 ! A73   A(33,32,39)           109.9475         calculate D2E/DX2 analytically  !
 ! A74   A(33,32,45)           110.0541         calculate D2E/DX2 analytically  !
 ! A75   A(36,32,39)           108.8613         calculate D2E/DX2 analytically  !
 ! A76   A(36,32,45)           107.2342         calculate D2E/DX2 analytically  !
 ! A77   A(39,32,45)           110.682          calculate D2E/DX2 analytically  !
 ! A78   A(32,33,34)           112.4454         calculate D2E/DX2 analytically  !
 ! A79   A(32,33,38)           107.6491         calculate D2E/DX2 analytically  !
 ! A80   A(32,33,44)           111.1816         calculate D2E/DX2 analytically  !
 ! A81   A(34,33,38)           103.4744         calculate D2E/DX2 analytically  !
 ! A82   A(34,33,44)           111.5572         calculate D2E/DX2 analytically  !
 ! A83   A(38,33,44)           110.1819         calculate D2E/DX2 analytically  !
 ! A84   A(33,34,37)           120.5752         calculate D2E/DX2 analytically  !
 ! A85   A(33,34,42)           120.5619         calculate D2E/DX2 analytically  !
 ! A86   A(33,34,53)            94.8225         calculate D2E/DX2 analytically  !
 ! A87   A(37,34,42)           114.8448         calculate D2E/DX2 analytically  !
 ! A88   A(37,34,53)            94.5636         calculate D2E/DX2 analytically  !
 ! A89   A(42,34,53)           100.7584         calculate D2E/DX2 analytically  !
 ! A90   A(36,35,40)           109.5654         calculate D2E/DX2 analytically  !
 ! A91   A(36,35,42)           110.8763         calculate D2E/DX2 analytically  !
 ! A92   A(36,35,47)           114.797          calculate D2E/DX2 analytically  !
 ! A93   A(40,35,42)           106.6643         calculate D2E/DX2 analytically  !
 ! A94   A(40,35,47)           108.4434         calculate D2E/DX2 analytically  !
 ! A95   A(42,35,47)           106.133          calculate D2E/DX2 analytically  !
 ! A96   A(32,36,35)           110.7312         calculate D2E/DX2 analytically  !
 ! A97   A(32,36,41)           109.1422         calculate D2E/DX2 analytically  !
 ! A98   A(32,36,46)           110.5123         calculate D2E/DX2 analytically  !
 ! A99   A(35,36,41)           109.1443         calculate D2E/DX2 analytically  !
 ! A100  A(35,36,46)           106.2352         calculate D2E/DX2 analytically  !
 ! A101  A(41,36,46)           111.0461         calculate D2E/DX2 analytically  !
 ! A102  A(18,37,19)            56.7094         calculate D2E/DX2 analytically  !
 ! A103  A(18,37,34)           137.9033         calculate D2E/DX2 analytically  !
 ! A104  A(19,37,34)            85.0254         calculate D2E/DX2 analytically  !
 ! A105  A(19,38,33)           112.0737         calculate D2E/DX2 analytically  !
 ! A106  A(34,42,35)           117.878          calculate D2E/DX2 analytically  !
 ! A107  A(33,44,63)           113.9911         calculate D2E/DX2 analytically  !
 ! A108  A(32,45,67)           114.3511         calculate D2E/DX2 analytically  !
 ! A109  A(36,46,71)           114.2531         calculate D2E/DX2 analytically  !
 ! A110  A(35,47,48)           108.1432         calculate D2E/DX2 analytically  !
 ! A111  A(35,47,49)           109.49           calculate D2E/DX2 analytically  !
 ! A112  A(35,47,50)           109.6912         calculate D2E/DX2 analytically  !
 ! A113  A(48,47,49)           108.8653         calculate D2E/DX2 analytically  !
 ! A114  A(48,47,50)           110.5574         calculate D2E/DX2 analytically  !
 ! A115  A(49,47,50)           110.0581         calculate D2E/DX2 analytically  !
 ! A116  A(47,50,75)           112.1353         calculate D2E/DX2 analytically  !
 ! A117  A(43,51,52)           116.4292         calculate D2E/DX2 analytically  !
 ! A118  A(43,51,53)           112.87           calculate D2E/DX2 analytically  !
 ! A119  A(43,51,54)           106.1473         calculate D2E/DX2 analytically  !
 ! A120  A(52,51,53)           109.6596         calculate D2E/DX2 analytically  !
 ! A121  A(52,51,54)           107.6669         calculate D2E/DX2 analytically  !
 ! A122  A(53,51,54)           102.9874         calculate D2E/DX2 analytically  !
 ! A123  A(34,53,51)           117.7681         calculate D2E/DX2 analytically  !
 ! A124  A(51,54,55)           119.1092         calculate D2E/DX2 analytically  !
 ! A125  A(51,54,56)           119.5819         calculate D2E/DX2 analytically  !
 ! A126  A(55,54,56)           121.2781         calculate D2E/DX2 analytically  !
 ! A127  A(54,55,57)           118.9989         calculate D2E/DX2 analytically  !
 ! A128  A(54,55,58)           120.2361         calculate D2E/DX2 analytically  !
 ! A129  A(57,55,58)           120.7609         calculate D2E/DX2 analytically  !
 ! A130  A(54,56,59)           118.9669         calculate D2E/DX2 analytically  !
 ! A131  A(54,56,60)           119.8974         calculate D2E/DX2 analytically  !
 ! A132  A(59,56,60)           121.1248         calculate D2E/DX2 analytically  !
 ! A133  A(55,57,61)           120.6411         calculate D2E/DX2 analytically  !
 ! A134  A(55,57,93)           120.5433         calculate D2E/DX2 analytically  !
 ! A135  A(61,57,93)           118.7652         calculate D2E/DX2 analytically  !
 ! A136  A(56,59,61)           120.5928         calculate D2E/DX2 analytically  !
 ! A137  A(56,59,97)           119.3849         calculate D2E/DX2 analytically  !
 ! A138  A(61,59,97)           119.9692         calculate D2E/DX2 analytically  !
 ! A139  A(57,61,59)           119.4873         calculate D2E/DX2 analytically  !
 ! A140  A(57,61,62)           120.3259         calculate D2E/DX2 analytically  !
 ! A141  A(59,61,62)           120.1865         calculate D2E/DX2 analytically  !
 ! A142  A(44,63,64)           112.0821         calculate D2E/DX2 analytically  !
 ! A143  A(44,63,65)           110.8978         calculate D2E/DX2 analytically  !
 ! A144  A(44,63,66)           106.233          calculate D2E/DX2 analytically  !
 ! A145  A(64,63,65)           108.8478         calculate D2E/DX2 analytically  !
 ! A146  A(64,63,66)           109.1065         calculate D2E/DX2 analytically  !
 ! A147  A(65,63,66)           109.6187         calculate D2E/DX2 analytically  !
 ! A148  A(18,64,63)           155.3168         calculate D2E/DX2 analytically  !
 ! A149  A(45,67,68)           110.8911         calculate D2E/DX2 analytically  !
 ! A150  A(45,67,69)           111.5158         calculate D2E/DX2 analytically  !
 ! A151  A(45,67,70)           106.5087         calculate D2E/DX2 analytically  !
 ! A152  A(68,67,69)           109.0403         calculate D2E/DX2 analytically  !
 ! A153  A(68,67,70)           109.099          calculate D2E/DX2 analytically  !
 ! A154  A(69,67,70)           109.7339         calculate D2E/DX2 analytically  !
 ! A155  A(46,71,72)           111.1431         calculate D2E/DX2 analytically  !
 ! A156  A(46,71,73)           111.179          calculate D2E/DX2 analytically  !
 ! A157  A(46,71,74)           106.5228         calculate D2E/DX2 analytically  !
 ! A158  A(72,71,73)           109.4214         calculate D2E/DX2 analytically  !
 ! A159  A(72,71,74)           109.5826         calculate D2E/DX2 analytically  !
 ! A160  A(73,71,74)           108.9231         calculate D2E/DX2 analytically  !
 ! A161  A(50,75,76)           107.1144         calculate D2E/DX2 analytically  !
 ! A162  A(50,75,77)           111.0438         calculate D2E/DX2 analytically  !
 ! A163  A(50,75,78)           110.6946         calculate D2E/DX2 analytically  !
 ! A164  A(76,75,77)           109.3716         calculate D2E/DX2 analytically  !
 ! A165  A(76,75,78)           109.5134         calculate D2E/DX2 analytically  !
 ! A166  A(77,75,78)           109.0694         calculate D2E/DX2 analytically  !
 ! A167  A(12,79,80)           106.7689         calculate D2E/DX2 analytically  !
 ! A168  A(12,79,81)           111.5254         calculate D2E/DX2 analytically  !
 ! A169  A(12,79,82)           110.8366         calculate D2E/DX2 analytically  !
 ! A170  A(80,79,81)           109.5446         calculate D2E/DX2 analytically  !
 ! A171  A(80,79,82)           109.3333         calculate D2E/DX2 analytically  !
 ! A172  A(81,79,82)           108.7943         calculate D2E/DX2 analytically  !
 ! A173  A(19,83,84)            90.1503         calculate D2E/DX2 analytically  !
 ! A174  A(83,84,85)           116.5198         calculate D2E/DX2 analytically  !
 ! A175  A(83,84,89)           130.9346         calculate D2E/DX2 analytically  !
 ! A176  A(85,84,89)           112.5428         calculate D2E/DX2 analytically  !
 ! A177  A(84,85,86)           110.2368         calculate D2E/DX2 analytically  !
 ! A178  A(84,85,87)           105.6667         calculate D2E/DX2 analytically  !
 ! A179  A(84,85,88)           110.6994         calculate D2E/DX2 analytically  !
 ! A180  A(86,85,87)           110.0892         calculate D2E/DX2 analytically  !
 ! A181  A(86,85,88)           109.1606         calculate D2E/DX2 analytically  !
 ! A182  A(87,85,88)           110.9529         calculate D2E/DX2 analytically  !
 ! A183  A(19,87,85)           139.3616         calculate D2E/DX2 analytically  !
 ! A184  A(38,87,85)           107.7921         calculate D2E/DX2 analytically  !
 ! A185  A(84,89,90)           111.0268         calculate D2E/DX2 analytically  !
 ! A186  A(84,89,91)           107.319          calculate D2E/DX2 analytically  !
 ! A187  A(84,89,92)           110.9066         calculate D2E/DX2 analytically  !
 ! A188  A(90,89,91)           109.6968         calculate D2E/DX2 analytically  !
 ! A189  A(90,89,92)           108.7114         calculate D2E/DX2 analytically  !
 ! A190  A(91,89,92)           109.1535         calculate D2E/DX2 analytically  !
 ! A191  A(57,93,94)           110.6996         calculate D2E/DX2 analytically  !
 ! A192  A(57,93,95)           112.1609         calculate D2E/DX2 analytically  !
 ! A193  A(57,93,96)           112.6215         calculate D2E/DX2 analytically  !
 ! A194  A(94,93,95)           106.1984         calculate D2E/DX2 analytically  !
 ! A195  A(94,93,96)           107.2041         calculate D2E/DX2 analytically  !
 ! A196  A(95,93,96)           107.6155         calculate D2E/DX2 analytically  !
 ! A197  A(59,97,98)           111.4498         calculate D2E/DX2 analytically  !
 ! A198  A(59,97,99)           111.9727         calculate D2E/DX2 analytically  !
 ! A199  A(59,97,100)          111.8167         calculate D2E/DX2 analytically  !
 ! A200  A(98,97,99)           106.8204         calculate D2E/DX2 analytically  !
 ! A201  A(98,97,100)          106.7043         calculate D2E/DX2 analytically  !
 ! A202  A(99,97,100)          107.7777         calculate D2E/DX2 analytically  !
 ! A203  L(33,38,87,1,-1)      171.2448         calculate D2E/DX2 analytically  !
 ! A204  L(33,38,87,1,-2)      171.7222         calculate D2E/DX2 analytically  !
 ! D1    D(5,1,2,3)            -46.0073         calculate D2E/DX2 analytically  !
 ! D2    D(5,1,2,7)             70.7612         calculate D2E/DX2 analytically  !
 ! D3    D(5,1,2,13)          -169.9535         calculate D2E/DX2 analytically  !
 ! D4    D(8,1,2,3)             73.8297         calculate D2E/DX2 analytically  !
 ! D5    D(8,1,2,7)           -169.4018         calculate D2E/DX2 analytically  !
 ! D6    D(8,1,2,13)           -50.1165         calculate D2E/DX2 analytically  !
 ! D7    D(14,1,2,3)          -165.4348         calculate D2E/DX2 analytically  !
 ! D8    D(14,1,2,7)           -48.6663         calculate D2E/DX2 analytically  !
 ! D9    D(14,1,2,13)           70.619          calculate D2E/DX2 analytically  !
 ! D10   D(2,1,5,4)             33.5594         calculate D2E/DX2 analytically  !
 ! D11   D(2,1,5,10)           -87.8238         calculate D2E/DX2 analytically  !
 ! D12   D(2,1,5,15)           153.9594         calculate D2E/DX2 analytically  !
 ! D13   D(8,1,5,4)            -86.0637         calculate D2E/DX2 analytically  !
 ! D14   D(8,1,5,10)           152.553          calculate D2E/DX2 analytically  !
 ! D15   D(8,1,5,15)            34.3363         calculate D2E/DX2 analytically  !
 ! D16   D(14,1,5,4)           155.721          calculate D2E/DX2 analytically  !
 ! D17   D(14,1,5,10)           34.3378         calculate D2E/DX2 analytically  !
 ! D18   D(14,1,5,15)          -83.879          calculate D2E/DX2 analytically  !
 ! D19   D(2,1,14,24)          -86.621          calculate D2E/DX2 analytically  !
 ! D20   D(5,1,14,24)          149.7721         calculate D2E/DX2 analytically  !
 ! D21   D(8,1,14,24)           32.7902         calculate D2E/DX2 analytically  !
 ! D22   D(1,2,3,6)            175.6371         calculate D2E/DX2 analytically  !
 ! D23   D(1,2,3,11)            61.1025         calculate D2E/DX2 analytically  !
 ! D24   D(1,2,3,12)           -62.7212         calculate D2E/DX2 analytically  !
 ! D25   D(7,2,3,6)             57.6712         calculate D2E/DX2 analytically  !
 ! D26   D(7,2,3,11)           -56.8635         calculate D2E/DX2 analytically  !
 ! D27   D(7,2,3,12)           179.3128         calculate D2E/DX2 analytically  !
 ! D28   D(13,2,3,6)           -63.7501         calculate D2E/DX2 analytically  !
 ! D29   D(13,2,3,11)         -178.2847         calculate D2E/DX2 analytically  !
 ! D30   D(13,2,3,12)           57.8916         calculate D2E/DX2 analytically  !
 ! D31   D(1,2,13,20)         -166.2128         calculate D2E/DX2 analytically  !
 ! D32   D(3,2,13,20)           71.5801         calculate D2E/DX2 analytically  !
 ! D33   D(7,2,13,20)          -47.888          calculate D2E/DX2 analytically  !
 ! D34   D(2,3,11,4)           -66.1333         calculate D2E/DX2 analytically  !
 ! D35   D(6,3,11,4)           174.708          calculate D2E/DX2 analytically  !
 ! D36   D(12,3,11,4)           54.7219         calculate D2E/DX2 analytically  !
 ! D37   D(2,3,12,79)         -173.7919         calculate D2E/DX2 analytically  !
 ! D38   D(6,3,12,79)          -51.2552         calculate D2E/DX2 analytically  !
 ! D39   D(11,3,12,79)          65.4294         calculate D2E/DX2 analytically  !
 ! D40   D(9,4,5,1)             86.2966         calculate D2E/DX2 analytically  !
 ! D41   D(9,4,5,10)          -153.7314         calculate D2E/DX2 analytically  !
 ! D42   D(9,4,5,15)           -36.4708         calculate D2E/DX2 analytically  !
 ! D43   D(11,4,5,1)           -34.5143         calculate D2E/DX2 analytically  !
 ! D44   D(11,4,5,10)           85.4577         calculate D2E/DX2 analytically  !
 ! D45   D(11,4,5,15)         -157.2817         calculate D2E/DX2 analytically  !
 ! D46   D(16,4,5,1)          -152.1796         calculate D2E/DX2 analytically  !
 ! D47   D(16,4,5,10)          -32.2076         calculate D2E/DX2 analytically  !
 ! D48   D(16,4,5,15)           85.053          calculate D2E/DX2 analytically  !
 ! D49   D(5,4,11,3)            52.3512         calculate D2E/DX2 analytically  !
 ! D50   D(9,4,11,3)           -67.4441         calculate D2E/DX2 analytically  !
 ! D51   D(16,4,11,3)          175.1793         calculate D2E/DX2 analytically  !
 ! D52   D(5,4,16,17)          170.7399         calculate D2E/DX2 analytically  !
 ! D53   D(5,4,16,18)           60.9914         calculate D2E/DX2 analytically  !
 ! D54   D(5,4,16,19)          -63.7081         calculate D2E/DX2 analytically  !
 ! D55   D(9,4,16,17)          -68.9784         calculate D2E/DX2 analytically  !
 ! D56   D(9,4,16,18)         -178.7269         calculate D2E/DX2 analytically  !
 ! D57   D(9,4,16,19)           56.5736         calculate D2E/DX2 analytically  !
 ! D58   D(11,4,16,17)          48.1068         calculate D2E/DX2 analytically  !
 ! D59   D(11,4,16,18)         -61.6416         calculate D2E/DX2 analytically  !
 ! D60   D(11,4,16,19)         173.6589         calculate D2E/DX2 analytically  !
 ! D61   D(1,5,15,28)           63.6561         calculate D2E/DX2 analytically  !
 ! D62   D(4,5,15,28)         -170.4996         calculate D2E/DX2 analytically  !
 ! D63   D(10,5,15,28)         -53.0947         calculate D2E/DX2 analytically  !
 ! D64   D(3,12,79,80)         176.4709         calculate D2E/DX2 analytically  !
 ! D65   D(3,12,79,81)         -63.8961         calculate D2E/DX2 analytically  !
 ! D66   D(3,12,79,82)          57.4816         calculate D2E/DX2 analytically  !
 ! D67   D(2,13,20,21)         -70.4665         calculate D2E/DX2 analytically  !
 ! D68   D(2,13,20,22)          51.8548         calculate D2E/DX2 analytically  !
 ! D69   D(2,13,20,23)         170.7645         calculate D2E/DX2 analytically  !
 ! D70   D(1,14,24,25)         -49.9553         calculate D2E/DX2 analytically  !
 ! D71   D(1,14,24,26)          71.7131         calculate D2E/DX2 analytically  !
 ! D72   D(1,14,24,27)        -168.503          calculate D2E/DX2 analytically  !
 ! D73   D(5,15,28,29)         -73.3026         calculate D2E/DX2 analytically  !
 ! D74   D(5,15,28,30)          49.5501         calculate D2E/DX2 analytically  !
 ! D75   D(5,15,28,31)         168.4475         calculate D2E/DX2 analytically  !
 ! D76   D(4,16,18,37)        -103.1828         calculate D2E/DX2 analytically  !
 ! D77   D(4,16,18,64)         178.8228         calculate D2E/DX2 analytically  !
 ! D78   D(17,16,18,37)        146.366          calculate D2E/DX2 analytically  !
 ! D79   D(17,16,18,64)         68.3716         calculate D2E/DX2 analytically  !
 ! D80   D(19,16,18,37)         23.0391         calculate D2E/DX2 analytically  !
 ! D81   D(19,16,18,64)        -54.9553         calculate D2E/DX2 analytically  !
 ! D82   D(4,16,19,37)          98.6868         calculate D2E/DX2 analytically  !
 ! D83   D(4,16,19,38)         161.5096         calculate D2E/DX2 analytically  !
 ! D84   D(4,16,19,83)          -3.6149         calculate D2E/DX2 analytically  !
 ! D85   D(4,16,19,87)        -117.025          calculate D2E/DX2 analytically  !
 ! D86   D(17,16,19,37)       -139.8811         calculate D2E/DX2 analytically  !
 ! D87   D(17,16,19,38)        -77.0583         calculate D2E/DX2 analytically  !
 ! D88   D(17,16,19,83)        117.8172         calculate D2E/DX2 analytically  !
 ! D89   D(17,16,19,87)          4.407          calculate D2E/DX2 analytically  !
 ! D90   D(18,16,19,37)        -21.5519         calculate D2E/DX2 analytically  !
 ! D91   D(18,16,19,38)         41.2709         calculate D2E/DX2 analytically  !
 ! D92   D(18,16,19,83)       -123.8536         calculate D2E/DX2 analytically  !
 ! D93   D(18,16,19,87)        122.7363         calculate D2E/DX2 analytically  !
 ! D94   D(16,18,37,19)        -15.2462         calculate D2E/DX2 analytically  !
 ! D95   D(16,18,37,34)        -43.4167         calculate D2E/DX2 analytically  !
 ! D96   D(64,18,37,19)         91.0765         calculate D2E/DX2 analytically  !
 ! D97   D(64,18,37,34)         62.906          calculate D2E/DX2 analytically  !
 ! D98   D(16,18,64,63)         67.0625         calculate D2E/DX2 analytically  !
 ! D99   D(37,18,64,63)        -27.7844         calculate D2E/DX2 analytically  !
 ! D100  D(16,19,37,18)         12.2949         calculate D2E/DX2 analytically  !
 ! D101  D(16,19,37,34)        173.7721         calculate D2E/DX2 analytically  !
 ! D102  D(38,19,37,18)       -123.0888         calculate D2E/DX2 analytically  !
 ! D103  D(38,19,37,34)         38.3884         calculate D2E/DX2 analytically  !
 ! D104  D(83,19,37,18)        139.5514         calculate D2E/DX2 analytically  !
 ! D105  D(83,19,37,34)        -58.9714         calculate D2E/DX2 analytically  !
 ! D106  D(87,19,37,18)       -125.6526         calculate D2E/DX2 analytically  !
 ! D107  D(87,19,37,34)         35.8246         calculate D2E/DX2 analytically  !
 ! D108  D(16,19,38,33)        -76.2507         calculate D2E/DX2 analytically  !
 ! D109  D(37,19,38,33)         -7.7755         calculate D2E/DX2 analytically  !
 ! D110  D(83,19,38,33)         91.7461         calculate D2E/DX2 analytically  !
 ! D111  D(16,19,83,84)       -140.8521         calculate D2E/DX2 analytically  !
 ! D112  D(37,19,83,84)        124.7329         calculate D2E/DX2 analytically  !
 ! D113  D(38,19,83,84)         50.4913         calculate D2E/DX2 analytically  !
 ! D114  D(87,19,83,84)         -9.7668         calculate D2E/DX2 analytically  !
 ! D115  D(16,19,87,85)        157.2579         calculate D2E/DX2 analytically  !
 ! D116  D(37,19,87,85)        -77.5189         calculate D2E/DX2 analytically  !
 ! D117  D(83,19,87,85)         24.468          calculate D2E/DX2 analytically  !
 ! D118  D(36,32,33,34)        -43.4136         calculate D2E/DX2 analytically  !
 ! D119  D(36,32,33,38)         69.9144         calculate D2E/DX2 analytically  !
 ! D120  D(36,32,33,44)       -169.3176         calculate D2E/DX2 analytically  !
 ! D121  D(39,32,33,34)         76.4685         calculate D2E/DX2 analytically  !
 ! D122  D(39,32,33,38)       -170.2035         calculate D2E/DX2 analytically  !
 ! D123  D(39,32,33,44)        -49.4355         calculate D2E/DX2 analytically  !
 ! D124  D(45,32,33,34)       -161.3598         calculate D2E/DX2 analytically  !
 ! D125  D(45,32,33,38)        -48.0318         calculate D2E/DX2 analytically  !
 ! D126  D(45,32,33,44)         72.7362         calculate D2E/DX2 analytically  !
 ! D127  D(33,32,36,35)         54.2093         calculate D2E/DX2 analytically  !
 ! D128  D(33,32,36,41)        -65.9597         calculate D2E/DX2 analytically  !
 ! D129  D(33,32,36,46)        171.6466         calculate D2E/DX2 analytically  !
 ! D130  D(39,32,36,35)        -66.33           calculate D2E/DX2 analytically  !
 ! D131  D(39,32,36,41)        173.501          calculate D2E/DX2 analytically  !
 ! D132  D(39,32,36,46)         51.1073         calculate D2E/DX2 analytically  !
 ! D133  D(45,32,36,35)        173.8855         calculate D2E/DX2 analytically  !
 ! D134  D(45,32,36,41)         53.7165         calculate D2E/DX2 analytically  !
 ! D135  D(45,32,36,46)        -68.6772         calculate D2E/DX2 analytically  !
 ! D136  D(33,32,45,67)        -93.9973         calculate D2E/DX2 analytically  !
 ! D137  D(36,32,45,67)        146.3518         calculate D2E/DX2 analytically  !
 ! D138  D(39,32,45,67)         27.7385         calculate D2E/DX2 analytically  !
 ! D139  D(32,33,34,37)       -166.2489         calculate D2E/DX2 analytically  !
 ! D140  D(32,33,34,42)         37.4568         calculate D2E/DX2 analytically  !
 ! D141  D(32,33,34,53)        -68.0513         calculate D2E/DX2 analytically  !
 ! D142  D(38,33,34,37)         77.8829         calculate D2E/DX2 analytically  !
 ! D143  D(38,33,34,42)        -78.4114         calculate D2E/DX2 analytically  !
 ! D144  D(38,33,34,53)        176.0805         calculate D2E/DX2 analytically  !
 ! D145  D(44,33,34,37)        -40.5487         calculate D2E/DX2 analytically  !
 ! D146  D(44,33,34,42)        163.157          calculate D2E/DX2 analytically  !
 ! D147  D(44,33,34,53)         57.649          calculate D2E/DX2 analytically  !
 ! D148  D(32,33,38,19)       -135.6399         calculate D2E/DX2 analytically  !
 ! D149  D(34,33,38,19)        -16.4152         calculate D2E/DX2 analytically  !
 ! D150  D(44,33,38,19)        102.966          calculate D2E/DX2 analytically  !
 ! D151  D(32,33,44,63)       -139.8199         calculate D2E/DX2 analytically  !
 ! D152  D(34,33,44,63)         93.7849         calculate D2E/DX2 analytically  !
 ! D153  D(38,33,44,63)        -20.5543         calculate D2E/DX2 analytically  !
 ! D154  D(32,33,87,85)         -1.0409         calculate D2E/DX2 analytically  !
 ! D155  D(34,33,87,85)        114.9169         calculate D2E/DX2 analytically  !
 ! D156  D(44,33,87,85)       -126.9673         calculate D2E/DX2 analytically  !
 ! D157  D(33,34,37,18)        -51.5659         calculate D2E/DX2 analytically  !
 ! D158  D(33,34,37,19)        -74.9015         calculate D2E/DX2 analytically  !
 ! D159  D(42,34,37,18)        106.0078         calculate D2E/DX2 analytically  !
 ! D160  D(42,34,37,19)         82.6721         calculate D2E/DX2 analytically  !
 ! D161  D(53,34,37,18)       -149.9098         calculate D2E/DX2 analytically  !
 ! D162  D(53,34,37,19)       -173.2454         calculate D2E/DX2 analytically  !
 ! D163  D(33,34,42,35)        -40.1436         calculate D2E/DX2 analytically  !
 ! D164  D(37,34,42,35)        162.2795         calculate D2E/DX2 analytically  !
 ! D165  D(53,34,42,35)         62.0713         calculate D2E/DX2 analytically  !
 ! D166  D(33,34,53,51)       -172.9475         calculate D2E/DX2 analytically  !
 ! D167  D(37,34,53,51)        -51.6935         calculate D2E/DX2 analytically  !
 ! D168  D(42,34,53,51)         64.6791         calculate D2E/DX2 analytically  !
 ! D169  D(40,35,36,32)         62.1052         calculate D2E/DX2 analytically  !
 ! D170  D(40,35,36,41)       -177.7271         calculate D2E/DX2 analytically  !
 ! D171  D(40,35,36,46)        -57.9242         calculate D2E/DX2 analytically  !
 ! D172  D(42,35,36,32)        -55.3636         calculate D2E/DX2 analytically  !
 ! D173  D(42,35,36,41)         64.8041         calculate D2E/DX2 analytically  !
 ! D174  D(42,35,36,46)       -175.393          calculate D2E/DX2 analytically  !
 ! D175  D(47,35,36,32)       -175.6153         calculate D2E/DX2 analytically  !
 ! D176  D(47,35,36,41)        -55.4475         calculate D2E/DX2 analytically  !
 ! D177  D(47,35,36,46)         64.3554         calculate D2E/DX2 analytically  !
 ! D178  D(36,35,42,34)         48.2171         calculate D2E/DX2 analytically  !
 ! D179  D(40,35,42,34)        -71.011          calculate D2E/DX2 analytically  !
 ! D180  D(47,35,42,34)        173.4986         calculate D2E/DX2 analytically  !
 ! D181  D(36,35,47,48)        -55.9623         calculate D2E/DX2 analytically  !
 ! D182  D(36,35,47,49)       -174.4466         calculate D2E/DX2 analytically  !
 ! D183  D(36,35,47,50)         64.6843         calculate D2E/DX2 analytically  !
 ! D184  D(40,35,47,48)         66.922          calculate D2E/DX2 analytically  !
 ! D185  D(40,35,47,49)        -51.5623         calculate D2E/DX2 analytically  !
 ! D186  D(40,35,47,50)       -172.4315         calculate D2E/DX2 analytically  !
 ! D187  D(42,35,47,48)       -178.8009         calculate D2E/DX2 analytically  !
 ! D188  D(42,35,47,49)         62.7148         calculate D2E/DX2 analytically  !
 ! D189  D(42,35,47,50)        -58.1544         calculate D2E/DX2 analytically  !
 ! D190  D(32,36,46,71)        102.9174         calculate D2E/DX2 analytically  !
 ! D191  D(35,36,46,71)       -136.9112         calculate D2E/DX2 analytically  !
 ! D192  D(41,36,46,71)        -18.3543         calculate D2E/DX2 analytically  !
 ! D193  D(33,44,63,64)        -63.4424         calculate D2E/DX2 analytically  !
 ! D194  D(33,44,63,65)         58.4333         calculate D2E/DX2 analytically  !
 ! D195  D(33,44,63,66)        177.478          calculate D2E/DX2 analytically  !
 ! D196  D(32,45,67,68)        -60.0255         calculate D2E/DX2 analytically  !
 ! D197  D(32,45,67,69)         61.6976         calculate D2E/DX2 analytically  !
 ! D198  D(32,45,67,70)       -178.6069         calculate D2E/DX2 analytically  !
 ! D199  D(36,46,71,72)        -58.041          calculate D2E/DX2 analytically  !
 ! D200  D(36,46,71,73)         64.1119         calculate D2E/DX2 analytically  !
 ! D201  D(36,46,71,74)       -177.3524         calculate D2E/DX2 analytically  !
 ! D202  D(35,47,50,75)       -174.45           calculate D2E/DX2 analytically  !
 ! D203  D(48,47,50,75)        -55.2775         calculate D2E/DX2 analytically  !
 ! D204  D(49,47,50,75)         65.0249         calculate D2E/DX2 analytically  !
 ! D205  D(47,50,75,76)       -178.6412         calculate D2E/DX2 analytically  !
 ! D206  D(47,50,75,77)        -59.2788         calculate D2E/DX2 analytically  !
 ! D207  D(47,50,75,78)         62.0229         calculate D2E/DX2 analytically  !
 ! D208  D(43,51,53,34)        -52.0708         calculate D2E/DX2 analytically  !
 ! D209  D(52,51,53,34)        176.3497         calculate D2E/DX2 analytically  !
 ! D210  D(54,51,53,34)         61.9484         calculate D2E/DX2 analytically  !
 ! D211  D(43,51,54,55)        -37.0045         calculate D2E/DX2 analytically  !
 ! D212  D(43,51,54,56)        144.9902         calculate D2E/DX2 analytically  !
 ! D213  D(52,51,54,55)         88.3423         calculate D2E/DX2 analytically  !
 ! D214  D(52,51,54,56)        -89.6629         calculate D2E/DX2 analytically  !
 ! D215  D(53,51,54,55)       -155.8207         calculate D2E/DX2 analytically  !
 ! D216  D(53,51,54,56)         26.1741         calculate D2E/DX2 analytically  !
 ! D217  D(51,54,55,57)       -177.2317         calculate D2E/DX2 analytically  !
 ! D218  D(51,54,55,58)          3.5022         calculate D2E/DX2 analytically  !
 ! D219  D(56,54,55,57)          0.7386         calculate D2E/DX2 analytically  !
 ! D220  D(56,54,55,58)       -178.5276         calculate D2E/DX2 analytically  !
 ! D221  D(51,54,56,59)        178.9552         calculate D2E/DX2 analytically  !
 ! D222  D(51,54,56,60)         -2.2367         calculate D2E/DX2 analytically  !
 ! D223  D(55,54,56,59)          0.9944         calculate D2E/DX2 analytically  !
 ! D224  D(55,54,56,60)        179.8025         calculate D2E/DX2 analytically  !
 ! D225  D(54,55,57,61)         -1.6789         calculate D2E/DX2 analytically  !
 ! D226  D(54,55,57,93)        175.7074         calculate D2E/DX2 analytically  !
 ! D227  D(58,55,57,61)        177.5833         calculate D2E/DX2 analytically  !
 ! D228  D(58,55,57,93)         -5.0304         calculate D2E/DX2 analytically  !
 ! D229  D(54,56,59,61)         -1.8184         calculate D2E/DX2 analytically  !
 ! D230  D(54,56,59,97)        175.5312         calculate D2E/DX2 analytically  !
 ! D231  D(60,56,59,61)        179.3886         calculate D2E/DX2 analytically  !
 ! D232  D(60,56,59,97)         -3.2618         calculate D2E/DX2 analytically  !
 ! D233  D(55,57,61,59)          0.8723         calculate D2E/DX2 analytically  !
 ! D234  D(55,57,61,62)       -179.3551         calculate D2E/DX2 analytically  !
 ! D235  D(93,57,61,59)       -176.5598         calculate D2E/DX2 analytically  !
 ! D236  D(93,57,61,62)          3.2128         calculate D2E/DX2 analytically  !
 ! D237  D(55,57,93,94)       -112.3948         calculate D2E/DX2 analytically  !
 ! D238  D(55,57,93,95)        129.1871         calculate D2E/DX2 analytically  !
 ! D239  D(55,57,93,96)          7.6049         calculate D2E/DX2 analytically  !
 ! D240  D(61,57,93,94)         65.0399         calculate D2E/DX2 analytically  !
 ! D241  D(61,57,93,95)        -53.3783         calculate D2E/DX2 analytically  !
 ! D242  D(61,57,93,96)       -174.9605         calculate D2E/DX2 analytically  !
 ! D243  D(56,59,61,57)          0.9024         calculate D2E/DX2 analytically  !
 ! D244  D(56,59,61,62)       -178.8706         calculate D2E/DX2 analytically  !
 ! D245  D(97,59,61,57)       -176.4318         calculate D2E/DX2 analytically  !
 ! D246  D(97,59,61,62)          3.7953         calculate D2E/DX2 analytically  !
 ! D247  D(56,59,97,98)        -89.8498         calculate D2E/DX2 analytically  !
 ! D248  D(56,59,97,99)        150.5607         calculate D2E/DX2 analytically  !
 ! D249  D(56,59,97,100)        29.486          calculate D2E/DX2 analytically  !
 ! D250  D(61,59,97,98)         87.5166         calculate D2E/DX2 analytically  !
 ! D251  D(61,59,97,99)        -32.0729         calculate D2E/DX2 analytically  !
 ! D252  D(61,59,97,100)      -153.1475         calculate D2E/DX2 analytically  !
 ! D253  D(44,63,64,18)         31.5507         calculate D2E/DX2 analytically  !
 ! D254  D(65,63,64,18)        -91.4901         calculate D2E/DX2 analytically  !
 ! D255  D(66,63,64,18)        148.9247         calculate D2E/DX2 analytically  !
 ! D256  D(19,83,84,85)          9.8609         calculate D2E/DX2 analytically  !
 ! D257  D(19,83,84,89)       -169.4787         calculate D2E/DX2 analytically  !
 ! D258  D(83,84,85,86)       -117.0126         calculate D2E/DX2 analytically  !
 ! D259  D(83,84,85,87)          1.9081         calculate D2E/DX2 analytically  !
 ! D260  D(83,84,85,88)        122.1069         calculate D2E/DX2 analytically  !
 ! D261  D(89,84,85,86)         62.4473         calculate D2E/DX2 analytically  !
 ! D262  D(89,84,85,87)       -178.632          calculate D2E/DX2 analytically  !
 ! D263  D(89,84,85,88)        -58.4332         calculate D2E/DX2 analytically  !
 ! D264  D(83,84,89,90)       -117.0758         calculate D2E/DX2 analytically  !
 ! D265  D(83,84,89,91)          2.7987         calculate D2E/DX2 analytically  !
 ! D266  D(83,84,89,92)        121.9437         calculate D2E/DX2 analytically  !
 ! D267  D(85,84,89,90)         63.564          calculate D2E/DX2 analytically  !
 ! D268  D(85,84,89,91)       -176.5615         calculate D2E/DX2 analytically  !
 ! D269  D(85,84,89,92)        -57.4166         calculate D2E/DX2 analytically  !
 ! D270  D(84,85,87,19)        -18.9244         calculate D2E/DX2 analytically  !
 ! D271  D(84,85,87,38)        -80.6311         calculate D2E/DX2 analytically  !
 ! D272  D(86,85,87,19)        100.0942         calculate D2E/DX2 analytically  !
 ! D273  D(86,85,87,38)         38.3875         calculate D2E/DX2 analytically  !
 ! D274  D(88,85,87,19)       -138.9569         calculate D2E/DX2 analytically  !
 ! D275  D(88,85,87,38)        159.3364         calculate D2E/DX2 analytically  !
 --------------------------------------------------------------------------------
 Trust Radius=1.00D-02 FncErr=1.00D-07 GrdErr=1.00D-06 EigMax=2.50D+02 EigMin=1.00D-04
 Number of steps in this run=    596 maximum allowed number of steps=    600.
 Search for a saddle point of order  1.
 Step   0 in ReCalcFC=30 IGetFC= 4 compute analytic Hessian.
 GradGradGradGradGradGradGradGradGradGradGradGradGradGradGradGradGradGrad

 Leave Link  103 at Thu May  9 22:43:09 2019, MaxMem=  6442450944 cpu:               3.6 elap:               0.2
 (Enter /home/ekwan/sw/g16/l202.exe)
 Stoichiometry    C30H47F6NaO15S
 Framework group  C1[X(C30H47F6NaO15S)]
 Deg. of freedom   294
 Full point group                 C1      NOp   1
 Largest Abelian subgroup         C1      NOp   1
 Largest concise Abelian subgroup C1      NOp   1
                         Standard orientation:                         
 ---------------------------------------------------------------------
 Center     Atomic      Atomic             Coordinates (Angstroms)
 Number     Number       Type             X           Y           Z
 ---------------------------------------------------------------------
      1          6           0        2.643384    2.120089   -0.665373
      2          6           0        3.771264    1.981740    0.357076
      3          6           0        3.347052    2.573426    1.700716
      4          6           0        1.033447    2.006149    1.384201
      5          6           0        1.264341    1.707925   -0.112634
      6          1           0        4.113137    2.416202    2.472121
      7          1           0        3.962552    0.914846    0.527507
      8          1           0        2.591161    3.174104   -0.969221
      9          1           0        0.665650    3.038323    1.465822
     10          1           0        1.168573    0.625855   -0.284032
     11          8           0        2.225972    1.860613    2.168888
     12          8           0        3.106979    3.944962    1.530652
     13          8           0        4.922141    2.604115   -0.189210
     14          8           0        2.879486    1.292820   -1.803234
     15          8           0        0.215808    2.386400   -0.820219
     16          6           0        0.028537    1.037161    2.045299
     17          1           0        0.087066    1.250327    3.134447
     18          1           0        0.495169    0.028861    1.934413
     19          8           0       -1.245178    1.091179    1.555181
     20          6           0        6.128499    2.298376    0.492742
     21          1           0        6.173245    2.766978    1.485190
     22          1           0        6.260571    1.214156    0.604989
     23          1           0        6.943087    2.696020   -0.117308
     24          6           0        3.676291    1.870773   -2.828267
     25          1           0        3.304794    2.870513   -3.097528
     26          1           0        4.723847    1.951081   -2.527304
     27          1           0        3.590137    1.212231   -3.694945
     28          6           0        0.110025    2.073920   -2.212942
     29          1           0        0.919404    2.530912   -2.789157
     30          1           0        0.104855    0.992650   -2.377506
     31          1           0       -0.841498    2.497622   -2.543900
     32          6           0       -4.130777   -1.448274    0.328837
     33          6           0       -2.786358   -1.192697    1.014915
     34          6           0       -1.726744   -0.711500    0.048158
     35          6           0       -3.293958   -0.113227   -1.637474
     36          6           0       -4.445064   -0.311240   -0.649025
     37          1           0       -0.690456   -0.701606    0.333286
     38          1           0       -2.916149   -0.345301    1.693026
     39          1           0       -4.093835   -2.392885   -0.226119
     40          1           0       -3.162025   -1.019849   -2.231487
     41          1           0       -4.597943    0.615818   -0.085012
     42          8           0       -2.039143    0.111440   -0.934266
     43          8           0       -0.498028   -1.449864   -2.961488
     44          8           0       -2.355261   -2.330820    1.733657
     45          8           0       -5.172699   -1.473690    1.293455
     46          8           0       -5.587166   -0.627493   -1.428523
     47          6           0       -3.462090    1.055596   -2.580091
     48          1           0       -4.411906    0.930254   -3.113391
     49          1           0       -2.642774    1.057935   -3.310257
     50          8           0       -3.460677    2.272416   -1.840579
     51         16           0       -0.500455   -2.555189   -1.981721
     52          8           0       -0.516305   -3.921275   -2.534106
     53          8           0       -1.605132   -2.412687   -0.923555
     54          6           0        1.006868   -2.373380   -1.019188
     55          6           0        2.169811   -1.943876   -1.655446
     56          6           0        1.002445   -2.702735    0.333969
     57          6           0        3.349477   -1.859631   -0.920690
     58          1           0        2.148840   -1.669534   -2.702074
     59          6           0        2.185280   -2.577620    1.063890
     60          1           0        0.084128   -3.031366    0.807098
     61          6           0        3.362869   -2.166203    0.441526
     62          1           0        4.282126   -2.088826    1.011017
     63          6           0       -1.759811   -2.029224    2.995452
     64          1           0       -0.841800   -1.442843    2.887618
     65          1           0       -2.459562   -1.477806    3.636860
     66          1           0       -1.518684   -2.989023    3.456314
     67          6           0       -5.496513   -2.774453    1.773785
     68          1           0       -5.825195   -3.425278    0.951483
     69          1           0       -4.644011   -3.239733    2.278504
     70          1           0       -6.319946   -2.648258    2.480865
     71          6           0       -6.776599    0.037728   -1.019295
     72          1           0       -7.016124   -0.188170    0.024860
     73          1           0       -6.686883    1.126117   -1.146581
     74          1           0       -7.576561   -0.329933   -1.666316
     75          6           0       -3.742535    3.400709   -2.663121
     76          1           0       -3.696856    4.284267   -2.023238
     77          1           0       -3.002605    3.495916   -3.468952
     78          1           0       -4.744128    3.318742   -3.103912
     79          6           0        2.840376    4.623448    2.753493
     80          1           0        2.733682    5.682295    2.509469
     81          1           0        1.918315    4.260401    3.222155
     82          1           0        3.671633    4.495056    3.461159
     83         11           0       -2.013713    2.448101    0.048863
     84          8           0       -4.040435    2.647909    1.253968
     85          6           0       -4.060545    2.083944    2.565541
     86          1           0       -4.797294    1.269650    2.618087
     87          1           0       -3.055519    1.691757    2.733277
     88          1           0       -4.313942    2.848458    3.313279
     89          6           0       -5.281398    3.233796    0.894839
     90          1           0       -5.521291    4.082399    1.550662
     91          1           0       -5.191044    3.579691   -0.135817
     92          1           0       -6.095340    2.498136    0.958236
     93          6           0        4.644340   -1.493132   -1.592988
     94          9           0        5.498036   -2.545158   -1.593805
     95          9           0        5.285427   -0.486942   -0.952601
     96          9           0        4.474228   -1.117430   -2.874376
     97          6           0        2.168434   -2.833163    2.546001
     98          9           0        1.902952   -1.699784    3.241646
     99          9           0        3.354646   -3.296162    2.991959
    100          9           0        1.219663   -3.730970    2.889837
 ---------------------------------------------------------------------
 Rotational constants (GHZ):           0.0713521           0.0413898           0.0369251
 Leave Link  202 at Thu May  9 22:43:09 2019, MaxMem=  6442450944 cpu:               4.4 elap:               0.2
 (Enter /home/ekwan/sw/g16/l301.exe)
 Standard basis: 6-31G(d) (6D, 7F)
 Ernie: Thresh=  0.10000D-02 Tol=  0.10000D-05 Strict=F.
 There are   897 symmetry adapted cartesian basis functions of A   symmetry.
 There are   897 symmetry adapted basis functions of A   symmetry.
   897 basis functions,  1720 primitive gaussians,   897 cartesian basis functions
   214 alpha electrons      214 beta electrons
       nuclear repulsion energy      9864.8025070329 Hartrees.
[...]
 5,0.00000392,0.00002272,-0.00001203,0.00000916,-0.00001200,0.00000495,
 -0.00000353,-0.00000145,-0.00000786,0.00002097,-0.00005496,0.00004906,
 -0.00095751,-0.00043682,-0.00054017,0.00020843,0.00036216,0.00024066,0
 .00034491,0.00003584,0.00006132,0.00122160,0.00015218,0.00015397,-0.00
 019815,-0.00003026,0.00013199,-0.00153849,-0.00079077,0.00289833,0.000
 17367,0.00006888,0.00030095,-0.00000318,-0.00000732,0.00000401,0.01446
 274,0.00495301,0.00707229,-0.00001461,0.00001418,0.00002077,0.00062190
 ,-0.00008091,-0.00029370,0.00023370,-0.00057047,0.00062570,-0.00031449
 ,-0.00036983,0.00003777,-0.00014825,0.00019648,-0.00007567,0.00009706,
 0.00004717,-0.00004249,0.00007127,0.00004401,-0.00004700,-0.00002324,-
 0.00006172,0.00001228,0.00000475,0.00001078,0.00000725,-0.00000967,-0.
 00000383,0.00000365,0.00000865,0.00000449,-0.00000550,-0.00004034,0.00
 002199,0.00001340,0.00000174,-0.00000296,-0.00000502,-0.00000639,-0.00
 000093,-0.00000977,0.00001007,-0.00000102,0.00000262,-0.00001455,0.000
 03441,-0.00002491,-0.00000080,-0.00000463,-0.00000060,-0.00000216,-0.0
 0000271,0.00000402,0.00000691,-0.00000246,0.00000576,0.00000851,0.0000
 4360,0.00005611,0.00000031,-0.00001553,-0.00000156,-0.00000564,0.00000
 676,-0.00000325,-0.00000340,0.00000180,-0.00001170,-0.00006608,0.00008
 857,-0.00004106,0.00004634,-0.00002522,0.00000629,-0.00000849,0.000002
 45,-0.00000867,0.00000372,0.00000213,0.00000368,-0.00002619,0.00001195
 ,0.00002925,0.00000882,-0.00001087,-0.00000142,-0.00003311,0.00002150,
 -0.00000901,0.00000576,-0.00000605,-0.00000348,0.00000174,-0.00000072,
 0.00000303,0.00000632,0.00000229,0.00000132,0.00073040,-0.00003090,-0.
 00031619,-0.00029905,0.00015211,0.00006616,-0.00020164,-0.00008044,0.0
 0002691,-0.00014086,-0.00003792,0.00018383,0.05307801,-0.09441088,0.03
 361261,0.05304434,-0.03779083,-0.00116953,-0.09614482,0.11386297,0.000
 01505,-0.00009105,-0.00010870,-0.00005339,-0.00015198,0.00004000,-0.00
 004827,-0.00006943,-0.00013261,-0.00008820,-0.00002225,-0.00007826,0.0
 0005182,-0.00031661,0.00000654,0.00003015,0.00002261,0.00003416,-0.000
 03368,-0.00001009,-0.00005886,0.00000730,0.00004778,-0.00000494,0.0000
 0002,0.00003535,0.00003034,0.00005029,0.00001864,0.00001968,0.00011136
 ,0.00005406,0.00010661,0.00001347,0.00009102,0.00010462,0.00015396,0.0
 0008440,0.00005180,0.00004526,0.00030501,-0.00005749,-0.00005440,0.000
 17237,-0.00002557,-0.00000488,-0.00013325,-0.00004931,0.00001586,0.000
 09182,0.00010422,-0.00003060,0.00001063,-0.00009108,0.00000626,0.00026
 827,0.00020466,-0.00010008,-0.00001482,-0.00006592,0.00001128,0.000021
 56,0.00002560,-0.00000780,-0.00000980,-0.00002078,0.00001564,0.0000022
 3,0.00000299,-0.00010207,-0.00007890,0.00015540,-0.00000120,0.00005157
 ,-0.00002201,0.00002169,-0.00000432,-0.00001326,0.00000678,-0.00001573
 ,0.00001790,0.00000257,-0.00008954,0.00001767,0.00001507,0.00001557,-0
 .00000325,-0.00000876,0.00000516,0.00000309,-0.00002014,0.00001078,-0.
 00000054,0.00014657,0.00001299,-0.00002850,0.00005760,0.00006141,-0.00
 005304,0.00037624,-0.00102817,-0.00039122,0.00021810,-0.00001520,0.000
 09573,0.00009096,-0.00001171,0.00001011,0.00000253,-0.00012044,-0.0000
 3853,-0.00002536,-0.00001356,0.00001475,0.00001348,0.00001594,0.000006
 57,0.00002367,-0.00000547,0.00001504,-0.00001971,0.00000034,0.00001350
 ,-0.00031129,0.00031292,-0.00015904,-0.00083700,0.00042517,-0.00089210
 ,-0.00016463,0.00003512,0.00023790,-0.00014588,-0.00005224,0.00009385,
 -0.00014820,0.00002033,-0.00001904,0.00000068,-0.00006658,0.00000980,-
 0.00001365,0.00002133,-0.00000550,0.00000125,-0.00000213,0.00002093,-0
 .00003320,0.00011802,-0.00004721,0.00340256,0.00057979,0.00112315,-0.0
 0085236,-0.00080536,-0.00058568,-0.00125542,0.00033323,0.00034221,-0.0
 0152690,-0.00118281,-0.00206205,-0.00062423,-0.00000451,-0.00074110,0.
 00365821,0.00360264,-0.00485623,-0.00030538,-0.00042224,-0.00018683,-0
 .00001001,0.00006237,0.00003242,-0.04091782,0.01576996,-0.01572875,0.0
 0008317,0.00035107,0.00043399,-0.00110296,0.00031679,-0.00102696,-0.00
 028025,0.00090874,-0.00178107,0.00000980,-0.00000421,-0.00019729,-0.00
 004901,-0.00001147,-0.00009153,-0.00006239,0.00001391,0.00003235,0.000
 02462,-0.00000414,-0.00001480,0.00002682,0.00007714,-0.00002890,0.0000
 0028,-0.00001336,-0.00000099,0.00001196,-0.00000137,-0.00000880,-0.000
 01725,-0.00000627,0.00000961,0.00007024,-0.00004341,-0.00002571,-0.000
 00513,0.00000358,0.00000952,0.00000697,0.00000573,0.00001146,-0.000014
 10,0.00000221,-0.00000261,0.00002392,-0.00005917,0.00003627,-0.0000004
 8,0.00001228,0.00000161,0.00000088,0.00000371,-0.00000603,-0.00000923,
 0.00000433,-0.00000920,-0.00000656,-0.00003065,-0.00007292,-0.00000147
 ,0.00000654,0.00000892,-0.00000797,0.00000068,0.00000196,0.00001363,0.
 00000381,0.00001377,0.00005817,-0.00012261,-0.00002524,-0.00002737,0.0
 0002616,0.00003080,-0.00000446,0.00000147,-0.00001878,0.00000105,-0.00
 000142,-0.00000384,0.00002345,-0.00001494,-0.00003213,-0.00001134,0.00
 001531,0.00000647,0.00001992,-0.00002231,0.00000105,-0.00000463,0.0000
 0808,0.00000575,0.00000021,-0.00000418,0.,-0.00000157,-0.00000184,-0.0
 0000369,-0.00210999,-0.00043016,0.00086435,0.00074537,-0.00022903,-0.0
 0020180,0.00064815,0.00040815,0.00000296,0.00042563,0.00019623,-0.0005
 0607,-0.06527248,0.03158397,-0.11601348,0.01575140,-0.01003173,0.01721
 179,0.08870885,-0.03600895,0.10960982,-0.00003899,0.00003494,-0.000000
 59,0.00002854,0.00016306,-0.00005742,-0.00001433,0.00015509,0.00001260
 ,-0.00010595,0.00004988,-0.00003678,-0.00006906,0.00012905,-0.00002689
 ,0.00001825,0.00000452,0.00001348,0.00002826,-0.00002881,0.00001146,0.
 00000651,-0.00002560,0.00001467,0.00002220,-0.00003381,0.00000245,-0.0
 0003424,-0.00001004,-0.00000063,0.00008249,-0.00013186,0.00002020,0.00
 003768,-0.00014392,-0.00003559,-0.00004902,-0.00010122,0.00002930,-0.0
 0000077,-0.00013002,0.00007728,0.00009628,-0.00006350,0.00005710,-0.00
 030178,0.00017616,-0.00002199,0.00001030,-0.00001140,-0.00000107,-0.00
 000540,-0.00013157,-0.00007220,0.00037045,0.00010352,0.00004132,0.0000
 1821,0.00005922,0.00000886,-0.00000021,0.00000038,-0.00000990,0.000011
 62,-0.00001610,-0.00000664,-0.00001091,-0.00001241,0.00000878,0.000044
 21,0.00004623,-0.00009108,0.00000266,-0.00003024,0.00001119,-0.0000048
 3,0.00000221,0.00000246,-0.00000561,0.00001022,-0.00000378,-0.00001004
 ,0.00000965,-0.00003180,-0.00000318,0.00000450,0.00000173,-0.00001091,
 -0.00000209,0.00000375,0.00001246,-0.00001038,0.00000760,0.00006673,0.
 00010093,-0.00004736,0.00018685,-0.00053511,0.00030857,-0.00020540,0.0
 0002298,0.00016524,-0.00003749,0.00000741,0.00003058,-0.00002161,-0.00
 006429,0.00006106,-0.00003433,-0.00001963,0.00004414,-0.00000785,0.000
 02443,-0.00002427,-0.00000117,-0.00000610,0.00001243,-0.00000723,-0.00
 000164,-0.00000045,-0.00000414,0.00000157,-0.00000108,0.00009575,0.000
 02855,-0.00009795,0.00033870,0.00001633,0.00014335,-0.00038855,0.00046
 720,-0.00047381,-0.00002636,0.00002960,-0.00003389,-0.00006069,0.00003
 614,-0.00005646,-0.00000247,-0.00002015,0.00000280,0.00000138,-0.00000
 003,0.00000318,0.00000203,0.00001003,-0.00001072,0.00001930,0.00002696
 ,-0.00001615,-0.00124854,-0.00037125,0.00007673,0.00029933,0.00025308,
 0.00009212,0.00049373,0.00001817,-0.00034760,0.00087032,0.00045407,0.0
 0090644,0.00014435,-0.00000352,0.00003279,-0.00327937,0.00098783,-0.00
 229281,-0.00064658,0.00044602,0.00028896,0.00015857,-0.00002304,-0.000
 05583,-0.00771843,-0.01611711,0.00828750,0.00203046,-0.00002874,-0.000
 25856,0.00208446,-0.00084801,0.00224346,0.00054646,0.00006234,-0.00064
 474,0.00009298,-0.00038211,0.00127102,-0.00035027,-0.00072778,0.000024
 08,-0.00054853,0.00022707,-0.00033315,0.00048180,0.00097913,-0.0005745
 6,0.00004957,-0.00003279,0.00004107,-0.00000509,-0.00000258,-0.0000094
 5,0.00000571,0.00002836,-0.00002690,-0.00001478,0.00000754,0.00000204,
 0.00002839,-0.00002140,-0.00000635,0.00000406,-0.00000101,0.00000073,0
 .00000191,0.00000755,0.00000411,-0.00000622,0.00000005,-0.00000104,-0.
 00000491,-0.00001204,0.00001060,-0.00000203,0.00000204,0.00000040,0.00
 000122,0.00000108,-0.00000589,0.00000183,0.00000151,-0.00000062,-0.000
 01847,0.00002973,0.00005054,0.00000198,-0.00001410,-0.00000298,0.00000
 213,0.00000470,-0.00000901,0.00000349,0.00000191,-0.00000710,-0.000056
 20,-0.00002502,0.00001246,0.00000049,0.00003456,-0.00002009,0.00000041
 ,-0.00002612,0.00001717,0.00001880,0.00000315,-0.00000018,-0.00001623,
 -0.00001328,0.00000437,-0.00000163,0.00000887,-0.00000046,0.00000554,-
 0.00001507,-0.00000025,-0.00000202,0.00000287,0.00000297,-0.00000226,0
 .00000097,-0.00000289,0.00000335,0.00000163,-0.00000049,0.00089860,0.0
 0024985,-0.00027796,-0.00026288,0.00009481,0.00008312,-0.00019010,-0.0
 0012799,0.00004789,-0.00023238,-0.00017246,0.00041608,-0.15444938,-0.0
 8196387,0.04841952,0.00724075,-0.02352139,-0.00653279,-0.07520387,-0.0
 2468171,0.00151296,0.22875114,-0.00000145,0.00003199,-0.00003700,0.000
 08675,0.00018434,-0.00008394,0.00014511,0.00029301,-0.00003268,0.00000
 303,0.00002583,-0.00008557,-0.00009313,0.00017436,-0.00008626,0.000001
 75,-0.00000288,0.00001124,0.00003810,-0.00004078,0.00001078,0.00000012
 ,-0.00003076,0.00002569,-0.00000574,-0.00009833,0.00003158,-0.00001909
 ,-0.00002202,-0.00002929,-0.00007494,-0.00029734,0.00007957,-0.0000018
 5,-0.00024782,-0.00003601,-0.00014929,-0.00011667,0.00004697,-0.000043
 65,-0.00014053,0.00015346,0.00009731,-0.00010507,0.00014715,-0.0007480
 9,0.00078020,0.00006293,0.00000941,-0.00004424,-0.00001737,0.00010749,
 -0.00032885,-0.00028425,0.00068498,-0.00012747,0.00021871,0.00006662,0
 .00003652,0.00003198,-0.00000256,0.00000336,-0.00001526,0.00001177,-0.
 00000809,-0.00000942,-0.00002020,-0.00001398,0.00001015,0.00007560,0.0
 0007256,-0.00013379,0.00000222,-0.00003701,0.00001440,-0.00001298,-0.0
 0000130,0.00000500,-0.00000906,0.00001144,0.00000406,-0.00001102,0.000
 01383,-0.00009336,-0.00001356,-0.00000306,0.00001312,-0.00000142,-0.00
 000177,0.00000355,0.00002020,-0.00000676,0.00001402,-0.00008410,-0.000
 01085,-0.00001181,0.00001745,-0.00014392,0.00011694,-0.00031228,0.0000
 0533,-0.00018455,-0.00015032,-0.00000037,-0.00006560,-0.00005128,-0.00
 001332,0.00001041,-0.00002826,0.00006190,-0.00002361,-0.00002125,0.000
 01602,-0.00001589,0.00000838,0.00000104,0.00001208,0.00000293,0.000004
 67,0.00000404,0.00000269,0.00000210,-0.00001010,0.00022354,-0.00008353
 ,0.00015909,0.00033894,-0.00002807,0.00033520,0.00011682,0.00026108,-0
 .00006536,0.00008972,0.00008933,-0.00006585,0.00006542,0.00001229,0.00
 000227,0.00000395,0.00000701,-0.00001008,0.00000958,-0.00001164,0.0000
 0703,-0.00000307,0.00000308,-0.00001179,0.00003029,-0.00003083,0.00003
 903,-0.00124140,-0.00053818,-0.00056491,0.00030539,0.00044645,0.000253
 52,0.00049438,0.00010411,-0.00003209,0.00009481,0.00014331,0.00069574,
 0.00033145,0.00005708,0.00016817,-0.00188424,0.00006532,-0.00125130,-0
 .00154892,-0.00023910,0.00005839,0.00006527,-0.00002143,-0.00001833,-0
 .01962724,-0.00773299,0.00945883,0.00072016,-0.00071225,0.00073540,0.0
 0240463,-0.00031659,0.00421687,0.00014615,0.00005707,-0.00024045,-0.00
 035211,-0.00089189,0.00035467,0.00002576,0.00016559,-0.00011668,0.0000
 4709,0.00014977,-0.00006973,0.00090375,0.00001038,-0.00039178,-0.00000
 007,-0.00009703,0.00003712,0.00000588,0.00001106,0.00000569,-0.0000105
 9,0.00000837,-0.00001160,0.00000109,0.00001007,-0.00000393,-0.00002428
 ,0.00000865,0.00001085,0.00000349,-0.00000374,-0.00000487,-0.00000407,
 0.00000349,-0.00000714,0.00000724,-0.00000140,0.00000229,-0.00001641,0
 .00002415,-0.00001703,-0.00000208,-0.00000273,-0.00000026,-0.00000145,
 -0.00000209,0.00000028,0.00000766,-0.00000142,0.00000492,-0.00000313,0
 .00005848,0.00008076,0.00000134,-0.00002334,-0.00000276,-0.00000465,0.
 00000951,-0.00000870,-0.00000026,0.00000297,-0.00001480,-0.00010083,0.
 00007548,-0.00004150,0.00004782,-0.00000658,-0.00000148,-0.00001066,-0
 .00001100,-0.00000161,0.00001256,0.00000410,0.00000370,-0.00003323,0.0
 0000604,0.00002977,0.00000764,-0.00000644,-0.00000108,-0.00003190,0.00
 001240,-0.00000953,0.00000461,-0.00000425,-0.00000147,0.00000074,-0.00
 000072,0.00000163,0.00000848,0.00000350,0.00000077,0.00127956,0.000039
 48,-0.00033143,-0.00040820,0.00020073,0.00011314,-0.00029533,-0.000147
 04,0.00004081,-0.00033284,-0.00017440,0.00054290,-0.07976615,-0.151182
 03,0.05101299,-0.03356334,-0.07062498,-0.00822032,-0.01309781,0.014774
 56,-0.00485086,0.14503264,0.21619548,0.00004321,-0.00009685,-0.0001032
 8,-0.00003886,-0.00019456,0.00005331,0.00002103,-0.00008934,-0.0001240
 3,-0.00000416,-0.00004355,-0.00005791,0.00006658,-0.00028754,0.0000042
 5,0.00001100,0.00001432,0.00002011,-0.00003674,0.00000269,-0.00005724,
 -0.00000039,0.00004971,-0.00000708,-0.00001472,0.00002659,0.00002982,0
 .00005627,0.00001678,0.00001063,0.00000876,0.00004528,0.00009538,-0.00
 001949,0.00011232,0.00010188,0.00011711,0.00011233,0.00003394,0.000015
 97,0.00031251,-0.00006533,-0.00008425,0.00015113,-0.00002799,-0.000013
 77,-0.00003155,-0.00004920,0.00001148,0.00007077,0.00008879,-0.0000058
 5,-0.00000754,-0.00007277,-0.00003057,0.00014226,0.00019906,-0.0000753
 7,-0.00004844,-0.00004939,0.00000842,0.00001830,0.00002382,-0.00001257
 ,0.00000324,-0.00001605,0.00001532,0.00000769,-0.00000185,-0.00009483,
 -0.00008089,0.00015655,-0.00000332,0.00005584,-0.00002171,0.00001592,-
 0.00000780,-0.00001108,0.00000935,-0.00001826,0.00002075,0.00000791,-0
 .00006911,0.00001742,0.00001143,0.00000707,-0.00000050,-0.00000033,0.0
 0000615,0.00000124,-0.00002009,0.00001220,-0.00000178,0.00008342,-0.00
 003275,-0.00000303,-0.00001546,0.00024267,-0.00014083,0.00036689,-0.00
 084097,-0.00039237,0.00016770,-0.00001116,0.00005525,0.00007298,0.0000
 1436,-0.00001739,0.00000284,-0.00010981,-0.00004702,-0.00001963,-0.000
 01732,0.00001625,0.00001268,0.00001514,0.00000151,0.00002039,-0.000004
 13,0.00001332,-0.00001246,-0.00000006,0.00000868,-0.00025840,0.0002199
 4,-0.00006133,-0.00062000,0.00022599,-0.00062394,0.00009298,-0.0001399
 3,0.00043129,-0.00009703,-0.00004824,0.00008636,-0.00008286,0.00000197
 ,0.00001001,0.00000134,-0.00004149,0.00000498,-0.00000990,0.00001539,-
 0.00000519,-0.00000025,-0.00000497,0.00001902,-0.00003140,0.00007387,-
 0.00002306,0.00255479,0.00047894,0.00120715,-0.00062619,-0.00052929,-0
 .00044132,-0.00111746,0.00028071,0.00029871,0.00050802,-0.00005749,0.0
 0005463,0.00055545,0.00022563,-0.00065879,0.00024667,0.00097869,-0.001
 46563,0.00209068,-0.00039511,-0.00173696,0.00002765,0.00004075,0.00001
 458,0.03198027,0.02945802,-0.01148959,0.00051037,0.00107691,-0.0019880
 4,-0.00455038,0.00169382,-0.00514896,0.00000604,0.00030616,0.00038990,
 -0.00006210,0.00022381,-0.00063437,-0.00002810,0.00022184,-0.00006162,
 0.00012887,-0.00007628,0.00011650,-0.00039382,-0.00031037,0.00022205,-
 0.00000049,0.00006869,-0.00003984,0.00000345,-0.00000842,0.00000479,0.
 00000825,-0.00001249,0.00000208,-0.00000843,-0.00000709,0.00000614,0.0
 0004030,-0.00002352,-0.00001715,-0.00000549,0.00000277,0.00000689,0.00
 000338,0.00000173,0.00000589,-0.00000744,0.00000172,-0.00000126,0.0000
 1907,-0.00003676,0.00002024,0.00000042,0.00000819,0.00000097,-0.000000
 25,0.00000218,-0.00000153,-0.00000711,0.00000236,-0.00000624,0.0000082
 5,-0.00003119,-0.00007414,-0.00000248,0.00000958,0.00000860,-0.0000094
 6,-0.00000025,0.00000579,0.00000819,0.00000232,0.00001226,0.00005710,-
 0.00007216,-0.00003569,-0.00001395,0.00000193,0.00003729,-0.00000565,0
 .00001346,-0.00002581,-0.00000590,-0.00000235,-0.00000274,0.00002073,-
 0.00000541,-0.00002405,-0.00000738,0.00000769,0.00000536,0.00000786,-0
 .00000796,-0.00000070,-0.00000183,0.00000444,0.00000280,0.00000152,-0.
 00000418,0.00000201,-0.00000148,-0.00000194,-0.00000273,-0.00251019,-0
 .00063620,0.00043312,0.00081819,-0.00026180,-0.00015817,0.00063725,0.0
 0041450,0.00002332,0.00058165,0.00036705,-0.00081002,0.04140578,0.0450
 9660,-0.10490533,-0.01213821,-0.01915753,0.01520659,-0.00799022,-0.007
 32773,0.01536553,-0.05237447,-0.05177520,0.09675524\\0.00000090,-0.000
 00215,-0.00000094,0.00000009,-0.00000052,0.00000009,-0.00000065,0.0000
 0197,-0.00000131,-0.00000054,0.00000205,-0.00000181,0.00000050,-0.0000
 0075,-0.00000115,-0.00000119,0.00000340,-0.00000051,-0.00000017,-0.000
 00020,0.00000220,0.00000136,-0.00000272,-0.00000296,-0.00000036,0.0000
 0222,-0.00000406,0.00000029,-0.00000113,0.00000080,-0.00000099,0.00000
 330,-0.00000078,-0.00000015,0.00000186,-0.00000408,0.00000067,-0.00000
 180,-0.00000029,0.00000149,-0.00000433,0.00000078,0.00000112,-0.000001
 88,-0.00000315,-0.00000153,0.00000359,-0.00000080,-0.00000187,0.000005
 51,-0.00000111,-0.00000129,0.00000315,0.00000145,-0.00000071,0.0000029
 1,-0.00000164,0.00000018,-0.00000079,0.00000112,-0.00000042,0.00000105
 ,0.00000027,-0.00000017,-0.00000060,0.00000323,0.00000067,-0.00000211,
 0.00000093,0.00000234,-0.00000644,0.00000022,0.00000277,-0.00000684,-0
 .00000191,0.00000216,-0.00000609,0.00000078,0.00000280,-0.00000801,0.0
 0000139,0.00000197,-0.00000443,-0.00000264,0.00000246,-0.00000573,-0.0
 0000291,0.00000184,-0.00000474,-0.00000061,0.00000232,-0.00000486,-0.0
 0000402,-0.00000058,0.00000124,0.00000099,-0.00000100,0.00000233,0.000
 00145,-0.00000048,0.00000042,0.00000118,0.00000110,-0.00000262,-0.0000
 0084,0.00000037,-0.00000048,-0.00000135,-0.00000028,0.00000044,0.00000
 206,-0.00000124,0.00000345,-0.00000023,-0.00000042,0.00000020,0.000002
 79,0.00000126,-0.00000374,0.00000088,0.00000029,0.00000056,-0.00000337
 ,0.00000069,-0.00000173,-0.00000035,0.00000166,-0.00000562,0.00000354,
 -0.00000176,0.00000345,0.00000389,-0.00000131,0.00000328,0.00000041,0.
 00000082,-0.00000170,-0.00000151,0.00000200,-0.00000431,-0.00000319,0.
 00000233,-0.00000511,-0.00000361,0.00000249,-0.00000588,-0.00000263,0.
 00000174,-0.00000307,-0.00000541,0.00000068,-0.00000373,0.00000512,0.0
 0000085,-0.00000517,0.00000810,-0.00000018,-0.00000167,0.00000485,0.00
 000016,-0.00000243,0.00000614,0.00000121,-0.00000377,0.00000629,-0.000
 00100,-0.00000002,0.00000716,0.00000021,-0.00000283,0.00000706,0.00000
 139,-0.00000584,0.00000576,-0.00000101,0.00000123,0.00000759,-0.000001
 45,0.00000113,0.00000694,-0.00000083,-0.00000017,0.00000720,-0.0000012
 6,0.00000059,0.00000805,-0.00000258,0.00000575,0.00000398,-0.00000235,
 0.00000525,0.00000317,-0.00000286,0.00000702,0.00000221,-0.00000311,0.
 00000646,0.00000570,-0.00000188,0.00000431,0.00000254,-0.00000147,0.00
 000280,0.00000354,-0.00000233,0.00000501,0.00000402,-0.00000235,0.0000
 0577,0.00000176,0.00000066,-0.00000066,-0.00000357,-0.00000009,0.00000
 135,-0.00000332,0.00000084,-0.00000071,-0.00000542,0.00000105,-0.00000
 168,-0.00000344,0.00000262,-0.00000441,-0.00000775,0.00000235,-0.00000
 323,-0.00000937,0.00000315,-0.00000609,-0.00000741,0.00000286,-0.00000
 501,-0.00000830,-0.00000091,0.00000422,-0.00000543,-0.00000046,0.00000
 375,-0.00000755,-0.00000126,0.00000527,-0.00000547,-0.00000139,0.00000
 531,-0.00000470,0.00000051,0.00000022,-0.00000479,-0.00000032,0.000002
 96,-0.00000653,-0.00000125,0.00000544,-0.00000560,-0.00000157,0.000005
 68,-0.00000449,-0.00000158,0.00000551,-0.00000411,-0.00000168,0.000006
 86,-0.00000710,0.00000021,0.00000251,-0.00000840,-0.00000019,0.0000038
 5,-0.00001027,0.00000086,0.00000062,-0.00000911,-0.00000015,0.00000288
 ,-0.00000770,0.00000051,-0.00000430,0.00000711,0.00000046,-0.00000448,
 0.00000972,0.00000048,-0.00000337,0.00000568,0.00000174,-0.00000673,0.
 00000652,-0.00000235,0.00000410,0.00000820,-0.00000267,0.00000523,0.00
 000557,-0.00000291,0.00000452,0.00000957,-0.00000296,0.00000472,0.0000
 0899\\\@


 WHERE THERE IS MUCH DESIRE TO LEARN, THERE OF NECESSITY WILL BE
 MUCH ARGUING, MUCH WRITING, MANY OPINIONS; FOR OPINION IN GOOD MEN
 IS BUT KNOWLEDGE IN THE MAKING. -- JOHN MILTON.
 Job cpu time:       5 days  0 hours 35 minutes 52.2 seconds.
 Elapsed time:       0 days  3 hours 55 minutes 35.0 seconds.
 File lengths (MBytes):  RWF=   9688 Int=      0 D2E=      0 Chk=    106 Scr=      1
 Normal termination of Gaussian 16 at Fri May 10 06:49:14 2019.
