 Entering Gaussian System, Link 0=g16
 Input=clay_new-glu_gluC6-CDUR-Na_1Me2O-bisCF3-ts-b3lyp_d3bj-631gd-pcm_thf.gjf
 Output=clay_new-glu_gluC6-CDUR-Na_1Me2O-bisCF3-ts-b3lyp_d3bj-631gd-pcm_thf.out
 Initial command:
 /home/ekwan/sw/g16/l1.exe "/scratch/users/ekwan/clay_new-glu_gluC6-CDUR-Na_1Me2O-bisCF3-ts-b3lyp_d3bj-631gd-pcm_thf/Gau-61834.inp" -scrdir="/scratch/users/ekwan/clay_new-glu_gluC6-CDUR-Na_1Me2O-bisCF3-ts-b3lyp_d3bj-631gd-pcm_thf/"
 Entering Link 1 = /home/ekwan/sw/g16/l1.exe PID=     61835.
  
 Copyright (c) 1988,1990,1992,1993,1995,1998,2003,2009,2016,
            Gaussian, Inc.  All Rights Reserved.
  
 This is part of the Gaussian(R) 16 program.  It is based on
 the Gaussian(R) 09 system (copyright 2009, Gaussian, Inc.),
 the Gaussian(R) 03 system (copyright 2003, Gaussian, Inc.),
 the Gaussian(R) 98 system (copyright 1998, Gaussian, Inc.),
 the Gaussian(R) 94 system (copyright 1995, Gaussian, Inc.),
 the Gaussian 92(TM) system (copyright 1992, Gaussian, Inc.),
 the Gaussian 90(TM) system (copyright 1990, Gaussian, Inc.),
 the Gaussian 88(TM) system (copyright 1988, Gaussian, Inc.),
 the Gaussian 86(TM) system (copyright 1986, Carnegie Mellon
 University), and the Gaussian 82(TM) system (copyright 1983,
 Carnegie Mellon University). Gaussian is a federally registered
 trademark of Gaussian, Inc.
  
 This software contains proprietary and confidential information,
 including trade secrets, belonging to Gaussian, Inc.
  
 This software is provided under written license and may be
 used, copied, transmitted, or stored only in accord with that
 written license.
  
 The following legend is applicable only to US Government
 contracts under FAR:
  
                    RESTRICTED RIGHTS LEGEND
  
 Use, reproduction and disclosure by the US Government is
 subject to restrictions as set forth in subparagraphs (a)
 and (c) of the Commercial Computer Software - Restricted
 Rights clause in FAR 52.227-19.
  
 Gaussian, Inc.
 340 Quinnipiac St., Bldg. 40, Wallingford CT 06492
  
  
 ---------------------------------------------------------------
 Warning -- This program may not be used in any manner that
 competes with the business of Gaussian, Inc. or will provide
 assistance to any competitor of Gaussian, Inc.  The licensee
 of this program is prohibited from giving any competitor of
 Gaussian, Inc. access to this program.  By using this program,
 the user acknowledges that Gaussian, Inc. is engaged in the
 business of creating and licensing software in the field of
 computational chemistry and represents and warrants to the
 licensee that it is not a competitor of Gaussian, Inc. and that
 it will not use this program in any manner prohibited above.
 ---------------------------------------------------------------
  

 Cite this work as:
 Gaussian 16, Revision A.03,
 M. J. Frisch, G. W. Trucks, H. B. Schlegel, G. E. Scuseria, 
 M. A. Robb, J. R. Cheeseman, G. Scalmani, V. Barone, 
 G. A. Petersson, H. Nakatsuji, X. Li, M. Caricato, A. V. Marenich, 
 J. Bloino, B. G. Janesko, R. Gomperts, B. Mennucci, H. P. Hratchian, 
 J. V. Ortiz, A. F. Izmaylov, J. L. Sonnenberg, D. Williams-Young, 
 F. Ding, F. Lipparini, F. Egidi, J. Goings, B. Peng, A. Petrone, 
 T. Henderson, D. Ranasinghe, V. G. Zakrzewski, J. Gao, N. Rega, 
 G. Zheng, W. Liang, M. Hada, M. Ehara, K. Toyota, R. Fukuda, 
 J. Hasegawa, M. Ishida, T. Nakajima, Y. Honda, O. Kitao, H. Nakai, 
 T. Vreven, K. Throssell, J. A. Montgomery, Jr., J. E. Peralta, 
 F. Ogliaro, M. J. Bearpark, J. J. Heyd, E. N. Brothers, K. N. Kudin, 
 V. N. Staroverov, T. A. Keith, R. Kobayashi, J. Normand, 
 K. Raghavachari, A. P. Rendell, J. C. Burant, S. S. Iyengar, 
 J. Tomasi, M. Cossi, J. M. Millam, M. Klene, C. Adamo, R. Cammi, 
 J. W. Ochterski, R. L. Martin, K. Morokuma, O. Farkas, 
 J. B. Foresman, and D. J. Fox, Gaussian, Inc., Wallingford CT, 2016.
 
 ******************************************
 Gaussian 16:  AS64L-G16RevA.03 25-Dec-2016
                 9-May-2019 
 ******************************************
 %mem=48GB
 %nprocshared=32
 Will use up to   32 processors via shared memory.
 ----------------------------------------------------------------------
 #p opt=(ts,noeigentest,calcfc,maxstep=3,modredundant,recalc=30) freq=n
 oraman b3lyp 6-31g* pop=none scrf=(solvent=tetrahydrofuran,pcm) empiri
 caldispersion=gd3bj
 ----------------------------------------------------------------------
 1/5=1,8=3,10=4,11=1,18=120,26=3,38=1,71=30/1,3;
 2/9=110,12=2,17=6,18=5,40=1/2;
 3/5=1,6=6,7=1,11=2,25=1,30=1,70=2201,71=2,72=20,74=-5,124=41,140=1/1,2,3;
 4//1;
 5/5=2,38=5,53=20/2;
 8/6=4,10=90,11=11/1;
 11/6=1,8=1,9=11,15=111,16=1/1,2,10;
 10/6=1,13=1/2;
 7/10=1,18=20,25=1/1,2,3,16;
 1/5=1,8=3,10=4,11=1,18=20,26=3,71=30/3(2);
 2/9=110/2;
 99//99;
 2/9=110/2;
 3/5=1,6=6,7=1,11=2,25=1,30=1,70=2205,71=1,72=20,74=-5,124=41/1,2,3;
 4/5=5,16=3,69=1/1;
 5/5=2,38=5,53=20/2;
 7//1,2,3,16;
 1/5=1,8=3,11=1,18=20,26=3,71=30/3(-5);
 2/9=110/2;
 99/9=1/99;
 Leave Link    1 at Thu May  9 08:24:01 2019, MaxMem=  6442450944 cpu:               5.9 elap:               0.2
 (Enter /home/ekwan/sw/g16/l101.exe)
 -----
 title
 -----
 Symbolic Z-matrix:
 Charge =  0 Multiplicity = 1
 C                     3.66739  -2.10889  -0.57215 
 C                     3.33046  -2.98759   0.63255 
 C                     2.03351  -2.48548   1.27605 
 C                     1.11529  -1.8344   -0.86257 
 C                     2.47994  -2.03276  -1.53904 
 H                     1.7259   -3.10699   2.12861 
 H                     3.15522  -4.01713   0.28589 
 H                     3.89738  -1.10378  -0.21255 
 H                     1.02283  -0.77371  -0.59903 
 H                     2.46454  -2.97574  -2.10936 
 O                     0.96562  -2.61248   0.3496 
 O                     2.25546  -1.16886   1.69363 
 O                     4.42212  -2.95637   1.53426 
 O                     4.77582  -2.64504  -1.29025 
 O                     2.58929  -0.93179  -2.433 
 C                    -0.03833  -2.25148  -1.79608 
 H                     0.17274  -3.30431  -2.09019 
 H                     0.11341  -1.65285  -2.72103 
 O                    -1.28658  -2.09985  -1.24964 
 C                     4.4733   -4.06577   2.41688 
 H                     3.61639  -4.09187   3.10446 
 H                     4.50716  -5.01459   1.862 
 H                     5.38884  -3.96021   3.00327 
 C                     6.02642  -2.05067  -0.96313 
 H                     6.01245  -0.97015  -1.15781 
 H                     6.28907  -2.22149   0.08579 
 H                     6.77307  -2.52037  -1.60926 
 C                     3.42986  -1.12217  -3.56045 
 H                     4.49035  -1.10685  -3.29126 
 H                     3.20772  -2.07418  -4.06268 
 H                     3.21564  -0.29777  -4.24572 
 C                    -4.32924   0.47152  -0.90377 
 C                    -3.18058  -0.11464  -1.72559 
 C                    -1.81781   0.20995  -1.13623 
 C                    -2.70556   0.79664   0.99863 
 C                    -4.07286   0.24592   0.58585 
 H                    -0.92503   0.05306  -1.71084 
 H                    -3.24092  -1.20428  -1.6554 
 H                    -4.4104    1.54899  -1.09413 
 H                    -2.7005    1.88002   0.84814 
 H                    -4.10706  -0.82922   0.79472 
 O                    -1.63745   0.24582   0.18012 
 O                    -1.85538   2.11709  -1.4894 
 O                    -3.30479   0.29002  -3.06771 
 O                    -5.5498   -0.18405  -1.21481 
 O                    -5.02825   0.94655   1.36694 
 C                    -2.34447   0.50543   2.4383 
 H                    -3.14468   0.90892   3.06971 
 H                    -1.40464   1.00307   2.70502 
 O                    -2.225    -0.90147   2.62472 
 S                    -0.57559   2.62184  -2.1793 
 O                    -0.73909   4.0354   -2.55509 
 O                    -0.09743   1.69361  -3.22281 
 C                     0.65143   2.55624  -0.86411 
 C                     0.30504   3.00707   0.40695 
 C                     1.94246   2.1144   -1.14726 
 C                     1.27111   3.01421   1.41225 
 H                    -0.70277   3.3498    0.60819 
 C                     2.90236   2.14939  -0.13592 
 H                     2.18222   1.73315  -2.13087 
 C                     2.57309   2.59265   1.14515 
 H                     3.32465   2.61374   1.92572 
 C                    -2.57783  -0.51944  -3.99068 
 H                    -1.49966  -0.34457  -3.91391 
 H                    -2.7854   -1.58467  -3.83008 
 H                    -2.91541  -0.22318  -4.98634 
 C                    -6.31064   0.43819  -2.24517 
 H                    -6.55919   1.4746   -1.97649 
 H                    -5.77264   0.43429  -3.19775 
 H                    -7.23456  -0.13777  -2.33858 
 C                    -6.0444    0.12127   1.92373 
 H                    -6.5963   -0.40772   1.13989 
 H                    -5.62016  -0.6083    2.62815 
 H                    -6.72273   0.78495   2.46513 
 C                    -2.14192  -1.25877   4.00067 
 H                    -2.00599  -2.34156   4.04197 
 H                    -1.29046  -0.76615   4.48763 
 H                    -3.06479  -0.98563   4.52793 
 C                     1.14675  -0.57077   2.34882 
 H                     1.52443   0.286     2.90564 
 H                     0.39937  -0.22238   1.62886 
 H                     0.67451  -1.27453   3.0486 
 Na                   -1.39502  -2.34912   0.92415 
 O                    -3.53927  -3.25504   0.82102 
 C                    -3.98588  -3.63014  -0.48337 
 H                    -4.85312  -3.02234  -0.77623 
 H                    -3.14785  -3.43163  -1.15441 
 H                    -4.26188  -4.69337  -0.50704 
 C                    -4.51593  -3.49208   1.82271 
 H                    -4.73716  -4.5648    1.91054 
 H                    -4.10979  -3.12355   2.7665 
 H                    -5.44758  -2.95624   1.59598 
 C                     4.33568   1.78893  -0.41793 
 F                     4.83821   0.96931   0.53778 
 F                     5.12094   2.89102  -0.42894 
 F                     4.49507   1.17153  -1.60448 
 C                     0.89282   3.44029   2.80307 
 F                    -0.09879   4.35227   2.80026 
 F                     1.9365    3.96218   3.47583 
 F                     0.44437   2.38521   3.54355 
 
 Add virtual bond connecting atoms O43        and C34        Dist= 3.67D+00.
 Add virtual bond connecting atoms H37        and H18        Dist= 4.23D+00.
 Add virtual bond connecting atoms H37        and O19        Dist= 4.22D+00.
 Add virtual bond connecting atoms H38        and O19        Dist= 4.13D+00.
 Add virtual bond connecting atoms O84        and Na83       Dist= 4.40D+00.
 Add virtual bond connecting atoms H87        and O19        Dist= 4.33D+00.
 Add virtual bond connecting atoms H87        and H38        Dist= 4.32D+00.
 The following ModRedundant input section has been read:
 
 ITRead=  0  0  0  0  0  0  0  0  0  0  0  0  0  0  0  0  0  0  0  0
 ITRead=  0  0  0  0  0  0  0  0  0  0  0  0  0  0  0  0  0  0  0  0
 ITRead=  0  0  0  0  0  0  0  0  0  0  0  0  0  0  0  0  0  0  0  0
 ITRead=  0  0  0  0  0  0  0  0  0  0  0  0  0  0  0  0  0  0  0  0
 ITRead=  0  0  0  0  0  0  0  0  0  0  0  0  0  0  0  0  0  0  0  0
 MicOpt= -1 -1 -1 -1 -1 -1 -1 -1 -1 -1 -1 -1 -1 -1 -1 -1 -1 -1 -1 -1
 MicOpt= -1 -1 -1 -1 -1 -1 -1 -1 -1 -1 -1 -1 -1 -1 -1 -1 -1 -1 -1 -1
 MicOpt= -1 -1 -1 -1 -1 -1 -1 -1 -1 -1 -1 -1 -1 -1 -1 -1 -1 -1 -1 -1
 MicOpt= -1 -1 -1 -1 -1 -1 -1 -1 -1 -1 -1 -1 -1 -1 -1 -1 -1 -1 -1 -1
 MicOpt= -1 -1 -1 -1 -1 -1 -1 -1 -1 -1 -1 -1 -1 -1 -1 -1 -1 -1 -1 -1
 NAtoms=    100 NQM=      100 NQMF=       0 NMMI=      0 NMMIF=      0
                NMic=       0 NMicF=      0.
                    Isotopes and Nuclear Properties:
 (Nuclear quadrupole moments (NQMom) in fm**2, nuclear magnetic moments (NMagM)
  in nuclear magnetons)

  Atom         1           2           3           4           5           6           7           8           9          10
 IAtWgt=          12          12          12          12          12           1           1           1           1           1
 AtmWgt=  12.0000000  12.0000000  12.0000000  12.0000000  12.0000000   1.0078250   1.0078250   1.0078250   1.0078250   1.0078250
 NucSpn=           0           0           0           0           0           1           1           1           1           1
 AtZEff=   0.0000000   0.0000000   0.0000000   0.0000000   0.0000000   0.0000000   0.0000000   0.0000000   0.0000000   0.0000000
 NQMom=    0.0000000   0.0000000   0.0000000   0.0000000   0.0000000   0.0000000   0.0000000   0.0000000   0.0000000   0.0000000
 NMagM=    0.0000000   0.0000000   0.0000000   0.0000000   0.0000000   2.7928460   2.7928460   2.7928460   2.7928460   2.7928460
 AtZNuc=   6.0000000   6.0000000   6.0000000   6.0000000   6.0000000   1.0000000   1.0000000   1.0000000   1.0000000   1.0000000

  Atom        11          12          13          14          15          16          17          18          19          20
 IAtWgt=          16          16          16          16          16          12           1           1          16          12
 AtmWgt=  15.9949146  15.9949146  15.9949146  15.9949146  15.9949146  12.0000000   1.0078250   1.0078250  15.9949146  12.0000000
 NucSpn=           0           0           0           0           0           0           1           1           0           0
 AtZEff=   0.0000000   0.0000000   0.0000000   0.0000000   0.0000000   0.0000000   0.0000000   0.0000000   0.0000000   0.0000000
 NQMom=    0.0000000   0.0000000   0.0000000   0.0000000   0.0000000   0.0000000   0.0000000   0.0000000   0.0000000   0.0000000
 NMagM=    0.0000000   0.0000000   0.0000000   0.0000000   0.0000000   0.0000000   2.7928460   2.7928460   0.0000000   0.0000000
 AtZNuc=   8.0000000   8.0000000   8.0000000   8.0000000   8.0000000   6.0000000   1.0000000   1.0000000   8.0000000   6.0000000

  Atom        21          22          23          24          25          26          27          28          29          30
 IAtWgt=           1           1           1          12           1           1           1          12           1           1
 AtmWgt=   1.0078250   1.0078250   1.0078250  12.0000000   1.0078250   1.0078250   1.0078250  12.0000000   1.0078250   1.0078250
 NucSpn=           1           1           1           0           1           1           1           0           1           1
 AtZEff=   0.0000000   0.0000000   0.0000000   0.0000000   0.0000000   0.0000000   0.0000000   0.0000000   0.0000000   0.0000000
 NQMom=    0.0000000   0.0000000   0.0000000   0.0000000   0.0000000   0.0000000   0.0000000   0.0000000   0.0000000   0.0000000
 NMagM=    2.7928460   2.7928460   2.7928460   0.0000000   2.7928460   2.7928460   2.7928460   0.0000000   2.7928460   2.7928460
 AtZNuc=   1.0000000   1.0000000   1.0000000   6.0000000   1.0000000   1.0000000   1.0000000   6.0000000   1.0000000   1.0000000

  Atom        31          32          33          34          35          36          37          38          39          40
 IAtWgt=           1          12          12          12          12          12           1           1           1           1
 AtmWgt=   1.0078250  12.0000000  12.0000000  12.0000000  12.0000000  12.0000000   1.0078250   1.0078250   1.0078250   1.0078250
 NucSpn=           1           0           0           0           0           0           1           1           1           1
 AtZEff=   0.0000000   0.0000000   0.0000000   0.0000000   0.0000000   0.0000000   0.0000000   0.0000000   0.0000000   0.0000000
 NQMom=    0.0000000   0.0000000   0.0000000   0.0000000   0.0000000   0.0000000   0.0000000   0.0000000   0.0000000   0.0000000
 NMagM=    2.7928460   0.0000000   0.0000000   0.0000000   0.0000000   0.0000000   2.7928460   2.7928460   2.7928460   2.7928460
 AtZNuc=   1.0000000   6.0000000   6.0000000   6.0000000   6.0000000   6.0000000   1.0000000   1.0000000   1.0000000   1.0000000

  Atom        41          42          43          44          45          46          47          48          49          50
 IAtWgt=           1          16          16          16          16          16          12           1           1          16
 AtmWgt=   1.0078250  15.9949146  15.9949146  15.9949146  15.9949146  15.9949146  12.0000000   1.0078250   1.0078250  15.9949146
 NucSpn=           1           0           0           0           0           0           0           1           1           0
 AtZEff=   0.0000000   0.0000000   0.0000000   0.0000000   0.0000000   0.0000000   0.0000000   0.0000000   0.0000000   0.0000000
 NQMom=    0.0000000   0.0000000   0.0000000   0.0000000   0.0000000   0.0000000   0.0000000   0.0000000   0.0000000   0.0000000
 NMagM=    2.7928460   0.0000000   0.0000000   0.0000000   0.0000000   0.0000000   0.0000000   2.7928460   2.7928460   0.0000000
 AtZNuc=   1.0000000   8.0000000   8.0000000   8.0000000   8.0000000   8.0000000   6.0000000   1.0000000   1.0000000   8.0000000

  Atom        51          52          53          54          55          56          57          58          59          60
 IAtWgt=          32          16          16          12          12          12          12           1          12           1
 AtmWgt=  31.9720718  15.9949146  15.9949146  12.0000000  12.0000000  12.0000000  12.0000000   1.0078250  12.0000000   1.0078250
 NucSpn=           0           0           0           0           0           0           0           1           0           1
 AtZEff=   0.0000000   0.0000000   0.0000000   0.0000000   0.0000000   0.0000000   0.0000000   0.0000000   0.0000000   0.0000000
 NQMom=    0.0000000   0.0000000   0.0000000   0.0000000   0.0000000   0.0000000   0.0000000   0.0000000   0.0000000   0.0000000
 NMagM=    0.0000000   0.0000000   0.0000000   0.0000000   0.0000000   0.0000000   0.0000000   2.7928460   0.0000000   2.7928460
 AtZNuc=  16.0000000   8.0000000   8.0000000   6.0000000   6.0000000   6.0000000   6.0000000   1.0000000   6.0000000   1.0000000

  Atom        61          62          63          64          65          66          67          68          69          70
 IAtWgt=          12           1          12           1           1           1          12           1           1           1
 AtmWgt=  12.0000000   1.0078250  12.0000000   1.0078250   1.0078250   1.0078250  12.0000000   1.0078250   1.0078250   1.0078250
 NucSpn=           0           1           0           1           1           1           0           1           1           1
 AtZEff=   0.0000000   0.0000000   0.0000000   0.0000000   0.0000000   0.0000000   0.0000000   0.0000000   0.0000000   0.0000000
 NQMom=    0.0000000   0.0000000   0.0000000   0.0000000   0.0000000   0.0000000   0.0000000   0.0000000   0.0000000   0.0000000
 NMagM=    0.0000000   2.7928460   0.0000000   2.7928460   2.7928460   2.7928460   0.0000000   2.7928460   2.7928460   2.7928460
 AtZNuc=   6.0000000   1.0000000   6.0000000   1.0000000   1.0000000   1.0000000   6.0000000   1.0000000   1.0000000   1.0000000

  Atom        71          72          73          74          75          76          77          78          79          80
 IAtWgt=          12           1           1           1          12           1           1           1          12           1
 AtmWgt=  12.0000000   1.0078250   1.0078250   1.0078250  12.0000000   1.0078250   1.0078250   1.0078250  12.0000000   1.0078250
 NucSpn=           0           1           1           1           0           1           1           1           0           1
 AtZEff=   0.0000000   0.0000000   0.0000000   0.0000000   0.0000000   0.0000000   0.0000000   0.0000000   0.0000000   0.0000000
 NQMom=    0.0000000   0.0000000   0.0000000   0.0000000   0.0000000   0.0000000   0.0000000   0.0000000   0.0000000   0.0000000
 NMagM=    0.0000000   2.7928460   2.7928460   2.7928460   0.0000000   2.7928460   2.7928460   2.7928460   0.0000000   2.7928460
 AtZNuc=   6.0000000   1.0000000   1.0000000   1.0000000   6.0000000   1.0000000   1.0000000   1.0000000   6.0000000   1.0000000

  Atom        81          82          83          84          85          86          87          88          89          90
 IAtWgt=           1           1          23          16          12           1           1           1          12           1
 AtmWgt=   1.0078250   1.0078250  22.9897697  15.9949146  12.0000000   1.0078250   1.0078250   1.0078250  12.0000000   1.0078250
 NucSpn=           1           1           3           0           0           1           1           1           0           1
 AtZEff=   0.0000000   0.0000000   0.0000000   0.0000000   0.0000000   0.0000000   0.0000000   0.0000000   0.0000000   0.0000000
 NQMom=    0.0000000   0.0000000  10.4000000   0.0000000   0.0000000   0.0000000   0.0000000   0.0000000   0.0000000   0.0000000
 NMagM=    2.7928460   2.7928460   2.2175200   0.0000000   0.0000000   2.7928460   2.7928460   2.7928460   0.0000000   2.7928460
 AtZNuc=   1.0000000   1.0000000  11.0000000   8.0000000   6.0000000   1.0000000   1.0000000   1.0000000   6.0000000   1.0000000

  Atom        91          92          93          94          95          96          97          98          99         100
 IAtWgt=           1           1          12          19          19          19          12          19          19          19
 AtmWgt=   1.0078250   1.0078250  12.0000000  18.9984033  18.9984033  18.9984033  12.0000000  18.9984033  18.9984033  18.9984033
 NucSpn=           1           1           0           1           1           1           0           1           1           1
 AtZEff=   0.0000000   0.0000000   0.0000000   0.0000000   0.0000000   0.0000000   0.0000000   0.0000000   0.0000000   0.0000000
 NQMom=    0.0000000   0.0000000   0.0000000   0.0000000   0.0000000   0.0000000   0.0000000   0.0000000   0.0000000   0.0000000
 NMagM=    2.7928460   2.7928460   0.0000000   2.6288670   2.6288670   2.6288670   0.0000000   2.6288670   2.6288670   2.6288670
 AtZNuc=   1.0000000   1.0000000   6.0000000   9.0000000   9.0000000   9.0000000   6.0000000   9.0000000   9.0000000   9.0000000
 Leave Link  101 at Thu May  9 08:24:02 2019, MaxMem=  6442450944 cpu:              18.3 elap:               0.7
 (Enter /home/ekwan/sw/g16/l103.exe)

 GradGradGradGradGradGradGradGradGradGradGradGradGradGradGradGradGradGrad
 Berny optimization.
 Initialization pass.
                           ----------------------------
                           !    Initial Parameters    !
                           ! (Angstroms and Degrees)  !
 --------------------------                            --------------------------
 ! Name  Definition              Value          Derivative Info.                !
 --------------------------------------------------------------------------------
 ! R1    R(1,2)                  1.5287         calculate D2E/DX2 analytically  !
 ! R2    R(1,5)                  1.5332         calculate D2E/DX2 analytically  !
 ! R3    R(1,8)                  1.092          calculate D2E/DX2 analytically  !
 ! R4    R(1,14)                 1.4254         calculate D2E/DX2 analytically  !
 ! R5    R(2,3)                  1.5324         calculate D2E/DX2 analytically  !
 ! R6    R(2,7)                  1.1004         calculate D2E/DX2 analytically  !
 ! R7    R(2,13)                 1.4163         calculate D2E/DX2 analytically  !
 ! R8    R(3,6)                  1.099          calculate D2E/DX2 analytically  !
 ! R9    R(3,11)                 1.4195         calculate D2E/DX2 analytically  !
 ! R10   R(3,12)                 1.399          calculate D2E/DX2 analytically  !
 ! R11   R(4,5)                  1.536          calculate D2E/DX2 analytically  !
 ! R12   R(4,9)                  1.0968         calculate D2E/DX2 analytically  !
 ! R13   R(4,11)                 1.4482         calculate D2E/DX2 analytically  !
 ! R14   R(4,16)                 1.5415         calculate D2E/DX2 analytically  !
 ! R15   R(5,10)                 1.1021         calculate D2E/DX2 analytically  !
 ! R16   R(5,15)                 1.4224         calculate D2E/DX2 analytically  !
 ! R17   R(12,79)                1.4199         calculate D2E/DX2 analytically  !
 ! R18   R(13,20)                1.4186         calculate D2E/DX2 analytically  !
 ! R19   R(14,24)                1.4228         calculate D2E/DX2 analytically  !
 ! R20   R(15,28)                1.4191         calculate D2E/DX2 analytically  !
 ! R21   R(16,17)                1.1133         calculate D2E/DX2 analytically  !
 ! R22   R(16,18)                1.1122         calculate D2E/DX2 analytically  !
 ! R23   R(16,19)                1.371          calculate D2E/DX2 analytically  !
 ! R24   R(18,37)                2.2381         calculate D2E/DX2 analytically  !
 ! R25   R(19,37)                2.2312         calculate D2E/DX2 analytically  !
 ! R26   R(19,38)                2.1877         calculate D2E/DX2 analytically  !
 ! R27   R(19,83)                2.1907         calculate D2E/DX2 analytically  !
 ! R28   R(19,87)                2.2906         calculate D2E/DX2 analytically  !
 ! R29   R(20,21)                1.099          calculate D2E/DX2 analytically  !
 ! R30   R(20,22)                1.0997         calculate D2E/DX2 analytically  !
 ! R31   R(20,23)                1.0923         calculate D2E/DX2 analytically  !
 ! R32   R(24,25)                1.098          calculate D2E/DX2 analytically  !
 ! R33   R(24,26)                1.0947         calculate D2E/DX2 analytically  !
 ! R34   R(24,27)                1.0934         calculate D2E/DX2 analytically  !
 ! R35   R(28,29)                1.0942         calculate D2E/DX2 analytically  !
 ! R36   R(28,30)                1.099          calculate D2E/DX2 analytically  !
 ! R37   R(28,31)                1.0932         calculate D2E/DX2 analytically  !
 ! R38   R(32,33)                1.5292         calculate D2E/DX2 analytically  !
 ! R39   R(32,36)                1.5283         calculate D2E/DX2 analytically  !
 ! R40   R(32,39)                1.0972         calculate D2E/DX2 analytically  !
 ! R41   R(32,45)                1.42           calculate D2E/DX2 analytically  !
 ! R42   R(33,34)                1.5198         calculate D2E/DX2 analytically  !
 ! R43   R(33,38)                1.0936         calculate D2E/DX2 analytically  !
 ! R44   R(33,44)                1.4073         calculate D2E/DX2 analytically  !
 ! R45   R(34,37)                1.0732         calculate D2E/DX2 analytically  !
 ! R46   R(34,42)                1.3291         calculate D2E/DX2 analytically  !
 ! R47   R(34,43)                1.9399         calculate D2E/DX2 analytically  !
 ! R48   R(35,36)                1.5307         calculate D2E/DX2 analytically  !
 ! R49   R(35,40)                1.0938         calculate D2E/DX2 analytically  !
 ! R50   R(35,42)                1.454          calculate D2E/DX2 analytically  !
 ! R51   R(35,47)                1.5126         calculate D2E/DX2 analytically  !
 ! R52   R(36,41)                1.0958         calculate D2E/DX2 analytically  !
 ! R53   R(36,46)                1.4191         calculate D2E/DX2 analytically  !
 ! R54   R(38,87)                2.2849         calculate D2E/DX2 analytically  !
 ! R55   R(43,51)                1.539          calculate D2E/DX2 analytically  !
 ! R56   R(44,63)                1.4267         calculate D2E/DX2 analytically  !
 ! R57   R(45,67)                1.424          calculate D2E/DX2 analytically  !
 ! R58   R(46,71)                1.4226         calculate D2E/DX2 analytically  !
 ! R59   R(47,48)                1.0963         calculate D2E/DX2 analytically  !
 ! R60   R(47,49)                1.0964         calculate D2E/DX2 analytically  !
 ! R61   R(47,50)                1.4242         calculate D2E/DX2 analytically  !
 ! R62   R(50,75)                1.424          calculate D2E/DX2 analytically  !
 ! R63   R(51,52)                1.4718         calculate D2E/DX2 analytically  !
 ! R64   R(51,53)                1.4762         calculate D2E/DX2 analytically  !
 ! R65   R(51,54)                1.7999         calculate D2E/DX2 analytically  !
 ! R66   R(54,55)                1.3924         calculate D2E/DX2 analytically  !
 ! R67   R(54,56)                1.3936         calculate D2E/DX2 analytically  !
 ! R68   R(55,57)                1.3943         calculate D2E/DX2 analytically  !
 ! R69   R(55,58)                1.0833         calculate D2E/DX2 analytically  !
 ! R70   R(56,59)                1.3948         calculate D2E/DX2 analytically  !
 ! R71   R(56,60)                1.0818         calculate D2E/DX2 analytically  !
 ! R72   R(57,61)                1.3943         calculate D2E/DX2 analytically  !
 ! R73   R(57,97)                1.503          calculate D2E/DX2 analytically  !
 ! R74   R(59,61)                1.395          calculate D2E/DX2 analytically  !
 ! R75   R(59,93)                1.5046         calculate D2E/DX2 analytically  !
 ! R76   R(61,62)                1.0838         calculate D2E/DX2 analytically  !
 ! R77   R(63,64)                1.095          calculate D2E/DX2 analytically  !
 ! R78   R(63,65)                1.0971         calculate D2E/DX2 analytically  !
 ! R79   R(63,66)                1.0923         calculate D2E/DX2 analytically  !
 ! R80   R(67,68)                1.0991         calculate D2E/DX2 analytically  !
 ! R81   R(67,69)                1.094          calculate D2E/DX2 analytically  !
 ! R82   R(67,70)                1.0927         calculate D2E/DX2 analytically  !
 ! R83   R(71,72)                1.0949         calculate D2E/DX2 analytically  !
 ! R84   R(71,73)                1.0993         calculate D2E/DX2 analytically  !
 ! R85   R(71,74)                1.0926         calculate D2E/DX2 analytically  !
 ! R86   R(75,76)                1.0921         calculate D2E/DX2 analytically  !
 ! R87   R(75,77)                1.0976         calculate D2E/DX2 analytically  !
 ! R88   R(75,78)                1.0974         calculate D2E/DX2 analytically  !
 ! R89   R(79,80)                1.0894         calculate D2E/DX2 analytically  !
 ! R90   R(79,81)                1.0947         calculate D2E/DX2 analytically  !
 ! R91   R(79,82)                1.0991         calculate D2E/DX2 analytically  !
 ! R92   R(83,84)                2.3301         calculate D2E/DX2 analytically  !
 ! R93   R(84,85)                1.4288         calculate D2E/DX2 analytically  !
 ! R94   R(84,89)                1.419          calculate D2E/DX2 analytically  !
 ! R95   R(85,86)                1.0988         calculate D2E/DX2 analytically  !
 ! R96   R(85,87)                1.0918         calculate D2E/DX2 analytically  !
 ! R97   R(85,88)                1.0987         calculate D2E/DX2 analytically  !
 ! R98   R(89,90)                1.0988         calculate D2E/DX2 analytically  !
 ! R99   R(89,91)                1.0916         calculate D2E/DX2 analytically  !
 ! R100  R(89,92)                1.0984         calculate D2E/DX2 analytically  !
 ! R101  R(93,94)                1.3556         calculate D2E/DX2 analytically  !
 ! R102  R(93,95)                1.3533         calculate D2E/DX2 analytically  !
 ! R103  R(93,96)                1.347          calculate D2E/DX2 analytically  !
 ! R104  R(97,98)                1.3472         calculate D2E/DX2 analytically  !
 ! R105  R(97,99)                1.3469         calculate D2E/DX2 analytically  !
 ! R106  R(97,100)               1.3648         calculate D2E/DX2 analytically  !
 ! A1    A(2,1,5)              110.7822         calculate D2E/DX2 analytically  !
 ! A2    A(2,1,8)              108.4197         calculate D2E/DX2 analytically  !
 ! A3    A(2,1,14)             110.6215         calculate D2E/DX2 analytically  !
 ! A4    A(5,1,8)              108.9707         calculate D2E/DX2 analytically  !
 ! A5    A(5,1,14)             107.6525         calculate D2E/DX2 analytically  !
 ! A6    A(8,1,14)             110.3858         calculate D2E/DX2 analytically  !
 ! A7    A(1,2,3)              109.2154         calculate D2E/DX2 analytically  !
 ! A8    A(1,2,7)              108.9435         calculate D2E/DX2 analytically  !
 ! A9    A(1,2,13)             108.6136         calculate D2E/DX2 analytically  !
 ! A10   A(3,2,7)              107.7021         calculate D2E/DX2 analytically  !
 ! A11   A(3,2,13)             112.1962         calculate D2E/DX2 analytically  !
 ! A12   A(7,2,13)             110.1188         calculate D2E/DX2 analytically  !
 ! A13   A(2,3,6)              112.1705         calculate D2E/DX2 analytically  !
 ! A14   A(2,3,11)             109.4713         calculate D2E/DX2 analytically  !
 ! A15   A(2,3,12)             107.424          calculate D2E/DX2 analytically  !
 ! A16   A(6,3,11)             104.1912         calculate D2E/DX2 analytically  !
 ! A17   A(6,3,12)             110.1875         calculate D2E/DX2 analytically  !
 ! A18   A(11,3,12)            113.4767         calculate D2E/DX2 analytically  !
 ! A19   A(5,4,9)              107.7938         calculate D2E/DX2 analytically  !
 ! A20   A(5,4,11)             113.0219         calculate D2E/DX2 analytically  !
 ! A21   A(5,4,16)             111.2996         calculate D2E/DX2 analytically  !
 ! A22   A(9,4,11)             108.0445         calculate D2E/DX2 analytically  !
 ! A23   A(9,4,16)             110.1253         calculate D2E/DX2 analytically  !
 ! A24   A(11,4,16)            106.5099         calculate D2E/DX2 analytically  !
 ! A25   A(1,5,4)              114.6311         calculate D2E/DX2 analytically  !
 ! A26   A(1,5,10)             107.1374         calculate D2E/DX2 analytically  !
 ! A27   A(1,5,15)             112.0389         calculate D2E/DX2 analytically  !
 ! A28   A(4,5,10)             109.0251         calculate D2E/DX2 analytically  !
 ! A29   A(4,5,15)             104.1898         calculate D2E/DX2 analytically  !
 ! A30   A(10,5,15)            109.761          calculate D2E/DX2 analytically  !
 ! A31   A(3,11,4)             114.8662         calculate D2E/DX2 analytically  !
 ! A32   A(3,12,79)            114.2215         calculate D2E/DX2 analytically  !
 ! A33   A(2,13,20)            113.9973         calculate D2E/DX2 analytically  !
 ! A34   A(1,14,24)            114.2402         calculate D2E/DX2 analytically  !
 ! A35   A(5,15,28)            116.1677         calculate D2E/DX2 analytically  !
 ! A36   A(4,16,17)            105.9002         calculate D2E/DX2 analytically  !
 ! A37   A(4,16,18)            104.8274         calculate D2E/DX2 analytically  !
 ! A38   A(4,16,19)            114.209          calculate D2E/DX2 analytically  !
 ! A39   A(17,16,18)           105.274          calculate D2E/DX2 analytically  !
 ! A40   A(17,16,19)           112.4876         calculate D2E/DX2 analytically  !
 ! A41   A(18,16,19)           113.3382         calculate D2E/DX2 analytically  !
 ! A42   A(16,18,37)            88.3713         calculate D2E/DX2 analytically  !
 ! A43   A(16,19,37)            82.9232         calculate D2E/DX2 analytically  !
 ! A44   A(16,19,38)           141.6907         calculate D2E/DX2 analytically  !
 ! A45   A(16,19,83)           115.3384         calculate D2E/DX2 analytically  !
 ! A46   A(16,19,87)           133.7932         calculate D2E/DX2 analytically  !
 ! A47   A(37,19,38)            73.2276         calculate D2E/DX2 analytically  !
 ! A48   A(37,19,83)           108.8392         calculate D2E/DX2 analytically  !
 ! A49   A(37,19,87)           134.5273         calculate D2E/DX2 analytically  !
 ! A50   A(38,19,83)           100.7427         calculate D2E/DX2 analytically  !
 ! A51   A(83,19,87)            81.5106         calculate D2E/DX2 analytically  !
 ! A52   A(13,20,21)           112.3155         calculate D2E/DX2 analytically  !
 ! A53   A(13,20,22)           111.219          calculate D2E/DX2 analytically  !
 ! A54   A(13,20,23)           106.7775         calculate D2E/DX2 analytically  !
 ! A55   A(21,20,22)           108.6155         calculate D2E/DX2 analytically  !
 ! A56   A(21,20,23)           108.6604         calculate D2E/DX2 analytically  !
 ! A57   A(22,20,23)           109.1747         calculate D2E/DX2 analytically  !
 ! A58   A(14,24,25)           111.0482         calculate D2E/DX2 analytically  !
 ! A59   A(14,24,26)           111.4695         calculate D2E/DX2 analytically  !
 ! A60   A(14,24,27)           106.5532         calculate D2E/DX2 analytically  !
 ! A61   A(25,24,26)           109.0562         calculate D2E/DX2 analytically  !
 ! A62   A(25,24,27)           109.0645         calculate D2E/DX2 analytically  !
 ! A63   A(26,24,27)           109.5931         calculate D2E/DX2 analytically  !
 ! A64   A(15,28,29)           112.1313         calculate D2E/DX2 analytically  !
 ! A65   A(15,28,30)           111.0717         calculate D2E/DX2 analytically  !
 ! A66   A(15,28,31)           106.3059         calculate D2E/DX2 analytically  !
 ! A67   A(29,28,30)           108.6892         calculate D2E/DX2 analytically  !
 ! A68   A(29,28,31)           109.4847         calculate D2E/DX2 analytically  !
 ! A69   A(30,28,31)           109.0968         calculate D2E/DX2 analytically  !
 ! A70   A(33,32,36)           109.9523         calculate D2E/DX2 analytically  !
 ! A71   A(33,32,39)           109.8012         calculate D2E/DX2 analytically  !
 ! A72   A(33,32,45)           110.5477         calculate D2E/DX2 analytically  !
 ! A73   A(36,32,39)           109.0558         calculate D2E/DX2 analytically  !
 ! A74   A(36,32,45)           106.8314         calculate D2E/DX2 analytically  !
 ! A75   A(39,32,45)           110.598          calculate D2E/DX2 analytically  !
 ! A76   A(32,33,34)           112.5365         calculate D2E/DX2 analytically  !
 ! A77   A(32,33,38)           107.818          calculate D2E/DX2 analytically  !
 ! A78   A(32,33,44)           109.6346         calculate D2E/DX2 analytically  !
 ! A79   A(34,33,38)           103.7327         calculate D2E/DX2 analytically  !
 ! A80   A(34,33,44)           112.8027         calculate D2E/DX2 analytically  !
 ! A81   A(38,33,44)           110.0507         calculate D2E/DX2 analytically  !
 ! A82   A(33,34,37)           120.4683         calculate D2E/DX2 analytically  !
 ! A83   A(33,34,42)           120.7634         calculate D2E/DX2 analytically  !
 ! A84   A(33,34,43)            97.0075         calculate D2E/DX2 analytically  !
 ! A85   A(37,34,42)           114.917          calculate D2E/DX2 analytically  !
 ! A86   A(37,34,43)            93.5746         calculate D2E/DX2 analytically  !
 ! A87   A(42,34,43)            98.9981         calculate D2E/DX2 analytically  !
 ! A88   A(36,35,40)           108.8671         calculate D2E/DX2 analytically  !
 ! A89   A(36,35,42)           111.5963         calculate D2E/DX2 analytically  !
 ! A90   A(36,35,47)           113.6179         calculate D2E/DX2 analytically  !
 ! A91   A(40,35,42)           107.1199         calculate D2E/DX2 analytically  !
 ! A92   A(40,35,47)           108.6954         calculate D2E/DX2 analytically  !
 ! A93   A(42,35,47)           106.7082         calculate D2E/DX2 analytically  !
 ! A94   A(32,36,35)           111.0743         calculate D2E/DX2 analytically  !
 ! A95   A(32,36,41)           108.9899         calculate D2E/DX2 analytically  !
 ! A96   A(32,36,46)           110.5291         calculate D2E/DX2 analytically  !
 ! A97   A(35,36,41)           109.2365         calculate D2E/DX2 analytically  !
 ! A98   A(35,36,46)           105.9803         calculate D2E/DX2 analytically  !
 ! A99   A(41,36,46)           111.0077         calculate D2E/DX2 analytically  !
 ! A100  A(18,37,19)            55.46           calculate D2E/DX2 analytically  !
 ! A101  A(18,37,34)           137.6507         calculate D2E/DX2 analytically  !
 ! A102  A(19,37,34)            84.0068         calculate D2E/DX2 analytically  !
 ! A103  A(19,38,33)           111.7466         calculate D2E/DX2 analytically  !
 ! A104  A(34,42,35)           117.9077         calculate D2E/DX2 analytically  !
 ! A105  A(34,43,51)           112.8259         calculate D2E/DX2 analytically  !
 ! A106  A(33,44,63)           114.1321         calculate D2E/DX2 analytically  !
 ! A107  A(32,45,67)           114.5841         calculate D2E/DX2 analytically  !
 ! A108  A(36,46,71)           114.1994         calculate D2E/DX2 analytically  !
 ! A109  A(35,47,48)           107.6431         calculate D2E/DX2 analytically  !
 ! A110  A(35,47,49)           110.4136         calculate D2E/DX2 analytically  !
 ! A111  A(35,47,50)           109.5601         calculate D2E/DX2 analytically  !
 ! A112  A(48,47,49)           108.5747         calculate D2E/DX2 analytically  !
 ! A113  A(48,47,50)           110.4521         calculate D2E/DX2 analytically  !
 ! A114  A(49,47,50)           110.1587         calculate D2E/DX2 analytically  !
 ! A115  A(47,50,75)           112.2861         calculate D2E/DX2 analytically  !
 ! A116  A(43,51,52)           109.699          calculate D2E/DX2 analytically  !
 ! A117  A(43,51,53)           112.3343         calculate D2E/DX2 analytically  !
 ! A118  A(43,51,54)           103.1427         calculate D2E/DX2 analytically  !
 ! A119  A(52,51,53)           117.3498         calculate D2E/DX2 analytically  !
 ! A120  A(52,51,54)           107.2962         calculate D2E/DX2 analytically  !
 ! A121  A(53,51,54)           105.8303         calculate D2E/DX2 analytically  !
 ! A122  A(51,54,55)           119.0539         calculate D2E/DX2 analytically  !
 ! A123  A(51,54,56)           119.645          calculate D2E/DX2 analytically  !
 ! A124  A(55,54,56)           121.2372         calculate D2E/DX2 analytically  !
 ! A125  A(54,55,57)           119.1744         calculate D2E/DX2 analytically  !
 ! A126  A(54,55,58)           120.2263         calculate D2E/DX2 analytically  !
 ! A127  A(57,55,58)           120.5991         calculate D2E/DX2 analytically  !
 ! A128  A(54,56,59)           118.8337         calculate D2E/DX2 analytically  !
 ! A129  A(54,56,60)           120.1183         calculate D2E/DX2 analytically  !
 ! A130  A(59,56,60)           121.0357         calculate D2E/DX2 analytically  !
 ! A131  A(55,57,61)           120.486          calculate D2E/DX2 analytically  !
 ! A132  A(55,57,97)           119.6211         calculate D2E/DX2 analytically  !
 ! A133  A(61,57,97)           119.8667         calculate D2E/DX2 analytically  !
 ! A134  A(56,59,61)           120.7564         calculate D2E/DX2 analytically  !
 ! A135  A(56,59,93)           120.9096         calculate D2E/DX2 analytically  !
 ! A136  A(61,59,93)           118.2355         calculate D2E/DX2 analytically  !
 ! A137  A(57,61,59)           119.4971         calculate D2E/DX2 analytically  !
 ! A138  A(57,61,62)           120.2441         calculate D2E/DX2 analytically  !
 ! A139  A(59,61,62)           120.2581         calculate D2E/DX2 analytically  !
 ! A140  A(44,63,64)           111.4543         calculate D2E/DX2 analytically  !
 ! A141  A(44,63,65)           111.0866         calculate D2E/DX2 analytically  !
 ! A142  A(44,63,66)           106.1605         calculate D2E/DX2 analytically  !
 ! A143  A(64,63,65)           109.3361         calculate D2E/DX2 analytically  !
 ! A144  A(64,63,66)           108.96           calculate D2E/DX2 analytically  !
 ! A145  A(65,63,66)           109.7743         calculate D2E/DX2 analytically  !
 ! A146  A(45,67,68)           110.8538         calculate D2E/DX2 analytically  !
 ! A147  A(45,67,69)           111.452          calculate D2E/DX2 analytically  !
 ! A148  A(45,67,70)           106.457          calculate D2E/DX2 analytically  !
 ! A149  A(68,67,69)           109.1115         calculate D2E/DX2 analytically  !
 ! A150  A(68,67,70)           109.0686         calculate D2E/DX2 analytically  !
 ! A151  A(69,67,70)           109.8451         calculate D2E/DX2 analytically  !
 ! A152  A(46,71,72)           111.1089         calculate D2E/DX2 analytically  !
 ! A153  A(46,71,73)           111.1103         calculate D2E/DX2 analytically  !
 ! A154  A(46,71,74)           106.5604         calculate D2E/DX2 analytically  !
 ! A155  A(72,71,73)           109.4287         calculate D2E/DX2 analytically  !
 ! A156  A(72,71,74)           109.5885         calculate D2E/DX2 analytically  !
 ! A157  A(73,71,74)           108.9785         calculate D2E/DX2 analytically  !
 ! A158  A(50,75,76)           107.0129         calculate D2E/DX2 analytically  !
 ! A159  A(50,75,77)           111.1814         calculate D2E/DX2 analytically  !
 ! A160  A(50,75,78)           110.6545         calculate D2E/DX2 analytically  !
 ! A161  A(76,75,77)           109.3691         calculate D2E/DX2 analytically  !
 ! A162  A(76,75,78)           109.4682         calculate D2E/DX2 analytically  !
 ! A163  A(77,75,78)           109.1166         calculate D2E/DX2 analytically  !
 ! A164  A(12,79,80)           107.2421         calculate D2E/DX2 analytically  !
 ! A165  A(12,79,81)           111.3258         calculate D2E/DX2 analytically  !
 ! A166  A(12,79,82)           111.0737         calculate D2E/DX2 analytically  !
 ! A167  A(80,79,81)           108.8193         calculate D2E/DX2 analytically  !
 ! A168  A(80,79,82)           109.0938         calculate D2E/DX2 analytically  !
 ! A169  A(81,79,82)           109.2197         calculate D2E/DX2 analytically  !
 ! A170  A(19,83,84)            92.6292         calculate D2E/DX2 analytically  !
 ! A171  A(83,84,85)           115.4751         calculate D2E/DX2 analytically  !
 ! A172  A(83,84,89)           131.8445         calculate D2E/DX2 analytically  !
 ! A173  A(85,84,89)           112.6719         calculate D2E/DX2 analytically  !
 ! A174  A(84,85,86)           110.1706         calculate D2E/DX2 analytically  !
 ! A175  A(84,85,87)           105.8689         calculate D2E/DX2 analytically  !
 ! A176  A(84,85,88)           110.6232         calculate D2E/DX2 analytically  !
 ! A177  A(86,85,87)           109.9647         calculate D2E/DX2 analytically  !
 ! A178  A(86,85,88)           109.3464         calculate D2E/DX2 analytically  !
 ! A179  A(87,85,88)           110.8254         calculate D2E/DX2 analytically  !
 ! A180  A(19,87,85)           139.0221         calculate D2E/DX2 analytically  !
 ! A181  A(38,87,85)           106.3042         calculate D2E/DX2 analytically  !
 ! A182  A(84,89,90)           110.9826         calculate D2E/DX2 analytically  !
 ! A183  A(84,89,91)           107.33           calculate D2E/DX2 analytically  !
 ! A184  A(84,89,92)           110.8908         calculate D2E/DX2 analytically  !
 ! A185  A(90,89,91)           109.5972         calculate D2E/DX2 analytically  !
 ! A186  A(90,89,92)           108.7825         calculate D2E/DX2 analytically  !
 ! A187  A(91,89,92)           109.23           calculate D2E/DX2 analytically  !
 ! A188  A(59,93,94)           111.4597         calculate D2E/DX2 analytically  !
 ! A189  A(59,93,95)           111.0508         calculate D2E/DX2 analytically  !
 ! A190  A(59,93,96)           112.8071         calculate D2E/DX2 analytically  !
 ! A191  A(94,93,95)           106.4402         calculate D2E/DX2 analytically  !
 ! A192  A(94,93,96)           107.4591         calculate D2E/DX2 analytically  !
 ! A193  A(95,93,96)           107.3037         calculate D2E/DX2 analytically  !
 ! A194  A(57,97,98)           112.0383         calculate D2E/DX2 analytically  !
 ! A195  A(57,97,99)           112.1487         calculate D2E/DX2 analytically  !
 ! A196  A(57,97,100)          111.4452         calculate D2E/DX2 analytically  !
 ! A197  A(98,97,99)           108.0042         calculate D2E/DX2 analytically  !
 ! A198  A(98,97,100)          106.4152         calculate D2E/DX2 analytically  !
 ! A199  A(99,97,100)          106.4481         calculate D2E/DX2 analytically  !
 ! A200  L(33,38,87,1,-1)      173.3387         calculate D2E/DX2 analytically  !
 ! A201  L(33,38,87,1,-2)      171.75           calculate D2E/DX2 analytically  !
 ! D1    D(5,1,2,3)            -53.6149         calculate D2E/DX2 analytically  !
 ! D2    D(5,1,2,7)             63.7768         calculate D2E/DX2 analytically  !
 ! D3    D(5,1,2,13)          -176.2671         calculate D2E/DX2 analytically  !
 ! D4    D(8,1,2,3)             65.9147         calculate D2E/DX2 analytically  !
 ! D5    D(8,1,2,7)           -176.6935         calculate D2E/DX2 analytically  !
 ! D6    D(8,1,2,13)           -56.7375         calculate D2E/DX2 analytically  !
 ! D7    D(14,1,2,3)          -172.9135         calculate D2E/DX2 analytically  !
 ! D8    D(14,1,2,7)           -55.5217         calculate D2E/DX2 analytically  !
 ! D9    D(14,1,2,13)           64.4344         calculate D2E/DX2 analytically  !
 ! D10   D(2,1,5,4)             43.494          calculate D2E/DX2 analytically  !
 ! D11   D(2,1,5,10)           -77.614          calculate D2E/DX2 analytically  !
 ! D12   D(2,1,5,15)           161.9535         calculate D2E/DX2 analytically  !
 ! D13   D(8,1,5,4)            -75.7043         calculate D2E/DX2 analytically  !
 ! D14   D(8,1,5,10)           163.1878         calculate D2E/DX2 analytically  !
 ! D15   D(8,1,5,15)            42.7552         calculate D2E/DX2 analytically  !
 ! D16   D(14,1,5,4)           164.5641         calculate D2E/DX2 analytically  !
 ! D17   D(14,1,5,10)           43.4561         calculate D2E/DX2 analytically  !
 ! D18   D(14,1,5,15)          -76.9765         calculate D2E/DX2 analytically  !
 ! D19   D(2,1,14,24)          -97.2752         calculate D2E/DX2 analytically  !
 ! D20   D(5,1,14,24)          141.5541         calculate D2E/DX2 analytically  !
 ! D21   D(8,1,14,24)           22.725          calculate D2E/DX2 analytically  !
 ! D22   D(1,2,3,6)            177.9511         calculate D2E/DX2 analytically  !
 ! D23   D(1,2,3,11)            62.8092         calculate D2E/DX2 analytically  !
 ! D24   D(1,2,3,12)           -60.8204         calculate D2E/DX2 analytically  !
 ! D25   D(7,2,3,6)             59.779          calculate D2E/DX2 analytically  !
 ! D26   D(7,2,3,11)           -55.3629         calculate D2E/DX2 analytically  !
 ! D27   D(7,2,3,12)          -178.9925         calculate D2E/DX2 analytically  !
 ! D28   D(13,2,3,6)           -61.5662         calculate D2E/DX2 analytically  !
 ! D29   D(13,2,3,11)         -176.7081         calculate D2E/DX2 analytically  !
 ! D30   D(13,2,3,12)           59.6623         calculate D2E/DX2 analytically  !
 ! D31   D(1,2,13,20)         -157.8821         calculate D2E/DX2 analytically  !
 ! D32   D(3,2,13,20)           81.2873         calculate D2E/DX2 analytically  !
 ! D33   D(7,2,13,20)          -38.6603         calculate D2E/DX2 analytically  !
 ! D34   D(2,3,11,4)           -61.8861         calculate D2E/DX2 analytically  !
 ! D35   D(6,3,11,4)           177.9642         calculate D2E/DX2 analytically  !
 ! D36   D(12,3,11,4)           58.1024         calculate D2E/DX2 analytically  !
 ! D37   D(2,3,12,79)         -178.3647         calculate D2E/DX2 analytically  !
 ! D38   D(6,3,12,79)          -55.8991         calculate D2E/DX2 analytically  !
 ! D39   D(11,3,12,79)          60.4904         calculate D2E/DX2 analytically  !
 ! D40   D(9,4,5,1)             78.9707         calculate D2E/DX2 analytically  !
 ! D41   D(9,4,5,10)          -160.964          calculate D2E/DX2 analytically  !
 ! D42   D(9,4,5,15)           -43.8299         calculate D2E/DX2 analytically  !
 ! D43   D(11,4,5,1)           -40.3598         calculate D2E/DX2 analytically  !
 ! D44   D(11,4,5,10)           79.7054         calculate D2E/DX2 analytically  !
 ! D45   D(11,4,5,15)         -163.1604         calculate D2E/DX2 analytically  !
 ! D46   D(16,4,5,1)          -160.1666         calculate D2E/DX2 analytically  !
 ! D47   D(16,4,5,10)          -40.1014         calculate D2E/DX2 analytically  !
 ! D48   D(16,4,5,15)           77.0327         calculate D2E/DX2 analytically  !
 ! D49   D(5,4,11,3)            50.2586         calculate D2E/DX2 analytically  !
 ! D50   D(9,4,11,3)           -68.9272         calculate D2E/DX2 analytically  !
 ! D51   D(16,4,11,3)          172.7789         calculate D2E/DX2 analytically  !
 ! D52   D(5,4,16,17)           55.5854         calculate D2E/DX2 analytically  !
 ! D53   D(5,4,16,18)          -55.4386         calculate D2E/DX2 analytically  !
 ! D54   D(5,4,16,19)          179.9268         calculate D2E/DX2 analytically  !
 ! D55   D(9,4,16,17)          175.0703         calculate D2E/DX2 analytically  !
 ! D56   D(9,4,16,18)           64.0463         calculate D2E/DX2 analytically  !
 ! D57   D(9,4,16,19)          -60.5883         calculate D2E/DX2 analytically  !
 ! D58   D(11,4,16,17)         -68.0127         calculate D2E/DX2 analytically  !
 ! D59   D(11,4,16,18)        -179.0367         calculate D2E/DX2 analytically  !
 ! D60   D(11,4,16,19)          56.3287         calculate D2E/DX2 analytically  !
 ! D61   D(1,5,15,28)           81.0188         calculate D2E/DX2 analytically  !
 ! D62   D(4,5,15,28)         -154.4998         calculate D2E/DX2 analytically  !
 ! D63   D(10,5,15,28)         -37.8768         calculate D2E/DX2 analytically  !
 ! D64   D(3,12,79,80)         161.5347         calculate D2E/DX2 analytically  !
 ! D65   D(3,12,79,81)         -79.5344         calculate D2E/DX2 analytically  !
 ! D66   D(3,12,79,82)          42.414          calculate D2E/DX2 analytically  !
 ! D67   D(2,13,20,21)         -64.9662         calculate D2E/DX2 analytically  !
 ! D68   D(2,13,20,22)          57.0062         calculate D2E/DX2 analytically  !
 ! D69   D(2,13,20,23)         176.0224         calculate D2E/DX2 analytically  !
 ! D70   D(1,14,24,25)         -59.0091         calculate D2E/DX2 analytically  !
 ! D71   D(1,14,24,26)          62.8123         calculate D2E/DX2 analytically  !
 ! D72   D(1,14,24,27)        -177.6616         calculate D2E/DX2 analytically  !
 ! D73   D(5,15,28,29)         -73.5519         calculate D2E/DX2 analytically  !
 ! D74   D(5,15,28,30)          48.2787         calculate D2E/DX2 analytically  !
 ! D75   D(5,15,28,31)         166.8347         calculate D2E/DX2 analytically  !
 ! D76   D(4,16,18,37)         -82.5634         calculate D2E/DX2 analytically  !
 ! D77   D(17,16,18,37)        165.9633         calculate D2E/DX2 analytically  !
 ! D78   D(19,16,18,37)         42.6209         calculate D2E/DX2 analytically  !
 ! D79   D(4,16,19,37)          76.8026         calculate D2E/DX2 analytically  !
 ! D80   D(4,16,19,38)         128.0306         calculate D2E/DX2 analytically  !
 ! D81   D(4,16,19,83)         -30.7297         calculate D2E/DX2 analytically  !
 ! D82   D(4,16,19,87)        -133.8912         calculate D2E/DX2 analytically  !
 ! D83   D(17,16,19,37)       -162.4524         calculate D2E/DX2 analytically  !
 ! D84   D(17,16,19,38)       -111.2243         calculate D2E/DX2 analytically  !
 ! D85   D(17,16,19,83)         90.0154         calculate D2E/DX2 analytically  !
 ! D86   D(17,16,19,87)        -13.1462         calculate D2E/DX2 analytically  !
 ! D87   D(18,16,19,37)        -43.1692         calculate D2E/DX2 analytically  !
 ! D88   D(18,16,19,38)          8.0588         calculate D2E/DX2 analytically  !
 ! D89   D(18,16,19,83)       -150.7015         calculate D2E/DX2 analytically  !
 ! D90   D(18,16,19,87)        106.137          calculate D2E/DX2 analytically  !
 ! D91   D(16,18,37,19)        -27.6321         calculate D2E/DX2 analytically  !
 ! D92   D(16,18,37,34)        -47.0199         calculate D2E/DX2 analytically  !
 ! D93   D(16,19,37,18)         22.2694         calculate D2E/DX2 analytically  !
 ! D94   D(16,19,37,34)       -170.7249         calculate D2E/DX2 analytically  !
 ! D95   D(38,19,37,18)       -127.4138         calculate D2E/DX2 analytically  !
 ! D96   D(38,19,37,34)         39.5919         calculate D2E/DX2 analytically  !
 ! D97   D(83,19,37,18)        136.6818         calculate D2E/DX2 analytically  !
 ! D98   D(83,19,37,34)        -56.3124         calculate D2E/DX2 analytically  !
 ! D99   D(87,19,37,18)       -126.61           calculate D2E/DX2 analytically  !
 ! D100  D(87,19,37,34)         40.3957         calculate D2E/DX2 analytically  !
 ! D101  D(16,19,38,33)        -63.5634         calculate D2E/DX2 analytically  !
 ! D102  D(37,19,38,33)         -9.6545         calculate D2E/DX2 analytically  !
 ! D103  D(83,19,38,33)         96.9699         calculate D2E/DX2 analytically  !
 ! D104  D(16,19,83,84)       -147.0451         calculate D2E/DX2 analytically  !
 ! D105  D(37,19,83,84)        121.9504         calculate D2E/DX2 analytically  !
 ! D106  D(38,19,83,84)         46.1684         calculate D2E/DX2 analytically  !
 ! D107  D(87,19,83,84)        -12.3343         calculate D2E/DX2 analytically  !
 ! D108  D(16,19,87,85)        147.9516         calculate D2E/DX2 analytically  !
 ! D109  D(37,19,87,85)        -77.3279         calculate D2E/DX2 analytically  !
 ! D110  D(83,19,87,85)         30.8003         calculate D2E/DX2 analytically  !
 ! D111  D(36,32,33,34)        -43.7014         calculate D2E/DX2 analytically  !
 ! D112  D(36,32,33,38)         70.0858         calculate D2E/DX2 analytically  !
 ! D113  D(36,32,33,44)       -170.1107         calculate D2E/DX2 analytically  !
 ! D114  D(39,32,33,34)         76.29           calculate D2E/DX2 analytically  !
 ! D115  D(39,32,33,38)       -169.9227         calculate D2E/DX2 analytically  !
 ! D116  D(39,32,33,44)        -50.1192         calculate D2E/DX2 analytically  !
 ! D117  D(45,32,33,34)       -161.4149         calculate D2E/DX2 analytically  !
 ! D118  D(45,32,33,38)        -47.6276         calculate D2E/DX2 analytically  !
 ! D119  D(45,32,33,44)         72.1759         calculate D2E/DX2 analytically  !
 ! D120  D(33,32,36,35)         54.3801         calculate D2E/DX2 analytically  !
 ! D121  D(33,32,36,41)        -66.019          calculate D2E/DX2 analytically  !
 ! D122  D(33,32,36,46)        171.7252         calculate D2E/DX2 analytically  !
 ! D123  D(39,32,36,35)        -66.0628         calculate D2E/DX2 analytically  !
 ! D124  D(39,32,36,41)        173.5381         calculate D2E/DX2 analytically  !
 ! D125  D(39,32,36,46)         51.2823         calculate D2E/DX2 analytically  !
 ! D126  D(45,32,36,35)        174.3756         calculate D2E/DX2 analytically  !
 ! D127  D(45,32,36,41)         53.9766         calculate D2E/DX2 analytically  !
 ! D128  D(45,32,36,46)        -68.2793         calculate D2E/DX2 analytically  !
 ! D129  D(33,32,45,67)        -92.2857         calculate D2E/DX2 analytically  !
 ! D130  D(36,32,45,67)        148.1022         calculate D2E/DX2 analytically  !
 ! D131  D(39,32,45,67)         29.5413         calculate D2E/DX2 analytically  !
 ! D132  D(32,33,34,37)       -166.5585         calculate D2E/DX2 analytically  !
 ! D133  D(32,33,34,42)         36.6556         calculate D2E/DX2 analytically  !
 ! D134  D(32,33,34,43)        -68.2099         calculate D2E/DX2 analytically  !
 ! D135  D(38,33,34,37)         77.1812         calculate D2E/DX2 analytically  !
 ! D136  D(38,33,34,42)        -79.6047         calculate D2E/DX2 analytically  !
 ! D137  D(38,33,34,43)        175.5298         calculate D2E/DX2 analytically  !
 ! D138  D(44,33,34,37)        -41.8709         calculate D2E/DX2 analytically  !
 ! D139  D(44,33,34,42)        161.3432         calculate D2E/DX2 analytically  !
 ! D140  D(44,33,34,43)         56.4777         calculate D2E/DX2 analytically  !
 ! D141  D(32,33,38,19)       -134.0561         calculate D2E/DX2 analytically  !
 ! D142  D(34,33,38,19)        -14.5198         calculate D2E/DX2 analytically  !
 ! D143  D(44,33,38,19)        106.4039         calculate D2E/DX2 analytically  !
 ! D144  D(32,33,44,63)       -160.552          calculate D2E/DX2 analytically  !
 ! D145  D(34,33,44,63)         73.1899         calculate D2E/DX2 analytically  !
 ! D146  D(38,33,44,63)        -42.1239         calculate D2E/DX2 analytically  !
 ! D147  D(32,33,87,85)          1.7399         calculate D2E/DX2 analytically  !
 ! D148  D(34,33,87,85)        118.2856         calculate D2E/DX2 analytically  !
 ! D149  D(44,33,87,85)       -121.3523         calculate D2E/DX2 analytically  !
 ! D150  D(33,34,37,18)        -59.2892         calculate D2E/DX2 analytically  !
 ! D151  D(33,34,37,19)        -75.2481         calculate D2E/DX2 analytically  !
 ! D152  D(42,34,37,18)         98.7813         calculate D2E/DX2 analytically  !
 ! D153  D(42,34,37,19)         82.8224         calculate D2E/DX2 analytically  !
 ! D154  D(43,34,37,18)       -159.5758         calculate D2E/DX2 analytically  !
 ! D155  D(43,34,37,19)       -175.5348         calculate D2E/DX2 analytically  !
 ! D156  D(33,34,42,35)        -37.938          calculate D2E/DX2 analytically  !
 ! D157  D(37,34,42,35)        164.0619         calculate D2E/DX2 analytically  !
 ! D158  D(43,34,42,35)         65.8309         calculate D2E/DX2 analytically  !
 ! D159  D(33,34,43,51)       -130.5327         calculate D2E/DX2 analytically  !
 ! D160  D(37,34,43,51)         -9.2305         calculate D2E/DX2 analytically  !
 ! D161  D(42,34,43,51)        106.6999         calculate D2E/DX2 analytically  !
 ! D162  D(40,35,36,32)         63.3672         calculate D2E/DX2 analytically  !
 ! D163  D(40,35,36,41)       -176.3799         calculate D2E/DX2 analytically  !
 ! D164  D(40,35,36,46)        -56.7177         calculate D2E/DX2 analytically  !
 ! D165  D(42,35,36,32)        -54.6574         calculate D2E/DX2 analytically  !
 ! D166  D(42,35,36,41)         65.5955         calculate D2E/DX2 analytically  !
 ! D167  D(42,35,36,46)       -174.7423         calculate D2E/DX2 analytically  !
 ! D168  D(47,35,36,32)       -175.3588         calculate D2E/DX2 analytically  !
 ! D169  D(47,35,36,41)        -55.1058         calculate D2E/DX2 analytically  !
 ! D170  D(47,35,36,46)         64.5564         calculate D2E/DX2 analytically  !
 ! D171  D(36,35,42,34)         46.0506         calculate D2E/DX2 analytically  !
 ! D172  D(40,35,42,34)        -73.0172         calculate D2E/DX2 analytically  !
 ! D173  D(47,35,42,34)        170.7103         calculate D2E/DX2 analytically  !
 ! D174  D(36,35,47,48)        -56.2021         calculate D2E/DX2 analytically  !
 ! D175  D(36,35,47,49)       -174.5634         calculate D2E/DX2 analytically  !
 ! D176  D(36,35,47,50)         63.9388         calculate D2E/DX2 analytically  !
 ! D177  D(40,35,47,48)         65.1679         calculate D2E/DX2 analytically  !
 ! D178  D(40,35,47,49)        -53.1934         calculate D2E/DX2 analytically  !
 ! D179  D(40,35,47,50)       -174.6912         calculate D2E/DX2 analytically  !
 ! D180  D(42,35,47,48)       -179.6154         calculate D2E/DX2 analytically  !
 ! D181  D(42,35,47,49)         62.0234         calculate D2E/DX2 analytically  !
 ! D182  D(42,35,47,50)        -59.4745         calculate D2E/DX2 analytically  !
 ! D183  D(32,36,46,71)        103.7866         calculate D2E/DX2 analytically  !
 ! D184  D(35,36,46,71)       -135.7735         calculate D2E/DX2 analytically  !
 ! D185  D(41,36,46,71)        -17.2783         calculate D2E/DX2 analytically  !
 ! D186  D(34,43,51,52)        173.4529         calculate D2E/DX2 analytically  !
 ! D187  D(34,43,51,53)         41.0263         calculate D2E/DX2 analytically  !
 ! D188  D(34,43,51,54)        -72.4751         calculate D2E/DX2 analytically  !
 ! D189  D(33,44,63,64)        -72.3605         calculate D2E/DX2 analytically  !
 ! D190  D(33,44,63,65)         49.8362         calculate D2E/DX2 analytically  !
 ! D191  D(33,44,63,66)        169.1277         calculate D2E/DX2 analytically  !
 ! D192  D(32,45,67,68)        -58.611          calculate D2E/DX2 analytically  !
 ! D193  D(32,45,67,69)         63.1329         calculate D2E/DX2 analytically  !
 ! D194  D(32,45,67,70)       -177.1048         calculate D2E/DX2 analytically  !
 ! D195  D(36,46,71,72)        -58.7962         calculate D2E/DX2 analytically  !
 ! D196  D(36,46,71,73)         63.2939         calculate D2E/DX2 analytically  !
 ! D197  D(36,46,71,74)       -178.1187         calculate D2E/DX2 analytically  !
 ! D198  D(35,47,50,75)       -168.6853         calculate D2E/DX2 analytically  !
 ! D199  D(48,47,50,75)        -50.2745         calculate D2E/DX2 analytically  !
 ! D200  D(49,47,50,75)         69.6636         calculate D2E/DX2 analytically  !
 ! D201  D(47,50,75,76)       -177.3736         calculate D2E/DX2 analytically  !
 ! D202  D(47,50,75,77)        -57.9984         calculate D2E/DX2 analytically  !
 ! D203  D(47,50,75,78)         63.4291         calculate D2E/DX2 analytically  !
 ! D204  D(43,51,54,55)        -43.2244         calculate D2E/DX2 analytically  !
 ! D205  D(43,51,54,56)        139.6481         calculate D2E/DX2 analytically  !
 ! D206  D(52,51,54,55)         72.5766         calculate D2E/DX2 analytically  !
 ! D207  D(52,51,54,56)       -104.551          calculate D2E/DX2 analytically  !
 ! D208  D(53,51,54,55)       -161.3769         calculate D2E/DX2 analytically  !
 ! D209  D(53,51,54,56)         21.4956         calculate D2E/DX2 analytically  !
 ! D210  D(51,54,55,57)       -177.1093         calculate D2E/DX2 analytically  !
 ! D211  D(51,54,55,58)          2.7305         calculate D2E/DX2 analytically  !
 ! D212  D(56,54,55,57)         -0.0291         calculate D2E/DX2 analytically  !
 ! D213  D(56,54,55,58)        179.8107         calculate D2E/DX2 analytically  !
 ! D214  D(51,54,56,59)        176.0267         calculate D2E/DX2 analytically  !
 ! D215  D(51,54,56,60)         -5.2335         calculate D2E/DX2 analytically  !
 ! D216  D(55,54,56,59)         -1.0365         calculate D2E/DX2 analytically  !
 ! D217  D(55,54,56,60)        177.7033         calculate D2E/DX2 analytically  !
 ! D218  D(54,55,57,61)          0.8668         calculate D2E/DX2 analytically  !
 ! D219  D(54,55,57,97)       -177.2659         calculate D2E/DX2 analytically  !
 ! D220  D(58,55,57,61)       -178.9724         calculate D2E/DX2 analytically  !
 ! D221  D(58,55,57,97)          2.8949         calculate D2E/DX2 analytically  !
 ! D222  D(54,56,59,61)          1.2868         calculate D2E/DX2 analytically  !
 ! D223  D(54,56,59,93)       -175.0414         calculate D2E/DX2 analytically  !
 ! D224  D(60,56,59,61)       -177.441          calculate D2E/DX2 analytically  !
 ! D225  D(60,56,59,93)          6.2308         calculate D2E/DX2 analytically  !
 ! D226  D(55,57,61,59)         -0.6195         calculate D2E/DX2 analytically  !
 ! D227  D(55,57,61,62)        179.0878         calculate D2E/DX2 analytically  !
 ! D228  D(97,57,61,59)        177.5086         calculate D2E/DX2 analytically  !
 ! D229  D(97,57,61,62)         -2.784          calculate D2E/DX2 analytically  !
 ! D230  D(55,57,97,98)        -30.6119         calculate D2E/DX2 analytically  !
 ! D231  D(55,57,97,99)       -152.2661         calculate D2E/DX2 analytically  !
 ! D232  D(55,57,97,100)        88.5026         calculate D2E/DX2 analytically  !
 ! D233  D(61,57,97,98)        151.2437         calculate D2E/DX2 analytically  !
 ! D234  D(61,57,97,99)         29.5895         calculate D2E/DX2 analytically  !
 ! D235  D(61,57,97,100)       -89.6418         calculate D2E/DX2 analytically  !
 ! D236  D(56,59,61,57)         -0.4732         calculate D2E/DX2 analytically  !
 ! D237  D(56,59,61,62)        179.8196         calculate D2E/DX2 analytically  !
 ! D238  D(93,59,61,57)        175.9511         calculate D2E/DX2 analytically  !
 ! D239  D(93,59,61,62)         -3.7562         calculate D2E/DX2 analytically  !
 ! D240  D(56,59,93,94)       -134.856          calculate D2E/DX2 analytically  !
 ! D241  D(56,59,93,95)        106.6454         calculate D2E/DX2 analytically  !
 ! D242  D(56,59,93,96)        -13.8575         calculate D2E/DX2 analytically  !
 ! D243  D(61,59,93,94)         48.7254         calculate D2E/DX2 analytically  !
 ! D244  D(61,59,93,95)        -69.7731         calculate D2E/DX2 analytically  !
 ! D245  D(61,59,93,96)        169.7239         calculate D2E/DX2 analytically  !
 ! D246  D(19,83,84,85)         12.5625         calculate D2E/DX2 analytically  !
 ! D247  D(19,83,84,89)       -166.2852         calculate D2E/DX2 analytically  !
 ! D248  D(83,84,85,86)       -116.2474         calculate D2E/DX2 analytically  !
 ! D249  D(83,84,85,87)          2.6072         calculate D2E/DX2 analytically  !
 ! D250  D(83,84,85,88)        122.7327         calculate D2E/DX2 analytically  !
 ! D251  D(89,84,85,86)         62.8223         calculate D2E/DX2 analytically  !
 ! D252  D(89,84,85,87)       -178.3231         calculate D2E/DX2 analytically  !
 ! D253  D(89,84,85,88)        -58.1976         calculate D2E/DX2 analytically  !
 ! D254  D(83,84,89,90)       -117.6166         calculate D2E/DX2 analytically  !
 ! D255  D(83,84,89,91)          2.1179         calculate D2E/DX2 analytically  !
 ! D256  D(83,84,89,92)        121.3534         calculate D2E/DX2 analytically  !
 ! D257  D(85,84,89,90)         63.5108         calculate D2E/DX2 analytically  !
 ! D258  D(85,84,89,91)       -176.7547         calculate D2E/DX2 analytically  !
 ! D259  D(85,84,89,92)        -57.5192         calculate D2E/DX2 analytically  !
 ! D260  D(84,85,87,19)        -24.2562         calculate D2E/DX2 analytically  !
 ! D261  D(84,85,87,38)        -82.5457         calculate D2E/DX2 analytically  !
 ! D262  D(86,85,87,19)         94.7346         calculate D2E/DX2 analytically  !
 ! D263  D(86,85,87,38)         36.445          calculate D2E/DX2 analytically  !
 ! D264  D(88,85,87,19)       -144.2495         calculate D2E/DX2 analytically  !
 ! D265  D(88,85,87,38)        157.4609         calculate D2E/DX2 analytically  !
 --------------------------------------------------------------------------------
 Trust Radius=3.00D-02 FncErr=1.00D-07 GrdErr=1.00D-06 EigMax=2.50D+02 EigMin=1.00D-04
 Number of steps in this run=    582 maximum allowed number of steps=    600.
 Search for a saddle point of order  1.
 Step   0 in ReCalcFC=30 IGetFC= 4 compute analytic Hessian.
 GradGradGradGradGradGradGradGradGradGradGradGradGradGradGradGradGradGrad

 Leave Link  103 at Thu May  9 08:24:02 2019, MaxMem=  6442450944 cpu:               4.4 elap:               0.2
 (Enter /home/ekwan/sw/g16/l202.exe)
 Stoichiometry    C30H47F6NaO15S
 Framework group  C1[X(C30H47F6NaO15S)]
 Deg. of freedom   294
 Full point group                 C1      NOp   1
 Largest Abelian subgroup         C1      NOp   1
 Largest concise Abelian subgroup C1      NOp   1
                         Standard orientation:                         
 ---------------------------------------------------------------------
 Center     Atomic      Atomic             Coordinates (Angstroms)
 Number     Number       Type             X           Y           Z
 ---------------------------------------------------------------------
      1          6           0        3.667389   -2.108891   -0.572152
      2          6           0        3.330464   -2.987594    0.632549
      3          6           0        2.033513   -2.485484    1.276053
      4          6           0        1.115285   -1.834397   -0.862569
      5          6           0        2.479936   -2.032759   -1.539039
      6          1           0        1.725901   -3.106994    2.128615
      7          1           0        3.155216   -4.017135    0.285892
      8          1           0        3.897377   -1.103777   -0.212549
      9          1           0        1.022834   -0.773712   -0.599034
     10          1           0        2.464539   -2.975739   -2.109356
     11          8           0        0.965616   -2.612477    0.349598
     12          8           0        2.255463   -1.168863    1.693626
     13          8           0        4.422124   -2.956365    1.534264
     14          8           0        4.775816   -2.645043   -1.290245
     15          8           0        2.589285   -0.931789   -2.433002
     16          6           0       -0.038329   -2.251478   -1.796077
     17          1           0        0.172742   -3.304308   -2.090187
     18          1           0        0.113407   -1.652850   -2.721032
     19          8           0       -1.286577   -2.099848   -1.249638
     20          6           0        4.473301   -4.065773    2.416877
     21          1           0        3.616394   -4.091866    3.104455
     22          1           0        4.507158   -5.014595    1.861997
     23          1           0        5.388845   -3.960207    3.003274
     24          6           0        6.026417   -2.050670   -0.963127
     25          1           0        6.012446   -0.970146   -1.157813
     26          1           0        6.289070   -2.221486    0.085792
     27          1           0        6.773074   -2.520367   -1.609262
     28          6           0        3.429859   -1.122174   -3.560447
     29          1           0        4.490345   -1.106849   -3.291260
     30          1           0        3.207723   -2.074183   -4.062679
     31          1           0        3.215642   -0.297772   -4.245718
     32          6           0       -4.329243    0.471520   -0.903769
     33          6           0       -3.180580   -0.114637   -1.725590
     34          6           0       -1.817812    0.209951   -1.136229
     35          6           0       -2.705561    0.796637    0.998625
     36          6           0       -4.072863    0.245922    0.585845
     37          1           0       -0.925025    0.053062   -1.710835
     38          1           0       -3.240923   -1.204280   -1.655399
     39          1           0       -4.410403    1.548991   -1.094125
     40          1           0       -2.700504    1.880023    0.848142
     41          1           0       -4.107063   -0.829222    0.794723
     42          8           0       -1.637451    0.245819    0.180118
     43          8           0       -1.855377    2.117094   -1.489403
     44          8           0       -3.304791    0.290017   -3.067713
     45          8           0       -5.549799   -0.184052   -1.214806
     46          8           0       -5.028250    0.946554    1.366941
     47          6           0       -2.344472    0.505430    2.438303
     48          1           0       -3.144683    0.908923    3.069709
     49          1           0       -1.404639    1.003067    2.705015
     50          8           0       -2.225004   -0.901473    2.624724
     51         16           0       -0.575592    2.621842   -2.179302
     52          8           0       -0.739087    4.035399   -2.555090
     53          8           0       -0.097425    1.693612   -3.222809
     54          6           0        0.651425    2.556237   -0.864106
     55          6           0        0.305038    3.007073    0.406952
     56          6           0        1.942456    2.114397   -1.147265
     57          6           0        1.271114    3.014213    1.412248
     58          1           0       -0.702769    3.349802    0.608187
     59          6           0        2.902363    2.149387   -0.135924
     60          1           0        2.182218    1.733150   -2.130867
     61          6           0        2.573086    2.592652    1.145154
     62          1           0        3.324654    2.613740    1.925717
     63          6           0       -2.577829   -0.519440   -3.990675
     64          1           0       -1.499655   -0.344566   -3.913914
     65          1           0       -2.785397   -1.584671   -3.830078
     66          1           0       -2.915407   -0.223184   -4.986335
     67          6           0       -6.310640    0.438192   -2.245165
     68          1           0       -6.559188    1.474602   -1.976486
     69          1           0       -5.772637    0.434292   -3.197747
     70          1           0       -7.234558   -0.137768   -2.338580
     71          6           0       -6.044396    0.121265    1.923731
     72          1           0       -6.596304   -0.407719    1.139889
     73          1           0       -5.620159   -0.608298    2.628154
     74          1           0       -6.722732    0.784947    2.465126
     75          6           0       -2.141923   -1.258773    4.000666
     76          1           0       -2.005991   -2.341563    4.041969
     77          1           0       -1.290456   -0.766152    4.487629
     78          1           0       -3.064790   -0.985634    4.527928
     79          6           0        1.146746   -0.570768    2.348821
     80          1           0        1.524434    0.285996    2.905644
     81          1           0        0.399374   -0.222383    1.628859
     82          1           0        0.674508   -1.274528    3.048601
     83         11           0       -1.395015   -2.349118    0.924148
     84          8           0       -3.539268   -3.255044    0.821017
     85          6           0       -3.985881   -3.630137   -0.483367
     86          1           0       -4.853123   -3.022343   -0.776231
     87          1           0       -3.147846   -3.431627   -1.154409
     88          1           0       -4.261880   -4.693366   -0.507037
     89          6           0       -4.515931   -3.492079    1.822712
     90          1           0       -4.737159   -4.564797    1.910540
     91          1           0       -4.109793   -3.123547    2.766498
     92          1           0       -5.447583   -2.956244    1.595977
     93          6           0        4.335677    1.788928   -0.417930
     94          9           0        4.838206    0.969305    0.537779
     95          9           0        5.120941    2.891016   -0.428935
     96          9           0        4.495075    1.171532   -1.604479
     97          6           0        0.892821    3.440294    2.803070
     98          9           0       -0.098794    4.352266    2.800261
     99          9           0        1.936495    3.962175    3.475833
    100          9           0        0.444368    2.385207    3.543552
 ---------------------------------------------------------------------
 Rotational constants (GHZ):           0.0670357           0.0427645           0.0393920
 Leave Link  202 at Thu May  9 08:24:03 2019, MaxMem=  6442450944 cpu:               4.3 elap:               0.2
 (Enter /home/ekwan/sw/g16/l301.exe)
 Standard basis: 6-31G(d) (6D, 7F)
 Ernie: Thresh=  0.10000D-02 Tol=  0.10000D-05 Strict=F.
 There are   897 symmetry adapted cartesian basis functions of A   symmetry.
 There are   897 symmetry adapted basis functions of A   symmetry.
   897 basis functions,  1720 primitive gaussians,   897 cartesian basis functions
   214 alpha electrons      214 beta electrons
       nuclear repulsion energy      9889.2913264707 Hartrees.
 IExCor=  402 DFT=T Ex+Corr=B3LYP ExCW=0 ScaHFX=  0.200000
 ScaDFX=  0.800000  0.720000  1.000000  0.810000 ScalE2=  1.000000  1.000000
 IRadAn=      5 IRanWt=     -1 IRanGd=            0 ICorTp=0 IEmpDi=141
 NAtoms=  100 NActive=  100 NUniq=  100 SFac= 1.00D+00 NAtFMM=   60 NAOKFM=T Big=T
 Integral buffers will be    131072 words long.
 Raffenetti 2 integral format.
 Two-electron integral symmetry is turned on.
 R6Disp:  Grimme-D3(BJ) Dispersion energy=       -0.2419806006 Hartrees.
 Nuclear repulsion after empirical dispersion term =     9889.0493458702 Hartrees.
 Force inversion solution in PCM.
 ------------------------------------------------------------------------------
 Polarizable Continuum Model (PCM)
 =================================
 Model                : PCM.
 Atomic radii         : UFF (Universal Force Field).
 Polarization charges : Total charges.
 Charge compensation  : None.
 Solution method      : Matrix inversion.
 Cavity type          : Scaled VdW (van der Waals Surface) (Alpha=1.100).
 Cavity algorithm     : GePol (No added spheres)
                        Default sphere list used, NSphG=  100.
[...]
 0186,-0.00012423,-0.00000191,-0.00007670,-0.00013512,-0.00000824,0.000
 01871,0.00056330,0.00052212,0.00003160,-0.00011170,-0.00005263,-0.0000
 0172,0.00012671,0.00021870,0.00012155,-0.00015772,-0.00045010,0.000093
 45,0.00120975,-0.00039346,0.00093636,-0.00027965,0.00039119,-0.0003049
 6,-0.00021721,-0.00017504,-0.00060094,-0.00127809,0.00021468,-0.000734
 19,0.00288718,-0.00139756,-0.00271611,0.00017054,-0.00006209,-0.000171
 76,-0.01641657,0.00150102,-0.01369838,-0.00004222,-0.00000663,0.000018
 87,-0.00008417,0.00006651,-0.00039346,0.00000460,0.00000339,0.00003104
 ,-0.00082785,-0.00006152,-0.00002716,0.00003605,-0.00084339,-0.0008627
 1,0.00000424,0.00003496,0.00004235,-0.00000400,0.00000767,0.00000797,-
 0.00000406,-0.00001166,-0.00000161,-0.00000608,-0.00000100,-0.00001391
 ,0.00003971,-0.00004198,0.00004447,-0.00000310,0.00001082,-0.00000348,
 0.00000199,0.00000574,-0.00000679,-0.00001291,0.00000068,-0.00000750,0
 .00007901,0.00004918,-0.00003613,-0.00001042,-0.00001194,-0.00000196,0
 .00000031,-0.00000438,0.00000048,-0.00001388,0.00000133,0.00001027,0.0
 0009441,0.00009806,-0.00017156,-0.00000851,-0.00003468,0.00001436,-0.0
 0002489,0.00000477,-0.00002318,-0.00003369,0.00000606,0.00002539,0.000
 01623,0.00041245,0.00021827,-0.00038651,0.00017517,-0.00011335,0.00006
 108,0.00006981,0.00009153,-0.00000613,-0.00010740,0.00000073,0.0000374
 5,0.00015326,0.00004000,-0.00003142,-0.00004594,-0.00001026,0.00000647
 ,0.00001027,0.00002833,-0.00000024,0.00000436,-0.00000164,0.00001116,0
 .00001285,0.00000256,-0.00000586,-0.00001157,-0.00000054,0.00002828,0.
 00001392,-0.00001282,-0.00000487,-0.00001113,-0.00000135,0.00000286,0.
 00000771,-0.00000861,-0.00000366,0.00000402,-0.00000040,-0.00101652,0.
 00001147,0.00011882,0.00028476,-0.00010351,0.00005572,0.00038114,0.000
 18858,-0.00002311,0.00023924,-0.00008604,-0.00015857,-0.05173337,-0.10
 422286,-0.05173763,0.02087640,0.01679385,0.01284912,0.09667672,0.12550
 835,-0.00005293,0.00009621,0.00003750,-0.00006305,0.00002176,-0.000084
 10,-0.00006664,0.00011819,-0.00008615,-0.00001988,0.00025375,-0.000070
 73,-0.00000416,0.00008950,-0.00006162,-0.00001025,-0.00003006,0.000028
 99,0.00000827,-0.00001256,0.00001077,-0.00001213,0.00001271,-0.0000202
 2,0.00001444,-0.00003495,-0.00003170,0.00001050,-0.00005056,-0.0000112
 6,0.00004846,-0.00016088,0.00014853,0.00003985,-0.00016379,0.00010482,
 0.00007146,-0.00005217,0.00009948,0.00010034,-0.00005965,0.00000152,0.
 00006801,-0.00023819,-0.00012499,-0.00007998,0.00002716,0.00006401,0.0
 0004024,-0.00006572,-0.00003076,0.00000696,0.00002244,0.00001010,0.000
 03352,-0.00029706,0.00000175,-0.00000292,0.00005203,-0.00004757,-0.000
 01128,-0.00001091,0.00000552,-0.00000249,-0.00000661,0.00000714,0.0000
 1258,-0.00000938,0.00000859,-0.00005294,0.00003251,-0.00003887,-0.0000
 2164,-0.00000055,0.00001344,0.00001109,-0.00000588,0.00001284,0.000014
 32,-0.00001293,-0.00000281,-0.00008997,0.00001886,0.00014588,0.0000168
 4,0.00000870,-0.00000596,0.00000604,-0.00003539,-0.00002882,-0.0000008
 4,0.00000758,0.00001063,0.00013161,0.00002072,-0.00000620,0.00009592,-
 0.00003482,0.00012216,0.00010303,0.00116004,-0.00015590,0.00020726,0.0
 0007463,-0.00019701,0.00012127,-0.00003121,-0.00004040,0.00000608,0.00
 000247,0.00002373,-0.00003422,-0.00000671,-0.00002303,0.00001600,-0.00
 001682,-0.00000112,0.00007796,-0.00002478,-0.00000083,-0.00002933,-0.0
 0000245,0.00000002,-0.00022600,-0.00026303,0.00018855,-0.00127141,-0.0
 0068040,-0.00008842,-0.00006424,-0.00007726,-0.00011639,-0.00015866,-0
 .00002743,-0.00004388,-0.00015642,-0.00001389,0.00009364,0.00001156,0.
 00013903,-0.00005753,-0.00002642,-0.00002533,0.00001823,0.00000693,-0.
 00001966,-0.00011821,-0.00001201,-0.00016496,0.00019247,0.00325492,-0.
 00028547,0.00203758,-0.00078823,0.00071409,-0.00068518,-0.00055462,-0.
 00048426,-0.00120704,-0.00099274,0.00105421,-0.00252969,0.00522819,-0.
 00424540,-0.00332824,-0.00040822,-0.00009012,-0.00085590,-0.03624479,-
 0.02074826,-0.02503523,-0.00005752,-0.00024080,0.00066360,0.00009249,0
 .00025893,-0.00046716,0.00001784,-0.00000748,0.00012460,-0.00172309,0.
 00019170,-0.00092382,0.00059398,-0.00129692,-0.00148615,0.00002986,0.0
 0005576,0.00006627,-0.00001376,0.00002883,0.00001576,-0.00001522,-0.00
 002489,-0.00000305,-0.00001148,-0.00000017,-0.00001799,0.00004715,-0.0
 0003497,0.00005008,-0.00000141,0.00001047,-0.00000628,0.00000672,0.000
 00725,-0.00000155,-0.00001673,-0.00000228,-0.00000704,0.00007550,0.000
 06802,-0.00005466,-0.00000742,-0.00001208,0.00000042,-0.00000114,-0.00
 001783,0.00000743,-0.00001624,0.00000056,0.00000934,-0.00002239,0.0000
 2275,-0.00017196,0.00000459,-0.00001222,0.00001720,0.00002176,0.000011
 64,0.00001320,-0.00000999,0.00000521,0.00002172,-0.00012340,0.00003872
 ,-0.00005398,-0.00002185,0.00003600,-0.00012983,0.00008719,0.00009753,
 0.00005496,0.00001196,-0.00010207,0.00002421,0.00002330,0.00011918,-0.
 00008717,-0.00002616,-0.00004237,0.00003151,-0.00000258,0.00000753,-0.
 00000327,0.00000608,0.00000555,0.00000190,0.00001919,0.00002488,0.0000
 0530,-0.00000587,-0.00001293,0.00000662,0.00002652,0.00001302,-0.00003
 948,-0.00000585,-0.00001043,0.00000272,0.00000094,0.00000511,0.0000014
 6,-0.00000245,0.00000269,0.00000274,-0.00240106,0.00040815,0.00011581,
 0.00070709,-0.00036893,0.00023980,0.00081506,0.00027622,-0.00004561,0.
 00057387,-0.00025658,-0.00032809,-0.07476311,-0.05014762,-0.14553238,-
 0.02248542,0.00735847,0.00603877,0.12075453,0.06249659,0.15373585,-0.0
 0000079,-0.00005283,-0.00001337,-0.00001838,-0.00001243,0.00001147,0.0
 0001935,0.00002674,0.00006034,0.00000529,-0.00009820,0.00005748,-0.000
 01853,-0.00005430,0.00005293,-0.00000175,0.00000141,-0.00000936,0.0000
 0576,0.00000754,-0.00000567,0.00000112,-0.00001009,0.00000669,-0.00002
 068,0.00000587,0.00001811,-0.00000228,0.00002432,0.00000211,0.00002883
 ,0.00004481,-0.00009170,0.00009895,-0.00001775,-0.00003934,0.00000746,
 0.00002765,-0.00002086,0.00000966,0.00003808,-0.00000253,-0.00000287,0
 .00012629,0.00003998,-0.00008792,-0.00000845,0.00001869,0.00001404,0.0
 0000419,0.00000087,0.00000910,0.00000201,-0.00002050,0.00009577,0.0000
 1525,-0.00008268,-0.00000747,-0.00002347,0.00001908,0.00000419,0.00000
 325,-0.00000575,0.00000122,0.00000516,0.00000086,0.00000145,-0.0000005
 8,-0.00000100,-0.00000656,-0.00003616,0.00000445,0.00001157,0.00000631
 ,-0.00001012,-0.00000175,-0.00000024,-0.00000063,-0.00000308,0.0000080
 2,0.00000316,0.00002477,-0.00000904,-0.00005457,-0.00000072,-0.0000058
 9,0.00000106,-0.00000101,0.00001786,0.00001263,0.00000013,-0.00000361,
 -0.00000903,-0.00006625,-0.00003991,0.00015398,-0.00004883,0.00004755,
 0.00002908,-0.00001495,-0.00055659,0.00058312,-0.00052618,-0.00015927,
 0.00071580,0.00015452,0.00004727,-0.00022128,-0.00002118,-0.00001238,-
 0.00003642,0.00001774,0.00001242,0.00000696,-0.00001427,0.00000727,-0.
 00000606,-0.00000122,-0.00001519,0.00003521,0.00000823,0.00000575,0.00
 001252,0.00017519,0.00003741,-0.00071541,0.00077883,0.00046993,-0.0001
 6255,0.00003681,0.00001149,-0.00008580,-0.00007545,0.00001079,-0.00013
 668,-0.00011468,-0.00004226,-0.00008777,0.00146262,0.00126079,0.000216
 74,-0.00026359,-0.00006959,-0.00004021,-0.00215492,-0.00044145,-0.0010
 6166,-0.00032963,-0.00137708,0.00006836,-0.00172323,0.00018004,-0.0008
 0683,0.00037847,-0.00022327,0.00025349,0.00034939,0.00014571,0.0005168
 9,0.00003617,0.00138140,0.00132583,-0.00283029,-0.00046082,0.00017701,
 0.00071637,-0.00022553,0.00062795,0.00447158,-0.01209138,0.01568421,0.
 00004706,-0.00050740,0.00033509,0.00035117,0.00037910,-0.00046888,-0.0
 0000282,-0.00011741,-0.00002238,0.00059595,0.00028328,-0.00021490,0.00
 008928,-0.00043744,-0.00016103,-0.00004148,0.00001967,0.00001504,0.000
 01156,-0.00002067,-0.00000600,0.00000948,0.00000191,0.00000004,0.00000
 470,-0.00000270,-0.00000635,0.00002422,-0.00003759,0.00003904,-0.00000
 204,0.00000492,-0.00000165,-0.00000462,0.00000455,-0.00001543,-0.00001
 037,0.00000271,-0.00000891,0.00010770,0.00005365,-0.00003360,-0.000019
 79,-0.00001709,-0.00000597,0.00000355,0.00000482,-0.00000252,-0.000006
 88,0.00000279,0.00001001,0.00015117,0.00020149,-0.00038489,-0.00001786
 ,-0.00007512,0.00003339,-0.00005341,0.00007423,-0.00001056,-0.00003601
 ,0.00002216,0.00005622,-0.00016645,0.00017069,-0.00029983,-0.00077100,
 0.00124329,0.00072142,0.00016583,-0.00001315,0.00011499,0.00004164,0.0
 0017624,0.00006576,-0.00009530,0.00015378,0.00016379,-0.00001739,-0.00
 006484,-0.00005600,0.00000947,0.00001776,0.00005977,-0.00000216,0.0000
 0236,-0.00000463,-0.00000487,-0.00000319,-0.00000250,-0.00000575,-0.00
 001075,-0.00000991,0.00001962,0.00002072,0.00001933,-0.00000423,-0.000
 01456,-0.00000823,0.00000480,0.00001793,-0.00002190,0.00000186,0.00000
 493,-0.00000129,0.00091273,-0.00027867,-0.00020086,-0.00026286,0.00016
 605,-0.00003724,-0.00030958,-0.00007515,0.00005493,-0.00024559,0.00014
 156,0.00019725,-0.08735087,-0.03723756,0.03586642,0.01234282,0.0274389
 5,-0.01567658,-0.03182815,-0.05068522,0.00951326,0.10579876,-0.0001035
 9,-0.00004796,0.00011870,-0.00031518,-0.00009269,-0.00005413,0.0006589
 5,0.00116538,0.00030083,-0.00005606,-0.00012420,0.00034953,-0.00004352
 ,-0.00007674,0.00015848,-0.00007233,-0.00008754,0.00001436,0.00010060,
 -0.00005436,-0.00006084,-0.00002285,-0.00003365,0.00001970,-0.00000903
 ,-0.00002645,0.00003497,0.00000602,0.00001003,-0.00002826,-0.00016343,
 -0.00018729,-0.00056091,0.00031610,-0.00235560,-0.00096192,0.00014807,
 -0.00008780,0.00003953,0.00018258,0.00002122,-0.00010505,0.00005846,0.
 00014977,-0.00013126,0.00000299,0.00002327,0.00007582,0.00000324,-0.00
 002754,-0.00001717,-0.00001052,0.00001308,-0.00005854,-0.00001679,0.00
 001042,-0.00017716,-0.00004669,0.00010053,-0.00003700,0.00001083,0.000
 00350,-0.00001106,0.00000026,-0.00002769,-0.00001168,0.00001250,-0.000
 00445,0.00001280,-0.00008757,-0.00007536,-0.00000659,0.00001699,0.0000
 1813,-0.00000319,-0.00000514,0.00000751,0.00000595,0.00001786,0.000004
 61,-0.00000604,-0.00003129,0.00000826,0.00004582,0.00001358,-0.0000116
 3,-0.00000459,0.00000508,0.00000336,0.00000059,0.00000387,0.00000493,-
 0.00002694,-0.00004114,-0.00008736,0.00018863,-0.00002398,0.00005904,0
 .00007560,0.00002330,-0.00070474,0.00082127,-0.00049824,-0.00040405,0.
 00072759,0.00025989,0.00005987,-0.00029339,-0.00001196,-0.00000834,-0.
 00002941,0.00002220,0.00001530,0.00000800,-0.00002250,0.00001468,-0.00
 001574,-0.00001273,-0.00000264,-0.00000383,0.00002096,0.00001917,0.000
 02388,0.00001368,0.00012437,-0.00092171,0.00067328,0.00063958,-0.00021
 807,0.00000711,0.00001989,-0.00014615,-0.00015592,0.00003575,-0.000181
 87,-0.00020659,-0.00000726,-0.00007552,0.00177375,0.00173452,0.0002253
 5,-0.00041994,-0.00016547,-0.00004610,-0.00082061,-0.00039457,-0.00015
 837,-0.00053159,-0.00142560,0.00012953,-0.00133568,-0.00030380,-0.0004
 8865,0.00029644,0.00000394,0.00017948,0.00023814,0.00022320,0.00032799
 ,0.00021389,0.00048453,0.00046736,-0.00072869,0.00044037,0.00007578,-0
 .00017273,-0.00011485,0.00006478,-0.00528425,0.00045281,0.00909013,-0.
 00013783,-0.00053963,-0.00012969,-0.00045754,0.00071872,0.00064423,-0.
 00003208,-0.00009102,0.00000911,0.00099088,-0.00009423,0.00095525,-0.0
 0000805,-0.00051604,-0.00008430,-0.00003447,0.00002706,0.00002953,0.00
 000844,-0.00002548,0.00000026,0.00001244,0.00000162,0.00000009,-0.0000
 0074,-0.00000251,-0.00001560,0.00005228,-0.00007986,0.00006263,-0.0000
 0722,0.00001818,-0.00000200,-0.00000443,0.00000762,-0.00001884,-0.0000
 1605,0.00000553,-0.00001387,0.00014466,0.00006122,-0.00004161,-0.00002
 300,-0.00001999,-0.00000497,0.00000424,0.00000841,-0.00000894,-0.00002
 373,0.00000408,0.00001795,0.00032487,0.00030582,-0.00041691,-0.0000146
 4,-0.00008455,0.00003707,-0.00009138,0.00003712,-0.00007184,-0.0001027
 2,0.00002092,0.00006358,0.00169650,0.00174411,0.00128684,-0.00115598,-
 0.00196680,-0.00163849,0.00011439,0.00016449,0.00024294,-0.00016604,-0
 .00051722,-0.00007222,0.00014410,0.00035447,0.00028494,-0.00006598,-0.
 00008567,-0.00007151,0.00002283,0.00002053,0.00009297,-0.00000959,0.00
 000556,-0.00000812,0.00000741,0.00000399,0.00000062,-0.00000995,-0.000
 01771,-0.00001193,0.00005413,0.00002539,0.00000981,-0.00000790,-0.0000
 2044,-0.00000792,0.00001013,0.00002070,-0.00002918,-0.00000849,0.00000
 853,-0.00000475,0.00086196,-0.00035865,0.00010656,-0.00024519,0.000247
 05,-0.00016099,-0.00022714,-0.00000548,0.00001550,-0.00027208,0.000190
 06,0.00020651,-0.03674566,-0.14174955,0.06772371,0.01596010,-0.0660811
 5,0.03361856,-0.04544575,-0.03783436,0.00560270,0.07105417,0.24715778,
 -0.00001106,0.00013009,0.00000422,0.00003793,0.00004159,-0.00007033,-0
 .00022031,-0.00026671,-0.00020187,-0.00000208,0.00031155,-0.00020020,0
 .00002278,0.00013810,-0.00013658,0.00001215,0.00000025,0.00002935,-0.0
 0002392,0.00000091,0.00002985,-0.00000404,0.00002747,-0.00002962,0.000
 02854,-0.00002774,-0.00005073,0.00000856,-0.00006191,-0.00000147,0.000
 07149,-0.00010229,0.00035540,-0.00018714,0.00041756,0.00046472,0.00001
 203,-0.00003288,0.00009392,0.00001936,-0.00008168,0.00003690,0.0000378
 9,-0.00033075,-0.00009455,-0.00002218,0.00001820,0.00002531,0.00002517
 ,-0.00004937,-0.00002181,0.00000649,0.00001309,0.00003533,-0.00001426,
 -0.00025093,0.00008276,0.00002006,0.00002924,-0.00004511,-0.00001821,-
 0.00001423,0.00001255,-0.00000366,0.00000062,0.00001081,0.00000684,-0.
 00000697,0.00000381,-0.00001232,0.00007617,-0.00003443,-0.00003097,-0.
 00001061,0.00001839,0.00001277,-0.00000750,0.00000945,0.00000844,-0.00
 001727,-0.00000206,-0.00008205,0.00001663,0.00014613,0.00000978,0.0000
 1566,-0.00000472,0.00000457,-0.00004294,-0.00003340,-0.00000101,0.0000
 0769,0.00002260,0.00013203,0.00004550,-0.00009650,0.00009898,-0.000053
 48,0.00007370,0.00009891,0.00128803,-0.00051144,0.00040100,0.00018883,
 -0.00048550,-0.00001445,-0.00004241,0.00004984,0.00001766,0.00000884,0
 .00004160,-0.00003799,-0.00001314,-0.00002296,0.00002283,-0.00001877,0
 .00000466,0.00007623,-0.00000623,-0.00001208,-0.00002804,-0.00000822,-
 0.00000744,-0.00022887,-0.00026184,0.00061971,-0.00143304,-0.00086020,
 0.00001303,-0.00006710,-0.00007012,-0.00002697,-0.00007351,-0.00003370
 ,0.00004955,-0.00005455,0.00000815,0.00012807,-0.00063316,-0.00051118,
 0.00017332,0.00001980,0.00000154,0.00000815,-0.00126749,-0.00059881,-0
 .00165258,0.00015480,0.00023476,0.00022209,0.00309734,-0.00021996,0.00
 215997,-0.00073825,0.00051596,-0.00067515,-0.00059293,-0.00033704,-0.0
 0108785,-0.00019988,-0.00210344,-0.00037488,0.00302020,-0.00022215,0.0
 0064639,0.00060332,0.00011253,-0.00088204,0.01977987,0.03005909,-0.029
 89670,0.00006430,0.00103079,-0.00018197,-0.00003671,-0.00249302,-0.001
 17818,0.00006961,0.00028993,0.00009023,-0.00347280,0.00159970,-0.00203
 461,0.00053342,0.00098498,-0.00015769,0.00004526,0.00003349,0.00003863
 ,-0.00001602,0.00003354,0.00001413,-0.00001737,-0.00002093,-0.00000208
 ,-0.00000964,0.00000143,-0.00000781,0.00001743,0.00000034,0.00001079,0
 .00000127,0.00000342,-0.00000433,0.00000765,0.00000310,0.00000895,-0.0
 0000677,-0.00000386,-0.00000024,-0.00000109,0.00002969,-0.00003247,0.0
 0000543,0.00000036,0.00000587,-0.00000111,-0.00002219,0.00000957,-0.00
 001029,-0.00000088,-0.00000012,-0.00023120,-0.00011558,-0.00011783,0.0
 0002873,0.00004332,0.00001917,0.00008901,-0.00000797,0.00008009,0.0000
 2918,-0.00000179,0.00000726,-0.00017490,-0.00084132,-0.00031493,0.0012
 9110,-0.00122011,-0.00059255,0.00012668,0.00011811,-0.00000242,0.00001
 096,-0.00013567,-0.00000716,-0.00000815,-0.00004572,-0.00021136,-0.000
 00087,0.00000612,0.00007077,-0.00001307,-0.00000676,-0.00005002,0.0000
 0880,0.00000249,0.00000559,0.00001582,0.00002146,0.00000537,-0.0000002
 7,-0.00000250,0.00001165,0.00000476,-0.00000255,-0.00004866,-0.0000024
 9,0.00000117,0.00000709,-0.00000204,-0.00000498,0.00001559,-0.00000060
 ,-0.00000170,0.00000413,-0.00293353,0.00041400,0.00002911,0.00080138,-
 0.00047048,0.00030146,0.00088714,0.00027782,-0.00006617,0.00080716,-0.
 00034567,-0.00051386,0.03671446,0.07065687,-0.13814233,-0.00893337,0.0
 2520800,0.00410034,-0.00095971,-0.00512096,0.01985606,-0.04659294,-0.1
 1693903,0.15006230\\0.00000092,-0.00000060,-0.00000069,-0.00000070,-0.
 00000085,-0.00000118,-0.00000025,-0.00000107,-0.00000207,0.00000011,0.
 00000154,-0.00000133,-0.00000003,0.00000078,-0.00000119,-0.00000055,-0
 .00000218,-0.00000184,-0.00000062,-0.00000062,-0.00000248,-0.00000067,
 0.00000002,-0.00000042,-0.00000030,0.00000038,0.00000065,-0.00000011,0
 .00000175,-0.00000181,0.00000051,-0.00000044,-0.00000145,-0.00000034,-
 0.00000225,0.00000005,-0.00000051,-0.00000143,-0.00000103,-0.00000023,
 0.00000111,-0.00000137,-0.00000050,0.00000215,0.00000154,0.00000002,0.
 00000257,-0.00000205,0.00000003,0.00000150,-0.00000083,0.00000024,-0.0
 0000010,-0.00000257,0.00000248,0.00000033,0.00000173,-0.00000056,-0.00
 000259,-0.00000252,-0.00000077,-0.00000306,-0.00000264,-0.00000058,-0.
 00000206,-0.00000320,-0.00000076,-0.00000306,-0.00000214,-0.00000003,-
 0.00000006,-0.00000051,0.00000011,0.00000028,0.00000033,-0.00000010,-0
 .00000068,-0.00000056,-0.00000006,0.00000059,-0.00000086,0.00000040,0.
 00000258,-0.00000032,0.00000033,0.00000232,0.00000014,0.00000038,0.000
 00292,-0.00000081,0.00000057,0.00000317,0.00000062,-0.00000009,0.00000
 100,0.00000016,-0.00000033,0.00000179,0.00000052,-0.00000050,0.0000003
 6,-0.00000046,0.00000075,-0.00000022,0.00000050,-0.00000058,-0.0000001
 6,-0.00000029,0.00000071,0.00000266,0.00000188,0.00000147,-0.00000128,
 -0.00000105,0.00000058,0.00000129,0.00000151,-0.00000018,-0.00000039,0
 .00000202,0.00000008,-0.00000036,-0.00000008,0.00000008,0.00000052,0.0
 0000070,0.00000105,0.00000201,0.00000168,-0.00000017,0.00000329,0.0000
 0039,0.00000024,0.00000199,-0.00000009,0.00000091,-0.00000068,0.000001
 80,0.00000059,-0.00000191,0.00000065,-0.00000031,-0.00000166,0.0000004
 8,0.00000010,-0.00000235,0.00000232,-0.00000158,-0.00000425,0.00000020
 ,0.00000006,0.00000168,0.00000396,0.00000070,0.00000222,0.00000344,0.0
 0000145,0.00000214,0.00000008,0.00000061,0.00000074,0.00000261,0.00000
 047,0.00000019,0.00000255,0.00000022,0.00000005,0.00000266,0.00000038,
 -0.00000129,0.00000308,0.00000040,-0.00000053,0.00000283,0.00000020,-0
 .00000032,0.00000254,0.00000045,0.00000129,0.00000211,-0.00000022,-0.0
 0000144,0.00000288,0.00000027,-0.00000199,0.00000307,0.00000101,0.0000
 0355,-0.00000009,0.00000038,0.00000344,-0.00000007,0.00000050,0.000003
 18,-0.00000126,0.00000059,0.00000451,0.,0.00000017,0.00000265,0.000000
 15,0.00000042,0.00000234,0.00000104,0.00000048,0.00000333,0.00000023,0
 .00000035,0.00000275,-0.00000044,-0.00000087,-0.00000089,-0.00000082,-
 0.00000023,-0.00000018,-0.00000062,0.00000068,-0.00000151,-0.00000021,
 -0.00000003,-0.00000133,0.00000048,0.00000069,-0.00000152,0.00000057,-
 0.00000087,-0.00000261,-0.00000345,-0.00000043,-0.00000363,-0.00000016
 ,-0.00000153,-0.00000358,-0.00000138,-0.00000156,-0.00000303,-0.000000
 81,0.00000011,-0.00000247,0.00000063,-0.00000020,-0.00000167,0.0000002
 8,-0.00000211,-0.00000116,-0.00000114,0.00000187,-0.00000024,-0.000001
 59,-0.00000009,-0.00000169,-0.00000252,0.00000268,-0.00000290,-0.00000
 013,-0.00000049,0.00000034,-0.00000304,-0.00000651,0.00000930,-0.00000
 773,0.00000030,0.00000066,-0.00000359,-0.00000108,-0.00000015,-0.00000
 295,-0.00000112,-0.00000092,-0.00000431,-0.00000033,-0.00000238,-0.000
 00246,0.00000002,-0.00000030,-0.00000217,0.00000012,-0.00000006,0.0000
 0235,0.00000003,-0.00000145,0.00000133,0.00000053,-0.00000045,0.000004
 26,0.00000040,0.00000161,0.00000178,0.00000029,-0.00000209,0.00000338,
 -0.00000031,-0.00000284,0.00000421,-0.00000019,-0.00000269,0.00000376,
 0.00000010,-0.00000328,0.00000264\\\@


 NATURE WILL TELL YOU A DIRECT LIE IF SHE CAN.

                                -- CHARLES DARWIN
 Job cpu time:       5 days  0 hours 48 minutes 13.6 seconds.
 Elapsed time:       0 days  3 hours 58 minutes  8.3 seconds.
 File lengths (MBytes):  RWF=   9686 Int=      0 D2E=      0 Chk=    105 Scr=      1
 Normal termination of Gaussian 16 at Thu May  9 16:42:09 2019.
