 Entering Gaussian System, Link 0=g16
 Input=clay_new-glu_gluC6-ADUR-Na_1Me2O-bisCF3-ts-b3lyp_d3bj-631gd-pcm_thf.gjf
 Output=clay_new-glu_gluC6-ADUR-Na_1Me2O-bisCF3-ts-b3lyp_d3bj-631gd-pcm_thf.out
 Initial command:
 /home/ekwan/sw/g16/l1.exe "/scratch/users/ekwan/clay_new-glu_gluC6-ADUR-Na_1Me2O-bisCF3-ts-b3lyp_d3bj-631gd-pcm_thf/Gau-41467.inp" -scrdir="/scratch/users/ekwan/clay_new-glu_gluC6-ADUR-Na_1Me2O-bisCF3-ts-b3lyp_d3bj-631gd-pcm_thf/"
 Entering Link 1 = /home/ekwan/sw/g16/l1.exe PID=     41468.
  
 Copyright (c) 1988,1990,1992,1993,1995,1998,2003,2009,2016,
            Gaussian, Inc.  All Rights Reserved.
  
 This is part of the Gaussian(R) 16 program.  It is based on
 the Gaussian(R) 09 system (copyright 2009, Gaussian, Inc.),
 the Gaussian(R) 03 system (copyright 2003, Gaussian, Inc.),
 the Gaussian(R) 98 system (copyright 1998, Gaussian, Inc.),
 the Gaussian(R) 94 system (copyright 1995, Gaussian, Inc.),
 the Gaussian 92(TM) system (copyright 1992, Gaussian, Inc.),
 the Gaussian 90(TM) system (copyright 1990, Gaussian, Inc.),
 the Gaussian 88(TM) system (copyright 1988, Gaussian, Inc.),
 the Gaussian 86(TM) system (copyright 1986, Carnegie Mellon
 University), and the Gaussian 82(TM) system (copyright 1983,
 Carnegie Mellon University). Gaussian is a federally registered
 trademark of Gaussian, Inc.
  
 This software contains proprietary and confidential information,
 including trade secrets, belonging to Gaussian, Inc.
  
 This software is provided under written license and may be
 used, copied, transmitted, or stored only in accord with that
 written license.
  
 The following legend is applicable only to US Government
 contracts under FAR:
  
                    RESTRICTED RIGHTS LEGEND
  
 Use, reproduction and disclosure by the US Government is
 subject to restrictions as set forth in subparagraphs (a)
 and (c) of the Commercial Computer Software - Restricted
 Rights clause in FAR 52.227-19.
  
 Gaussian, Inc.
 340 Quinnipiac St., Bldg. 40, Wallingford CT 06492
  
  
 ---------------------------------------------------------------
 Warning -- This program may not be used in any manner that
 competes with the business of Gaussian, Inc. or will provide
 assistance to any competitor of Gaussian, Inc.  The licensee
 of this program is prohibited from giving any competitor of
 Gaussian, Inc. access to this program.  By using this program,
 the user acknowledges that Gaussian, Inc. is engaged in the
 business of creating and licensing software in the field of
 computational chemistry and represents and warrants to the
 licensee that it is not a competitor of Gaussian, Inc. and that
 it will not use this program in any manner prohibited above.
 ---------------------------------------------------------------
  

 Cite this work as:
 Gaussian 16, Revision A.03,
 M. J. Frisch, G. W. Trucks, H. B. Schlegel, G. E. Scuseria, 
 M. A. Robb, J. R. Cheeseman, G. Scalmani, V. Barone, 
 G. A. Petersson, H. Nakatsuji, X. Li, M. Caricato, A. V. Marenich, 
 J. Bloino, B. G. Janesko, R. Gomperts, B. Mennucci, H. P. Hratchian, 
 J. V. Ortiz, A. F. Izmaylov, J. L. Sonnenberg, D. Williams-Young, 
 F. Ding, F. Lipparini, F. Egidi, J. Goings, B. Peng, A. Petrone, 
 T. Henderson, D. Ranasinghe, V. G. Zakrzewski, J. Gao, N. Rega, 
 G. Zheng, W. Liang, M. Hada, M. Ehara, K. Toyota, R. Fukuda, 
 J. Hasegawa, M. Ishida, T. Nakajima, Y. Honda, O. Kitao, H. Nakai, 
 T. Vreven, K. Throssell, J. A. Montgomery, Jr., J. E. Peralta, 
 F. Ogliaro, M. J. Bearpark, J. J. Heyd, E. N. Brothers, K. N. Kudin, 
 V. N. Staroverov, T. A. Keith, R. Kobayashi, J. Normand, 
 K. Raghavachari, A. P. Rendell, J. C. Burant, S. S. Iyengar, 
 J. Tomasi, M. Cossi, J. M. Millam, M. Klene, C. Adamo, R. Cammi, 
 J. W. Ochterski, R. L. Martin, K. Morokuma, O. Farkas, 
 J. B. Foresman, and D. J. Fox, Gaussian, Inc., Wallingford CT, 2016.
 
 ******************************************
 Gaussian 16:  AS64L-G16RevA.03 25-Dec-2016
                 8-May-2019 
 ******************************************
 %mem=48GB
 %nprocshared=32
 Will use up to   32 processors via shared memory.
 ----------------------------------------------------------------------
 #p opt=(ts,noeigentest,calcfc,maxstep=3,modredundant,recalc=30) freq=n
 oraman b3lyp 6-31g* pop=none scrf=(solvent=tetrahydrofuran,pcm) empiri
 caldispersion=gd3bj
 ----------------------------------------------------------------------
 1/5=1,8=3,10=4,11=1,18=120,26=3,38=1,71=30/1,3;
 2/9=110,12=2,17=6,18=5,40=1/2;
 3/5=1,6=6,7=1,11=2,25=1,30=1,70=2201,71=2,72=20,74=-5,124=41,140=1/1,2,3;
 4//1;
 5/5=2,38=5,53=20/2;
 8/6=4,10=90,11=11/1;
 11/6=1,8=1,9=11,15=111,16=1/1,2,10;
 10/6=1,13=1/2;
 7/10=1,18=20,25=1/1,2,3,16;
 1/5=1,8=3,10=4,11=1,18=20,26=3,71=30/3(2);
 2/9=110/2;
 99//99;
 2/9=110/2;
 3/5=1,6=6,7=1,11=2,25=1,30=1,70=2205,71=1,72=20,74=-5,124=41/1,2,3;
 4/5=5,16=3,69=1/1;
 5/5=2,38=5,53=20/2;
 7//1,2,3,16;
 1/5=1,8=3,11=1,18=20,26=3,71=30/3(-5);
 2/9=110/2;
 99/9=1/99;
 Leave Link    1 at Wed May  8 11:30:06 2019, MaxMem=  6442450944 cpu:               6.0 elap:               0.2
 (Enter /home/ekwan/sw/g16/l101.exe)
 -----
 title
 -----
 Symbolic Z-matrix:
 Charge =  0 Multiplicity = 1
 C                    -4.3569   -2.64432   0.24801 
 C                    -5.15968  -1.38996  -0.10356 
 C                    -4.26238  -0.14291  -0.05271 
 C                    -2.27508  -1.4107   -0.51629 
 C                    -3.07682  -2.71759  -0.58882 
 H                    -4.76887   0.73599  -0.46882 
 H                    -5.51673  -1.49031  -1.14061 
 H                    -4.07592  -2.60052   1.30865 
 H                    -1.92472  -1.25721   0.51229 
 H                    -3.3486   -2.89331  -1.63839 
 O                    -3.1377   -0.32144  -0.89031 
 O                    -3.92159   0.08309   1.29028 
 O                    -6.26216  -1.31831   0.7814 
 O                    -5.11926  -3.81917  -0.00633 
 O                    -2.26472  -3.80901  -0.12946 
 C                    -1.04282  -1.36285  -1.45287 
 H                    -0.92054  -0.27689  -1.69029 
 H                    -1.34984  -1.82297  -2.41985 
 O                     0.08575  -1.91737  -0.91026 
 C                    -7.2356   -0.35264   0.41854 
 H                    -6.87144   0.67384   0.56039 
 H                    -7.55004  -0.475    -0.6283 
 H                    -8.09682  -0.51205   1.07154 
 C                    -5.80036  -4.34112   1.12694 
 H                    -5.09404  -4.58739   1.93373 
 H                    -6.54615  -3.63615   1.50669 
 H                    -6.29516  -5.25866   0.79777 
 C                    -2.44683  -5.0182   -0.87197 
 H                    -3.48801  -5.34331  -0.83251 
 H                    -2.14145  -4.87747  -1.91741 
 H                    -1.80683  -5.77464  -0.40865 
 C                     3.66072  -0.32121   0.72641 
 C                     2.17976  -0.3006    0.35261 
 C                     1.99445  -0.33565  -1.15021 
 C                     4.06679  -1.50179  -1.4918 
 C                     4.30162  -1.51387   0.02388 
 H                     1.06297  -0.04746  -1.6038 
 H                     1.73259  -1.23594   0.70919 
 H                     4.14547   0.60507   0.40001 
 H                     4.71364  -0.7393   -1.93703 
 H                     3.86751  -2.43022   0.43591 
 O                     2.70867  -1.14451  -1.88286 
 O                     1.25595   1.61453  -3.41464 
 O                     1.55329   0.8011    0.95962 
 O                     3.82288  -0.4986    2.12622 
 O                     5.71284  -1.51546   0.17576 
 C                     4.36562  -2.85553  -2.12553 
 H                     5.42629  -3.06192  -1.95606 
 H                     4.18791  -2.79861  -3.20806 
 O                     3.63882  -3.92754  -1.55094 
 S                     2.08207   2.33072  -2.42251 
 O                     2.96228   3.40076  -2.92244 
 O                     2.88481   1.36851  -1.53235 
 C                     0.92747   3.0819   -1.26923 
 C                    -0.41851   3.17428  -1.59977 
 C                     1.40179   3.54206  -0.04224 
 C                    -1.30466   3.75518  -0.68671 
 H                    -0.76668   2.78296  -2.54857 
 C                     0.50501   4.09918   0.86352 
 H                     2.44791   3.43165   0.21276 
 C                    -0.85105   4.21572   0.54613 
 H                    -1.54281   4.6505    1.2563 
 C                     0.1633    0.64436   1.20725 
 H                    -0.42047   0.67874   0.28235 
 H                    -0.04392  -0.30438   1.71674 
 H                    -0.12269   1.47447   1.85242 
 C                     3.96504   0.71703   2.85805 
 H                     4.84155   1.28074   2.5093 
 H                     3.07403   1.34614   2.77204 
 H                     4.11711   0.432     3.90191 
 C                     6.19051  -2.37228   1.20656 
 H                     5.79792  -2.07437   2.18409 
 H                     5.91914  -3.4188    1.00797 
 H                     7.27943  -2.28171   1.20528 
 C                     2.34499  -4.14005  -2.12374 
 H                     1.97666  -5.08037  -1.70135 
 H                     1.64457  -3.32934  -1.89343 
 H                     2.4218   -4.25516  -3.21481 
 C                    -3.34329   1.36334   1.51862 
 H                    -3.07244   1.40375   2.57578 
 H                    -2.44948   1.51193   0.90636 
 H                    -4.05997   2.16318   1.29454 
 Na                   -0.02179  -3.55498   0.45296 
 O                     1.67014  -3.47339   1.98896 
 C                     1.49959  -2.77222   3.22069 
 H                     2.3399   -2.08792   3.38012 
 H                     0.57499  -2.19594   3.13938 
 H                     1.41575  -3.47416   4.06095 
 C                     2.80344  -4.33718   2.01527 
 H                     2.62917  -5.18848   2.68724 
 H                     2.96729  -4.68896   0.9946 
 H                     3.69282  -3.79241   2.35385 
 C                     0.99495   4.46676   2.23519 
 F                     1.04737   3.37457   3.0452 
 F                     0.19142   5.36381   2.84256 
 F                     2.24098   4.98227   2.20513 
 C                    -2.75333   3.87602  -1.07116 
 F                    -2.92958   4.75671  -2.08052 
 F                    -3.52501   4.28886  -0.04039 
 F                    -3.24994   2.69126  -1.49777 
 
 Add virtual bond connecting atoms O53        and C34        Dist= 3.70D+00.
 Add virtual bond connecting atoms H37        and H17        Dist= 3.78D+00.
 The following ModRedundant input section has been read:
 
 ITRead=  0  0  0  0  0  0  0  0  0  0  0  0  0  0  0  0  0  0  0  0
 ITRead=  0  0  0  0  0  0  0  0  0  0  0  0  0  0  0  0  0  0  0  0
 ITRead=  0  0  0  0  0  0  0  0  0  0  0  0  0  0  0  0  0  0  0  0
 ITRead=  0  0  0  0  0  0  0  0  0  0  0  0  0  0  0  0  0  0  0  0
 ITRead=  0  0  0  0  0  0  0  0  0  0  0  0  0  0  0  0  0  0  0  0
 MicOpt= -1 -1 -1 -1 -1 -1 -1 -1 -1 -1 -1 -1 -1 -1 -1 -1 -1 -1 -1 -1
 MicOpt= -1 -1 -1 -1 -1 -1 -1 -1 -1 -1 -1 -1 -1 -1 -1 -1 -1 -1 -1 -1
 MicOpt= -1 -1 -1 -1 -1 -1 -1 -1 -1 -1 -1 -1 -1 -1 -1 -1 -1 -1 -1 -1
 MicOpt= -1 -1 -1 -1 -1 -1 -1 -1 -1 -1 -1 -1 -1 -1 -1 -1 -1 -1 -1 -1
 MicOpt= -1 -1 -1 -1 -1 -1 -1 -1 -1 -1 -1 -1 -1 -1 -1 -1 -1 -1 -1 -1
 NAtoms=    100 NQM=      100 NQMF=       0 NMMI=      0 NMMIF=      0
                NMic=       0 NMicF=      0.
                    Isotopes and Nuclear Properties:
 (Nuclear quadrupole moments (NQMom) in fm**2, nuclear magnetic moments (NMagM)
  in nuclear magnetons)

  Atom         1           2           3           4           5           6           7           8           9          10
 IAtWgt=          12          12          12          12          12           1           1           1           1           1
 AtmWgt=  12.0000000  12.0000000  12.0000000  12.0000000  12.0000000   1.0078250   1.0078250   1.0078250   1.0078250   1.0078250
 NucSpn=           0           0           0           0           0           1           1           1           1           1
 AtZEff=   0.0000000   0.0000000   0.0000000   0.0000000   0.0000000   0.0000000   0.0000000   0.0000000   0.0000000   0.0000000
 NQMom=    0.0000000   0.0000000   0.0000000   0.0000000   0.0000000   0.0000000   0.0000000   0.0000000   0.0000000   0.0000000
 NMagM=    0.0000000   0.0000000   0.0000000   0.0000000   0.0000000   2.7928460   2.7928460   2.7928460   2.7928460   2.7928460
 AtZNuc=   6.0000000   6.0000000   6.0000000   6.0000000   6.0000000   1.0000000   1.0000000   1.0000000   1.0000000   1.0000000

  Atom        11          12          13          14          15          16          17          18          19          20
 IAtWgt=          16          16          16          16          16          12           1           1          16          12
 AtmWgt=  15.9949146  15.9949146  15.9949146  15.9949146  15.9949146  12.0000000   1.0078250   1.0078250  15.9949146  12.0000000
 NucSpn=           0           0           0           0           0           0           1           1           0           0
 AtZEff=   0.0000000   0.0000000   0.0000000   0.0000000   0.0000000   0.0000000   0.0000000   0.0000000   0.0000000   0.0000000
 NQMom=    0.0000000   0.0000000   0.0000000   0.0000000   0.0000000   0.0000000   0.0000000   0.0000000   0.0000000   0.0000000
 NMagM=    0.0000000   0.0000000   0.0000000   0.0000000   0.0000000   0.0000000   2.7928460   2.7928460   0.0000000   0.0000000
 AtZNuc=   8.0000000   8.0000000   8.0000000   8.0000000   8.0000000   6.0000000   1.0000000   1.0000000   8.0000000   6.0000000

  Atom        21          22          23          24          25          26          27          28          29          30
 IAtWgt=           1           1           1          12           1           1           1          12           1           1
 AtmWgt=   1.0078250   1.0078250   1.0078250  12.0000000   1.0078250   1.0078250   1.0078250  12.0000000   1.0078250   1.0078250
 NucSpn=           1           1           1           0           1           1           1           0           1           1
 AtZEff=   0.0000000   0.0000000   0.0000000   0.0000000   0.0000000   0.0000000   0.0000000   0.0000000   0.0000000   0.0000000
 NQMom=    0.0000000   0.0000000   0.0000000   0.0000000   0.0000000   0.0000000   0.0000000   0.0000000   0.0000000   0.0000000
 NMagM=    2.7928460   2.7928460   2.7928460   0.0000000   2.7928460   2.7928460   2.7928460   0.0000000   2.7928460   2.7928460
 AtZNuc=   1.0000000   1.0000000   1.0000000   6.0000000   1.0000000   1.0000000   1.0000000   6.0000000   1.0000000   1.0000000

  Atom        31          32          33          34          35          36          37          38          39          40
 IAtWgt=           1          12          12          12          12          12           1           1           1           1
 AtmWgt=   1.0078250  12.0000000  12.0000000  12.0000000  12.0000000  12.0000000   1.0078250   1.0078250   1.0078250   1.0078250
 NucSpn=           1           0           0           0           0           0           1           1           1           1
 AtZEff=   0.0000000   0.0000000   0.0000000   0.0000000   0.0000000   0.0000000   0.0000000   0.0000000   0.0000000   0.0000000
 NQMom=    0.0000000   0.0000000   0.0000000   0.0000000   0.0000000   0.0000000   0.0000000   0.0000000   0.0000000   0.0000000
 NMagM=    2.7928460   0.0000000   0.0000000   0.0000000   0.0000000   0.0000000   2.7928460   2.7928460   2.7928460   2.7928460
 AtZNuc=   1.0000000   6.0000000   6.0000000   6.0000000   6.0000000   6.0000000   1.0000000   1.0000000   1.0000000   1.0000000

  Atom        41          42          43          44          45          46          47          48          49          50
 IAtWgt=           1          16          16          16          16          16          12           1           1          16
 AtmWgt=   1.0078250  15.9949146  15.9949146  15.9949146  15.9949146  15.9949146  12.0000000   1.0078250   1.0078250  15.9949146
 NucSpn=           1           0           0           0           0           0           0           1           1           0
 AtZEff=   0.0000000   0.0000000   0.0000000   0.0000000   0.0000000   0.0000000   0.0000000   0.0000000   0.0000000   0.0000000
 NQMom=    0.0000000   0.0000000   0.0000000   0.0000000   0.0000000   0.0000000   0.0000000   0.0000000   0.0000000   0.0000000
 NMagM=    2.7928460   0.0000000   0.0000000   0.0000000   0.0000000   0.0000000   0.0000000   2.7928460   2.7928460   0.0000000
 AtZNuc=   1.0000000   8.0000000   8.0000000   8.0000000   8.0000000   8.0000000   6.0000000   1.0000000   1.0000000   8.0000000

  Atom        51          52          53          54          55          56          57          58          59          60
 IAtWgt=          32          16          16          12          12          12          12           1          12           1
 AtmWgt=  31.9720718  15.9949146  15.9949146  12.0000000  12.0000000  12.0000000  12.0000000   1.0078250  12.0000000   1.0078250
 NucSpn=           0           0           0           0           0           0           0           1           0           1
 AtZEff=   0.0000000   0.0000000   0.0000000   0.0000000   0.0000000   0.0000000   0.0000000   0.0000000   0.0000000   0.0000000
 NQMom=    0.0000000   0.0000000   0.0000000   0.0000000   0.0000000   0.0000000   0.0000000   0.0000000   0.0000000   0.0000000
 NMagM=    0.0000000   0.0000000   0.0000000   0.0000000   0.0000000   0.0000000   0.0000000   2.7928460   0.0000000   2.7928460
 AtZNuc=  16.0000000   8.0000000   8.0000000   6.0000000   6.0000000   6.0000000   6.0000000   1.0000000   6.0000000   1.0000000

  Atom        61          62          63          64          65          66          67          68          69          70
 IAtWgt=          12           1          12           1           1           1          12           1           1           1
 AtmWgt=  12.0000000   1.0078250  12.0000000   1.0078250   1.0078250   1.0078250  12.0000000   1.0078250   1.0078250   1.0078250
 NucSpn=           0           1           0           1           1           1           0           1           1           1
 AtZEff=   0.0000000   0.0000000   0.0000000   0.0000000   0.0000000   0.0000000   0.0000000   0.0000000   0.0000000   0.0000000
 NQMom=    0.0000000   0.0000000   0.0000000   0.0000000   0.0000000   0.0000000   0.0000000   0.0000000   0.0000000   0.0000000
 NMagM=    0.0000000   2.7928460   0.0000000   2.7928460   2.7928460   2.7928460   0.0000000   2.7928460   2.7928460   2.7928460
 AtZNuc=   6.0000000   1.0000000   6.0000000   1.0000000   1.0000000   1.0000000   6.0000000   1.0000000   1.0000000   1.0000000

  Atom        71          72          73          74          75          76          77          78          79          80
 IAtWgt=          12           1           1           1          12           1           1           1          12           1
 AtmWgt=  12.0000000   1.0078250   1.0078250   1.0078250  12.0000000   1.0078250   1.0078250   1.0078250  12.0000000   1.0078250
 NucSpn=           0           1           1           1           0           1           1           1           0           1
 AtZEff=   0.0000000   0.0000000   0.0000000   0.0000000   0.0000000   0.0000000   0.0000000   0.0000000   0.0000000   0.0000000
 NQMom=    0.0000000   0.0000000   0.0000000   0.0000000   0.0000000   0.0000000   0.0000000   0.0000000   0.0000000   0.0000000
 NMagM=    0.0000000   2.7928460   2.7928460   2.7928460   0.0000000   2.7928460   2.7928460   2.7928460   0.0000000   2.7928460
 AtZNuc=   6.0000000   1.0000000   1.0000000   1.0000000   6.0000000   1.0000000   1.0000000   1.0000000   6.0000000   1.0000000

  Atom        81          82          83          84          85          86          87          88          89          90
 IAtWgt=           1           1          23          16          12           1           1           1          12           1
 AtmWgt=   1.0078250   1.0078250  22.9897697  15.9949146  12.0000000   1.0078250   1.0078250   1.0078250  12.0000000   1.0078250
 NucSpn=           1           1           3           0           0           1           1           1           0           1
 AtZEff=   0.0000000   0.0000000   0.0000000   0.0000000   0.0000000   0.0000000   0.0000000   0.0000000   0.0000000   0.0000000
 NQMom=    0.0000000   0.0000000  10.4000000   0.0000000   0.0000000   0.0000000   0.0000000   0.0000000   0.0000000   0.0000000
 NMagM=    2.7928460   2.7928460   2.2175200   0.0000000   0.0000000   2.7928460   2.7928460   2.7928460   0.0000000   2.7928460
 AtZNuc=   1.0000000   1.0000000  11.0000000   8.0000000   6.0000000   1.0000000   1.0000000   1.0000000   6.0000000   1.0000000

  Atom        91          92          93          94          95          96          97          98          99         100
 IAtWgt=           1           1          12          19          19          19          12          19          19          19
 AtmWgt=   1.0078250   1.0078250  12.0000000  18.9984033  18.9984033  18.9984033  12.0000000  18.9984033  18.9984033  18.9984033
 NucSpn=           1           1           0           1           1           1           0           1           1           1
 AtZEff=   0.0000000   0.0000000   0.0000000   0.0000000   0.0000000   0.0000000   0.0000000   0.0000000   0.0000000   0.0000000
 NQMom=    0.0000000   0.0000000   0.0000000   0.0000000   0.0000000   0.0000000   0.0000000   0.0000000   0.0000000   0.0000000
 NMagM=    2.7928460   2.7928460   0.0000000   2.6288670   2.6288670   2.6288670   0.0000000   2.6288670   2.6288670   2.6288670
 AtZNuc=   1.0000000   1.0000000   6.0000000   9.0000000   9.0000000   9.0000000   6.0000000   9.0000000   9.0000000   9.0000000
 Leave Link  101 at Wed May  8 11:30:07 2019, MaxMem=  6442450944 cpu:              19.0 elap:               0.7
 (Enter /home/ekwan/sw/g16/l103.exe)

 GradGradGradGradGradGradGradGradGradGradGradGradGradGradGradGradGradGrad
 Berny optimization.
 Initialization pass.
                           ----------------------------
                           !    Initial Parameters    !
                           ! (Angstroms and Degrees)  !
 --------------------------                            --------------------------
 ! Name  Definition              Value          Derivative Info.                !
 --------------------------------------------------------------------------------
 ! R1    R(1,2)                  1.5302         calculate D2E/DX2 analytically  !
 ! R2    R(1,5)                  1.5311         calculate D2E/DX2 analytically  !
 ! R3    R(1,8)                  1.0981         calculate D2E/DX2 analytically  !
 ! R4    R(1,14)                 1.4234         calculate D2E/DX2 analytically  !
 ! R5    R(2,3)                  1.5372         calculate D2E/DX2 analytically  !
 ! R6    R(2,7)                  1.1014         calculate D2E/DX2 analytically  !
 ! R7    R(2,13)                 1.4155         calculate D2E/DX2 analytically  !
 ! R8    R(3,6)                  1.0964         calculate D2E/DX2 analytically  !
 ! R9    R(3,11)                 1.4136         calculate D2E/DX2 analytically  !
 ! R10   R(3,12)                 1.4039         calculate D2E/DX2 analytically  !
 ! R11   R(4,5)                  1.5349         calculate D2E/DX2 analytically  !
 ! R12   R(4,9)                  1.0974         calculate D2E/DX2 analytically  !
 ! R13   R(4,11)                 1.4389         calculate D2E/DX2 analytically  !
 ! R14   R(4,16)                 1.5485         calculate D2E/DX2 analytically  !
 ! R15   R(5,10)                 1.0983         calculate D2E/DX2 analytically  !
 ! R16   R(5,15)                 1.4359         calculate D2E/DX2 analytically  !
 ! R17   R(12,79)                1.4232         calculate D2E/DX2 analytically  !
 ! R18   R(13,20)                1.4184         calculate D2E/DX2 analytically  !
 ! R19   R(14,24)                1.4215         calculate D2E/DX2 analytically  !
 ! R20   R(15,28)                1.4306         calculate D2E/DX2 analytically  !
 ! R21   R(16,17)                1.1183         calculate D2E/DX2 analytically  !
 ! R22   R(16,18)                1.114          calculate D2E/DX2 analytically  !
 ! R23   R(16,19)                1.3695         calculate D2E/DX2 analytically  !
 ! R24   R(17,37)                1.9986         calculate D2E/DX2 analytically  !
 ! R25   R(19,83)                2.1335         calculate D2E/DX2 analytically  !
 ! R26   R(20,21)                1.0984         calculate D2E/DX2 analytically  !
 ! R27   R(20,22)                1.0999         calculate D2E/DX2 analytically  !
 ! R28   R(20,23)                1.0925         calculate D2E/DX2 analytically  !
 ! R29   R(24,25)                1.1002         calculate D2E/DX2 analytically  !
 ! R30   R(24,26)                1.0943         calculate D2E/DX2 analytically  !
 ! R31   R(24,27)                1.0932         calculate D2E/DX2 analytically  !
 ! R32   R(28,29)                1.0915         calculate D2E/DX2 analytically  !
 ! R33   R(28,30)                1.0982         calculate D2E/DX2 analytically  !
 ! R34   R(28,31)                1.0938         calculate D2E/DX2 analytically  !
 ! R35   R(32,33)                1.5276         calculate D2E/DX2 analytically  !
 ! R36   R(32,36)                1.5254         calculate D2E/DX2 analytically  !
 ! R37   R(32,39)                1.0952         calculate D2E/DX2 analytically  !
 ! R38   R(32,45)                1.4203         calculate D2E/DX2 analytically  !
 ! R39   R(33,34)                1.5146         calculate D2E/DX2 analytically  !
 ! R40   R(33,38)                1.0963         calculate D2E/DX2 analytically  !
 ! R41   R(33,44)                1.4052         calculate D2E/DX2 analytically  !
 ! R42   R(34,37)                1.0754         calculate D2E/DX2 analytically  !
 ! R43   R(34,42)                1.3043         calculate D2E/DX2 analytically  !
 ! R44   R(34,53)                1.9603         calculate D2E/DX2 analytically  !
 ! R45   R(35,36)                1.5338         calculate D2E/DX2 analytically  !
 ! R46   R(35,40)                1.0945         calculate D2E/DX2 analytically  !
 ! R47   R(35,42)                1.4578         calculate D2E/DX2 analytically  !
 ! R48   R(35,47)                1.5243         calculate D2E/DX2 analytically  !
 ! R49   R(36,41)                1.0945         calculate D2E/DX2 analytically  !
 ! R50   R(36,46)                1.4194         calculate D2E/DX2 analytically  !
 ! R51   R(43,51)                1.4764         calculate D2E/DX2 analytically  !
 ! R52   R(44,63)                1.4205         calculate D2E/DX2 analytically  !
 ! R53   R(45,67)                1.426          calculate D2E/DX2 analytically  !
 ! R54   R(46,71)                1.423          calculate D2E/DX2 analytically  !
 ! R55   R(47,48)                1.0938         calculate D2E/DX2 analytically  !
 ! R56   R(47,49)                1.0985         calculate D2E/DX2 analytically  !
 ! R57   R(47,50)                1.4169         calculate D2E/DX2 analytically  !
 ! R58   R(50,75)                1.4308         calculate D2E/DX2 analytically  !
 ! R59   R(51,52)                1.473          calculate D2E/DX2 analytically  !
 ! R60   R(51,53)                1.5371         calculate D2E/DX2 analytically  !
 ! R61   R(51,54)                1.7965         calculate D2E/DX2 analytically  !
 ! R62   R(54,55)                1.3891         calculate D2E/DX2 analytically  !
 ! R63   R(54,56)                1.3936         calculate D2E/DX2 analytically  !
 ! R64   R(55,57)                1.3987         calculate D2E/DX2 analytically  !
 ! R65   R(55,58)                1.0838         calculate D2E/DX2 analytically  !
 ! R66   R(56,59)                1.391          calculate D2E/DX2 analytically  !
 ! R67   R(56,60)                1.0824         calculate D2E/DX2 analytically  !
 ! R68   R(57,61)                1.392          calculate D2E/DX2 analytically  !
 ! R69   R(57,97)                1.5037         calculate D2E/DX2 analytically  !
 ! R70   R(59,61)                1.3976         calculate D2E/DX2 analytically  !
 ! R71   R(59,93)                1.5022         calculate D2E/DX2 analytically  !
 ! R72   R(61,62)                1.0826         calculate D2E/DX2 analytically  !
 ! R73   R(63,64)                1.0943         calculate D2E/DX2 analytically  !
 ! R74   R(63,65)                1.0966         calculate D2E/DX2 analytically  !
 ! R75   R(63,66)                1.0895         calculate D2E/DX2 analytically  !
 ! R76   R(67,68)                1.0989         calculate D2E/DX2 analytically  !
 ! R77   R(67,69)                1.0941         calculate D2E/DX2 analytically  !
 ! R78   R(67,70)                1.0927         calculate D2E/DX2 analytically  !
 ! R79   R(71,72)                1.0947         calculate D2E/DX2 analytically  !
 ! R80   R(71,73)                1.0992         calculate D2E/DX2 analytically  !
 ! R81   R(71,74)                1.0927         calculate D2E/DX2 analytically  !
 ! R82   R(75,76)                1.0947         calculate D2E/DX2 analytically  !
 ! R83   R(75,77)                1.0958         calculate D2E/DX2 analytically  !
 ! R84   R(75,78)                1.0998         calculate D2E/DX2 analytically  !
 ! R85   R(79,80)                1.0921         calculate D2E/DX2 analytically  !
 ! R86   R(79,81)                1.0935         calculate D2E/DX2 analytically  !
 ! R87   R(79,82)                1.0971         calculate D2E/DX2 analytically  !
 ! R88   R(83,84)                2.2866         calculate D2E/DX2 analytically  !
 ! R89   R(84,85)                1.4275         calculate D2E/DX2 analytically  !
 ! R90   R(84,89)                1.4252         calculate D2E/DX2 analytically  !
 ! R91   R(85,86)                1.0954         calculate D2E/DX2 analytically  !
 ! R92   R(85,87)                1.0925         calculate D2E/DX2 analytically  !
 ! R93   R(85,88)                1.0981         calculate D2E/DX2 analytically  !
 ! R94   R(89,90)                1.0985         calculate D2E/DX2 analytically  !
 ! R95   R(89,91)                1.0919         calculate D2E/DX2 analytically  !
 ! R96   R(89,92)                1.0965         calculate D2E/DX2 analytically  !
 ! R97   R(93,94)                1.3608         calculate D2E/DX2 analytically  !
 ! R98   R(93,95)                1.3488         calculate D2E/DX2 analytically  !
 ! R99   R(93,96)                1.3488         calculate D2E/DX2 analytically  !
 ! R100  R(97,98)                1.3511         calculate D2E/DX2 analytically  !
 ! R101  R(97,99)                1.3522         calculate D2E/DX2 analytically  !
 ! R102  R(97,100)               1.3536         calculate D2E/DX2 analytically  !
 ! A1    A(2,1,5)              110.6264         calculate D2E/DX2 analytically  !
 ! A2    A(2,1,8)              108.8728         calculate D2E/DX2 analytically  !
 ! A3    A(2,1,14)             110.7659         calculate D2E/DX2 analytically  !
 ! A4    A(5,1,8)              108.4148         calculate D2E/DX2 analytically  !
 ! A5    A(5,1,14)             108.0963         calculate D2E/DX2 analytically  !
 ! A6    A(8,1,14)             110.032          calculate D2E/DX2 analytically  !
 ! A7    A(1,2,3)              110.5597         calculate D2E/DX2 analytically  !
 ! A8    A(1,2,7)              108.1635         calculate D2E/DX2 analytically  !
 ! A9    A(1,2,13)             107.8462         calculate D2E/DX2 analytically  !
 ! A10   A(3,2,7)              107.1156         calculate D2E/DX2 analytically  !
 ! A11   A(3,2,13)             113.1346         calculate D2E/DX2 analytically  !
 ! A12   A(7,2,13)             109.9246         calculate D2E/DX2 analytically  !
 ! A13   A(2,3,6)              111.5989         calculate D2E/DX2 analytically  !
 ! A14   A(2,3,11)             110.0208         calculate D2E/DX2 analytically  !
 ! A15   A(2,3,12)             107.6949         calculate D2E/DX2 analytically  !
 ! A16   A(6,3,11)             104.116          calculate D2E/DX2 analytically  !
 ! A17   A(6,3,12)             110.2525         calculate D2E/DX2 analytically  !
 ! A18   A(11,3,12)            113.205          calculate D2E/DX2 analytically  !
 ! A19   A(5,4,9)              109.277          calculate D2E/DX2 analytically  !
 ! A20   A(5,4,11)             108.6093         calculate D2E/DX2 analytically  !
 ! A21   A(5,4,16)             114.4175         calculate D2E/DX2 analytically  !
 ! A22   A(9,4,11)             109.217          calculate D2E/DX2 analytically  !
 ! A23   A(9,4,16)             107.9695         calculate D2E/DX2 analytically  !
 ! A24   A(11,4,16)            107.2448         calculate D2E/DX2 analytically  !
 ! A25   A(1,5,4)              111.7232         calculate D2E/DX2 analytically  !
 ! A26   A(1,5,10)             108.849          calculate D2E/DX2 analytically  !
 ! A27   A(1,5,15)             109.5347         calculate D2E/DX2 analytically  !
 ! A28   A(4,5,10)             108.0971         calculate D2E/DX2 analytically  !
 ! A29   A(4,5,15)             109.6724         calculate D2E/DX2 analytically  !
 ! A30   A(10,5,15)            108.9081         calculate D2E/DX2 analytically  !
 ! A31   A(3,11,4)             114.7428         calculate D2E/DX2 analytically  !
 ! A32   A(3,12,79)            113.386          calculate D2E/DX2 analytically  !
 ! A33   A(2,13,20)            114.1452         calculate D2E/DX2 analytically  !
 ! A34   A(1,14,24)            114.6602         calculate D2E/DX2 analytically  !
 ! A35   A(5,15,28)            113.8557         calculate D2E/DX2 analytically  !
 ! A36   A(4,16,17)            104.2067         calculate D2E/DX2 analytically  !
 ! A37   A(4,16,18)            107.0328         calculate D2E/DX2 analytically  !
 ! A38   A(4,16,19)            113.8047         calculate D2E/DX2 analytically  !
 ! A39   A(17,16,18)           104.2955         calculate D2E/DX2 analytically  !
 ! A40   A(17,16,19)           112.7806         calculate D2E/DX2 analytically  !
 ! A41   A(18,16,19)           113.8149         calculate D2E/DX2 analytically  !
 ! A42   A(16,17,37)           102.169          calculate D2E/DX2 analytically  !
 ! A43   A(16,19,83)           121.4947         calculate D2E/DX2 analytically  !
 ! A44   A(13,20,21)           112.067          calculate D2E/DX2 analytically  !
 ! A45   A(13,20,22)           111.3436         calculate D2E/DX2 analytically  !
 ! A46   A(13,20,23)           106.7838         calculate D2E/DX2 analytically  !
 ! A47   A(21,20,22)           108.7645         calculate D2E/DX2 analytically  !
 ! A48   A(21,20,23)           108.6958         calculate D2E/DX2 analytically  !
 ! A49   A(22,20,23)           109.1045         calculate D2E/DX2 analytically  !
 ! A50   A(14,24,25)           111.052          calculate D2E/DX2 analytically  !
 ! A51   A(14,24,26)           111.5109         calculate D2E/DX2 analytically  !
 ! A52   A(14,24,27)           106.5596         calculate D2E/DX2 analytically  !
 ! A53   A(25,24,26)           109.1026         calculate D2E/DX2 analytically  !
 ! A54   A(25,24,27)           108.8752         calculate D2E/DX2 analytically  !
 ! A55   A(26,24,27)           109.6783         calculate D2E/DX2 analytically  !
 ! A56   A(15,28,29)           110.7582         calculate D2E/DX2 analytically  !
 ! A57   A(15,28,30)           110.5103         calculate D2E/DX2 analytically  !
 ! A58   A(15,28,31)           106.8701         calculate D2E/DX2 analytically  !
 ! A59   A(29,28,30)           109.7455         calculate D2E/DX2 analytically  !
 ! A60   A(29,28,31)           109.6849         calculate D2E/DX2 analytically  !
 ! A61   A(30,28,31)           109.2174         calculate D2E/DX2 analytically  !
 ! A62   A(33,32,36)           107.7696         calculate D2E/DX2 analytically  !
 ! A63   A(33,32,39)           110.1677         calculate D2E/DX2 analytically  !
 ! A64   A(33,32,45)           110.7043         calculate D2E/DX2 analytically  !
 ! A65   A(36,32,39)           109.7585         calculate D2E/DX2 analytically  !
 ! A66   A(36,32,45)           107.9566         calculate D2E/DX2 analytically  !
 ! A67   A(39,32,45)           110.4156         calculate D2E/DX2 analytically  !
 ! A68   A(32,33,34)           111.1679         calculate D2E/DX2 analytically  !
 ! A69   A(32,33,38)           107.7183         calculate D2E/DX2 analytically  !
 ! A70   A(32,33,44)           109.6996         calculate D2E/DX2 analytically  !
 ! A71   A(34,33,38)           104.6592         calculate D2E/DX2 analytically  !
 ! A72   A(34,33,44)           113.0912         calculate D2E/DX2 analytically  !
 ! A73   A(38,33,44)           110.2761         calculate D2E/DX2 analytically  !
 ! A74   A(33,34,37)           121.2171         calculate D2E/DX2 analytically  !
 ! A75   A(33,34,42)           120.3119         calculate D2E/DX2 analytically  !
 ! A76   A(33,34,53)            96.7615         calculate D2E/DX2 analytically  !
 ! A77   A(37,34,42)           113.8024         calculate D2E/DX2 analytically  !
 ! A78   A(37,34,53)            94.4866         calculate D2E/DX2 analytically  !
 ! A79   A(42,34,53)           100.4224         calculate D2E/DX2 analytically  !
 ! A80   A(36,35,40)           108.4801         calculate D2E/DX2 analytically  !
 ! A81   A(36,35,42)           114.1829         calculate D2E/DX2 analytically  !
 ! A82   A(36,35,47)           111.9517         calculate D2E/DX2 analytically  !
 ! A83   A(40,35,42)           105.7072         calculate D2E/DX2 analytically  !
 ! A84   A(40,35,47)           109.4939         calculate D2E/DX2 analytically  !
 ! A85   A(42,35,47)           106.7846         calculate D2E/DX2 analytically  !
 ! A86   A(32,36,35)           112.6211         calculate D2E/DX2 analytically  !
 ! A87   A(32,36,41)           108.3363         calculate D2E/DX2 analytically  !
 ! A88   A(32,36,46)           111.675          calculate D2E/DX2 analytically  !
 ! A89   A(35,36,41)           108.5346         calculate D2E/DX2 analytically  !
 ! A90   A(35,36,46)           104.9494         calculate D2E/DX2 analytically  !
 ! A91   A(41,36,46)           110.6791         calculate D2E/DX2 analytically  !
 ! A92   A(17,37,34)           147.9013         calculate D2E/DX2 analytically  !
 ! A93   A(34,42,35)           120.7622         calculate D2E/DX2 analytically  !
 ! A94   A(33,44,63)           115.1519         calculate D2E/DX2 analytically  !
 ! A95   A(32,45,67)           114.2493         calculate D2E/DX2 analytically  !
 ! A96   A(36,46,71)           114.3274         calculate D2E/DX2 analytically  !
 ! A97   A(35,47,48)           107.0538         calculate D2E/DX2 analytically  !
 ! A98   A(35,47,49)           109.3884         calculate D2E/DX2 analytically  !
 ! A99   A(35,47,50)           113.7519         calculate D2E/DX2 analytically  !
 ! A100  A(48,47,49)           108.6233         calculate D2E/DX2 analytically  !
 ! A101  A(48,47,50)           106.9674         calculate D2E/DX2 analytically  !
 ! A102  A(49,47,50)           110.846          calculate D2E/DX2 analytically  !
 ! A103  A(47,50,75)           114.4476         calculate D2E/DX2 analytically  !
 ! A104  A(43,51,52)           117.3029         calculate D2E/DX2 analytically  !
 ! A105  A(43,51,53)           112.193          calculate D2E/DX2 analytically  !
 ! A106  A(43,51,54)           105.9384         calculate D2E/DX2 analytically  !
 ! A107  A(52,51,53)           109.83           calculate D2E/DX2 analytically  !
 ! A108  A(52,51,54)           107.3483         calculate D2E/DX2 analytically  !
 ! A109  A(53,51,54)           103.0394         calculate D2E/DX2 analytically  !
 ! A110  A(34,53,51)           114.8274         calculate D2E/DX2 analytically  !
 ! A111  A(51,54,55)           119.8556         calculate D2E/DX2 analytically  !
 ! A112  A(51,54,56)           118.9809         calculate D2E/DX2 analytically  !
 ! A113  A(55,54,56)           121.1539         calculate D2E/DX2 analytically  !
 ! A114  A(54,55,57)           119.0903         calculate D2E/DX2 analytically  !
 ! A115  A(54,55,58)           119.7093         calculate D2E/DX2 analytically  !
 ! A116  A(57,55,58)           121.1928         calculate D2E/DX2 analytically  !
 ! A117  A(54,56,59)           119.0845         calculate D2E/DX2 analytically  !
 ! A118  A(54,56,60)           120.1771         calculate D2E/DX2 analytically  !
 ! A119  A(59,56,60)           120.6994         calculate D2E/DX2 analytically  !
 ! A120  A(55,57,61)           120.6032         calculate D2E/DX2 analytically  !
 ! A121  A(55,57,97)           118.4796         calculate D2E/DX2 analytically  !
 ! A122  A(61,57,97)           120.9165         calculate D2E/DX2 analytically  !
 ! A123  A(56,59,61)           120.7342         calculate D2E/DX2 analytically  !
 ! A124  A(56,59,93)           118.8351         calculate D2E/DX2 analytically  !
 ! A125  A(61,59,93)           120.2267         calculate D2E/DX2 analytically  !
 ! A126  A(57,61,59)           119.3226         calculate D2E/DX2 analytically  !
 ! A127  A(57,61,62)           120.3735         calculate D2E/DX2 analytically  !
 ! A128  A(59,61,62)           120.3009         calculate D2E/DX2 analytically  !
 ! A129  A(44,63,64)           111.7895         calculate D2E/DX2 analytically  !
 ! A130  A(44,63,65)           111.1826         calculate D2E/DX2 analytically  !
 ! A131  A(44,63,66)           106.0217         calculate D2E/DX2 analytically  !
 ! A132  A(64,63,65)           108.6056         calculate D2E/DX2 analytically  !
 ! A133  A(64,63,66)           109.6656         calculate D2E/DX2 analytically  !
 ! A134  A(65,63,66)           109.5375         calculate D2E/DX2 analytically  !
 ! A135  A(45,67,68)           110.7278         calculate D2E/DX2 analytically  !
 ! A136  A(45,67,69)           111.6308         calculate D2E/DX2 analytically  !
 ! A137  A(45,67,70)           106.3657         calculate D2E/DX2 analytically  !
 ! A138  A(68,67,69)           109.2478         calculate D2E/DX2 analytically  !
 ! A139  A(68,67,70)           109.0242         calculate D2E/DX2 analytically  !
 ! A140  A(69,67,70)           109.7802         calculate D2E/DX2 analytically  !
 ! A141  A(46,71,72)           111.2597         calculate D2E/DX2 analytically  !
 ! A142  A(46,71,73)           111.0702         calculate D2E/DX2 analytically  !
 ! A143  A(46,71,74)           106.4856         calculate D2E/DX2 analytically  !
 ! A144  A(72,71,73)           109.3825         calculate D2E/DX2 analytically  !
 ! A145  A(72,71,74)           109.6262         calculate D2E/DX2 analytically  !
 ! A146  A(73,71,74)           108.9493         calculate D2E/DX2 analytically  !
 ! A147  A(50,75,76)           106.103          calculate D2E/DX2 analytically  !
 ! A148  A(50,75,77)           112.5789         calculate D2E/DX2 analytically  !
 ! A149  A(50,75,78)           110.4588         calculate D2E/DX2 analytically  !
 ! A150  A(76,75,77)           109.8361         calculate D2E/DX2 analytically  !
 ! A151  A(76,75,78)           108.4451         calculate D2E/DX2 analytically  !
 ! A152  A(77,75,78)           109.3033         calculate D2E/DX2 analytically  !
 ! A153  A(12,79,80)           106.8204         calculate D2E/DX2 analytically  !
 ! A154  A(12,79,81)           111.3776         calculate D2E/DX2 analytically  !
 ! A155  A(12,79,82)           110.954          calculate D2E/DX2 analytically  !
 ! A156  A(80,79,81)           109.5265         calculate D2E/DX2 analytically  !
 ! A157  A(80,79,82)           109.4369         calculate D2E/DX2 analytically  !
 ! A158  A(81,79,82)           108.6944         calculate D2E/DX2 analytically  !
 ! A159  A(19,83,84)           111.3793         calculate D2E/DX2 analytically  !
 ! A160  A(83,84,85)           120.5786         calculate D2E/DX2 analytically  !
 ! A161  A(83,84,89)           125.3913         calculate D2E/DX2 analytically  !
 ! A162  A(85,84,89)           112.1337         calculate D2E/DX2 analytically  !
 ! A163  A(84,85,86)           109.9247         calculate D2E/DX2 analytically  !
 ! A164  A(84,85,87)           107.2157         calculate D2E/DX2 analytically  !
 ! A165  A(84,85,88)           110.8168         calculate D2E/DX2 analytically  !
 ! A166  A(86,85,87)           109.3022         calculate D2E/DX2 analytically  !
 ! A167  A(86,85,88)           110.2761         calculate D2E/DX2 analytically  !
 ! A168  A(87,85,88)           109.2403         calculate D2E/DX2 analytically  !
 ! A169  A(84,89,90)           110.7836         calculate D2E/DX2 analytically  !
 ! A170  A(84,89,91)           107.2968         calculate D2E/DX2 analytically  !
 ! A171  A(84,89,92)           110.4597         calculate D2E/DX2 analytically  !
 ! A172  A(90,89,91)           110.2393         calculate D2E/DX2 analytically  !
 ! A173  A(90,89,92)           108.9544         calculate D2E/DX2 analytically  !
 ! A174  A(91,89,92)           109.0841         calculate D2E/DX2 analytically  !
 ! A175  A(59,93,94)           111.0817         calculate D2E/DX2 analytically  !
 ! A176  A(59,93,95)           112.3098         calculate D2E/DX2 analytically  !
 ! A177  A(59,93,96)           111.9917         calculate D2E/DX2 analytically  !
 ! A178  A(94,93,95)           106.78           calculate D2E/DX2 analytically  !
 ! A179  A(94,93,96)           106.5256         calculate D2E/DX2 analytically  !
 ! A180  A(95,93,96)           107.8296         calculate D2E/DX2 analytically  !
 ! A181  A(57,97,98)           111.6576         calculate D2E/DX2 analytically  !
 ! A182  A(57,97,99)           112.2995         calculate D2E/DX2 analytically  !
 ! A183  A(57,97,100)          111.3271         calculate D2E/DX2 analytically  !
 ! A184  A(98,97,99)           107.2194         calculate D2E/DX2 analytically  !
 ! A185  A(98,97,100)          106.6912         calculate D2E/DX2 analytically  !
 ! A186  A(99,97,100)          107.3439         calculate D2E/DX2 analytically  !
 ! D1    D(5,1,2,3)            -50.7152         calculate D2E/DX2 analytically  !
 ! D2    D(5,1,2,7)             66.2761         calculate D2E/DX2 analytically  !
 ! D3    D(5,1,2,13)          -174.8809         calculate D2E/DX2 analytically  !
 ! D4    D(8,1,2,3)             68.3221         calculate D2E/DX2 analytically  !
 ! D5    D(8,1,2,7)           -174.6865         calculate D2E/DX2 analytically  !
 ! D6    D(8,1,2,13)           -55.8436         calculate D2E/DX2 analytically  !
 ! D7    D(14,1,2,3)          -170.5614         calculate D2E/DX2 analytically  !
 ! D8    D(14,1,2,7)           -53.5701         calculate D2E/DX2 analytically  !
 ! D9    D(14,1,2,13)           65.2729         calculate D2E/DX2 analytically  !
 ! D10   D(2,1,5,4)             51.3132         calculate D2E/DX2 analytically  !
 ! D11   D(2,1,5,10)           -67.9837         calculate D2E/DX2 analytically  !
 ! D12   D(2,1,5,15)           173.04           calculate D2E/DX2 analytically  !
 ! D13   D(8,1,5,4)            -68.0008         calculate D2E/DX2 analytically  !
 ! D14   D(8,1,5,10)           172.7023         calculate D2E/DX2 analytically  !
 ! D15   D(8,1,5,15)            53.7259         calculate D2E/DX2 analytically  !
 ! D16   D(14,1,5,4)           172.7494         calculate D2E/DX2 analytically  !
 ! D17   D(14,1,5,10)           53.4525         calculate D2E/DX2 analytically  !
 ! D18   D(14,1,5,15)          -65.5239         calculate D2E/DX2 analytically  !
 ! D19   D(2,1,14,24)          -95.7319         calculate D2E/DX2 analytically  !
 ! D20   D(5,1,14,24)          142.9184         calculate D2E/DX2 analytically  !
 ! D21   D(8,1,14,24)           24.6971         calculate D2E/DX2 analytically  !
 ! D22   D(1,2,3,6)            170.0175         calculate D2E/DX2 analytically  !
 ! D23   D(1,2,3,11)            54.9658         calculate D2E/DX2 analytically  !
 ! D24   D(1,2,3,12)           -68.8445         calculate D2E/DX2 analytically  !
 ! D25   D(7,2,3,6)             52.3809         calculate D2E/DX2 analytically  !
 ! D26   D(7,2,3,11)           -62.6708         calculate D2E/DX2 analytically  !
 ! D27   D(7,2,3,12)           173.5189         calculate D2E/DX2 analytically  !
 ! D28   D(13,2,3,6)           -68.9059         calculate D2E/DX2 analytically  !
 ! D29   D(13,2,3,11)          176.0424         calculate D2E/DX2 analytically  !
 ! D30   D(13,2,3,12)           52.2321         calculate D2E/DX2 analytically  !
 ! D31   D(1,2,13,20)         -168.6387         calculate D2E/DX2 analytically  !
 ! D32   D(3,2,13,20)           68.7625         calculate D2E/DX2 analytically  !
 ! D33   D(7,2,13,20)          -50.9259         calculate D2E/DX2 analytically  !
 ! D34   D(2,3,11,4)           -62.1315         calculate D2E/DX2 analytically  !
 ! D35   D(6,3,11,4)           178.158          calculate D2E/DX2 analytically  !
 ! D36   D(12,3,11,4)           58.4115         calculate D2E/DX2 analytically  !
 ! D37   D(2,3,12,79)         -166.8832         calculate D2E/DX2 analytically  !
 ! D38   D(6,3,12,79)          -44.9069         calculate D2E/DX2 analytically  !
 ! D39   D(11,3,12,79)          71.2619         calculate D2E/DX2 analytically  !
 ! D40   D(9,4,5,1)             64.736          calculate D2E/DX2 analytically  !
 ! D41   D(9,4,5,10)          -175.5235         calculate D2E/DX2 analytically  !
 ! D42   D(9,4,5,15)           -56.9113         calculate D2E/DX2 analytically  !
 ! D43   D(11,4,5,1)           -54.3223         calculate D2E/DX2 analytically  !
 ! D44   D(11,4,5,10)           65.4182         calculate D2E/DX2 analytically  !
 ! D45   D(11,4,5,15)         -175.9696         calculate D2E/DX2 analytically  !
 ! D46   D(16,4,5,1)          -174.0846         calculate D2E/DX2 analytically  !
 ! D47   D(16,4,5,10)          -54.344          calculate D2E/DX2 analytically  !
 ! D48   D(16,4,5,15)           64.2682         calculate D2E/DX2 analytically  !
 ! D49   D(5,4,11,3)            61.2799         calculate D2E/DX2 analytically  !
 ! D50   D(9,4,11,3)           -57.8161         calculate D2E/DX2 analytically  !
 ! D51   D(16,4,11,3)         -174.5786         calculate D2E/DX2 analytically  !
 ! D52   D(5,4,16,17)          151.0519         calculate D2E/DX2 analytically  !
 ! D53   D(5,4,16,18)           40.9338         calculate D2E/DX2 analytically  !
 ! D54   D(5,4,16,19)          -85.7017         calculate D2E/DX2 analytically  !
 ! D55   D(9,4,16,17)          -87.0507         calculate D2E/DX2 analytically  !
 ! D56   D(9,4,16,18)          162.8312         calculate D2E/DX2 analytically  !
 ! D57   D(9,4,16,19)           36.1957         calculate D2E/DX2 analytically  !
 ! D58   D(11,4,16,17)          30.5294         calculate D2E/DX2 analytically  !
 ! D59   D(11,4,16,18)         -79.5887         calculate D2E/DX2 analytically  !
 ! D60   D(11,4,16,19)         153.7758         calculate D2E/DX2 analytically  !
 ! D61   D(1,5,15,28)           95.4903         calculate D2E/DX2 analytically  !
 ! D62   D(4,5,15,28)         -141.559          calculate D2E/DX2 analytically  !
 ! D63   D(10,5,15,28)         -23.4496         calculate D2E/DX2 analytically  !
 ! D64   D(3,12,79,80)        -176.9977         calculate D2E/DX2 analytically  !
 ! D65   D(3,12,79,81)         -57.4388         calculate D2E/DX2 analytically  !
 ! D66   D(3,12,79,82)          63.7914         calculate D2E/DX2 analytically  !
 ! D67   D(2,13,20,21)         -70.3874         calculate D2E/DX2 analytically  !
 ! D68   D(2,13,20,22)          51.6908         calculate D2E/DX2 analytically  !
 ! D69   D(2,13,20,23)         170.6958         calculate D2E/DX2 analytically  !
 ! D70   D(1,14,24,25)         -58.7499         calculate D2E/DX2 analytically  !
 ! D71   D(1,14,24,26)          63.1625         calculate D2E/DX2 analytically  !
 ! D72   D(1,14,24,27)        -177.1806         calculate D2E/DX2 analytically  !
 ! D73   D(5,15,28,29)         -58.6528         calculate D2E/DX2 analytically  !
 ! D74   D(5,15,28,30)          63.1866         calculate D2E/DX2 analytically  !
 ! D75   D(5,15,28,31)        -178.0837         calculate D2E/DX2 analytically  !
 ! D76   D(4,16,17,37)         139.0187         calculate D2E/DX2 analytically  !
 ! D77   D(18,16,17,37)       -108.8751         calculate D2E/DX2 analytically  !
 ! D78   D(19,16,17,37)         15.1082         calculate D2E/DX2 analytically  !
 ! D79   D(4,16,19,83)          32.0633         calculate D2E/DX2 analytically  !
 ! D80   D(17,16,19,83)        150.5009         calculate D2E/DX2 analytically  !
 ! D81   D(18,16,19,83)        -90.9381         calculate D2E/DX2 analytically  !
 ! D82   D(16,17,37,34)        -33.4014         calculate D2E/DX2 analytically  !
 ! D83   D(16,19,83,84)       -147.6801         calculate D2E/DX2 analytically  !
 ! D84   D(36,32,33,34)        -53.0456         calculate D2E/DX2 analytically  !
 ! D85   D(36,32,33,38)         61.072          calculate D2E/DX2 analytically  !
 ! D86   D(36,32,33,44)       -178.8744         calculate D2E/DX2 analytically  !
 ! D87   D(39,32,33,34)         66.6828         calculate D2E/DX2 analytically  !
 ! D88   D(39,32,33,38)       -179.1996         calculate D2E/DX2 analytically  !
 ! D89   D(39,32,33,44)        -59.146          calculate D2E/DX2 analytically  !
 ! D90   D(45,32,33,34)       -170.8996         calculate D2E/DX2 analytically  !
 ! D91   D(45,32,33,38)        -56.7821         calculate D2E/DX2 analytically  !
 ! D92   D(45,32,33,44)         63.2716         calculate D2E/DX2 analytically  !
 ! D93   D(33,32,36,35)         54.7177         calculate D2E/DX2 analytically  !
 ! D94   D(33,32,36,41)        -65.3413         calculate D2E/DX2 analytically  !
 ! D95   D(33,32,36,46)        172.5148         calculate D2E/DX2 analytically  !
 ! D96   D(39,32,36,35)        -65.2695         calculate D2E/DX2 analytically  !
 ! D97   D(39,32,36,41)        174.6715         calculate D2E/DX2 analytically  !
 ! D98   D(39,32,36,46)         52.5275         calculate D2E/DX2 analytically  !
 ! D99   D(45,32,36,35)        174.3301         calculate D2E/DX2 analytically  !
 ! D100  D(45,32,36,41)         54.2711         calculate D2E/DX2 analytically  !
 ! D101  D(45,32,36,46)        -67.8729         calculate D2E/DX2 analytically  !
 ! D102  D(33,32,45,67)        -94.4068         calculate D2E/DX2 analytically  !
 ! D103  D(36,32,45,67)        147.8534         calculate D2E/DX2 analytically  !
 ! D104  D(39,32,45,67)         27.866          calculate D2E/DX2 analytically  !
 ! D105  D(32,33,34,37)       -162.2277         calculate D2E/DX2 analytically  !
 ! D106  D(32,33,34,42)         43.4894         calculate D2E/DX2 analytically  !
 ! D107  D(32,33,34,53)        -62.7907         calculate D2E/DX2 analytically  !
 ! D108  D(38,33,34,37)         81.7557         calculate D2E/DX2 analytically  !
 ! D109  D(38,33,34,42)        -72.5272         calculate D2E/DX2 analytically  !
 ! D110  D(38,33,34,53)       -178.8073         calculate D2E/DX2 analytically  !
 ! D111  D(44,33,34,37)        -38.3059         calculate D2E/DX2 analytically  !
 ! D112  D(44,33,34,42)        167.4112         calculate D2E/DX2 analytically  !
 ! D113  D(44,33,34,53)         61.1311         calculate D2E/DX2 analytically  !
 ! D114  D(32,33,44,63)       -153.2844         calculate D2E/DX2 analytically  !
 ! D115  D(34,33,44,63)         81.9925         calculate D2E/DX2 analytically  !
 ! D116  D(38,33,44,63)        -34.8022         calculate D2E/DX2 analytically  !
 ! D117  D(33,34,37,17)        -53.2292         calculate D2E/DX2 analytically  !
 ! D118  D(42,34,37,17)        102.6017         calculate D2E/DX2 analytically  !
 ! D119  D(53,34,37,17)       -153.9281         calculate D2E/DX2 analytically  !
 ! D120  D(33,34,42,35)        -31.4821         calculate D2E/DX2 analytically  !
 ! D121  D(37,34,42,35)        172.4466         calculate D2E/DX2 analytically  !
 ! D122  D(53,34,42,35)         72.771          calculate D2E/DX2 analytically  !
 ! D123  D(33,34,53,51)       -129.6088         calculate D2E/DX2 analytically  !
 ! D124  D(37,34,53,51)         -7.4126         calculate D2E/DX2 analytically  !
 ! D125  D(42,34,53,51)        107.8044         calculate D2E/DX2 analytically  !
 ! D126  D(40,35,36,32)         74.7037         calculate D2E/DX2 analytically  !
 ! D127  D(40,35,36,41)       -165.3518         calculate D2E/DX2 analytically  !
 ! D128  D(40,35,36,46)        -46.9914         calculate D2E/DX2 analytically  !
 ! D129  D(42,35,36,32)        -42.8758         calculate D2E/DX2 analytically  !
 ! D130  D(42,35,36,41)         77.0686         calculate D2E/DX2 analytically  !
 ! D131  D(42,35,36,46)       -164.5709         calculate D2E/DX2 analytically  !
 ! D132  D(47,35,36,32)       -164.3619         calculate D2E/DX2 analytically  !
 ! D133  D(47,35,36,41)        -44.4174         calculate D2E/DX2 analytically  !
 ! D134  D(47,35,36,46)         73.943          calculate D2E/DX2 analytically  !
 ! D135  D(36,35,42,34)         30.4319         calculate D2E/DX2 analytically  !
 ! D136  D(40,35,42,34)        -88.727          calculate D2E/DX2 analytically  !
 ! D137  D(47,35,42,34)        154.7279         calculate D2E/DX2 analytically  !
 ! D138  D(36,35,47,48)        -62.263          calculate D2E/DX2 analytically  !
 ! D139  D(36,35,47,49)       -179.7838         calculate D2E/DX2 analytically  !
 ! D140  D(36,35,47,50)         55.673          calculate D2E/DX2 analytically  !
 ! D141  D(40,35,47,48)         58.0825         calculate D2E/DX2 analytically  !
 ! D142  D(40,35,47,49)        -59.4382         calculate D2E/DX2 analytically  !
 ! D143  D(40,35,47,50)        176.0185         calculate D2E/DX2 analytically  !
 ! D144  D(42,35,47,48)        172.0826         calculate D2E/DX2 analytically  !
 ! D145  D(42,35,47,49)         54.5619         calculate D2E/DX2 analytically  !
 ! D146  D(42,35,47,50)        -69.9814         calculate D2E/DX2 analytically  !
 ! D147  D(32,36,46,71)         98.5613         calculate D2E/DX2 analytically  !
 ! D148  D(35,36,46,71)       -139.1274         calculate D2E/DX2 analytically  !
 ! D149  D(41,36,46,71)        -22.2263         calculate D2E/DX2 analytically  !
 ! D150  D(33,44,63,64)        -71.9515         calculate D2E/DX2 analytically  !
 ! D151  D(33,44,63,65)         49.6102         calculate D2E/DX2 analytically  !
 ! D152  D(33,44,63,66)        168.5854         calculate D2E/DX2 analytically  !
 ! D153  D(32,45,67,68)        -59.6295         calculate D2E/DX2 analytically  !
 ! D154  D(32,45,67,69)         62.3243         calculate D2E/DX2 analytically  !
 ! D155  D(32,45,67,70)       -177.9481         calculate D2E/DX2 analytically  !
 ! D156  D(36,46,71,72)        -61.0775         calculate D2E/DX2 analytically  !
 ! D157  D(36,46,71,73)         61.0307         calculate D2E/DX2 analytically  !
 ! D158  D(36,46,71,74)        179.5161         calculate D2E/DX2 analytically  !
 ! D159  D(35,47,50,75)         86.861          calculate D2E/DX2 analytically  !
 ! D160  D(48,47,50,75)       -155.1532         calculate D2E/DX2 analytically  !
 ! D161  D(49,47,50,75)        -36.8952         calculate D2E/DX2 analytically  !
 ! D162  D(47,50,75,76)        171.1463         calculate D2E/DX2 analytically  !
 ! D163  D(47,50,75,77)        -68.6847         calculate D2E/DX2 analytically  !
 ! D164  D(47,50,75,78)         53.8115         calculate D2E/DX2 analytically  !
 ! D165  D(43,51,53,34)        -33.1643         calculate D2E/DX2 analytically  !
 ! D166  D(52,51,53,34)       -165.5202         calculate D2E/DX2 analytically  !
 ! D167  D(54,51,53,34)         80.3453         calculate D2E/DX2 analytically  !
 ! D168  D(43,51,54,55)        -14.7244         calculate D2E/DX2 analytically  !
 ! D169  D(43,51,54,56)        164.1576         calculate D2E/DX2 analytically  !
 ! D170  D(52,51,54,55)        111.3604         calculate D2E/DX2 analytically  !
 ! D171  D(52,51,54,56)        -69.7577         calculate D2E/DX2 analytically  !
 ! D172  D(53,51,54,55)       -132.7174         calculate D2E/DX2 analytically  !
 ! D173  D(53,51,54,56)         46.1645         calculate D2E/DX2 analytically  !
 ! D174  D(51,54,55,57)        179.636          calculate D2E/DX2 analytically  !
 ! D175  D(51,54,55,58)          0.6254         calculate D2E/DX2 analytically  !
 ! D176  D(56,54,55,57)          0.7789         calculate D2E/DX2 analytically  !
 ! D177  D(56,54,55,58)       -178.2317         calculate D2E/DX2 analytically  !
 ! D178  D(51,54,56,59)       -178.6965         calculate D2E/DX2 analytically  !
 ! D179  D(51,54,56,60)         -0.9532         calculate D2E/DX2 analytically  !
 ! D180  D(55,54,56,59)          0.1704         calculate D2E/DX2 analytically  !
 ! D181  D(55,54,56,60)        177.9137         calculate D2E/DX2 analytically  !
 ! D182  D(54,55,57,61)         -1.0352         calculate D2E/DX2 analytically  !
 ! D183  D(54,55,57,97)        178.6554         calculate D2E/DX2 analytically  !
 ! D184  D(58,55,57,61)        177.9602         calculate D2E/DX2 analytically  !
 ! D185  D(58,55,57,97)         -2.3493         calculate D2E/DX2 analytically  !
 ! D186  D(54,56,59,61)         -0.883          calculate D2E/DX2 analytically  !
 ! D187  D(54,56,59,93)        173.9389         calculate D2E/DX2 analytically  !
 ! D188  D(60,56,59,61)       -178.6142         calculate D2E/DX2 analytically  !
 ! D189  D(60,56,59,93)         -3.7923         calculate D2E/DX2 analytically  !
 ! D190  D(55,57,61,59)          0.3412         calculate D2E/DX2 analytically  !
 ! D191  D(55,57,61,62)       -179.0325         calculate D2E/DX2 analytically  !
 ! D192  D(97,57,61,59)       -179.3418         calculate D2E/DX2 analytically  !
 ! D193  D(97,57,61,62)          1.2845         calculate D2E/DX2 analytically  !
 ! D194  D(55,57,97,98)        -67.6761         calculate D2E/DX2 analytically  !
 ! D195  D(55,57,97,99)        171.8518         calculate D2E/DX2 analytically  !
 ! D196  D(55,57,97,100)        51.4532         calculate D2E/DX2 analytically  !
 ! D197  D(61,57,97,98)        112.0135         calculate D2E/DX2 analytically  !
 ! D198  D(61,57,97,99)         -8.4586         calculate D2E/DX2 analytically  !
 ! D199  D(61,57,97,100)      -128.8572         calculate D2E/DX2 analytically  !
 ! D200  D(56,59,61,57)          0.6299         calculate D2E/DX2 analytically  !
 ! D201  D(56,59,61,62)       -179.9959         calculate D2E/DX2 analytically  !
 ! D202  D(93,59,61,57)       -174.12           calculate D2E/DX2 analytically  !
 ! D203  D(93,59,61,62)          5.2541         calculate D2E/DX2 analytically  !
 ! D204  D(56,59,93,94)        -80.6941         calculate D2E/DX2 analytically  !
 ! D205  D(56,59,93,95)        159.7928         calculate D2E/DX2 analytically  !
 ! D206  D(56,59,93,96)         38.2828         calculate D2E/DX2 analytically  !
 ! D207  D(61,59,93,94)         94.1548         calculate D2E/DX2 analytically  !
 ! D208  D(61,59,93,95)        -25.3583         calculate D2E/DX2 analytically  !
 ! D209  D(61,59,93,96)       -146.8683         calculate D2E/DX2 analytically  !
 ! D210  D(19,83,84,85)         89.634          calculate D2E/DX2 analytically  !
 ! D211  D(19,83,84,89)       -107.3047         calculate D2E/DX2 analytically  !
 ! D212  D(83,84,85,86)       -129.454          calculate D2E/DX2 analytically  !
 ! D213  D(83,84,85,87)        -10.7422         calculate D2E/DX2 analytically  !
 ! D214  D(83,84,85,88)        108.3939         calculate D2E/DX2 analytically  !
 ! D215  D(89,84,85,86)         65.4029         calculate D2E/DX2 analytically  !
 ! D216  D(89,84,85,87)       -175.8852         calculate D2E/DX2 analytically  !
 ! D217  D(89,84,85,88)        -56.7492         calculate D2E/DX2 analytically  !
 ! D218  D(83,84,89,90)        -94.5437         calculate D2E/DX2 analytically  !
 ! D219  D(83,84,89,91)         25.8365         calculate D2E/DX2 analytically  !
 ! D220  D(83,84,89,92)        144.6316         calculate D2E/DX2 analytically  !
 ! D221  D(85,84,89,90)         69.7453         calculate D2E/DX2 analytically  !
 ! D222  D(85,84,89,91)       -169.8745         calculate D2E/DX2 analytically  !
 ! D223  D(85,84,89,92)        -51.0794         calculate D2E/DX2 analytically  !
 --------------------------------------------------------------------------------
 Trust Radius=3.00D-02 FncErr=1.00D-07 GrdErr=1.00D-06 EigMax=2.50D+02 EigMin=1.00D-04
 Number of steps in this run=    521 maximum allowed number of steps=    600.
 Search for a saddle point of order  1.
 Step   0 in ReCalcFC=30 IGetFC= 4 compute analytic Hessian.
 GradGradGradGradGradGradGradGradGradGradGradGradGradGradGradGradGradGrad

 Leave Link  103 at Wed May  8 11:30:07 2019, MaxMem=  6442450944 cpu:               4.2 elap:               0.2
 (Enter /home/ekwan/sw/g16/l202.exe)
 Stoichiometry    C30H47F6NaO15S
 Framework group  C1[X(C30H47F6NaO15S)]
 Deg. of freedom   294
 Full point group                 C1      NOp   1
 Largest Abelian subgroup         C1      NOp   1
 Largest concise Abelian subgroup C1      NOp   1
                         Standard orientation:                         
 ---------------------------------------------------------------------
 Center     Atomic      Atomic             Coordinates (Angstroms)
 Number     Number       Type             X           Y           Z
 ---------------------------------------------------------------------
      1          6           0       -4.356898   -2.644315    0.248013
      2          6           0       -5.159678   -1.389961   -0.103555
      3          6           0       -4.262378   -0.142911   -0.052706
      4          6           0       -2.275078   -1.410697   -0.516290
      5          6           0       -3.076823   -2.717587   -0.588822
      6          1           0       -4.768866    0.735990   -0.468823
      7          1           0       -5.516729   -1.490305   -1.140609
      8          1           0       -4.075918   -2.600523    1.308650
      9          1           0       -1.924723   -1.257210    0.512288
     10          1           0       -3.348596   -2.893314   -1.638385
     11          8           0       -3.137698   -0.321444   -0.890307
     12          8           0       -3.921588    0.083085    1.290277
     13          8           0       -6.262161   -1.318306    0.781402
     14          8           0       -5.119261   -3.819165   -0.006327
     15          8           0       -2.264721   -3.809005   -0.129460
     16          6           0       -1.042816   -1.362848   -1.452865
     17          1           0       -0.920543   -0.276893   -1.690292
     18          1           0       -1.349837   -1.822968   -2.419852
     19          8           0        0.085747   -1.917367   -0.910264
     20          6           0       -7.235599   -0.352636    0.418538
     21          1           0       -6.871441    0.673836    0.560386
     22          1           0       -7.550044   -0.475002   -0.628303
     23          1           0       -8.096817   -0.512053    1.071536
     24          6           0       -5.800355   -4.341121    1.126936
     25          1           0       -5.094039   -4.587390    1.933731
     26          1           0       -6.546150   -3.636151    1.506693
     27          1           0       -6.295157   -5.258659    0.797773
     28          6           0       -2.446825   -5.018203   -0.871967
     29          1           0       -3.488014   -5.343310   -0.832509
     30          1           0       -2.141453   -4.877469   -1.917414
     31          1           0       -1.806825   -5.774638   -0.408654
     32          6           0        3.660724   -0.321208    0.726408
     33          6           0        2.179757   -0.300604    0.352612
     34          6           0        1.994449   -0.335647   -1.150212
     35          6           0        4.066795   -1.501788   -1.491802
     36          6           0        4.301618   -1.513870    0.023882
     37          1           0        1.062967   -0.047463   -1.603797
     38          1           0        1.732594   -1.235942    0.709185
     39          1           0        4.145471    0.605073    0.400005
     40          1           0        4.713640   -0.739297   -1.937034
     41          1           0        3.867505   -2.430221    0.435912
     42          8           0        2.708668   -1.144505   -1.882859
     43          8           0        1.255945    1.614526   -3.414639
     44          8           0        1.553288    0.801100    0.959619
     45          8           0        3.822876   -0.498599    2.126216
     46          8           0        5.712836   -1.515463    0.175760
     47          6           0        4.365618   -2.855529   -2.125531
     48          1           0        5.426290   -3.061918   -1.956062
     49          1           0        4.187910   -2.798605   -3.208062
     50          8           0        3.638824   -3.927544   -1.550942
     51         16           0        2.082072    2.330716   -2.422513
     52          8           0        2.962281    3.400758   -2.922442
     53          8           0        2.884806    1.368506   -1.532350
     54          6           0        0.927472    3.081898   -1.269233
     55          6           0       -0.418514    3.174284   -1.599772
     56          6           0        1.401793    3.542055   -0.042237
     57          6           0       -1.304658    3.755180   -0.686710
     58          1           0       -0.766681    2.782958   -2.548573
     59          6           0        0.505011    4.099178    0.863520
     60          1           0        2.447907    3.431652    0.212755
     61          6           0       -0.851045    4.215722    0.546127
     62          1           0       -1.542814    4.650495    1.256301
     63          6           0        0.163303    0.644363    1.207253
     64          1           0       -0.420471    0.678740    0.282348
     65          1           0       -0.043923   -0.304380    1.716743
     66          1           0       -0.122689    1.474472    1.852424
     67          6           0        3.965044    0.717034    2.858048
     68          1           0        4.841550    1.280736    2.509302
     69          1           0        3.074027    1.346136    2.772041
     70          1           0        4.117113    0.432004    3.901911
     71          6           0        6.190514   -2.372279    1.206563
     72          1           0        5.797918   -2.074365    2.184087
     73          1           0        5.919138   -3.418800    1.007972
     74          1           0        7.279428   -2.281710    1.205279
     75          6           0        2.344990   -4.140048   -2.123743
     76          1           0        1.976660   -5.080372   -1.701347
     77          1           0        1.644568   -3.329343   -1.893430
     78          1           0        2.421805   -4.255156   -3.214810
     79          6           0       -3.343294    1.363335    1.518615
     80          1           0       -3.072438    1.403745    2.575782
     81          1           0       -2.449484    1.511925    0.906360
     82          1           0       -4.059971    2.163182    1.294536
     83         11           0       -0.021788   -3.554976    0.452962
     84          8           0        1.670137   -3.473394    1.988963
     85          6           0        1.499587   -2.772217    3.220692
     86          1           0        2.339899   -2.087915    3.380124
     87          1           0        0.574994   -2.195944    3.139375
     88          1           0        1.415753   -3.474162    4.060954
     89          6           0        2.803441   -4.337182    2.015268
     90          1           0        2.629167   -5.188482    2.687241
     91          1           0        2.967293   -4.688958    0.994604
     92          1           0        3.692818   -3.792409    2.353846
     93          6           0        0.994954    4.466755    2.235186
     94          9           0        1.047373    3.374570    3.045200
     95          9           0        0.191423    5.363805    2.842560
     96          9           0        2.240976    4.982271    2.205126
     97          6           0       -2.753333    3.876018   -1.071157
     98          9           0       -2.929580    4.756705   -2.080520
     99          9           0       -3.525008    4.288856   -0.040387
    100          9           0       -3.249935    2.691256   -1.497766
 ---------------------------------------------------------------------
 Rotational constants (GHZ):           0.0528154           0.0459052           0.0315583
 Leave Link  202 at Wed May  8 11:30:07 2019, MaxMem=  6442450944 cpu:               4.9 elap:               0.2
 (Enter /home/ekwan/sw/g16/l301.exe)
 Standard basis: 6-31G(d) (6D, 7F)
 Ernie: Thresh=  0.10000D-02 Tol=  0.10000D-05 Strict=F.
 There are   897 symmetry adapted cartesian basis functions of A   symmetry.
 There are   897 symmetry adapted basis functions of A   symmetry.
   897 basis functions,  1720 primitive gaussians,   897 cartesian basis functions
   214 alpha electrons      214 beta electrons
       nuclear repulsion energy      9534.2773697534 Hartrees.
 IExCor=  402 DFT=T Ex+Corr=B3LYP ExCW=0 ScaHFX=  0.200000
 ScaDFX=  0.800000  0.720000  1.000000  0.810000 ScalE2=  1.000000  1.000000
 IRadAn=      5 IRanWt=     -1 IRanGd=            0 ICorTp=0 IEmpDi=141
 NAtoms=  100 NActive=  100 NUniq=  100 SFac= 1.00D+00 NAtFMM=   60 NAOKFM=T Big=T
 Integral buffers will be    131072 words long.
 Raffenetti 2 integral format.
 Two-electron integral symmetry is turned on.
 R6Disp:  Grimme-D3(BJ) Dispersion energy=       -0.2337205294 Hartrees.
 Nuclear repulsion after empirical dispersion term =     9534.0436492240 Hartrees.
 Force inversion solution in PCM.
 ------------------------------------------------------------------------------
 Polarizable Continuum Model (PCM)
 =================================
 Model                : PCM.
 Atomic radii         : UFF (Universal Force Field).
 Polarization charges : Total charges.
 Charge compensation  : None.
 Solution method      : Matrix inversion.
 Cavity type          : Scaled VdW (van der Waals Surface) (Alpha=1.100).
 Cavity algorithm     : GePol (No added spheres)
                        Default sphere list used, NSphG=  100.
                        Lebedev-Laikov grids with approx.  5.0 points / Ang**2.
                        Smoothing algorithm: York/Karplus (Gamma=1.0000).
                        Polarization charges: spherical gaussians, with
                                              point-specific exponents (IZeta= 3).
                        Self-potential: point-specific (ISelfS= 7).
                        Self-field    : sphere-specific E.n sum rule (ISelfD= 2).
 1st derivatives      : Analytical E(r).r(x)/FMM algorithm (CHGder, D1EAlg=3).
                        Cavity 1st derivative terms included.
 2nd derivatives      : Analytical E(r).r(xy)/FMM algorithm (CHGder, D2EAlg=3).
                        Cavity 2nd derivative terms included.
 Solvent              : TetraHydroFuran, Eps=   7.425700 Eps(inf)=   1.974025
 ------------------------------------------------------------------------------
 GePol: Number of generator spheres                  =     100
 GePol: Total number of spheres                      =     100
 GePol: Number of exposed spheres                    =     100 (100.00%)
 GePol: Number of points                             =    6105
 GePol: Average weight of points                     =       0.12
 GePol: Minimum weight of points                     =   0.74D-11
 GePol: Maximum weight of points                     =    0.21593
 GePol: Number of points with low weight             =     465
 GePol: Fraction of low-weight points (<1% of avg)   =       7.62%
 GePol: Cavity surface area                          =    754.722 Ang**2
 GePol: Cavity volume                                =    971.530 Ang**3
 Leave Link  301 at Wed May  8 11:30:07 2019, MaxMem=  6442450944 cpu:               7.7 elap:               0.3
 (Enter /home/ekwan/sw/g16/l302.exe)
 NPDir=0 NMtPBC=     1 NCelOv=     1 NCel=       1 NClECP=     1 NCelD=      1
         NCelK=      1 NCelE2=     1 NClLst=     1 CellRange=     0.0.
 One-electron integrals computed using PRISM.
 One-electron integral symmetry used in STVInt
 NBasis=   897 RedAO= T EigKep=  4.07D-04  NBF=   897
 NBsUse=   897 1.00D-06 EigRej= -1.00D+00 NBFU=   897
 Precomputing XC quadrature grid using
 IXCGrd= 4 IRadAn=           5 IRanWt=          -1 IRanGd=           0 AccXCQ= 0.00D+00.
 Generated NRdTot=       0 NPtTot=           0 NUsed=           0 NTot=          32
 NSgBfM=   838   835   837   838   838 MxSgAt=   100 MxSgA2=   100.
 Leave Link  302 at Wed May  8 11:30:28 2019, MaxMem=  6442450944 cpu:             557.2 elap:              20.7
 (Enter /home/ekwan/sw/g16/l303.exe)
 DipDrv:  MaxL=1.
 Leave Link  303 at Wed May  8 11:30:29 2019, MaxMem=  6442450944 cpu:              16.4 elap:               0.6
 (Enter /home/ekwan/sw/g16/l401.exe)
 ExpMin= 2.60D-02 ExpMax= 2.19D+04 ExpMxC= 3.30D+03 IAcc=3 IRadAn=         5 AccDes= 0.00D+00
 Harris functional with IExCor=  402 and IRadAn=       5 diagonalized for initial guess.
 HarFok:  IExCor=  402 AccDes= 0.00D+00 IRadAn=         5 IDoV= 1 UseB2=F ITyADJ=14
 ICtDFT=  3500011 ScaDFX=  1.000000  1.000000  1.000000  1.000000
 FoFCou: FMM=F IPFlag=           0 FMFlag=      100000 FMFlg1=        2001
         NFxFlg=           0 DoJE=T BraDBF=F KetDBF=T FulRan=T
         wScrn=  0.000000 ICntrl=       500 IOpCl=  0 I1Cent=   200000004 NGrid=           0
         NMat0=    1 NMatS0=      1 NMatT0=    0 NMatD0=    1 NMtDS0=    0 NMtDT0=    0
 Petite list used in FoFCou.
 Harris En= -3459.36226461402    
 JPrj=0 DoOrth=F DoCkMO=F.
 Leave Link  401 at Wed May  8 11:30:50 2019, MaxMem=  6442450944 cpu:             600.5 elap:              21.6
 (Enter /home/ekwan/sw/g16/l502.exe)
 Integral symmetry usage will be decided dynamically.
 Closed shell SCF:
 Using DIIS extrapolation, IDIIS=  1040.
 NGot=  6442450944 LenX=  6440803163 LenY=  6439997657
 Requested convergence on RMS density matrix=1.00D-08 within 128 cycles.
 Requested convergence on MAX density matrix=1.00D-06.
 Requested convergence on             energy=1.00D-06.
 No special actions if energy rises.
 Fock matrices will be formed incrementally for  20 cycles.

 Cycle   1  Pass 1  IDiag  1:
 FoFJK:  IHMeth= 1 ICntrl=       0 DoSepK=F KAlg= 0 I1Cent=           0 FoldK=F
 IRaf= 850000000 NMat=       1 IRICut=       1 DoRegI=T DoRafI=F ISym2E= 0 IDoP0=0 IntGTp=1.
 FoFCou: FMM=T IPFlag=           0 FMFlag=      100000 FMFlg1=        2001
         NFxFlg=           0 DoJE=F BraDBF=F KetDBF=F FulRan=T
         wScrn=  0.000000 ICntrl=         0 IOpCl=  0 I1Cent=           0 NGrid=           0
         NMat0=    1 NMatS0=      1 NMatT0=    0 NMatD0=    1 NMtDS0=    0 NMtDT0=    0
 Symmetry not used in FoFCou.
 FMM levels:  10  Number of levels for PrismC:   9
 Inv3:  Mode=1 IEnd=   111813075.
 Iteration    1 A*A^-1 deviation from unit magnitude is 9.99D-15 for   6102.
 Iteration    1 A*A^-1 deviation from orthogonality  is 3.98D-15 for   6101   4989.
 Iteration    1 A^-1*A deviation from unit magnitude is 9.99D-15 for   6102.
 Iteration    1 A^-1*A deviation from orthogonality  is 2.06D-12 for   5268   5239.
 E= -3458.30614279240    
 DIIS: error= 2.08D-02 at cycle   1 NSaved=   1.
 NSaved= 1 IEnMin= 1 EnMin= -3458.30614279240     IErMin= 1 ErrMin= 2.08D-02
 ErrMax= 2.08D-02  0.00D+00 EMaxC= 1.00D-01 BMatC= 1.38D+00 BMatP= 1.38D+00
 IDIUse=3 WtCom= 7.92D-01 WtEn= 2.08D-01
 Coeff-Com:  0.100D+01
 Coeff-En:   0.100D+01
 Coeff:      0.100D+01
 Gap=     0.178 Goal=   None    Shift=    0.000
[...]
 ,0.00011242,-0.00015046,0.00032401,-0.00033167,-0.00002081,0.00021316,
 -0.00055521,-0.00012895,0.00147746,0.00155679,0.00072263,0.00003126,0.
 00010151,-0.00005431,0.00841658,0.00506160,-0.00942282,-0.00034192,0.0
 0016075,0.00015668,0.00029656,0.00025569,0.00043672,-0.00003228,0.0000
 1358,0.00007173,-0.00094608,-0.00090127,-0.00148946,-0.00014667,0.0003
 4834,0.00092955,-0.00008713,0.00001960,-0.00008304,0.00000340,0.000047
 29,0.00005944,0.00001252,-0.00002859,0.00002056,-0.00001182,0.00001153
 ,-0.00004846,-0.00002008,-0.00002142,-0.00001902,0.00000525,0.00000578
 ,-0.00000179,-0.00000011,-0.00000171,-0.00001067,0.00000520,-0.0000022
 8,0.00000903,-0.00001173,0.00002242,-0.00002474,-0.00000267,-0.0000014
 4,0.00000318,-0.00000089,-0.00000468,0.00000264,0.00000598,-0.00000253
 ,0.00000257,-0.00000890,0.00001033,-0.00000232,0.00000046,-0.00000512,
 0.00000209,-0.00000719,0.00000961,0.00000532,0.00000189,-0.00000166,-0
 .00000323,-0.00060448,0.00053020,0.00026146,0.00010022,-0.00035672,0.0
 0023372,-0.00041805,0.00022592,-0.00013955,0.00053488,-0.00237514,0.00
 058789,-0.00003357,0.00005600,-0.00003374,0.00001700,-0.00001971,0.000
 02498,-0.00000602,0.00000283,-0.00001291,0.00000038,0.00000210,-0.0000
 0407,0.00000528,0.00000251,-0.00000453,0.00000107,-0.00000672,0.000004
 18,-0.00001872,0.00001491,-0.00000195,0.00000062,-0.00000558,0.0000035
 8,0.00000113,0.00000221,-0.00000024,0.00000254,0.00000066,-0.00000118,
 0.00001680,-0.00031368,-0.00054121,0.00002603,0.00001252,0.00017338,-0
 .00008741,0.00015993,0.00017487,0.00009553,0.00007387,0.00012946,0.039
 24462,-0.08756917,-0.03849195,-0.01314034,0.01300626,0.02364156,-0.052
 49321,0.10668057,-0.00000549,-0.00003386,-0.00004393,0.00005850,-0.000
 05853,0.00003186,0.00001927,-0.00008120,-0.00146202,-0.00014202,-0.000
 02292,-0.00007073,0.00004050,0.00000448,-0.00001150,0.00023867,0.00000
 433,-0.00000323,0.00004313,0.00005083,0.00003517,0.00000816,-0.0000247
 4,0.00003032,0.00004553,-0.00002810,0.00004038,0.00000196,0.00001441,0
 .00001607,-0.00023275,-0.00017682,0.00049085,0.00019463,0.00150934,0.0
 0053539,-0.00004218,0.00005024,0.00008496,-0.00001213,0.00001033,0.000
 04501,-0.00002007,-0.00002419,0.00003376,-0.00002890,0.00017467,-0.000
 08237,-0.00003647,-0.00006541,-0.00000082,-0.00000551,-0.00000056,0.00
 002897,0.00006170,-0.00010555,0.00010099,-0.00002913,-0.00007305,-0.00
 003593,0.00000364,0.00002621,-0.00001896,0.00001388,0.00002167,0.00002
 272,-0.00000286,0.00000088,0.00000368,0.00000517,0.00000187,-0.0000235
 9,0.00000378,-0.00000372,0.00000366,-0.00000753,-0.00000071,0.00000170
 ,0.00000013,0.00000346,0.00000292,0.00000219,-0.00000141,-0.00001280,-
 0.00000047,-0.00000298,-0.00000245,-0.00000290,0.00000041,0.00000800,0
 .00000240,-0.00000334,0.00000057,-0.00002247,0.00001697,-0.00004697,-0
 .00002042,-0.00003688,-0.00001937,0.00003118,0.00027587,-0.00004863,-0
 .00006398,0.00003332,-0.00002403,-0.00001849,0.00000919,-0.00001372,-0
 .00000642,0.00000631,0.00000041,0.00000411,-0.00000466,0.00000464,-0.0
 0000809,-0.00000449,-0.00000163,0.00000210,0.00000126,0.00000505,0.000
 00240,-0.00000223,0.00000008,0.00007824,-0.00011835,-0.00001038,0.0001
 9744,-0.00010873,-0.00005085,-0.00006315,-0.00004733,0.00007625,0.0000
 0899,0.00000581,0.00006737,0.00003160,-0.00001632,0.00002782,0.0000039
 9,0.00001630,0.00000033,0.00000346,-0.00000500,-0.00000036,-0.00000191
 ,0.00000120,0.00000422,0.00000579,-0.00001596,0.00001215,-0.00056911,0
 .00036421,0.00018505,0.00025130,0.00004224,-0.00012970,0.00022408,-0.0
 0035682,0.00014681,-0.00021852,-0.00016561,-0.00066634,0.00181928,-0.0
 0004734,0.00173197,-0.00030573,0.00032445,0.00035799,0.00705795,-0.004
 68235,-0.00304062,-0.00050366,0.00021023,0.00033992,0.00073738,0.00033
 701,0.00134506,-0.00007539,0.00007449,0.00015568,-0.00303407,-0.001638
 32,-0.00380279,-0.00123802,0.00133475,0.00215347,0.00005705,-0.0000363
 1,-0.00008319,0.00000847,0.00001502,-0.00002015,0.,-0.00002639,0.00002
 045,0.00003822,0.00003485,0.00001645,0.00000081,-0.00002380,-0.0000211
 4,-0.00000406,0.00000446,0.00000155,-0.00000012,0.00000563,-0.00001007
 ,0.00000634,-0.00000228,0.00000881,-0.00000793,0.00001704,-0.00002224,
 -0.00000114,-0.00000081,0.00000445,-0.00000031,-0.00000334,0.00000139,
 0.00000290,-0.00000172,0.00000164,-0.00000704,0.00000739,-0.00000725,0
 .00000052,-0.00000621,0.00000156,-0.00000143,0.00000514,-0.00000312,-0
 .00000176,0.00000161,0.00000283,0.00161648,-0.00139613,-0.00003359,-0.
 00022078,0.00022866,-0.00014174,0.00008870,-0.00011305,-0.00012408,-0.
 00143920,0.00079140,0.00006154,0.00000761,0.00001883,-0.00004701,-0.00
 001104,0.00000476,0.00003465,0.00001312,-0.00001669,-0.00002314,0.0000
 0147,0.00000231,-0.00000243,-0.00000434,0.00000202,-0.00000700,0.00000
 030,-0.00000310,0.00000533,0.00000439,-0.00000097,-0.00000177,-0.00000
 137,-0.00000241,0.00000145,-0.00000063,0.00000490,0.00000104,-0.000000
 52,0.00000052,-0.00000282,0.00042094,-0.00021924,-0.00048389,-0.000022
 66,-0.00002746,0.00019530,-0.00017818,0.00013444,0.00015537,-0.0000313
 5,0.00001895,0.00011996,0.08678995,-0.03811845,-0.15812878,0.02951635,
 0.01334791,-0.06967221,-0.13042597,0.07145451,0.25792626,-0.00012513,0
 .00020438,-0.00005877,0.00056452,-0.00005558,0.00007227,-0.00098214,0.
 00097952,-0.00095049,-0.00050686,0.00039873,-0.00016476,0.00000531,0.0
 0011966,0.00004390,0.00051919,-0.00067473,0.00034948,-0.00001516,-0.00
 000912,-0.00000521,0.00000734,-0.00001568,0.00001367,0.00002388,-0.000
 05872,0.00007894,0.00000712,-0.00000123,-0.00000053,0.00023394,-0.0007
 9869,0.00046437,0.00043385,-0.00021930,0.00038663,-0.00019524,-0.00006
 145,0.00008797,-0.00006848,-0.00027003,0.00007040,0.00009735,-0.000235
 07,-0.00000513,-0.00030750,-0.00000790,0.00000963,0.00002725,-0.000005
 45,-0.00001482,0.00005882,0.00001406,0.00001174,0.00046322,0.00009601,
 0.00006793,0.00009285,0.00004680,0.00002733,0.00001029,-0.00002478,-0.
 00004977,0.00000643,0.00001496,-0.00000895,-0.00003370,-0.00001935,0.0
 0001448,0.00005095,0.00005113,-0.00011257,0.00000565,-0.00000678,0.000
 02579,-0.00000003,0.00001120,0.00000673,-0.00001276,-0.00001810,0.0000
 0872,0.00000805,0.00006027,0.00005873,-0.00000705,0.00000255,-0.000006
 22,-0.00000398,-0.00000410,-0.00001360,0.00000903,-0.00002450,-0.00000
 219,0.00004518,-0.00001752,0.00009141,0.00021817,-0.00015313,-0.000082
 65,-0.00033437,-0.00103382,0.00003141,0.00012163,-0.00006434,0.0000258
 6,0.00004493,-0.00004812,-0.00000892,-0.00002125,-0.00003120,-0.000045
 73,-0.00002434,0.00005368,-0.00001065,0.00003378,0.00000834,0.00000271
 ,0.00000042,-0.00000664,-0.00001360,-0.00000835,0.00000545,-0.00000268
 ,-0.00013914,0.00035778,0.00012581,-0.00024561,0.00058983,0.00075466,0
 .00001776,0.00049285,-0.00009877,-0.00003690,0.00005230,-0.00006914,-0
 .00009133,0.00005901,-0.00003512,-0.00001965,-0.00007022,-0.00001417,-
 0.00000222,0.00001300,-0.00000034,0.00000357,0.00000772,0.00000419,0.0
 0004820,0.00005734,0.00001404,0.00205775,-0.00141718,-0.00167423,-0.00
 076738,0.00000852,0.00058539,-0.00065591,0.00114863,-0.00005638,0.0003
 4129,0.00039443,-0.00042827,-0.00029740,-0.00058707,-0.00103808,-0.000
 52482,-0.00082306,-0.00072280,-0.01813640,-0.03769912,-0.02088469,-0.0
 0073761,-0.00052473,-0.00011648,-0.00165116,0.00105357,-0.00217763,0.0
 0000791,-0.00003952,-0.00000971,-0.00473526,0.00047944,0.00411593,0.00
 010809,-0.00065607,0.00020909,-0.00014769,-0.00011232,-0.00000584,-0.0
 0008714,-0.00010154,0.00000648,-0.00002602,0.00012935,-0.00004627,-0.0
 0004290,-0.00007079,0.00013773,0.00004485,-0.00002502,0.00001324,0.000
 00065,-0.00000605,0.00000312,-0.00000935,-0.00000525,0.00002426,-0.000
 01347,0.00001138,-0.00001732,0.00001954,-0.00004671,0.00004023,0.00000
 433,0.00000011,-0.00000327,0.00000227,0.00001320,-0.00000276,-0.000008
 10,0.00000325,-0.00000473,-0.00003031,-0.00001643,-0.00002456,0.000002
 05,0.00001130,-0.00000098,-0.00001166,-0.00000476,0.00000061,0.0000012
 8,0.00000081,0.00000854,-0.00059465,0.00058233,0.00009351,0.00006579,-
 0.00022431,0.00017605,-0.00026584,0.00012101,-0.00029092,0.00048619,-0
 .00024784,-0.00011406,-0.00009360,-0.00000685,-0.00001380,0.00001411,0
 .00004274,-0.00001505,-0.00000637,-0.00000984,0.00000156,0.00000722,-0
 .00000537,0.00001204,-0.00000984,-0.00001121,0.00000649,-0.00000153,0.
 00001071,-0.00000434,0.00000503,-0.00001699,-0.00000089,0.00000037,0.0
 0000643,-0.00000568,-0.00000428,-0.00000433,0.00000068,0.00000381,0.00
 000017,0.00000596,0.00028182,0.00104636,0.00252931,-0.00013523,0.00032
 688,-0.00108481,0.00005883,-0.00037268,-0.00065624,-0.00064912,-0.0003
 9950,-0.00057591,-0.11872053,-0.06757183,-0.02696978,0.01365779,-0.009
 44035,0.00579715,0.01808668,0.01749571,0.00930150,0.11312836,-0.000149
 66,0.00035862,-0.00012767,0.00103738,-0.00005984,0.00008143,-0.0007557
 6,0.00126914,-0.00165018,-0.00106883,0.00083449,-0.00031470,0.00008273
 ,0.00027644,0.00010734,0.00104268,-0.00078841,0.00021792,-0.00003218,-
 0.00002666,-0.00001144,0.00000891,-0.00002524,0.00002218,0.00008010,-0
 .00010876,0.00013354,0.00001204,-0.00000518,-0.00000620,0.00013905,-0.
 00354718,0.00077684,0.00027534,-0.00016302,0.00066788,-0.00056703,-0.0
 0003683,0.00018228,-0.00019655,-0.00050748,0.00015120,0.00011993,-0.00
 053640,-0.00001749,-0.00047923,0.00045935,-0.00000297,-0.00017421,-0.0
 0015302,0.00002588,0.00003503,-0.00004533,-0.00003635,0.00075783,-0.00
 016668,0.00013061,0.00024097,-0.00008114,0.00009554,0.00002435,-0.0000
 1225,-0.00007811,0.00000049,0.00002730,-0.00003008,-0.00006594,-0.0000
 1879,0.00002268,0.00011235,0.00009457,-0.00022624,0.00000640,-0.000010
 90,0.00004642,-0.00000802,0.00001990,0.00002150,-0.00002669,-0.0000378
 3,0.00001986,0.00002266,0.00015853,0.00013980,-0.00001883,-0.00000837,
 -0.00001568,-0.00000532,-0.00000986,-0.00002770,0.00001872,-0.00005431
 ,-0.00000698,-0.00002239,-0.00001949,-0.00000563,0.00008397,-0.0000166
 1,-0.00002427,-0.00045607,-0.00066774,0.00008924,-0.00002576,-0.000003
 85,-0.00000016,-0.00000445,-0.00000964,-0.00000610,-0.00005399,0.00000
 555,-0.00000926,-0.00002034,0.00003099,-0.00002416,0.00002458,0.000006
 27,0.00000507,0.00001420,-0.00000249,-0.00000409,-0.00000349,0.0000051
 4,-0.00000354,0.00008823,0.00012326,0.00000763,0.00004029,0.00038870,0
 .00038583,0.00021636,0.00023010,-0.00003023,0.00001639,0.00004893,0.00
 002391,0.00000998,0.00001277,0.00000493,-0.00001667,-0.00003609,0.0000
 0721,0.00000534,0.00000202,-0.00000025,-0.00000168,0.00000442,0.000001
 14,0.00006317,0.00002513,0.00000883,0.00072684,-0.00102794,-0.00084033
 ,-0.00031943,0.00014491,0.00028550,-0.00027574,0.00074779,-0.00007477,
 -0.00097174,0.00081932,-0.00029565,0.00191368,-0.00017503,-0.00187321,
 -0.00013891,-0.00014911,0.00040612,-0.01185452,-0.01071639,-0.01041675
 ,-0.00047995,-0.00038009,0.00117558,-0.00009505,0.00003285,-0.00100564
 ,-0.00001885,-0.00001396,0.00008669,-0.00316207,0.00042558,0.00129375,
 0.00035557,-0.00010671,0.00053703,-0.00032168,-0.00003349,-0.00016702,
 -0.00006930,-0.00001853,0.00007608,-0.00000363,0.00006850,-0.00001287,
 -0.00002655,-0.00003955,0.00006116,0.00000332,-0.00004506,-0.00001346,
 0.00000909,0.00000304,-0.00000035,-0.00000728,-0.00000649,0.00000426,-
 0.00000336,0.00000556,-0.00000157,-0.00000059,-0.00000687,-0.00000090,
 -0.00000038,-0.00000182,0.00000126,0.00000051,0.00000418,0.00000150,0.
 00000207,-0.00000086,-0.00000018,-0.00004070,0.00000268,-0.00002598,0.
 00000270,0.00000256,0.00000268,-0.00002519,0.00001194,0.00001289,0.000
 00578,-0.00000336,0.00000065,0.00107577,0.00031813,0.00030058,-0.00028
 528,-0.00037727,0.00044987,-0.00118930,0.00006330,-0.00005865,0.000282
 75,-0.00040651,-0.00004413,-0.00013853,0.00007998,-0.00006603,0.000041
 03,0.00000461,0.00002543,-0.00001471,-0.00000230,-0.00001740,0.0000063
 0,-0.00000133,0.00000436,0.00000070,-0.00000547,-0.00000165,0.00000046
 ,-0.00000123,0.00000267,-0.00002702,0.00001003,-0.00000385,0.00000186,
 -0.00000324,0.00000089,-0.00000176,-0.00000044,0.00000041,0.00000748,0
 .00000097,0.00000366,0.00019052,0.00022190,0.00112089,-0.00006700,0.00
 024438,-0.00047636,-0.00005774,-0.00009569,-0.00026999,-0.00035968,-0.
 00019185,-0.00029110,-0.07350570,-0.19109772,-0.04814528,-0.01654917,-
 0.07402099,0.01836334,0.00715869,-0.03524355,-0.04307125,0.09779930,0.
 31373835,-0.00001074,0.00003481,-0.00003849,0.00006564,0.00004144,0.00
 004065,0.00020344,0.00022122,-0.00116816,-0.00030854,0.00009896,-0.000
 08902,0.00003506,0.00003277,-0.00000120,0.00059338,0.00051771,-0.00036
 900,0.00003086,0.00003156,0.00002772,0.00000456,-0.00001875,0.00002187
 ,0.00004008,-0.00005160,0.00006780,0.00000462,0.00001325,0.00001482,0.
 00031075,-0.00012697,0.00024602,0.00033201,0.00064100,0.00056640,-0.00
 005350,-0.00001142,0.00008186,-0.00002115,-0.00004790,0.00004599,0.000
 02186,-0.00009320,0.00002501,-0.00016355,0.00016147,-0.00010247,-0.000
 05647,-0.00004788,-0.00001002,0.00002818,0.00002027,0.00003972,0.00026
 737,-0.00001138,0.00012186,-0.00000603,-0.00002095,-0.00002616,-0.0000
 0040,0.00000565,-0.00002562,0.00001098,0.00001644,0.00001357,-0.000008
 35,-0.00000519,0.00000898,0.00001254,0.00001605,-0.00004275,0.00000466
 ,-0.00000396,0.00000938,-0.00000375,0.00000217,0.00000188,-0.00000296,
 -0.00000226,0.00000339,0.00000365,0.00001480,0.00000731,-0.00000203,-0
 .00000103,-0.00000386,-0.00000449,-0.00000082,0.00000173,0.00000451,-0
 .00001038,0.00000035,0.00001646,0.00000281,0.00003382,0.00012698,-0.00
 012243,-0.00007718,-0.00016857,-0.00042114,-0.00002153,0.00003764,-0.0
 0001969,0.00000138,0.00001628,-0.00002392,-0.00001485,-0.00002149,-0.0
 0000898,-0.00002985,-0.00001196,0.00003124,-0.00000038,0.00001411,0.00
 000210,0.00000018,0.00000061,-0.00000343,-0.00000507,-0.00000337,0.000
 00156,-0.00000131,-0.00004292,0.00014500,0.00007482,0.00002312,0.00027
 731,0.00039760,-0.00007580,0.00028902,-0.00001342,-0.00001823,0.000028
 24,-0.00000789,-0.00003858,0.00002584,-0.00000494,-0.00000853,-0.00003
 081,-0.00000969,0.00000049,0.00000481,-0.00000028,0.00000099,0.0000052
 7,0.00000538,0.00002982,0.00002376,0.00001648,0.00065408,-0.00062725,-
 0.00097856,-0.00028485,0.00002009,0.00029075,-0.00026916,0.00049079,0.
 00007602,-0.00063968,0.00100130,-0.00034573,0.00072938,-0.00043021,-0.
 00174726,-0.00024234,-0.00036341,-0.00000818,-0.01273944,-0.01694798,0
 .00205044,-0.00058927,-0.00023053,0.00125757,-0.00053798,0.00104199,-0
 .00032667,-0.00000396,-0.00005841,0.00008702,-0.00057583,0.00024545,0.
 00132395,0.00030688,-0.00040757,0.00061440,-0.00002383,-0.00008285,-0.
 00001174,-0.00001011,-0.00006867,-0.00001517,-0.00001118,0.00005573,-0
 .00002081,0.00000554,-0.00001369,0.00009247,0.00002573,-0.00002170,-0.
 00000166,-0.00000256,-0.00000159,0.00000270,-0.00000495,0.00000198,0.0
 0001006,-0.00000451,0.00000527,-0.00000558,0.00000720,-0.00001780,0.00
 001194,0.00000204,-0.00000020,0.00000046,0.00000115,0.00000570,-0.0000
 0110,-0.00000338,0.00000107,-0.00000191,-0.00002072,-0.00000549,-0.000
 01886,0.00000159,0.00000270,0.00000039,-0.00000644,-0.00000088,-0.0000
 0319,-0.00000099,0.00000209,0.00000750,-0.00045344,-0.00090235,-0.0008
 5710,0.00012784,0.00036936,-0.00014993,0.00051813,0.00003313,-0.000858
 15,-0.00057797,0.00033269,-0.00013682,-0.00003257,-0.00000626,-0.00003
 255,-0.00000203,0.00002845,0.00000893,0.00000622,-0.00001570,-0.000010
 80,0.00000420,-0.00000161,0.00000573,-0.00000843,-0.00000497,0.0000001
 0,-0.00000088,0.00000502,0.00000032,0.00000834,-0.00001198,-0.00000166
 ,-0.00000068,0.00000288,-0.00000253,-0.00000281,0.00000057,0.00000098,
 0.00000122,0.00000033,0.00000170,0.00027318,0.00036004,0.00096296,-0.0
 0006296,0.00010610,-0.00037693,-0.00002614,-0.00013227,-0.00025453,-0.
 00026910,-0.00014709,-0.00020840,-0.02980679,-0.05115686,-0.09059600,0
 .00996766,0.03280307,0.01148737,0.00056286,-0.04912079,-0.02823197,0.0
 3280253,0.08223989,0.10709721\\0.00000045,-0.00000090,-0.00000306,-0.0
 0000024,-0.00000029,-0.00000370,0.00000078,-0.00000002,-0.00000322,0.0
 0000045,-0.00000023,-0.00000230,0.00000047,-0.00000008,-0.00000138,0.0
 0000034,-0.00000055,-0.00000345,0.00000104,-0.00000079,-0.00000368,-0.
 00000058,-0.00000019,-0.00000232,-0.00000027,0.00000007,-0.00000103,0.
 00000144,-0.00000051,-0.00000207,0.00000047,-0.00000090,-0.00000226,-0
 .00000082,-0.00000020,-0.00000255,-0.00000059,-0.00000025,-0.00000452,
 0.00000048,-0.00000027,-0.00000282,0.00000078,-0.00000052,-0.00000104,
 0.00000071,0.00000035,0.00000009,0.00000105,-0.00000041,-0.00000041,0.
 00000189,-0.00000054,-0.00000103,0.00000127,-0.00000008,0.00000013,-0.
 00000005,-0.00000086,-0.00000518,-0.00000033,-0.00000041,-0.00000513,0
 .00000066,-0.00000075,-0.00000524,-0.00000073,-0.00000046,-0.00000556,
 -0.00000046,-0.00000020,-0.00000326,-0.00000096,-0.00000014,-0.0000029
 5,-0.00000046,-0.00000052,-0.00000424,-0.00000007,-0.00000033,-0.00000
 358,0.00000082,-0.00000078,-0.00000068,0.00000114,-0.00000049,-0.00000
 160,0.00000195,-0.00000051,-0.00000091,0.00000075,0.00000005,-0.000000
 49,0.00000070,-0.00000023,0.00000356,-0.00000125,-0.00000142,0.0000024
 7,0.00000342,0.00000155,0.00000172,0.00000144,-0.00000013,0.00000256,-
 0.00000003,-0.00000079,0.00000351,0.00000024,-0.00000226,-0.00000092,0
 .,0.00000052,0.00000117,-0.00000061,0.00000132,0.00000243,0.00000170,0
 .00000015,0.00000347,-0.00000006,0.00000087,0.00000281,-0.00000024,0.0
 0000056,0.00000326,0.00000246,-0.00000071,0.00000049,-0.00000149,0.000
 00055,0.00000061,-0.00000102,0.00000046,0.00000226,0.00000014,0.000000
 82,0.00000420,0.00000132,0.00000005,0.00000377,0.00000191,0.00000011,0
 .00000423,0.00000250,-0.00000035,0.00000336,0.00000225,-0.00000018,0.0
 0000292,0.00000210,-0.00000309,0.00000252,0.00000261,0.00000096,0.0000
 0129,-0.00000004,0.00000183,-0.00000042,0.00000104,-0.00000043,0.00000
 053,0.00000114,-0.00000107,-0.00000096,-0.00000112,0.00000083,0.000000
 23,0.00000008,-0.00000002,-0.00000103,0.00000163,-0.00000063,-0.000001
 23,-0.00000034,0.00000024,-0.00000054,0.00000025,0.00000016,0.00000122
 ,-0.00000061,0.00000045,-0.00000187,-0.00000119,0.00000004,-0.00000190
 ,-0.00000042,0.00000001,-0.00000036,-0.00000005,0.00000008,-0.00000019
 ,-0.00000109,-0.00000020,-0.00000022,-0.00000123,0.00000046,-0.0000001
 7,-0.00000229,0.00000059,0.00000325,-0.00000142,0.00000103,0.00000301,
 -0.00000181,0.00000071,0.00000182,-0.00000274,0.00000112,0.00000248,-0
 .00000118,0.00000071,0.00000513,-0.00000113,0.00000059,0.00000399,-0.0
 0000027,0.00000062,0.00000472,-0.00000030,0.00000083,0.00000546,0.0000
 0181,-0.00000010,0.00000231,0.00000178,0.00000001,0.00000245,0.0000016
 7,-0.00000032,0.00000154,0.00000274,-0.00000052,0.00000240,-0.00000057
 ,0.00000020,-0.00000274,-0.00000194,0.,-0.00000267,-0.00000113,-0.0000
 0017,-0.00000181,-0.00000109,-0.00000015,-0.00000330,-0.00000001,0.000
 00070,0.00000011,-0.00000099,-0.00000013,0.00000241,-0.00000139,0.0000
 0098,0.00000152,-0.00000242,0.00000073,0.00000185,-0.00000245,0.000000
 77,0.00000088,-0.00000233,0.00000083,0.00000153,-0.00000092,0.00000076
 ,0.00000266,-0.00000131,0.00000073,0.00000288,-0.00000024,0.00000018,0
 .00000258,-0.00000137,0.00000053,0.00000277,-0.00000226,-0.00000003,-0
 .00000040,-0.00000243,0.00000076,0.00000001,-0.00000234,0.00000039,-0.
 00000076,-0.00000166,0.00000077,0.00000074,0.00000056,-0.00000059,-0.0
 0000313,0.00000121,-0.00000045,-0.00000282,-0.00000021,-0.00000035,-0.
 00000321,0.00000091,-0.00000055,-0.00000305\\\@


 THE MORE PROGRESS PHYSICAL SCIENCES MAKE, THE MORE THEY TEND TO ENTER
 THE DOMAIN OF MATHEMATICS, WHICH IS A KIND OF CENTRE TO WHICH THEY ALL
 CONVERGE.  WE MAY EVEN JUDGE THE DEGREE OF PERFECTION TO WHICH A 
 SCIENCE HAS ARRIVED BY THE FACILITY WITH WHICH IT MAY BE SUBMITTED
 TO CALCULATION.

                               -- ADOLPHE QUETELET, 1796-1874
 Job cpu time:       4 days  7 hours 32 minutes 36.8 seconds.
 Elapsed time:       0 days  3 hours 38 minutes 47.2 seconds.
 File lengths (MBytes):  RWF=   9761 Int=      0 D2E=      0 Chk=     85 Scr=      1
 Normal termination of Gaussian 16 at Wed May  8 18:46:43 2019.
