 Entering Gaussian System, Link 0=g16
 Input=clay_new-glu_gluC6-FAUR-Na_1Me2O-bisCF3-ts-b3lyp_d3bj-631gd-pcm_thf.gjf
 Output=clay_new-glu_gluC6-FAUR-Na_1Me2O-bisCF3-ts-b3lyp_d3bj-631gd-pcm_thf.out
 Initial command:
 /home/ekwan/sw/g16/l1.exe "/scratch/users/ekwan/clay_new-glu_gluC6-FAUR-Na_1Me2O-bisCF3-ts-b3lyp_d3bj-631gd-pcm_thf/Gau-30601.inp" -scrdir="/scratch/users/ekwan/clay_new-glu_gluC6-FAUR-Na_1Me2O-bisCF3-ts-b3lyp_d3bj-631gd-pcm_thf/"
 Entering Link 1 = /home/ekwan/sw/g16/l1.exe PID=     30602.
  
 Copyright (c) 1988,1990,1992,1993,1995,1998,2003,2009,2016,
            Gaussian, Inc.  All Rights Reserved.
  
 This is part of the Gaussian(R) 16 program.  It is based on
 the Gaussian(R) 09 system (copyright 2009, Gaussian, Inc.),
 the Gaussian(R) 03 system (copyright 2003, Gaussian, Inc.),
 the Gaussian(R) 98 system (copyright 1998, Gaussian, Inc.),
 the Gaussian(R) 94 system (copyright 1995, Gaussian, Inc.),
 the Gaussian 92(TM) system (copyright 1992, Gaussian, Inc.),
 the Gaussian 90(TM) system (copyright 1990, Gaussian, Inc.),
 the Gaussian 88(TM) system (copyright 1988, Gaussian, Inc.),
 the Gaussian 86(TM) system (copyright 1986, Carnegie Mellon
 University), and the Gaussian 82(TM) system (copyright 1983,
 Carnegie Mellon University). Gaussian is a federally registered
 trademark of Gaussian, Inc.
  
 This software contains proprietary and confidential information,
 including trade secrets, belonging to Gaussian, Inc.
  
 This software is provided under written license and may be
 used, copied, transmitted, or stored only in accord with that
 written license.
  
 The following legend is applicable only to US Government
 contracts under FAR:
  
                    RESTRICTED RIGHTS LEGEND
  
 Use, reproduction and disclosure by the US Government is
 subject to restrictions as set forth in subparagraphs (a)
 and (c) of the Commercial Computer Software - Restricted
 Rights clause in FAR 52.227-19.
  
 Gaussian, Inc.
 340 Quinnipiac St., Bldg. 40, Wallingford CT 06492
  
  
 ---------------------------------------------------------------
 Warning -- This program may not be used in any manner that
 competes with the business of Gaussian, Inc. or will provide
 assistance to any competitor of Gaussian, Inc.  The licensee
 of this program is prohibited from giving any competitor of
 Gaussian, Inc. access to this program.  By using this program,
 the user acknowledges that Gaussian, Inc. is engaged in the
 business of creating and licensing software in the field of
 computational chemistry and represents and warrants to the
 licensee that it is not a competitor of Gaussian, Inc. and that
 it will not use this program in any manner prohibited above.
 ---------------------------------------------------------------
  

 Cite this work as:
 Gaussian 16, Revision A.03,
 M. J. Frisch, G. W. Trucks, H. B. Schlegel, G. E. Scuseria, 
 M. A. Robb, J. R. Cheeseman, G. Scalmani, V. Barone, 
 G. A. Petersson, H. Nakatsuji, X. Li, M. Caricato, A. V. Marenich, 
 J. Bloino, B. G. Janesko, R. Gomperts, B. Mennucci, H. P. Hratchian, 
 J. V. Ortiz, A. F. Izmaylov, J. L. Sonnenberg, D. Williams-Young, 
 F. Ding, F. Lipparini, F. Egidi, J. Goings, B. Peng, A. Petrone, 
 T. Henderson, D. Ranasinghe, V. G. Zakrzewski, J. Gao, N. Rega, 
 G. Zheng, W. Liang, M. Hada, M. Ehara, K. Toyota, R. Fukuda, 
 J. Hasegawa, M. Ishida, T. Nakajima, Y. Honda, O. Kitao, H. Nakai, 
 T. Vreven, K. Throssell, J. A. Montgomery, Jr., J. E. Peralta, 
 F. Ogliaro, M. J. Bearpark, J. J. Heyd, E. N. Brothers, K. N. Kudin, 
 V. N. Staroverov, T. A. Keith, R. Kobayashi, J. Normand, 
 K. Raghavachari, A. P. Rendell, J. C. Burant, S. S. Iyengar, 
 J. Tomasi, M. Cossi, J. M. Millam, M. Klene, C. Adamo, R. Cammi, 
 J. W. Ochterski, R. L. Martin, K. Morokuma, O. Farkas, 
 J. B. Foresman, and D. J. Fox, Gaussian, Inc., Wallingford CT, 2016.
 
 ******************************************
 Gaussian 16:  AS64L-G16RevA.03 25-Dec-2016
                 9-May-2019 
 ******************************************
 %mem=48GB
 %nprocshared=32
 Will use up to   32 processors via shared memory.
 ----------------------------------------------------------------------
 #p opt=(calcfc,ts,noeigentest,maxstep=3,recalc=30) freq=noraman b3lyp/
 6-31g(d) scrf=(solvent=tetrahydrofuran,pcm) pop=none empiricaldispersi
 on=gd3bj
 ----------------------------------------------------------------------
 1/5=1,8=3,10=4,11=1,18=20,26=3,38=1,71=30/1,3;
 2/9=110,12=2,17=6,18=5,40=1/2;
 3/5=1,6=6,7=1,11=2,25=1,30=1,70=2201,71=2,72=20,74=-5,124=41,140=1/1,2,3;
 4//1;
 5/5=2,38=5,53=20/2;
 8/6=4,10=90,11=11/1;
 11/6=1,8=1,9=11,15=111,16=1/1,2,10;
 10/6=1,13=1/2;
 7/10=1,18=20,25=1/1,2,3,16;
 1/5=1,8=3,10=4,11=1,18=20,26=3,71=30/3(2);
 2/9=110/2;
 99//99;
 2/9=110/2;
 3/5=1,6=6,7=1,11=2,25=1,30=1,70=2205,71=1,72=20,74=-5,124=41/1,2,3;
 4/5=5,16=3,69=1/1;
 5/5=2,38=5,53=20/2;
 7//1,2,3,16;
 1/5=1,8=3,11=1,18=20,26=3,71=30/3(-5);
 2/9=110/2;
 99/9=1/99;
 Leave Link    1 at Thu May  9 22:50:36 2019, MaxMem=  6442450944 cpu:               4.4 elap:               0.2
 (Enter /home/ekwan/sw/g16/l101.exe)
 -----
 title
 -----
 Symbolic Z-matrix:
 Charge =  0 Multiplicity = 1
 C                     4.01033  -1.91478  -1.05015 
 C                     4.08201  -1.08414   0.23177 
 C                     3.60356   0.35093  -0.02799 
 C                     2.14392  -0.33034  -1.81652 
 C                     2.6447   -1.77382  -1.71558 
 H                     3.53758   0.93226   0.89931 
 H                     3.39251  -1.52941   0.9629 
 H                     4.78844  -1.57229  -1.74335 
 H                     2.75137   0.2215   -2.54263 
 H                     1.9261   -2.32868  -1.10906 
 O                     2.26634   0.31825  -0.52016 
 O                     4.5003    0.94905  -0.91494 
 O                     5.4059   -1.1372    0.73137 
 O                     4.18601  -3.2991   -0.75559 
 O                     2.70982  -2.32593  -3.02755 
 C                     0.65891  -0.27479  -2.2126 
 H                     0.62322  -0.60181  -3.27354 
 H                     0.39465   0.80935  -2.23408 
 O                    -0.15242  -1.01002  -1.3827 
 C                     5.51687  -0.78052   2.09977 
 H                     5.28303   0.2786    2.27477 
 H                     4.85357  -1.39578   2.72606 
 H                     6.55359  -0.96232   2.3915 
 C                     5.50865  -3.7801   -0.94799 
 H                     5.83272  -3.63684  -1.98889 
 H                     6.22003  -3.28291  -0.28005 
 H                     5.48765  -4.85098  -0.72822 
 C                     1.73825  -3.33475  -3.26421 
 H                     1.94539  -4.23103  -2.66275 
 H                     0.72759  -2.9755   -3.03365 
 H                     1.80175  -3.59547  -4.32434 
 C                    -4.16816  -1.59679  -0.82678 
 C                    -3.01584  -0.95786  -1.60708 
 C                    -2.2207   -0.00837  -0.73791 
 C                    -2.88117  -1.10612   1.30425 
 C                    -3.62316  -2.16564   0.48586 
 H                    -1.5492    0.71186  -1.16815 
 H                    -2.28981  -1.74243  -1.85968 
 H                    -4.93082  -0.84217  -0.60493 
 H                    -3.58706  -0.37083   1.69428 
 H                    -2.93432  -2.98783   0.24077 
 O                    -1.92679  -0.34779   0.50422 
 O                    -3.83568   1.89222   1.89473 
 O                    -3.50577  -0.34529  -2.77307 
 O                    -4.72172  -2.67534  -1.56104 
 O                    -4.65961  -2.62782   1.33455 
 C                    -2.07888  -1.73222   2.43326 
 H                    -1.49836  -2.59154   2.06882 
 H                    -2.78599  -2.08812   3.19243 
 O                    -1.19407  -0.76012   2.97076 
 S                    -3.48775   2.39882   0.55232 
 O                    -4.16324   3.62622   0.10028 
 O                    -3.61403   1.30766  -0.53019 
 C                    -1.72479   2.75863   0.59313 
 C                    -0.95436   2.29653   1.65593 
 C                    -1.14741   3.43528  -0.4798 
 C                     0.42488   2.51874   1.63216 
 H                    -1.42222   1.74807   2.4641 
 C                     0.23116   3.64274  -0.48758 
 H                    -1.76602   3.79582  -1.29376 
 C                     1.02274   3.1874    0.56552 
 H                     2.09065   3.3551    0.55589 
 C                    -2.525    -0.16276  -3.7895 
 H                    -1.77266   0.58334  -3.50658 
 H                    -2.01208  -1.10605  -4.01871 
 H                    -3.06056   0.18855  -4.67374 
 C                    -5.87456  -2.33379  -2.32467 
 H                    -6.67706  -1.95524  -1.67631 
 H                    -5.64064  -1.5827   -3.08514 
 H                    -6.20991  -3.25518  -2.80701 
 C                    -4.92581  -4.02459   1.24069 
 H                    -5.25938  -4.29868   0.23605 
 H                    -4.03373  -4.61303   1.49981 
 H                    -5.71515  -4.23622   1.96554 
 C                    -0.57674  -1.21254   4.17148 
 H                     0.08409  -0.41429   4.50738 
 H                    -1.33006  -1.41566   4.94379 
 H                     0.0072   -2.12475   3.99081 
 C                     4.26428   2.33541  -1.13346 
 H                     5.0871    2.70003  -1.75101 
 H                     3.31791   2.50463  -1.65458 
 H                     4.26154   2.88447  -0.18087 
 Na                    0.44849  -0.70008   0.75114 
 O                     0.95022  -2.89004   1.25983 
 C                     0.39003  -3.83642   0.3492 
 H                    -0.27779  -4.53038   0.87824 
 H                    -0.15793  -3.25943  -0.3985 
 H                     1.18503  -4.40874  -0.14488 
 C                     1.8743   -3.4839    2.16388 
 H                     2.73866  -3.8824    1.61789 
 H                     2.20477  -2.69976   2.84901 
 H                     1.39684  -4.28906   2.73842 
 C                     1.27842   1.94634   2.7257 
 F                     0.70112   2.03234   3.93524 
 F                     2.49371   2.51765   2.79311 
 F                     1.51118   0.60065   2.5154 
 C                     0.87885   4.29101  -1.67978 
 F                     1.18385   3.36979  -2.63091 
 F                     2.03531   4.90676  -1.3527 
 F                     0.07422   5.20093  -2.2605 
 
 Add virtual bond connecting atoms O53        and C34        Dist= 3.64D+00.
 Add virtual bond connecting atoms H37        and H18        Dist= 4.19D+00.
 Add virtual bond connecting atoms H37        and O19        Dist= 4.21D+00.
 Add virtual bond connecting atoms H38        and O19        Dist= 4.36D+00.
 Add virtual bond connecting atoms H62        and H82        Dist= 4.42D+00.
 ITRead=  0  0  0  0  0  0  0  0  0  0  0  0  0  0  0  0  0  0  0  0
 ITRead=  0  0  0  0  0  0  0  0  0  0  0  0  0  0  0  0  0  0  0  0
 ITRead=  0  0  0  0  0  0  0  0  0  0  0  0  0  0  0  0  0  0  0  0
 ITRead=  0  0  0  0  0  0  0  0  0  0  0  0  0  0  0  0  0  0  0  0
 ITRead=  0  0  0  0  0  0  0  0  0  0  0  0  0  0  0  0  0  0  0  0
 MicOpt= -1 -1 -1 -1 -1 -1 -1 -1 -1 -1 -1 -1 -1 -1 -1 -1 -1 -1 -1 -1
 MicOpt= -1 -1 -1 -1 -1 -1 -1 -1 -1 -1 -1 -1 -1 -1 -1 -1 -1 -1 -1 -1
 MicOpt= -1 -1 -1 -1 -1 -1 -1 -1 -1 -1 -1 -1 -1 -1 -1 -1 -1 -1 -1 -1
 MicOpt= -1 -1 -1 -1 -1 -1 -1 -1 -1 -1 -1 -1 -1 -1 -1 -1 -1 -1 -1 -1
 MicOpt= -1 -1 -1 -1 -1 -1 -1 -1 -1 -1 -1 -1 -1 -1 -1 -1 -1 -1 -1 -1
 NAtoms=    100 NQM=      100 NQMF=       0 NMMI=      0 NMMIF=      0
                NMic=       0 NMicF=      0.
                    Isotopes and Nuclear Properties:
 (Nuclear quadrupole moments (NQMom) in fm**2, nuclear magnetic moments (NMagM)
  in nuclear magnetons)

  Atom         1           2           3           4           5           6           7           8           9          10
 IAtWgt=          12          12          12          12          12           1           1           1           1           1
 AtmWgt=  12.0000000  12.0000000  12.0000000  12.0000000  12.0000000   1.0078250   1.0078250   1.0078250   1.0078250   1.0078250
 NucSpn=           0           0           0           0           0           1           1           1           1           1
 AtZEff=   0.0000000   0.0000000   0.0000000   0.0000000   0.0000000   0.0000000   0.0000000   0.0000000   0.0000000   0.0000000
 NQMom=    0.0000000   0.0000000   0.0000000   0.0000000   0.0000000   0.0000000   0.0000000   0.0000000   0.0000000   0.0000000
 NMagM=    0.0000000   0.0000000   0.0000000   0.0000000   0.0000000   2.7928460   2.7928460   2.7928460   2.7928460   2.7928460
 AtZNuc=   6.0000000   6.0000000   6.0000000   6.0000000   6.0000000   1.0000000   1.0000000   1.0000000   1.0000000   1.0000000

  Atom        11          12          13          14          15          16          17          18          19          20
 IAtWgt=          16          16          16          16          16          12           1           1          16          12
 AtmWgt=  15.9949146  15.9949146  15.9949146  15.9949146  15.9949146  12.0000000   1.0078250   1.0078250  15.9949146  12.0000000
 NucSpn=           0           0           0           0           0           0           1           1           0           0
 AtZEff=   0.0000000   0.0000000   0.0000000   0.0000000   0.0000000   0.0000000   0.0000000   0.0000000   0.0000000   0.0000000
 NQMom=    0.0000000   0.0000000   0.0000000   0.0000000   0.0000000   0.0000000   0.0000000   0.0000000   0.0000000   0.0000000
 NMagM=    0.0000000   0.0000000   0.0000000   0.0000000   0.0000000   0.0000000   2.7928460   2.7928460   0.0000000   0.0000000
 AtZNuc=   8.0000000   8.0000000   8.0000000   8.0000000   8.0000000   6.0000000   1.0000000   1.0000000   8.0000000   6.0000000

  Atom        21          22          23          24          25          26          27          28          29          30
 IAtWgt=           1           1           1          12           1           1           1          12           1           1
 AtmWgt=   1.0078250   1.0078250   1.0078250  12.0000000   1.0078250   1.0078250   1.0078250  12.0000000   1.0078250   1.0078250
 NucSpn=           1           1           1           0           1           1           1           0           1           1
 AtZEff=   0.0000000   0.0000000   0.0000000   0.0000000   0.0000000   0.0000000   0.0000000   0.0000000   0.0000000   0.0000000
 NQMom=    0.0000000   0.0000000   0.0000000   0.0000000   0.0000000   0.0000000   0.0000000   0.0000000   0.0000000   0.0000000
 NMagM=    2.7928460   2.7928460   2.7928460   0.0000000   2.7928460   2.7928460   2.7928460   0.0000000   2.7928460   2.7928460
 AtZNuc=   1.0000000   1.0000000   1.0000000   6.0000000   1.0000000   1.0000000   1.0000000   6.0000000   1.0000000   1.0000000

  Atom        31          32          33          34          35          36          37          38          39          40
 IAtWgt=           1          12          12          12          12          12           1           1           1           1
 AtmWgt=   1.0078250  12.0000000  12.0000000  12.0000000  12.0000000  12.0000000   1.0078250   1.0078250   1.0078250   1.0078250
 NucSpn=           1           0           0           0           0           0           1           1           1           1
 AtZEff=   0.0000000   0.0000000   0.0000000   0.0000000   0.0000000   0.0000000   0.0000000   0.0000000   0.0000000   0.0000000
 NQMom=    0.0000000   0.0000000   0.0000000   0.0000000   0.0000000   0.0000000   0.0000000   0.0000000   0.0000000   0.0000000
 NMagM=    2.7928460   0.0000000   0.0000000   0.0000000   0.0000000   0.0000000   2.7928460   2.7928460   2.7928460   2.7928460
 AtZNuc=   1.0000000   6.0000000   6.0000000   6.0000000   6.0000000   6.0000000   1.0000000   1.0000000   1.0000000   1.0000000

  Atom        41          42          43          44          45          46          47          48          49          50
 IAtWgt=           1          16          16          16          16          16          12           1           1          16
 AtmWgt=   1.0078250  15.9949146  15.9949146  15.9949146  15.9949146  15.9949146  12.0000000   1.0078250   1.0078250  15.9949146
 NucSpn=           1           0           0           0           0           0           0           1           1           0
 AtZEff=   0.0000000   0.0000000   0.0000000   0.0000000   0.0000000   0.0000000   0.0000000   0.0000000   0.0000000   0.0000000
 NQMom=    0.0000000   0.0000000   0.0000000   0.0000000   0.0000000   0.0000000   0.0000000   0.0000000   0.0000000   0.0000000
 NMagM=    2.7928460   0.0000000   0.0000000   0.0000000   0.0000000   0.0000000   0.0000000   2.7928460   2.7928460   0.0000000
 AtZNuc=   1.0000000   8.0000000   8.0000000   8.0000000   8.0000000   8.0000000   6.0000000   1.0000000   1.0000000   8.0000000

  Atom        51          52          53          54          55          56          57          58          59          60
 IAtWgt=          32          16          16          12          12          12          12           1          12           1
 AtmWgt=  31.9720718  15.9949146  15.9949146  12.0000000  12.0000000  12.0000000  12.0000000   1.0078250  12.0000000   1.0078250
 NucSpn=           0           0           0           0           0           0           0           1           0           1
 AtZEff=   0.0000000   0.0000000   0.0000000   0.0000000   0.0000000   0.0000000   0.0000000   0.0000000   0.0000000   0.0000000
 NQMom=    0.0000000   0.0000000   0.0000000   0.0000000   0.0000000   0.0000000   0.0000000   0.0000000   0.0000000   0.0000000
 NMagM=    0.0000000   0.0000000   0.0000000   0.0000000   0.0000000   0.0000000   0.0000000   2.7928460   0.0000000   2.7928460
 AtZNuc=  16.0000000   8.0000000   8.0000000   6.0000000   6.0000000   6.0000000   6.0000000   1.0000000   6.0000000   1.0000000

  Atom        61          62          63          64          65          66          67          68          69          70
 IAtWgt=          12           1          12           1           1           1          12           1           1           1
 AtmWgt=  12.0000000   1.0078250  12.0000000   1.0078250   1.0078250   1.0078250  12.0000000   1.0078250   1.0078250   1.0078250
 NucSpn=           0           1           0           1           1           1           0           1           1           1
 AtZEff=   0.0000000   0.0000000   0.0000000   0.0000000   0.0000000   0.0000000   0.0000000   0.0000000   0.0000000   0.0000000
 NQMom=    0.0000000   0.0000000   0.0000000   0.0000000   0.0000000   0.0000000   0.0000000   0.0000000   0.0000000   0.0000000
 NMagM=    0.0000000   2.7928460   0.0000000   2.7928460   2.7928460   2.7928460   0.0000000   2.7928460   2.7928460   2.7928460
 AtZNuc=   6.0000000   1.0000000   6.0000000   1.0000000   1.0000000   1.0000000   6.0000000   1.0000000   1.0000000   1.0000000

  Atom        71          72          73          74          75          76          77          78          79          80
 IAtWgt=          12           1           1           1          12           1           1           1          12           1
 AtmWgt=  12.0000000   1.0078250   1.0078250   1.0078250  12.0000000   1.0078250   1.0078250   1.0078250  12.0000000   1.0078250
 NucSpn=           0           1           1           1           0           1           1           1           0           1
 AtZEff=   0.0000000   0.0000000   0.0000000   0.0000000   0.0000000   0.0000000   0.0000000   0.0000000   0.0000000   0.0000000
 NQMom=    0.0000000   0.0000000   0.0000000   0.0000000   0.0000000   0.0000000   0.0000000   0.0000000   0.0000000   0.0000000
 NMagM=    0.0000000   2.7928460   2.7928460   2.7928460   0.0000000   2.7928460   2.7928460   2.7928460   0.0000000   2.7928460
 AtZNuc=   6.0000000   1.0000000   1.0000000   1.0000000   6.0000000   1.0000000   1.0000000   1.0000000   6.0000000   1.0000000

  Atom        81          82          83          84          85          86          87          88          89          90
 IAtWgt=           1           1          23          16          12           1           1           1          12           1
 AtmWgt=   1.0078250   1.0078250  22.9897697  15.9949146  12.0000000   1.0078250   1.0078250   1.0078250  12.0000000   1.0078250
 NucSpn=           1           1           3           0           0           1           1           1           0           1
 AtZEff=   0.0000000   0.0000000   0.0000000   0.0000000   0.0000000   0.0000000   0.0000000   0.0000000   0.0000000   0.0000000
 NQMom=    0.0000000   0.0000000  10.4000000   0.0000000   0.0000000   0.0000000   0.0000000   0.0000000   0.0000000   0.0000000
 NMagM=    2.7928460   2.7928460   2.2175200   0.0000000   0.0000000   2.7928460   2.7928460   2.7928460   0.0000000   2.7928460
 AtZNuc=   1.0000000   1.0000000  11.0000000   8.0000000   6.0000000   1.0000000   1.0000000   1.0000000   6.0000000   1.0000000

  Atom        91          92          93          94          95          96          97          98          99         100
 IAtWgt=           1           1          12          19          19          19          12          19          19          19
 AtmWgt=   1.0078250   1.0078250  12.0000000  18.9984033  18.9984033  18.9984033  12.0000000  18.9984033  18.9984033  18.9984033
 NucSpn=           1           1           0           1           1           1           0           1           1           1
 AtZEff=   0.0000000   0.0000000   0.0000000   0.0000000   0.0000000   0.0000000   0.0000000   0.0000000   0.0000000   0.0000000
 NQMom=    0.0000000   0.0000000   0.0000000   0.0000000   0.0000000   0.0000000   0.0000000   0.0000000   0.0000000   0.0000000
 NMagM=    2.7928460   2.7928460   0.0000000   2.6288670   2.6288670   2.6288670   0.0000000   2.6288670   2.6288670   2.6288670
 AtZNuc=   1.0000000   1.0000000   6.0000000   9.0000000   9.0000000   9.0000000   6.0000000   9.0000000   9.0000000   9.0000000
 Leave Link  101 at Thu May  9 22:50:37 2019, MaxMem=  6442450944 cpu:              17.6 elap:               0.7
 (Enter /home/ekwan/sw/g16/l103.exe)

 GradGradGradGradGradGradGradGradGradGradGradGradGradGradGradGradGradGrad
 Berny optimization.
 Initialization pass.
                           ----------------------------
                           !    Initial Parameters    !
                           ! (Angstroms and Degrees)  !
 --------------------------                            --------------------------
 ! Name  Definition              Value          Derivative Info.                !
 --------------------------------------------------------------------------------
 ! R1    R(1,2)                  1.5292         calculate D2E/DX2 analytically  !
 ! R2    R(1,5)                  1.5257         calculate D2E/DX2 analytically  !
 ! R3    R(1,8)                  1.0969         calculate D2E/DX2 analytically  !
 ! R4    R(1,14)                 1.4262         calculate D2E/DX2 analytically  !
 ! R5    R(2,3)                  1.5349         calculate D2E/DX2 analytically  !
 ! R6    R(2,7)                  1.0992         calculate D2E/DX2 analytically  !
 ! R7    R(2,13)                 1.416          calculate D2E/DX2 analytically  !
 ! R8    R(3,6)                  1.0964         calculate D2E/DX2 analytically  !
 ! R9    R(3,11)                 1.4253         calculate D2E/DX2 analytically  !
 ! R10   R(3,12)                 1.3959         calculate D2E/DX2 analytically  !
 ! R11   R(4,5)                  1.5312         calculate D2E/DX2 analytically  !
 ! R12   R(4,9)                  1.0958         calculate D2E/DX2 analytically  !
 ! R13   R(4,11)                 1.4547         calculate D2E/DX2 analytically  !
 ! R14   R(4,16)                 1.5379         calculate D2E/DX2 analytically  !
 ! R15   R(5,10)                 1.0918         calculate D2E/DX2 analytically  !
 ! R16   R(5,15)                 1.4249         calculate D2E/DX2 analytically  !
 ! R17   R(12,79)                1.4232         calculate D2E/DX2 analytically  !
 ! R18   R(13,20)                1.4185         calculate D2E/DX2 analytically  !
 ! R19   R(14,24)                1.4205         calculate D2E/DX2 analytically  !
 ! R20   R(15,28)                1.4205         calculate D2E/DX2 analytically  !
 ! R21   R(16,17)                1.1108         calculate D2E/DX2 analytically  !
 ! R22   R(16,18)                1.1161         calculate D2E/DX2 analytically  !
 ! R23   R(16,19)                1.3739         calculate D2E/DX2 analytically  !
 ! R24   R(18,37)                2.2191         calculate D2E/DX2 analytically  !
 ! R25   R(19,37)                2.2275         calculate D2E/DX2 analytically  !
 ! R26   R(19,38)                2.3092         calculate D2E/DX2 analytically  !
 ! R27   R(19,83)                2.2384         calculate D2E/DX2 analytically  !
 ! R28   R(20,21)                1.0986         calculate D2E/DX2 analytically  !
 ! R29   R(20,22)                1.1003         calculate D2E/DX2 analytically  !
 ! R30   R(20,23)                1.0922         calculate D2E/DX2 analytically  !
 ! R31   R(24,25)                1.0996         calculate D2E/DX2 analytically  !
 ! R32   R(24,26)                1.0952         calculate D2E/DX2 analytically  !
 ! R33   R(24,27)                1.0934         calculate D2E/DX2 analytically  !
 ! R34   R(28,29)                1.0991         calculate D2E/DX2 analytically  !
 ! R35   R(28,30)                1.0971         calculate D2E/DX2 analytically  !
 ! R36   R(28,31)                1.0936         calculate D2E/DX2 analytically  !
 ! R37   R(32,33)                1.5313         calculate D2E/DX2 analytically  !
 ! R38   R(32,36)                1.5309         calculate D2E/DX2 analytically  !
 ! R39   R(32,39)                1.0956         calculate D2E/DX2 analytically  !
 ! R40   R(32,45)                1.4173         calculate D2E/DX2 analytically  !
 ! R41   R(33,34)                1.513          calculate D2E/DX2 analytically  !
 ! R42   R(33,38)                1.0984         calculate D2E/DX2 analytically  !
 ! R43   R(33,44)                1.4053         calculate D2E/DX2 analytically  !
 ! R44   R(34,37)                1.0746         calculate D2E/DX2 analytically  !
 ! R45   R(34,42)                1.3208         calculate D2E/DX2 analytically  !
 ! R46   R(34,53)                1.9278         calculate D2E/DX2 analytically  !
 ! R47   R(35,36)                1.5307         calculate D2E/DX2 analytically  !
 ! R48   R(35,40)                1.0914         calculate D2E/DX2 analytically  !
 ! R49   R(35,42)                1.4581         calculate D2E/DX2 analytically  !
 ! R50   R(35,47)                1.52           calculate D2E/DX2 analytically  !
 ! R51   R(36,41)                1.1003         calculate D2E/DX2 analytically  !
 ! R52   R(36,46)                1.4171         calculate D2E/DX2 analytically  !
 ! R53   R(43,51)                1.4764         calculate D2E/DX2 analytically  !
 ! R54   R(44,63)                1.4242         calculate D2E/DX2 analytically  !
 ! R55   R(45,67)                1.4244         calculate D2E/DX2 analytically  !
 ! R56   R(46,71)                1.425          calculate D2E/DX2 analytically  !
 ! R57   R(47,48)                1.0992         calculate D2E/DX2 analytically  !
 ! R58   R(47,49)                1.0968         calculate D2E/DX2 analytically  !
 ! R59   R(47,50)                1.4201         calculate D2E/DX2 analytically  !
 ! R60   R(50,75)                1.4239         calculate D2E/DX2 analytically  !
 ! R61   R(51,52)                1.4721         calculate D2E/DX2 analytically  !
 ! R62   R(51,53)                1.5422         calculate D2E/DX2 analytically  !
 ! R63   R(51,54)                1.7998         calculate D2E/DX2 analytically  !
 ! R64   R(54,55)                1.3916         calculate D2E/DX2 analytically  !
 ! R65   R(54,56)                1.3937         calculate D2E/DX2 analytically  !
 ! R66   R(55,57)                1.3972         calculate D2E/DX2 analytically  !
 ! R67   R(55,58)                1.083          calculate D2E/DX2 analytically  !
 ! R68   R(56,59)                1.3941         calculate D2E/DX2 analytically  !
 ! R69   R(56,60)                1.0841         calculate D2E/DX2 analytically  !
 ! R70   R(57,61)                1.3936         calculate D2E/DX2 analytically  !
 ! R71   R(57,93)                1.5007         calculate D2E/DX2 analytically  !
 ! R72   R(59,61)                1.3939         calculate D2E/DX2 analytically  !
 ! R73   R(59,97)                1.5037         calculate D2E/DX2 analytically  !
 ! R74   R(61,62)                1.081          calculate D2E/DX2 analytically  !
 ! R75   R(62,82)                2.3403         calculate D2E/DX2 analytically  !
 ! R76   R(63,64)                1.0967         calculate D2E/DX2 analytically  !
 ! R77   R(63,65)                1.0979         calculate D2E/DX2 analytically  !
 ! R78   R(63,66)                1.0918         calculate D2E/DX2 analytically  !
 ! R79   R(67,68)                1.0989         calculate D2E/DX2 analytically  !
 ! R80   R(67,69)                1.0942         calculate D2E/DX2 analytically  !
 ! R81   R(67,70)                1.0927         calculate D2E/DX2 analytically  !
 ! R82   R(71,72)                1.0935         calculate D2E/DX2 analytically  !
 ! R83   R(71,73)                1.0996         calculate D2E/DX2 analytically  !
 ! R84   R(71,74)                1.0924         calculate D2E/DX2 analytically  !
 ! R85   R(75,76)                1.0894         calculate D2E/DX2 analytically  !
 ! R86   R(75,77)                1.0978         calculate D2E/DX2 analytically  !
 ! R87   R(75,78)                1.0981         calculate D2E/DX2 analytically  !
 ! R88   R(79,80)                1.0915         calculate D2E/DX2 analytically  !
 ! R89   R(79,81)                1.0935         calculate D2E/DX2 analytically  !
 ! R90   R(79,82)                1.0995         calculate D2E/DX2 analytically  !
 ! R91   R(83,84)                2.3036         calculate D2E/DX2 analytically  !
 ! R92   R(84,85)                1.4278         calculate D2E/DX2 analytically  !
 ! R93   R(84,89)                1.4226         calculate D2E/DX2 analytically  !
 ! R94   R(85,86)                1.0988         calculate D2E/DX2 analytically  !
 ! R95   R(85,87)                1.0919         calculate D2E/DX2 analytically  !
 ! R96   R(85,88)                1.0971         calculate D2E/DX2 analytically  !
 ! R97   R(89,90)                1.0973         calculate D2E/DX2 analytically  !
 ! R98   R(89,91)                1.0925         calculate D2E/DX2 analytically  !
 ! R99   R(89,92)                1.0983         calculate D2E/DX2 analytically  !
 ! R100  R(93,94)                1.343          calculate D2E/DX2 analytically  !
 ! R101  R(93,95)                1.3446         calculate D2E/DX2 analytically  !
 ! R102  R(93,96)                1.3818         calculate D2E/DX2 analytically  !
 ! R103  R(97,98)                1.3588         calculate D2E/DX2 analytically  !
 ! R104  R(97,99)                1.3504         calculate D2E/DX2 analytically  !
 ! R105  R(97,100)               1.3463         calculate D2E/DX2 analytically  !
 ! A1    A(2,1,5)              110.941          calculate D2E/DX2 analytically  !
 ! A2    A(2,1,8)              109.0815         calculate D2E/DX2 analytically  !
 ! A3    A(2,1,14)             110.3853         calculate D2E/DX2 analytically  !
 ! A4    A(5,1,8)              109.297          calculate D2E/DX2 analytically  !
 ! A5    A(5,1,14)             106.8593         calculate D2E/DX2 analytically  !
 ! A6    A(8,1,14)             110.2555         calculate D2E/DX2 analytically  !
 ! A7    A(1,2,3)              110.5721         calculate D2E/DX2 analytically  !
 ! A8    A(1,2,7)              107.948          calculate D2E/DX2 analytically  !
 ! A9    A(1,2,13)             108.6171         calculate D2E/DX2 analytically  !
 ! A10   A(3,2,7)              107.2041         calculate D2E/DX2 analytically  !
 ! A11   A(3,2,13)             112.7174         calculate D2E/DX2 analytically  !
 ! A12   A(7,2,13)             109.6708         calculate D2E/DX2 analytically  !
 ! A13   A(2,3,6)              111.7988         calculate D2E/DX2 analytically  !
 ! A14   A(2,3,11)             109.2362         calculate D2E/DX2 analytically  !
 ! A15   A(2,3,12)             107.9326         calculate D2E/DX2 analytically  !
 ! A16   A(6,3,11)             104.3437         calculate D2E/DX2 analytically  !
 ! A17   A(6,3,12)             110.4173         calculate D2E/DX2 analytically  !
 ! A18   A(11,3,12)            113.1493         calculate D2E/DX2 analytically  !
 ! A19   A(5,4,9)              109.7018         calculate D2E/DX2 analytically  !
 ! A20   A(5,4,11)             109.5138         calculate D2E/DX2 analytically  !
 ! A21   A(5,4,16)             111.5201         calculate D2E/DX2 analytically  !
 ! A22   A(9,4,11)             108.6218         calculate D2E/DX2 analytically  !
 ! A23   A(9,4,16)             110.2694         calculate D2E/DX2 analytically  !
 ! A24   A(11,4,16)            107.1371         calculate D2E/DX2 analytically  !
 ! A25   A(1,5,4)              114.1168         calculate D2E/DX2 analytically  !
 ! A26   A(1,5,10)             107.4507         calculate D2E/DX2 analytically  !
 ! A27   A(1,5,15)             108.9589         calculate D2E/DX2 analytically  !
 ! A28   A(4,5,10)             107.484          calculate D2E/DX2 analytically  !
 ! A29   A(4,5,15)             108.6336         calculate D2E/DX2 analytically  !
 ! A30   A(10,5,15)            110.1604         calculate D2E/DX2 analytically  !
 ! A31   A(3,11,4)             113.3846         calculate D2E/DX2 analytically  !
 ! A32   A(3,12,79)            114.1051         calculate D2E/DX2 analytically  !
 ! A33   A(2,13,20)            113.8341         calculate D2E/DX2 analytically  !
 ! A34   A(1,14,24)            114.5443         calculate D2E/DX2 analytically  !
 ! A35   A(5,15,28)            113.4113         calculate D2E/DX2 analytically  !
 ! A36   A(4,16,17)            105.4485         calculate D2E/DX2 analytically  !
 ! A37   A(4,16,18)            105.5852         calculate D2E/DX2 analytically  !
 ! A38   A(4,16,19)            113.286          calculate D2E/DX2 analytically  !
 ! A39   A(17,16,18)           105.0694         calculate D2E/DX2 analytically  !
 ! A40   A(17,16,19)           113.6048         calculate D2E/DX2 analytically  !
 ! A41   A(18,16,19)           113.0566         calculate D2E/DX2 analytically  !
 ! A42   A(16,18,37)            98.9447         calculate D2E/DX2 analytically  !
 ! A43   A(16,19,37)            90.8484         calculate D2E/DX2 analytically  !
 ! A44   A(16,19,38)           126.2682         calculate D2E/DX2 analytically  !
 ! A45   A(16,19,83)           110.0721         calculate D2E/DX2 analytically  !
 ! A46   A(37,19,38)            71.6191         calculate D2E/DX2 analytically  !
 ! A47   A(37,19,83)            88.2511         calculate D2E/DX2 analytically  !
 ! A48   A(38,19,83)           119.295          calculate D2E/DX2 analytically  !
 ! A49   A(13,20,21)           112.2974         calculate D2E/DX2 analytically  !
 ! A50   A(13,20,22)           111.1812         calculate D2E/DX2 analytically  !
 ! A51   A(13,20,23)           106.8622         calculate D2E/DX2 analytically  !
 ! A52   A(21,20,22)           108.6676         calculate D2E/DX2 analytically  !
 ! A53   A(21,20,23)           108.6596         calculate D2E/DX2 analytically  !
 ! A54   A(22,20,23)           109.0919         calculate D2E/DX2 analytically  !
 ! A55   A(14,24,25)           111.0107         calculate D2E/DX2 analytically  !
 ! A56   A(14,24,26)           111.6219         calculate D2E/DX2 analytically  !
 ! A57   A(14,24,27)           106.6503         calculate D2E/DX2 analytically  !
 ! A58   A(25,24,26)           109.0727         calculate D2E/DX2 analytically  !
 ! A59   A(25,24,27)           108.8771         calculate D2E/DX2 analytically  !
 ! A60   A(26,24,27)           109.5438         calculate D2E/DX2 analytically  !
 ! A61   A(15,28,29)           111.0436         calculate D2E/DX2 analytically  !
 ! A62   A(15,28,30)           111.2549         calculate D2E/DX2 analytically  !
 ! A63   A(15,28,31)           106.925          calculate D2E/DX2 analytically  !
 ! A64   A(29,28,30)           109.0048         calculate D2E/DX2 analytically  !
 ! A65   A(29,28,31)           108.9738         calculate D2E/DX2 analytically  !
 ! A66   A(30,28,31)           109.5906         calculate D2E/DX2 analytically  !
 ! A67   A(33,32,36)           108.9088         calculate D2E/DX2 analytically  !
 ! A68   A(33,32,39)           109.8538         calculate D2E/DX2 analytically  !
 ! A69   A(33,32,45)           110.3304         calculate D2E/DX2 analytically  !
 ! A70   A(36,32,39)           109.2765         calculate D2E/DX2 analytically  !
 ! A71   A(36,32,45)           107.4863         calculate D2E/DX2 analytically  !
 ! A72   A(39,32,45)           110.9263         calculate D2E/DX2 analytically  !
 ! A73   A(32,33,34)           111.382          calculate D2E/DX2 analytically  !
 ! A74   A(32,33,38)           108.4539         calculate D2E/DX2 analytically  !
 ! A75   A(32,33,44)           110.0182         calculate D2E/DX2 analytically  !
 ! A76   A(34,33,38)           103.4733         calculate D2E/DX2 analytically  !
 ! A77   A(34,33,44)           112.7251         calculate D2E/DX2 analytically  !
 ! A78   A(38,33,44)           110.5483         calculate D2E/DX2 analytically  !
 ! A79   A(33,34,37)           121.2655         calculate D2E/DX2 analytically  !
 ! A80   A(33,34,42)           119.7303         calculate D2E/DX2 analytically  !
 ! A81   A(33,34,53)            96.3424         calculate D2E/DX2 analytically  !
 ! A82   A(37,34,42)           114.187          calculate D2E/DX2 analytically  !
 ! A83   A(37,34,53)            92.1347         calculate D2E/DX2 analytically  !
 ! A84   A(42,34,53)           103.5875         calculate D2E/DX2 analytically  !
 ! A85   A(36,35,40)           110.1151         calculate D2E/DX2 analytically  !
 ! A86   A(36,35,42)           112.5781         calculate D2E/DX2 analytically  !
 ! A87   A(36,35,47)           111.585          calculate D2E/DX2 analytically  !
 ! A88   A(40,35,42)           105.6074         calculate D2E/DX2 analytically  !
 ! A89   A(40,35,47)           110.6993         calculate D2E/DX2 analytically  !
 ! A90   A(42,35,47)           106.0397         calculate D2E/DX2 analytically  !
 ! A91   A(32,36,35)           111.9505         calculate D2E/DX2 analytically  !
 ! A92   A(32,36,41)           108.032          calculate D2E/DX2 analytically  !
 ! A93   A(32,36,46)           111.983          calculate D2E/DX2 analytically  !
 ! A94   A(35,36,41)           109.4431         calculate D2E/DX2 analytically  !
 ! A95   A(35,36,46)           105.0757         calculate D2E/DX2 analytically  !
 ! A96   A(41,36,46)           110.3409         calculate D2E/DX2 analytically  !
 ! A97   A(18,37,19)            55.8343         calculate D2E/DX2 analytically  !
 ! A98   A(18,37,34)           140.2783         calculate D2E/DX2 analytically  !
 ! A99   A(19,37,34)            84.9697         calculate D2E/DX2 analytically  !
 ! A100  A(19,38,33)           109.7402         calculate D2E/DX2 analytically  !
 ! A101  A(34,42,35)           120.2662         calculate D2E/DX2 analytically  !
 ! A102  A(33,44,63)           114.0748         calculate D2E/DX2 analytically  !
 ! A103  A(32,45,67)           114.2913         calculate D2E/DX2 analytically  !
 ! A104  A(36,46,71)           114.6364         calculate D2E/DX2 analytically  !
 ! A105  A(35,47,48)           110.7631         calculate D2E/DX2 analytically  !
 ! A106  A(35,47,49)           107.9086         calculate D2E/DX2 analytically  !
 ! A107  A(35,47,50)           109.1494         calculate D2E/DX2 analytically  !
 ! A108  A(48,47,49)           108.4394         calculate D2E/DX2 analytically  !
 ! A109  A(48,47,50)           109.3636         calculate D2E/DX2 analytically  !
 ! A110  A(49,47,50)           111.2118         calculate D2E/DX2 analytically  !
 ! A111  A(47,50,75)           111.826          calculate D2E/DX2 analytically  !
 ! A112  A(43,51,52)           117.2033         calculate D2E/DX2 analytically  !
 ! A113  A(43,51,53)           112.0952         calculate D2E/DX2 analytically  !
 ! A114  A(43,51,54)           106.1897         calculate D2E/DX2 analytically  !
 ! A115  A(52,51,53)           109.6826         calculate D2E/DX2 analytically  !
 ! A116  A(52,51,54)           106.8431         calculate D2E/DX2 analytically  !
 ! A117  A(53,51,54)           103.7436         calculate D2E/DX2 analytically  !
 ! A118  A(34,53,51)           119.9639         calculate D2E/DX2 analytically  !
 ! A119  A(51,54,55)           119.5527         calculate D2E/DX2 analytically  !
 ! A120  A(51,54,56)           119.0391         calculate D2E/DX2 analytically  !
 ! A121  A(55,54,56)           121.3192         calculate D2E/DX2 analytically  !
 ! A122  A(54,55,57)           118.73           calculate D2E/DX2 analytically  !
 ! A123  A(54,55,58)           119.9286         calculate D2E/DX2 analytically  !
 ! A124  A(57,55,58)           121.3111         calculate D2E/DX2 analytically  !
 ! A125  A(54,56,59)           119.0913         calculate D2E/DX2 analytically  !
 ! A126  A(54,56,60)           120.2055         calculate D2E/DX2 analytically  !
 ! A127  A(59,56,60)           120.703          calculate D2E/DX2 analytically  !
 ! A128  A(55,57,61)           120.8499         calculate D2E/DX2 analytically  !
 ! A129  A(55,57,93)           119.2348         calculate D2E/DX2 analytically  !
 ! A130  A(61,57,93)           119.7839         calculate D2E/DX2 analytically  !
 ! A131  A(56,59,61)           120.579          calculate D2E/DX2 analytically  !
 ! A132  A(56,59,97)           119.6373         calculate D2E/DX2 analytically  !
 ! A133  A(61,59,97)           119.6849         calculate D2E/DX2 analytically  !
 ! A134  A(57,61,59)           119.4292         calculate D2E/DX2 analytically  !
 ! A135  A(57,61,62)           120.3331         calculate D2E/DX2 analytically  !
 ! A136  A(59,61,62)           120.2374         calculate D2E/DX2 analytically  !
 ! A137  A(61,62,82)           152.6166         calculate D2E/DX2 analytically  !
 ! A138  A(44,63,64)           112.0554         calculate D2E/DX2 analytically  !
 ! A139  A(44,63,65)           111.1371         calculate D2E/DX2 analytically  !
 ! A140  A(44,63,66)           106.3449         calculate D2E/DX2 analytically  !
 ! A141  A(64,63,65)           108.5351         calculate D2E/DX2 analytically  !
 ! A142  A(64,63,66)           109.0578         calculate D2E/DX2 analytically  !
 ! A143  A(65,63,66)           109.665          calculate D2E/DX2 analytically  !
 ! A144  A(45,67,68)           110.937          calculate D2E/DX2 analytically  !
 ! A145  A(45,67,69)           111.3576         calculate D2E/DX2 analytically  !
 ! A146  A(45,67,70)           106.4301         calculate D2E/DX2 analytically  !
 ! A147  A(68,67,69)           109.2514         calculate D2E/DX2 analytically  !
 ! A148  A(68,67,70)           109.0729         calculate D2E/DX2 analytically  !
 ! A149  A(69,67,70)           109.7328         calculate D2E/DX2 analytically  !
 ! A150  A(46,71,72)           111.2968         calculate D2E/DX2 analytically  !
 ! A151  A(46,71,73)           110.9441         calculate D2E/DX2 analytically  !
 ! A152  A(46,71,74)           106.3303         calculate D2E/DX2 analytically  !
 ! A153  A(72,71,73)           109.2589         calculate D2E/DX2 analytically  !
 ! A154  A(72,71,74)           109.9165         calculate D2E/DX2 analytically  !
 ! A155  A(73,71,74)           109.0365         calculate D2E/DX2 analytically  !
 ! A156  A(50,75,76)           106.8688         calculate D2E/DX2 analytically  !
 ! A157  A(50,75,77)           110.7638         calculate D2E/DX2 analytically  !
 ! A158  A(50,75,78)           110.8396         calculate D2E/DX2 analytically  !
 ! A159  A(76,75,77)           109.5676         calculate D2E/DX2 analytically  !
 ! A160  A(76,75,78)           109.6872         calculate D2E/DX2 analytically  !
 ! A161  A(77,75,78)           109.0844         calculate D2E/DX2 analytically  !
 ! A162  A(12,79,80)           106.6945         calculate D2E/DX2 analytically  !
 ! A163  A(12,79,81)           111.5577         calculate D2E/DX2 analytically  !
 ! A164  A(12,79,82)           110.7225         calculate D2E/DX2 analytically  !
 ! A165  A(80,79,81)           109.334          calculate D2E/DX2 analytically  !
 ! A166  A(80,79,82)           108.9801         calculate D2E/DX2 analytically  !
 ! A167  A(81,79,82)           109.478          calculate D2E/DX2 analytically  !
 ! A168  A(62,82,79)           112.0536         calculate D2E/DX2 analytically  !
 ! A169  A(19,83,84)            97.8942         calculate D2E/DX2 analytically  !
 ! A170  A(83,84,85)           113.8181         calculate D2E/DX2 analytically  !
 ! A171  A(83,84,89)           132.7385         calculate D2E/DX2 analytically  !
 ! A172  A(85,84,89)           112.5475         calculate D2E/DX2 analytically  !
 ! A173  A(84,85,86)           110.4856         calculate D2E/DX2 analytically  !
 ! A174  A(84,85,87)           106.4612         calculate D2E/DX2 analytically  !
 ! A175  A(84,85,88)           110.4061         calculate D2E/DX2 analytically  !
 ! A176  A(86,85,87)           111.0034         calculate D2E/DX2 analytically  !
 ! A177  A(86,85,88)           109.1333         calculate D2E/DX2 analytically  !
 ! A178  A(87,85,88)           109.3248         calculate D2E/DX2 analytically  !
 ! A179  A(84,89,90)           110.3084         calculate D2E/DX2 analytically  !
 ! A180  A(84,89,91)           107.1817         calculate D2E/DX2 analytically  !
 ! A181  A(84,89,92)           110.8585         calculate D2E/DX2 analytically  !
 ! A182  A(90,89,91)           109.5385         calculate D2E/DX2 analytically  !
 ! A183  A(90,89,92)           109.6624         calculate D2E/DX2 analytically  !
 ! A184  A(91,89,92)           109.2457         calculate D2E/DX2 analytically  !
 ! A185  A(57,93,94)           112.7909         calculate D2E/DX2 analytically  !
 ! A186  A(57,93,95)           112.8638         calculate D2E/DX2 analytically  !
 ! A187  A(57,93,96)           110.8775         calculate D2E/DX2 analytically  !
 ! A188  A(94,93,95)           108.4312         calculate D2E/DX2 analytically  !
 ! A189  A(94,93,96)           105.7747         calculate D2E/DX2 analytically  !
 ! A190  A(95,93,96)           105.6159         calculate D2E/DX2 analytically  !
 ! A191  A(59,97,98)           111.0617         calculate D2E/DX2 analytically  !
 ! A192  A(59,97,99)           111.9263         calculate D2E/DX2 analytically  !
 ! A193  A(59,97,100)          112.082          calculate D2E/DX2 analytically  !
 ! A194  A(98,97,99)           106.6458         calculate D2E/DX2 analytically  !
 ! A195  A(98,97,100)          106.8837         calculate D2E/DX2 analytically  !
 ! A196  A(99,97,100)          107.9465         calculate D2E/DX2 analytically  !
 ! D1    D(5,1,2,3)            -49.7631         calculate D2E/DX2 analytically  !
 ! D2    D(5,1,2,7)             67.2154         calculate D2E/DX2 analytically  !
 ! D3    D(5,1,2,13)          -173.9365         calculate D2E/DX2 analytically  !
 ! D4    D(8,1,2,3)             70.6869         calculate D2E/DX2 analytically  !
 ! D5    D(8,1,2,7)           -172.3347         calculate D2E/DX2 analytically  !
 ! D6    D(8,1,2,13)           -53.4866         calculate D2E/DX2 analytically  !
 ! D7    D(14,1,2,3)          -168.024          calculate D2E/DX2 analytically  !
 ! D8    D(14,1,2,7)           -51.0456         calculate D2E/DX2 analytically  !
 ! D9    D(14,1,2,13)           67.8025         calculate D2E/DX2 analytically  !
 ! D10   D(2,1,5,4)             46.4319         calculate D2E/DX2 analytically  !
 ! D11   D(2,1,5,10)           -72.6317         calculate D2E/DX2 analytically  !
 ! D12   D(2,1,5,15)           168.0286         calculate D2E/DX2 analytically  !
 ! D13   D(8,1,5,4)            -73.8901         calculate D2E/DX2 analytically  !
 ! D14   D(8,1,5,10)           167.0463         calculate D2E/DX2 analytically  !
 ! D15   D(8,1,5,15)            47.7066         calculate D2E/DX2 analytically  !
 ! D16   D(14,1,5,4)           166.8089         calculate D2E/DX2 analytically  !
 ! D17   D(14,1,5,10)           47.7454         calculate D2E/DX2 analytically  !
 ! D18   D(14,1,5,15)          -71.5944         calculate D2E/DX2 analytically  !
 ! D19   D(2,1,14,24)          -97.3539         calculate D2E/DX2 analytically  !
 ! D20   D(5,1,14,24)          141.9141         calculate D2E/DX2 analytically  !
 ! D21   D(8,1,14,24)           23.2351         calculate D2E/DX2 analytically  !
 ! D22   D(1,2,3,6)            173.4854         calculate D2E/DX2 analytically  !
 ! D23   D(1,2,3,11)            58.5146         calculate D2E/DX2 analytically  !
 ! D24   D(1,2,3,12)           -64.891          calculate D2E/DX2 analytically  !
 ! D25   D(7,2,3,6)             56.0486         calculate D2E/DX2 analytically  !
 ! D26   D(7,2,3,11)           -58.9221         calculate D2E/DX2 analytically  !
 ! D27   D(7,2,3,12)           177.6722         calculate D2E/DX2 analytically  !
 ! D28   D(13,2,3,6)           -64.7252         calculate D2E/DX2 analytically  !
 ! D29   D(13,2,3,11)         -179.696          calculate D2E/DX2 analytically  !
 ! D30   D(13,2,3,12)           56.8984         calculate D2E/DX2 analytically  !
 ! D31   D(1,2,13,20)         -161.0681         calculate D2E/DX2 analytically  !
 ! D32   D(3,2,13,20)           76.0432         calculate D2E/DX2 analytically  !
 ! D33   D(7,2,13,20)          -43.3097         calculate D2E/DX2 analytically  !
 ! D34   D(2,3,11,4)           -64.6839         calculate D2E/DX2 analytically  !
 ! D35   D(6,3,11,4)           175.6338         calculate D2E/DX2 analytically  !
 ! D36   D(12,3,11,4)           55.5715         calculate D2E/DX2 analytically  !
 ! D37   D(2,3,12,79)         -173.4131         calculate D2E/DX2 analytically  !
 ! D38   D(6,3,12,79)          -50.9376         calculate D2E/DX2 analytically  !
 ! D39   D(11,3,12,79)          65.5911         calculate D2E/DX2 analytically  !
 ! D40   D(9,4,5,1)             69.6789         calculate D2E/DX2 analytically  !
 ! D41   D(9,4,5,10)          -171.2765         calculate D2E/DX2 analytically  !
 ! D42   D(9,4,5,15)           -52.0972         calculate D2E/DX2 analytically  !
 ! D43   D(11,4,5,1)           -49.4481         calculate D2E/DX2 analytically  !
 ! D44   D(11,4,5,10)           69.5966         calculate D2E/DX2 analytically  !
 ! D45   D(11,4,5,15)         -171.2242         calculate D2E/DX2 analytically  !
 ! D46   D(16,4,5,1)          -167.8585         calculate D2E/DX2 analytically  !
 ! D47   D(16,4,5,10)          -48.8138         calculate D2E/DX2 analytically  !
 ! D48   D(16,4,5,15)           70.3654         calculate D2E/DX2 analytically  !
 ! D49   D(5,4,11,3)            59.3863         calculate D2E/DX2 analytically  !
 ! D50   D(9,4,11,3)           -60.4051         calculate D2E/DX2 analytically  !
 ! D51   D(16,4,11,3)         -179.5132         calculate D2E/DX2 analytically  !
 ! D52   D(5,4,16,17)          -70.3329         calculate D2E/DX2 analytically  !
 ! D53   D(5,4,16,18)          178.7441         calculate D2E/DX2 analytically  !
 ! D54   D(5,4,16,19)           54.502          calculate D2E/DX2 analytically  !
 ! D55   D(9,4,16,17)           51.8032         calculate D2E/DX2 analytically  !
 ! D56   D(9,4,16,18)          -59.1198         calculate D2E/DX2 analytically  !
 ! D57   D(9,4,16,19)          176.6381         calculate D2E/DX2 analytically  !
 ! D58   D(11,4,16,17)         169.8433         calculate D2E/DX2 analytically  !
 ! D59   D(11,4,16,18)          58.9203         calculate D2E/DX2 analytically  !
 ! D60   D(11,4,16,19)         -65.3218         calculate D2E/DX2 analytically  !
 ! D61   D(1,5,15,28)          124.3904         calculate D2E/DX2 analytically  !
 ! D62   D(4,5,15,28)         -110.736          calculate D2E/DX2 analytically  !
 ! D63   D(10,5,15,28)           6.7511         calculate D2E/DX2 analytically  !
 ! D64   D(3,12,79,80)         174.0334         calculate D2E/DX2 analytically  !
 ! D65   D(3,12,79,81)         -66.6176         calculate D2E/DX2 analytically  !
 ! D66   D(3,12,79,82)          55.5763         calculate D2E/DX2 analytically  !
 ! D67   D(2,13,20,21)         -66.8861         calculate D2E/DX2 analytically  !
 ! D68   D(2,13,20,22)          55.1133         calculate D2E/DX2 analytically  !
 ! D69   D(2,13,20,23)         174.0599         calculate D2E/DX2 analytically  !
 ! D70   D(1,14,24,25)         -59.2149         calculate D2E/DX2 analytically  !
 ! D71   D(1,14,24,26)          62.7076         calculate D2E/DX2 analytically  !
 ! D72   D(1,14,24,27)        -177.6795         calculate D2E/DX2 analytically  !
 ! D73   D(5,15,28,29)         -67.9195         calculate D2E/DX2 analytically  !
 ! D74   D(5,15,28,30)          53.6839         calculate D2E/DX2 analytically  !
 ! D75   D(5,15,28,31)         173.3156         calculate D2E/DX2 analytically  !
 ! D76   D(4,16,18,37)        -135.5082         calculate D2E/DX2 analytically  !
 ! D77   D(17,16,18,37)        113.3002         calculate D2E/DX2 analytically  !
 ! D78   D(19,16,18,37)        -11.1223         calculate D2E/DX2 analytically  !
 ! D79   D(4,16,19,37)         131.0156         calculate D2E/DX2 analytically  !
 ! D80   D(4,16,19,38)        -161.3358         calculate D2E/DX2 analytically  !
 ! D81   D(4,16,19,83)          42.5676         calculate D2E/DX2 analytically  !
 ! D82   D(17,16,19,37)       -108.6833         calculate D2E/DX2 analytically  !
 ! D83   D(17,16,19,38)        -41.0347         calculate D2E/DX2 analytically  !
 ! D84   D(17,16,19,83)        162.8687         calculate D2E/DX2 analytically  !
 ! D85   D(18,16,19,37)         10.9443         calculate D2E/DX2 analytically  !
 ! D86   D(18,16,19,38)         78.593          calculate D2E/DX2 analytically  !
 ! D87   D(18,16,19,83)        -77.5036         calculate D2E/DX2 analytically  !
 ! D88   D(16,18,37,19)          7.603          calculate D2E/DX2 analytically  !
 ! D89   D(16,18,37,34)         -3.0634         calculate D2E/DX2 analytically  !
 ! D90   D(16,19,37,18)         -6.0955         calculate D2E/DX2 analytically  !
 ! D91   D(16,19,37,34)        167.0851         calculate D2E/DX2 analytically  !
 ! D92   D(38,19,37,18)       -134.3035         calculate D2E/DX2 analytically  !
 ! D93   D(38,19,37,34)         38.8771         calculate D2E/DX2 analytically  !
 ! D94   D(83,19,37,18)        103.961          calculate D2E/DX2 analytically  !
 ! D95   D(83,19,37,34)        -82.8584         calculate D2E/DX2 analytically  !
 ! D96   D(16,19,38,33)        -86.0096         calculate D2E/DX2 analytically  !
 ! D97   D(37,19,38,33)         -8.9803         calculate D2E/DX2 analytically  !
 ! D98   D(83,19,38,33)         68.1163         calculate D2E/DX2 analytically  !
 ! D99   D(16,19,83,84)       -120.0864         calculate D2E/DX2 analytically  !
 ! D100  D(37,19,83,84)        149.6492         calculate D2E/DX2 analytically  !
 ! D101  D(38,19,83,84)         81.9131         calculate D2E/DX2 analytically  !
 ! D102  D(36,32,33,34)        -50.1386         calculate D2E/DX2 analytically  !
 ! D103  D(36,32,33,38)         63.092          calculate D2E/DX2 analytically  !
 ! D104  D(36,32,33,44)       -175.8842         calculate D2E/DX2 analytically  !
 ! D105  D(39,32,33,34)         69.5113         calculate D2E/DX2 analytically  !
 ! D106  D(39,32,33,38)       -177.2581         calculate D2E/DX2 analytically  !
 ! D107  D(39,32,33,44)        -56.2343         calculate D2E/DX2 analytically  !
 ! D108  D(45,32,33,34)       -167.89           calculate D2E/DX2 analytically  !
 ! D109  D(45,32,33,38)        -54.6594         calculate D2E/DX2 analytically  !
 ! D110  D(45,32,33,44)         66.3643         calculate D2E/DX2 analytically  !
 ! D111  D(33,32,36,35)         55.0793         calculate D2E/DX2 analytically  !
 ! D112  D(33,32,36,41)        -65.4929         calculate D2E/DX2 analytically  !
 ! D113  D(33,32,36,46)        172.7961         calculate D2E/DX2 analytically  !
 ! D114  D(39,32,36,35)        -64.9284         calculate D2E/DX2 analytically  !
 ! D115  D(39,32,36,41)        174.4994         calculate D2E/DX2 analytically  !
 ! D116  D(39,32,36,46)         52.7884         calculate D2E/DX2 analytically  !
 ! D117  D(45,32,36,35)        174.6146         calculate D2E/DX2 analytically  !
 ! D118  D(45,32,36,41)         54.0425         calculate D2E/DX2 analytically  !
 ! D119  D(45,32,36,46)        -67.6685         calculate D2E/DX2 analytically  !
 ! D120  D(33,32,45,67)        -96.2397         calculate D2E/DX2 analytically  !
 ! D121  D(36,32,45,67)        145.1362         calculate D2E/DX2 analytically  !
 ! D122  D(39,32,45,67)         25.7279         calculate D2E/DX2 analytically  !
 ! D123  D(32,33,34,37)       -163.8885         calculate D2E/DX2 analytically  !
 ! D124  D(32,33,34,42)         42.1179         calculate D2E/DX2 analytically  !
 ! D125  D(32,33,34,53)        -67.4962         calculate D2E/DX2 analytically  !
 ! D126  D(38,33,34,37)         79.7927         calculate D2E/DX2 analytically  !
 ! D127  D(38,33,34,42)        -74.2008         calculate D2E/DX2 analytically  !
 ! D128  D(38,33,34,53)        176.185          calculate D2E/DX2 analytically  !
 ! D129  D(44,33,34,37)        -39.6565         calculate D2E/DX2 analytically  !
 ! D130  D(44,33,34,42)        166.35           calculate D2E/DX2 analytically  !
 ! D131  D(44,33,34,53)         56.7358         calculate D2E/DX2 analytically  !
 ! D132  D(32,33,38,19)       -133.6863         calculate D2E/DX2 analytically  !
 ! D133  D(34,33,38,19)        -15.3156         calculate D2E/DX2 analytically  !
 ! D134  D(44,33,38,19)        105.6178         calculate D2E/DX2 analytically  !
 ! D135  D(32,33,44,63)       -158.0561         calculate D2E/DX2 analytically  !
 ! D136  D(34,33,44,63)         76.965          calculate D2E/DX2 analytically  !
 ! D137  D(38,33,44,63)        -38.2971         calculate D2E/DX2 analytically  !
 ! D138  D(33,34,37,18)        -69.9566         calculate D2E/DX2 analytically  !
 ! D139  D(33,34,37,19)        -78.8003         calculate D2E/DX2 analytically  !
 ! D140  D(42,34,37,18)         85.373          calculate D2E/DX2 analytically  !
 ! D141  D(42,34,37,19)         76.5293         calculate D2E/DX2 analytically  !
 ! D142  D(53,34,37,18)       -168.6972         calculate D2E/DX2 analytically  !
 ! D143  D(53,34,37,19)       -177.5409         calculate D2E/DX2 analytically  !
 ! D144  D(33,34,42,35)        -36.213          calculate D2E/DX2 analytically  !
 ! D145  D(37,34,42,35)        168.046          calculate D2E/DX2 analytically  !
 ! D146  D(53,34,42,35)         69.3863         calculate D2E/DX2 analytically  !
 ! D147  D(33,34,53,51)        165.8987         calculate D2E/DX2 analytically  !
 ! D148  D(37,34,53,51)        -72.3181         calculate D2E/DX2 analytically  !
 ! D149  D(42,34,53,51)         43.2012         calculate D2E/DX2 analytically  !
 ! D150  D(40,35,36,32)         69.6597         calculate D2E/DX2 analytically  !
 ! D151  D(40,35,36,41)       -170.5919         calculate D2E/DX2 analytically  !
 ! D152  D(40,35,36,46)        -52.1118         calculate D2E/DX2 analytically  !
 ! D153  D(42,35,36,32)        -47.8948         calculate D2E/DX2 analytically  !
 ! D154  D(42,35,36,41)         71.8536         calculate D2E/DX2 analytically  !
 ! D155  D(42,35,36,46)       -169.6664         calculate D2E/DX2 analytically  !
 ! D156  D(47,35,36,32)       -166.9932         calculate D2E/DX2 analytically  !
 ! D157  D(47,35,36,41)        -47.2448         calculate D2E/DX2 analytically  !
 ! D158  D(47,35,36,46)         71.2352         calculate D2E/DX2 analytically  !
 ! D159  D(36,35,42,34)         38.246          calculate D2E/DX2 analytically  !
 ! D160  D(40,35,42,34)        -81.9439         calculate D2E/DX2 analytically  !
 ! D161  D(47,35,42,34)        160.5288         calculate D2E/DX2 analytically  !
 ! D162  D(36,35,47,48)         47.0159         calculate D2E/DX2 analytically  !
 ! D163  D(36,35,47,49)        -71.5399         calculate D2E/DX2 analytically  !
 ! D164  D(36,35,47,50)        167.4809         calculate D2E/DX2 analytically  !
 ! D165  D(40,35,47,48)        170.0305         calculate D2E/DX2 analytically  !
 ! D166  D(40,35,47,49)         51.4747         calculate D2E/DX2 analytically  !
 ! D167  D(40,35,47,50)        -69.5045         calculate D2E/DX2 analytically  !
 ! D168  D(42,35,47,48)        -75.897          calculate D2E/DX2 analytically  !
 ! D169  D(42,35,47,49)        165.5472         calculate D2E/DX2 analytically  !
 ! D170  D(42,35,47,50)         44.568          calculate D2E/DX2 analytically  !
 ! D171  D(32,36,46,71)         95.8012         calculate D2E/DX2 analytically  !
 ! D172  D(35,36,46,71)       -142.4484         calculate D2E/DX2 analytically  !
 ! D173  D(41,36,46,71)        -24.5748         calculate D2E/DX2 analytically  !
 ! D174  D(33,44,63,64)        -68.5216         calculate D2E/DX2 analytically  !
 ! D175  D(33,44,63,65)         53.1037         calculate D2E/DX2 analytically  !
 ! D176  D(33,44,63,66)        172.403          calculate D2E/DX2 analytically  !
 ! D177  D(32,45,67,68)        -59.6945         calculate D2E/DX2 analytically  !
 ! D178  D(32,45,67,69)         62.2211         calculate D2E/DX2 analytically  !
 ! D179  D(32,45,67,70)       -178.2227         calculate D2E/DX2 analytically  !
 ! D180  D(36,46,71,72)        -62.0629         calculate D2E/DX2 analytically  !
 ! D181  D(36,46,71,73)         59.825          calculate D2E/DX2 analytically  !
 ! D182  D(36,46,71,74)        178.254          calculate D2E/DX2 analytically  !
 ! D183  D(35,47,50,75)        170.1846         calculate D2E/DX2 analytically  !
 ! D184  D(48,47,50,75)        -68.4961         calculate D2E/DX2 analytically  !
 ! D185  D(49,47,50,75)         51.2417         calculate D2E/DX2 analytically  !
 ! D186  D(47,50,75,76)        179.6255         calculate D2E/DX2 analytically  !
 ! D187  D(47,50,75,77)        -61.0829         calculate D2E/DX2 analytically  !
 ! D188  D(47,50,75,78)         60.1469         calculate D2E/DX2 analytically  !
 ! D189  D(43,51,53,34)        -78.9532         calculate D2E/DX2 analytically  !
 ! D190  D(52,51,53,34)        149.0404         calculate D2E/DX2 analytically  !
 ! D191  D(54,51,53,34)         35.1937         calculate D2E/DX2 analytically  !
 ! D192  D(43,51,54,55)         12.5664         calculate D2E/DX2 analytically  !
 ! D193  D(43,51,54,56)       -170.8166         calculate D2E/DX2 analytically  !
 ! D194  D(52,51,54,55)        138.3876         calculate D2E/DX2 analytically  !
 ! D195  D(52,51,54,56)        -44.9954         calculate D2E/DX2 analytically  !
 ! D196  D(53,51,54,55)       -105.743          calculate D2E/DX2 analytically  !
 ! D197  D(53,51,54,56)         70.874          calculate D2E/DX2 analytically  !
 ! D198  D(51,54,55,57)        176.3479         calculate D2E/DX2 analytically  !
 ! D199  D(51,54,55,58)         -1.6758         calculate D2E/DX2 analytically  !
 ! D200  D(56,54,55,57)         -0.1897         calculate D2E/DX2 analytically  !
 ! D201  D(56,54,55,58)       -178.2134         calculate D2E/DX2 analytically  !
 ! D202  D(51,54,56,59)       -176.1228         calculate D2E/DX2 analytically  !
 ! D203  D(51,54,56,60)          4.0321         calculate D2E/DX2 analytically  !
 ! D204  D(55,54,56,59)          0.4322         calculate D2E/DX2 analytically  !
 ! D205  D(55,54,56,60)       -179.4128         calculate D2E/DX2 analytically  !
 ! D206  D(54,55,57,61)         -0.1311         calculate D2E/DX2 analytically  !
 ! D207  D(54,55,57,93)       -175.9538         calculate D2E/DX2 analytically  !
 ! D208  D(58,55,57,61)        177.8642         calculate D2E/DX2 analytically  !
 ! D209  D(58,55,57,93)          2.0415         calculate D2E/DX2 analytically  !
 ! D210  D(54,56,59,61)         -0.3578         calculate D2E/DX2 analytically  !
 ! D211  D(54,56,59,97)        176.0182         calculate D2E/DX2 analytically  !
 ! D212  D(60,56,59,61)        179.4865         calculate D2E/DX2 analytically  !
 ! D213  D(60,56,59,97)         -4.1375         calculate D2E/DX2 analytically  !
 ! D214  D(55,57,61,59)          0.2016         calculate D2E/DX2 analytically  !
 ! D215  D(55,57,61,62)        179.9784         calculate D2E/DX2 analytically  !
 ! D216  D(93,57,61,59)        176.0016         calculate D2E/DX2 analytically  !
 ! D217  D(93,57,61,62)         -4.2217         calculate D2E/DX2 analytically  !
 ! D218  D(55,57,93,94)        -39.7368         calculate D2E/DX2 analytically  !
 ! D219  D(55,57,93,95)       -163.0598         calculate D2E/DX2 analytically  !
 ! D220  D(55,57,93,96)         78.6785         calculate D2E/DX2 analytically  !
 ! D221  D(61,57,93,94)        144.3952         calculate D2E/DX2 analytically  !
 ! D222  D(61,57,93,95)         21.0722         calculate D2E/DX2 analytically  !
 ! D223  D(61,57,93,96)        -97.1895         calculate D2E/DX2 analytically  !
 ! D224  D(56,59,61,57)          0.0466         calculate D2E/DX2 analytically  !
 ! D225  D(56,59,61,62)       -179.7304         calculate D2E/DX2 analytically  !
 ! D226  D(97,59,61,57)       -176.3277         calculate D2E/DX2 analytically  !
 ! D227  D(97,59,61,62)          3.8953         calculate D2E/DX2 analytically  !
 ! D228  D(56,59,97,98)        -86.2727         calculate D2E/DX2 analytically  !
 ! D229  D(56,59,97,99)        154.6551         calculate D2E/DX2 analytically  !
 ! D230  D(56,59,97,100)        33.2053         calculate D2E/DX2 analytically  !
 ! D231  D(61,59,97,98)         90.136          calculate D2E/DX2 analytically  !
 ! D232  D(61,59,97,99)        -28.9361         calculate D2E/DX2 analytically  !
 ! D233  D(61,59,97,100)      -150.386          calculate D2E/DX2 analytically  !
 ! D234  D(57,61,62,82)        103.6899         calculate D2E/DX2 analytically  !
 ! D235  D(59,61,62,82)        -76.5351         calculate D2E/DX2 analytically  !
 ! D236  D(61,62,82,79)         19.9552         calculate D2E/DX2 analytically  !
 ! D237  D(12,79,82,62)       -101.2108         calculate D2E/DX2 analytically  !
 ! D238  D(80,79,82,62)        141.7296         calculate D2E/DX2 analytically  !
 ! D239  D(81,79,82,62)         22.191          calculate D2E/DX2 analytically  !
 ! D240  D(19,83,84,85)        -18.2571         calculate D2E/DX2 analytically  !
 ! D241  D(19,83,84,89)        149.8623         calculate D2E/DX2 analytically  !
 ! D242  D(83,84,85,86)       -120.3499         calculate D2E/DX2 analytically  !
 ! D243  D(83,84,85,87)          0.2715         calculate D2E/DX2 analytically  !
 ! D244  D(83,84,85,88)        118.8325         calculate D2E/DX2 analytically  !
 ! D245  D(89,84,85,86)         69.0729         calculate D2E/DX2 analytically  !
 ! D246  D(89,84,85,87)       -170.3056         calculate D2E/DX2 analytically  !
 ! D247  D(89,84,85,88)        -51.7447         calculate D2E/DX2 analytically  !
 ! D248  D(83,84,89,90)       -104.4099         calculate D2E/DX2 analytically  !
 ! D249  D(83,84,89,91)         14.7793         calculate D2E/DX2 analytically  !
 ! D250  D(83,84,89,92)        133.9249         calculate D2E/DX2 analytically  !
 ! D251  D(85,84,89,90)         63.8235         calculate D2E/DX2 analytically  !
 ! D252  D(85,84,89,91)       -176.9874         calculate D2E/DX2 analytically  !
 ! D253  D(85,84,89,92)        -57.8417         calculate D2E/DX2 analytically  !
 --------------------------------------------------------------------------------
 Trust Radius=3.00D-02 FncErr=1.00D-07 GrdErr=1.00D-06 EigMax=2.50D+02 EigMin=1.00D-04
 Number of steps in this run=    564 maximum allowed number of steps=    600.
 Search for a saddle point of order  1.
 Step   0 in ReCalcFC=30 IGetFC= 4 compute analytic Hessian.
 GradGradGradGradGradGradGradGradGradGradGradGradGradGradGradGradGradGrad

 Leave Link  103 at Thu May  9 22:50:37 2019, MaxMem=  6442450944 cpu:               5.3 elap:               0.2
 (Enter /home/ekwan/sw/g16/l202.exe)
 Stoichiometry    C30H47F6NaO15S
 Framework group  C1[X(C30H47F6NaO15S)]
 Deg. of freedom   294
 Full point group                 C1      NOp   1
 Largest Abelian subgroup         C1      NOp   1
 Largest concise Abelian subgroup C1      NOp   1
                         Standard orientation:                         
 ---------------------------------------------------------------------
 Center     Atomic      Atomic             Coordinates (Angstroms)
 Number     Number       Type             X           Y           Z
 ---------------------------------------------------------------------
      1          6           0        4.010333   -1.914778   -1.050148
      2          6           0        4.082012   -1.084140    0.231771
      3          6           0        3.603558    0.350931   -0.027989
      4          6           0        2.143915   -0.330337   -1.816522
      5          6           0        2.644702   -1.773823   -1.715578
      6          1           0        3.537576    0.932255    0.899308
      7          1           0        3.392505   -1.529407    0.962899
      8          1           0        4.788436   -1.572288   -1.743350
      9          1           0        2.751371    0.221502   -2.542634
     10          1           0        1.926103   -2.328680   -1.109062
     11          8           0        2.266341    0.318252   -0.520156
     12          8           0        4.500303    0.949051   -0.914939
     13          8           0        5.405895   -1.137196    0.731369
     14          8           0        4.186008   -3.299105   -0.755585
     15          8           0        2.709822   -2.325925   -3.027554
     16          6           0        0.658908   -0.274785   -2.212595
     17          1           0        0.623221   -0.601809   -3.273538
     18          1           0        0.394651    0.809350   -2.234081
     19          8           0       -0.152418   -1.010022   -1.382700
     20          6           0        5.516868   -0.780515    2.099773
     21          1           0        5.283032    0.278602    2.274767
     22          1           0        4.853566   -1.395780    2.726058
     23          1           0        6.553589   -0.962320    2.391501
     24          6           0        5.508650   -3.780101   -0.947990
     25          1           0        5.832725   -3.636844   -1.988886
     26          1           0        6.220026   -3.282907   -0.280048
     27          1           0        5.487646   -4.850979   -0.728221
     28          6           0        1.738246   -3.334747   -3.264213
     29          1           0        1.945390   -4.231027   -2.662753
     30          1           0        0.727592   -2.975496   -3.033653
     31          1           0        1.801754   -3.595472   -4.324336
     32          6           0       -4.168156   -1.596794   -0.826781
     33          6           0       -3.015835   -0.957856   -1.607076
     34          6           0       -2.220701   -0.008366   -0.737912
     35          6           0       -2.881167   -1.106124    1.304247
     36          6           0       -3.623161   -2.165644    0.485859
     37          1           0       -1.549198    0.711855   -1.168147
     38          1           0       -2.289808   -1.742432   -1.859675
     39          1           0       -4.930818   -0.842172   -0.604928
     40          1           0       -3.587056   -0.370827    1.694279
     41          1           0       -2.934323   -2.987829    0.240765
     42          8           0       -1.926791   -0.347794    0.504223
     43          8           0       -3.835676    1.892224    1.894730
     44          8           0       -3.505773   -0.345286   -2.773072
     45          8           0       -4.721716   -2.675343   -1.561040
     46          8           0       -4.659613   -2.627815    1.334553
     47          6           0       -2.078882   -1.732224    2.433262
     48          1           0       -1.498360   -2.591538    2.068816
     49          1           0       -2.785985   -2.088119    3.192432
     50          8           0       -1.194066   -0.760123    2.970757
     51         16           0       -3.487748    2.398819    0.552318
     52          8           0       -4.163244    3.626215    0.100284
     53          8           0       -3.614026    1.307656   -0.530187
     54          6           0       -1.724785    2.758633    0.593134
     55          6           0       -0.954363    2.296526    1.655927
     56          6           0       -1.147412    3.435282   -0.479795
     57          6           0        0.424882    2.518739    1.632156
     58          1           0       -1.422218    1.748072    2.464104
     59          6           0        0.231163    3.642738   -0.487581
     60          1           0       -1.766018    3.795816   -1.293764
     61          6           0        1.022740    3.187397    0.565516
     62          1           0        2.090653    3.355101    0.555885
     63          6           0       -2.524995   -0.162760   -3.789495
     64          1           0       -1.772660    0.583340   -3.506583
     65          1           0       -2.012084   -1.106049   -4.018707
     66          1           0       -3.060565    0.188546   -4.673736
     67          6           0       -5.874560   -2.333793   -2.324666
     68          1           0       -6.677060   -1.955244   -1.676307
     69          1           0       -5.640641   -1.582698   -3.085141
     70          1           0       -6.209909   -3.255177   -2.807008
     71          6           0       -4.925805   -4.024588    1.240690
     72          1           0       -5.259381   -4.298683    0.236053
     73          1           0       -4.033731   -4.613027    1.499809
     74          1           0       -5.715151   -4.236221    1.965544
     75          6           0       -0.576738   -1.212540    4.171483
     76          1           0        0.084092   -0.414285    4.507375
     77          1           0       -1.330060   -1.415655    4.943794
     78          1           0        0.007200   -2.124755    3.990806
     79          6           0        4.264279    2.335405   -1.133455
     80          1           0        5.087104    2.700033   -1.751012
     81          1           0        3.317909    2.504628   -1.654580
     82          1           0        4.261545    2.884471   -0.180865
     83         11           0        0.448492   -0.700078    0.751140
     84          8           0        0.950217   -2.890037    1.259831
     85          6           0        0.390025   -3.836424    0.349199
     86          1           0       -0.277786   -4.530381    0.878243
     87          1           0       -0.157933   -3.259431   -0.398496
     88          1           0        1.185030   -4.408737   -0.144883
     89          6           0        1.874295   -3.483895    2.163880
     90          1           0        2.738655   -3.882403    1.617892
     91          1           0        2.204769   -2.699758    2.849012
     92          1           0        1.396841   -4.289059    2.738417
     93          6           0        1.278423    1.946335    2.725703
     94          9           0        0.701121    2.032342    3.935244
     95          9           0        2.493706    2.517649    2.793108
     96          9           0        1.511184    0.600649    2.515395
     97          6           0        0.878847    4.291014   -1.679782
     98          9           0        1.183849    3.369793   -2.630909
     99          9           0        2.035310    4.906755   -1.352695
    100          9           0        0.074219    5.200930   -2.260503
 ---------------------------------------------------------------------
 Rotational constants (GHZ):           0.0628367           0.0478349           0.0399807
 Leave Link  202 at Thu May  9 22:50:37 2019, MaxMem=  6442450944 cpu:               5.4 elap:               0.2
 (Enter /home/ekwan/sw/g16/l301.exe)
 Standard basis: 6-31G(d) (6D, 7F)
 Ernie: Thresh=  0.10000D-02 Tol=  0.10000D-05 Strict=F.
 There are   897 symmetry adapted cartesian basis functions of A   symmetry.
 There are   897 symmetry adapted basis functions of A   symmetry.
   897 basis functions,  1720 primitive gaussians,   897 cartesian basis functions
   214 alpha electrons      214 beta electrons
       nuclear repulsion energy      9974.7194705088 Hartrees.
 IExCor=  402 DFT=T Ex+Corr=B3LYP ExCW=0 ScaHFX=  0.200000
 ScaDFX=  0.800000  0.720000  1.000000  0.810000 ScalE2=  1.000000  1.000000
 IRadAn=      5 IRanWt=     -1 IRanGd=            0 ICorTp=0 IEmpDi=141
 NAtoms=  100 NActive=  100 NUniq=  100 SFac= 1.00D+00 NAtFMM=   60 NAOKFM=T Big=T
 Integral buffers will be    131072 words long.
 Raffenetti 2 integral format.
 Two-electron integral symmetry is turned on.
 R6Disp:  Grimme-D3(BJ) Dispersion energy=       -0.2449312679 Hartrees.
 Nuclear repulsion after empirical dispersion term =     9974.4745392410 Hartrees.
 Force inversion solution in PCM.
 ------------------------------------------------------------------------------
 Polarizable Continuum Model (PCM)
 =================================
 Model                : PCM.
 Atomic radii         : UFF (Universal Force Field).
 Polarization charges : Total charges.
 Charge compensation  : None.
 Solution method      : Matrix inversion.
 Cavity type          : Scaled VdW (van der Waals Surface) (Alpha=1.100).
 Cavity algorithm     : GePol (No added spheres)
                        Default sphere list used, NSphG=  100.
                        Lebedev-Laikov grids with approx.  5.0 points / Ang**2.
                        Smoothing algorithm: York/Karplus (Gamma=1.0000).
                        Polarization charges: spherical gaussians, with
                                              point-specific exponents (IZeta= 3).
                        Self-potential: point-specific (ISelfS= 7).
                        Self-field    : sphere-specific E.n sum rule (ISelfD= 2).
 1st derivatives      : Analytical E(r).r(x)/FMM algorithm (CHGder, D1EAlg=3).
                        Cavity 1st derivative terms included.
 2nd derivatives      : Analytical E(r).r(xy)/FMM algorithm (CHGder, D2EAlg=3).
                        Cavity 2nd derivative terms included.
 Solvent              : TetraHydroFuran, Eps=   7.425700 Eps(inf)=   1.974025
 ------------------------------------------------------------------------------
 GePol: Number of generator spheres                  =     100
 GePol: Total number of spheres                      =     100
 GePol: Number of exposed spheres                    =     100 (100.00%)
 GePol: Number of points                             =    5853
 GePol: Average weight of points                     =       0.12
 GePol: Minimum weight of points                     =   0.17D-10
 GePol: Maximum weight of points                     =    0.20577
 GePol: Number of points with low weight             =     430
 GePol: Fraction of low-weight points (<1% of avg)   =       7.35%
 GePol: Cavity surface area                          =    716.132 Ang**2
 GePol: Cavity volume                                =    963.754 Ang**3
[...]
 004128,-0.00007286,-0.00010258,-0.00008355,-0.00005976,-0.00007630,-0.
 00010711,0.00003666,0.00002404,0.00004910,0.00001119,0.00000731,-0.000
 01903,-0.00000774,-0.00000737,-0.00001649,0.00002028,-0.00000127,-0.00
 012266,0.00010960,0.00209398,0.00013437,0.00036690,-0.00061941,0.00026
 518,-0.00011643,-0.00040951,-0.00045777,-0.00033292,-0.00183009,0.0000
 4394,-0.00021287,-0.00011591,-0.00021533,0.00026091,0.00047511,-0.0025
 0149,0.00461515,-0.00039522,0.00011632,0.00034910,0.00005415,0.0000061
 5,-0.00004430,-0.02739381,-0.00437507,-0.00330717,0.00004716,-0.000011
 96,-0.00011704,-0.00086158,-0.00012215,-0.00047574,-0.00072990,-0.0013
 5814,0.00087953,0.00004550,0.00006272,0.00005180,-0.00000638,-0.000018
 57,-0.00000531,0.00000216,-0.00001510,-0.00000676,-0.00001350,-0.00000
 071,-0.00001520,0.00006251,-0.00001194,0.00003216,-0.00001026,0.000006
 48,0.00000067,0.00000096,0.00000614,0.00000156,-0.00000996,-0.00000731
 ,-0.00000768,0.00000792,0.00007635,0.00000133,0.00000078,-0.00000847,-
 0.00000638,0.00000418,-0.00001029,-0.00000161,-0.00000740,-0.00001100,
 0.00000551,-0.00004853,0.00004475,-0.00011128,0.00000489,0.00001276,-0
 .00001698,-0.00001012,-0.00001835,0.00002357,0.00001161,-0.00002141,0.
 00001144,-0.00073591,-0.00034304,-0.00071106,0.00023150,-0.00004991,0.
 00001592,0.00065795,-0.00058712,0.00036828,-0.00003325,-0.00005023,0.0
 0007462,-0.00003594,0.00033845,-0.00008010,0.00001608,-0.00006525,0.00
 003522,0.00000362,0.00002245,0.00001417,-0.00000427,-0.00000939,0.0000
 1273,0.00002321,0.00002198,-0.00000329,0.00000292,-0.00000327,-0.00000
 338,-0.00004320,0.00002283,-0.00004738,0.00000668,-0.00000272,-0.00000
 054,0.00000408,0.00000024,-0.00000253,-0.00000072,-0.00001124,0.000009
 92,-0.00082656,0.00031910,-0.00109664,0.00006135,-0.00008390,0.0004822
 5,0.00039705,0.00002851,0.00026039,0.00024415,-0.00034791,0.00021605,-
 0.08062052,-0.11922614,-0.00479753,-0.03188263,-0.03502691,-0.03650514
 ,0.12222842,0.14463288,-0.00001352,-0.00002126,-0.00003869,0.00002113,
 -0.00001600,0.00001796,0.00005439,-0.00007025,-0.00015258,-0.00005644,
 -0.00004087,-0.00023436,0.00000505,0.00000972,0.00001764,0.00004151,0.
 00000961,0.00005036,-0.00000225,-0.00000666,0.00000484,-0.00000396,0.0
 0000395,0.00000234,-0.00005557,0.00000234,0.00004165,-0.00000161,-0.00
 001615,0.00000353,-0.00000350,0.00013421,0.00023431,-0.00004932,0.0000
 0168,0.00019526,-0.00001158,0.00001660,0.00002214,0.00000422,0.0000113
 6,0.00002447,0.00000331,0.00000795,0.00003987,0.00004703,0.00059056,-0
 .00021495,0.00001622,-0.00003684,0.00003599,0.00013713,-0.00019976,-0.
 00007363,-0.00032431,-0.00016816,0.00033011,0.00000563,-0.00001880,-0.
 00001911,0.00000278,0.00000876,0.00000092,0.00000084,-0.00000226,0.000
 00202,-0.00000329,0.00000288,0.00000110,0.00000732,-0.00000336,-0.0000
 0794,-0.00000251,0.00000055,0.00000486,0.00000257,-0.00000115,0.000000
 56,-0.00000018,-0.00000027,0.00000009,0.00000074,0.00001313,-0.0000009
 6,0.00000235,-0.00000574,0.00000365,0.00000101,0.00000518,-0.00000212,
 -0.00000104,0.00000544,0.00000378,-0.00001987,-0.00002991,-0.00001069,
 -0.00005233,0.00003542,-0.00012427,0.00044065,-0.00040839,-0.00028585,
 -0.00005274,-0.00006832,0.00007556,-0.00003001,-0.00004262,-0.00001633
 ,-0.00000754,-0.00000940,-0.00006872,0.00002151,0.00000870,0.00002090,
 -0.00001623,-0.00000195,0.00000128,-0.00001125,-0.00003028,0.00000715,
 -0.00000072,0.00001147,0.00000080,0.00002585,0.00020128,0.00011160,0.0
 0062317,0.00026554,-0.00017238,-0.00004196,-0.00003557,0.00014856,0.00
 004326,0.00003787,0.00004591,0.00003327,0.00005192,0.00000307,-0.00004
 364,-0.00006008,-0.00003739,-0.00000037,0.00002178,0.00000678,0.000009
 39,0.00001345,-0.00000719,0.00002163,0.00012141,-0.00004406,-0.0018155
 0,-0.00044178,-0.00071444,0.00053205,-0.00015052,0.00021055,0.00023816
 ,0.00057823,0.00048022,0.00147818,-0.00015661,-0.00103204,0.00087267,0
 .00020243,-0.00009979,-0.00100989,0.00238880,-0.00233759,0.00044633,-0
 .00037955,0.00074241,0.00004025,-0.00002367,0.00006962,0.02120899,0.01
 141277,0.00896937,0.00018468,0.00019574,0.00019321,-0.00008676,0.00222
 076,-0.00206871,0.00196234,0.00076152,-0.00064258,0.00009811,0.0000447
 1,-0.00007082,-0.00001658,-0.00000683,-0.00001392,-0.00001294,-0.00000
 376,0.00000439,0.00000256,0.00000043,0.00001291,-0.00002611,0.00001125
 ,-0.00002564,0.00000216,-0.00000252,0.00000271,0.00000284,-0.00000503,
 0.00000387,0.00000544,0.00000229,0.00000391,-0.00000359,-0.00003828,-0
 .00000288,0.00000175,0.00000576,0.00000371,-0.00000189,0.00000422,-0.0
 0000023,0.00000211,0.00000485,-0.00000181,0.00002753,-0.00003825,0.000
 06248,0.00000189,-0.00001224,0.00002084,0.00000803,0.00001213,-0.00001
 387,-0.00000877,0.00001776,-0.00000790,-0.00023729,-0.00009237,-0.0002
 9068,-0.00004490,0.00004700,0.00003021,-0.00010311,0.00001253,-0.00019
 445,0.00019775,0.00002521,0.00022128,0.00003977,-0.00025460,-0.0001601
 9,-0.00000071,0.00003029,0.00002400,-0.00001132,-0.00002027,-0.0000240
 7,0.00000276,0.,0.00000385,0.00000426,0.00000368,-0.00000550,-0.000003
 86,0.00000650,0.00000316,0.00000743,-0.00000895,0.00000210,-0.00000311
 ,0.00000298,0.00000125,0.00000069,0.00000503,0.00000567,0.00000050,0.0
 0000159,-0.00000089,0.00050004,-0.00061921,0.00097373,-0.00003051,0.00
 010770,-0.00039433,-0.00022719,0.00007985,-0.00022460,-0.00018762,0.00
 040239,-0.00014379,-0.02205125,-0.00908694,-0.07869821,-0.03117205,-0.
 04172994,-0.01821396,0.06629632,0.03446554,0.09672033,0.00002404,-0.00
 007158,-0.00001209,0.00008342,-0.00005826,0.00004970,-0.00023477,-0.00
 023832,0.00030815,-0.00001982,-0.00012434,-0.00003612,0.00000219,-0.00
 007666,-0.00006543,0.00002478,-0.00001049,-0.00001010,-0.00000486,0.00
 002781,-0.00001291,0.00000488,-0.00000525,-0.00000417,0.00004476,0.000
 00067,-0.00003758,0.00000195,0.00001625,0.00000220,0.00009677,0.000201
 56,-0.00002652,-0.00014524,0.00063166,-0.00029355,-0.00006598,0.000048
 29,-0.00007721,-0.00005308,0.00010450,-0.00000220,0.00002471,0.0000945
 6,0.00006719,-0.00005368,-0.00049117,0.00012903,-0.00000537,0.00007132
 ,0.00002851,-0.00013072,0.00018928,0.00001430,0.00031337,0.00020554,-0
 .00018209,0.00000437,-0.00001348,0.00006409,0.00000197,0.00000463,0.00
 000016,0.00001049,0.00000684,-0.00001127,-0.00000757,0.00000164,-0.000
 00698,0.00004726,-0.00002005,-0.00000854,-0.00000746,-0.00000197,0.000
 00317,-0.00000486,-0.00000373,0.00000119,-0.00000652,0.00001137,-0.000
 00051,-0.00004870,-0.00006271,-0.00001535,0.00000460,0.00001471,-0.000
 00410,0.00000389,-0.00000552,-0.00000846,0.00000233,0.00000808,0.00000
 969,-0.00001185,-0.00000121,0.00000611,-0.00000677,0.00002782,-0.00004
 771,-0.00033591,0.00022157,0.00007637,-0.00002240,-0.00001354,0.000023
 45,-0.00000956,-0.00000131,-0.00000637,-0.00001760,0.00000599,0.000008
 39,-0.00000645,-0.00001294,-0.00000285,0.00000960,0.00000233,-0.000003
 57,0.00000386,0.00000923,-0.00000502,0.00000082,-0.00000428,0.00000025
 ,0.00008134,0.00000968,-0.00002629,0.00005361,-0.00007095,0.00007429,0
 .00002648,-0.00004062,0.00003228,0.00002323,-0.00000339,0.00001222,0.0
 0001160,0.00000012,0.00000221,-0.00001407,-0.00000408,-0.00000584,-0.0
 0000025,-0.00000133,0.00000247,0.00000249,0.00000253,-0.00000308,0.000
 01962,0.00000710,-0.00000667,0.00000112,0.00046101,-0.00025467,-0.0000
 1850,-0.00020217,0.00011005,0.00010610,-0.00022110,-0.00006089,0.00132
 428,-0.00003652,-0.00051263,0.00029886,-0.00013132,0.00036617,-0.00323
 047,-0.00207681,0.00026576,-0.00004456,-0.00019591,0.00058008,0.000097
 09,0.00001213,0.00011516,0.00641618,0.00233406,0.00024069,0.00159545,-
 0.00023123,0.00151896,-0.00005535,-0.00010827,-0.00031404,0.00024506,-
 0.00025040,0.00058601,0.00000217,0.00001593,-0.00000500,-0.00003060,0.
 00002035,-0.00000911,-0.00000631,-0.00002557,-0.00000098,0.00001148,0.
 00001017,0.00001508,-0.00001548,0.00001126,-0.00001076,0.00000381,-0.0
 0000034,-0.00000217,-0.00000101,-0.00000099,0.00000461,0.00000090,-0.0
 0000250,0.00000079,-0.00000271,0.00000248,-0.00000146,-0.00000020,0.00
 000130,0.00000050,0.00000229,-0.00000113,0.00000097,0.00000046,0.00000
 105,-0.00000094,-0.00000501,-0.00000115,0.00000559,-0.00000170,0.00000
 042,0.00000410,0.00000373,0.00000239,-0.00000315,-0.00000050,-0.000002
 10,-0.00000025,0.00065132,-0.00044507,0.00032974,-0.00012768,0.0000181
 7,-0.00001781,-0.00002948,-0.00028433,-0.00019895,0.00005785,-0.000008
 33,0.00006674,-0.00007608,-0.00006367,0.00007954,0.00002040,0.00002768
 ,-0.00001574,-0.00000960,-0.00001073,-0.00000751,0.00000373,0.00000776
 ,-0.00000771,-0.00001177,-0.00000886,0.00000422,0.00000233,-0.00000187
 ,0.00000117,0.00000558,-0.00000655,0.00001388,0.00000017,-0.00000513,0
 .00000031,-0.00000483,0.00000104,0.00000514,0.00000398,0.00000614,-0.0
 0000414,-0.00019130,0.00001330,0.00007554,0.00004492,-0.00001751,-0.00
 006985,0.00009521,0.00002601,-0.00004231,0.00004612,-0.00002958,0.0000
 0106,-0.12533690,0.07047431,-0.05131926,-0.01207054,0.03972852,0.00544
 673,-0.06112122,0.02041526,-0.03787681,0.19163622,-0.00007054,0.000097
 84,0.00001547,-0.00012920,0.00008353,-0.00010613,-0.00015812,0.0001969
 8,-0.00022929,0.00001765,0.00013323,0.00010591,-0.00000630,0.00014778,
 0.00010724,-0.00004685,0.00000044,-0.00001188,0.00000790,-0.00000871,0
 .00000438,0.00000649,-0.00000116,-0.00000224,-0.00004273,-0.00000404,0
 .00002441,-0.00001080,-0.00000569,-0.00000544,0.00015791,-0.00033718,-
 0.00003040,0.00026139,-0.00048626,0.00020326,0.00015142,-0.00006235,0.
 00012286,0.00012218,-0.00017023,0.00000090,-0.00000803,-0.00016320,-0.
 00011872,-0.00003930,0.00075874,-0.00009064,0.00003368,-0.00011941,-0.
 00008852,0.00018231,-0.00028237,-0.00001203,-0.00023683,-0.00042374,0.
 00015203,-0.00001024,0.00000463,-0.00009249,-0.00001262,-0.00000494,0.
 00000602,-0.00001332,0.00000137,0.00001373,0.00001644,-0.00000590,0.00
 001268,-0.00009541,0.00003368,0.00002197,0.00001357,0.00000185,-0.0000
 0967,0.00001219,0.00000517,0.00000064,0.00001279,-0.00001738,0.0000000
 8,0.00005637,0.00010469,0.00002554,-0.00000528,-0.00002661,0.00000754,
 0.00000392,0.00001465,0.00002084,-0.00000174,-0.00001536,-0.00002034,0
 .00008565,0.00007128,-0.00000222,0.00004881,-0.00002694,0.00017349,0.0
 0007888,0.00022299,-0.00000459,0.00014546,0.00015690,-0.00018624,0.000
 05475,0.00007827,0.00000060,0.00002070,0.00003677,0.00004557,-0.000003
 74,0.00000511,-0.00001920,0.00000478,-0.00000056,0.00000496,-0.0000038
 2,0.00001081,0.00000398,0.00000113,-0.00000913,0.00000204,-0.00016268,
 -0.00032018,0.00012544,-0.00064292,-0.00013162,0.00024552,-0.00005668,
 0.00000684,-0.00012897,-0.00012032,-0.00007837,-0.00007447,-0.00008493
 ,-0.00010583,0.00002711,0.00005475,0.00007213,0.00003680,0.00000489,-0
 .00002341,-0.00001259,-0.00001324,-0.00002240,0.00002160,-0.00003581,-
 0.00016166,0.00011044,0.00216299,-0.00000914,0.00020640,-0.00066940,0.
 00037683,-0.00017978,-0.00050956,-0.00033433,-0.00028325,-0.00030960,0
 .00010238,0.00074389,-0.00030269,-0.00023375,0.00017419,0.00198146,0.0
 0015963,0.00016427,0.00147861,-0.00012660,0.00143005,0.00002783,0.0000
 0943,-0.00009988,0.01999089,-0.01572674,0.02071701,-0.00077247,-0.0012
 0557,0.00046241,-0.00513062,-0.00253734,0.00250814,0.00000715,0.000010
 08,-0.00036890,0.00001486,0.00003335,0.00006946,0.00002078,-0.00002423
 ,0.00000598,0.00000888,0.00000607,-0.00000646,-0.00002115,-0.00000797,
 -0.00002808,0.00007402,-0.00002303,0.00004352,-0.00001267,0.00000644,0
 .00000168,0.00000095,0.00000757,-0.00000362,-0.00001089,-0.00000479,-0
 .00000821,0.00001011,0.00007355,0.00000345,0.00000024,-0.00001002,-0.0
 0000699,0.00000190,-0.00000882,-0.00000208,-0.00000721,-0.00001170,0.0
 0000603,-0.00004242,0.00005754,-0.00011875,0.00000369,0.00001762,-0.00
 003045,-0.00001677,-0.00002352,0.00002761,0.00001297,-0.00002356,0.000
 01207,-0.00057168,0.00040567,-0.00035908,0.00018603,-0.00003983,0.0000
 1610,-0.00017087,0.00004933,0.00004751,0.00000410,-0.00001364,0.000027
 53,0.00001257,0.00045157,-0.00004562,-0.00000177,-0.00008890,0.0000307
 0,0.00001478,0.00003489,0.00002713,-0.00000724,-0.00001415,0.00001525,
 0.00002730,0.00002409,-0.00000461,0.00000202,-0.00000429,-0.00000516,-
 0.00004348,0.00002861,-0.00005037,0.00000704,-0.00000046,-0.00000148,0
 .00000690,-0.00000318,-0.00000806,-0.00000321,-0.00001480,0.00001172,-
 0.00130521,0.00048585,-0.00121334,0.00009233,-0.00015584,0.00093031,0.
 00040351,-0.00001752,0.00032056,0.00032278,-0.00054020,0.00024263,0.06
 410612,-0.16828610,0.07474489,0.04198065,-0.05500963,-0.00759020,0.007
 21044,0.01936646,-0.00028131,-0.12980953,0.22356170,0.00002403,-0.0000
 6623,-0.00004247,0.00008097,-0.00005448,0.00006761,0.00018553,-0.00012
 257,-0.00006040,-0.00005988,-0.00008487,-0.00029170,0.00000447,-0.0000
 6790,-0.00003219,0.00006212,0.00001551,0.00005273,-0.00000600,-0.00000
 598,0.00000437,-0.00000839,0.00000550,0.00000405,-0.00003627,-0.000002
 86,0.00003994,0.00000471,-0.00001554,0.00000593,-0.00012746,0.00030762
 ,0.00025719,-0.00016578,0.00016682,0.00008695,-0.00008886,0.00004508,-
 0.00003778,-0.00005800,0.00009354,0.00002294,0.00000617,0.00009101,0.0
 0009829,0.00008189,0.00012144,-0.00016738,-0.00000680,0.00003441,0.000
 08547,0.00002935,-0.00002700,-0.00004547,-0.00018653,0.00006931,0.0002
 4358,0.00001045,-0.00001726,0.00002551,0.00000916,0.00001068,-0.000002
 76,0.00000693,-0.00000429,-0.00000432,-0.00001147,0.00000571,-0.000005
 13,0.00005439,-0.00001970,-0.00001905,-0.00000920,-0.00000038,0.000009
 65,-0.00000375,-0.00000347,0.00000017,-0.00000651,0.00000821,0.,-0.000
 02668,-0.00003989,-0.00001464,0.00000498,0.00000773,0.00000008,-0.0000
 0150,-0.00000380,-0.00001338,-0.00000065,0.00001355,0.00001439,-0.0000
 6320,-0.00006409,-0.00000864,-0.00007783,0.00005310,-0.00022444,0.0003
 5516,-0.00047217,-0.00028505,-0.00013495,-0.00014720,0.00017737,-0.000
 05726,-0.00008409,-0.00001981,-0.00001521,-0.00002211,-0.00009742,0.00
 002296,0.00000518,0.00003004,-0.00001707,-0.00000100,-0.00000137,-0.00
 000981,-0.00003074,0.00000283,-0.00000147,0.00001552,-0.00000032,0.000
 13390,0.00036604,0.00006188,0.00079204,0.00024042,-0.00022607,-0.00001
 401,-0.00004818,0.00022657,0.00010565,0.00007709,0.00008557,0.00007781
 ,0.00010705,-0.00000843,-0.00008137,-0.00010610,-0.00006770,-0.0000012
 3,0.00003563,0.00001595,0.00001843,0.00002687,-0.00001796,0.00004733,0
 .00022344,-0.00010519,-0.00266739,-0.00040898,-0.00050090,0.00081983,-
 0.00027295,0.00023301,0.00048500,0.00070024,0.00056555,0.00023519,-0.0
 0037056,-0.00056308,-0.00013767,0.00042563,-0.00059157,-0.00144328,0.0
 0006948,-0.00091786,-0.00057079,-0.00026702,-0.00225197,-0.00006932,0.
 00000803,0.00014146,-0.02232735,0.03182453,-0.01681282,0.00099089,0.00
 113393,-0.00040470,0.00529603,0.00320908,-0.00122274,-0.00006497,0.000
 14052,0.00073085,0.00009982,0.00003483,-0.00011072,-0.00003055,0.00001
 177,-0.00002163,-0.00001898,-0.00001045,0.00000783,0.00001582,0.000006
 94,0.00002978,-0.00006389,0.00002396,-0.00004906,0.00000852,-0.0000057
 4,0.00000213,0.00000263,-0.00000913,0.00000627,0.00001113,0.00000452,0
 .00000817,-0.00000861,-0.00007649,-0.00000488,0.00000185,0.00001112,0.
 00000739,-0.00000278,0.00000864,0.00000083,0.00000574,0.00001089,-0.00
 000485,0.00005303,-0.00007230,0.00013015,0.00000052,-0.00002496,0.0000
 4197,0.00001726,0.00002616,-0.00003025,-0.00001646,0.00003237,-0.00001
 521,0.00006786,-0.00017690,-0.00003914,-0.00008543,0.00003471,0.000033
 43,-0.00009374,-0.00002636,-0.00026088,0.00014590,0.00002470,0.0001469
 1,0.00005203,-0.00052736,-0.00014604,-0.00000189,0.00007927,0.00000912
 ,-0.00001941,-0.00003886,-0.00003970,0.00000621,0.00000747,-0.00000395
 ,-0.00000976,-0.00000925,-0.00000313,-0.00000540,0.00000936,0.00000596
 ,0.00003140,-0.00002434,0.00002911,-0.00000712,0.00000414,0.00000212,-
 0.00000245,0.00000662,0.00000929,0.00000152,0.00000921,-0.00000713,0.0
 0165808,-0.00096382,0.00139080,-0.00015979,0.00028465,-0.00109696,-0.0
 0052455,0.00005163,-0.00036328,-0.00037884,0.00068483,-0.00026199,-0.0
 4549570,0.07269531,-0.12557836,0.01420618,-0.02109353,0.01835300,-0.03
 175232,0.00486171,-0.00333075,0.08090470,-0.09269181,0.13292845\\0.000
 00064,0.00000007,-0.00000114,0.00000099,0.00000043,-0.00000097,-0.0000
 0004,-0.00000002,-0.00000189,-0.00000060,-0.00000072,-0.00000006,0.000
 00133,-0.00000298,-0.00000194,0.00000091,0.00000078,-0.00000174,0.0000
 0115,0.00000191,-0.00000163,-0.00000079,0.00000131,-0.00000207,-0.0000
 0128,0.00000066,-0.00000142,-0.00000351,0.00000529,0.00000043,-0.00000
 133,0.00000095,-0.00000015,-0.00000051,0.00000095,-0.00000171,0.000000
 16,0.00000078,-0.00000099,-0.00000019,0.00000129,-0.00000037,-0.000001
 21,-0.00000028,-0.00000067,-0.00000062,-0.00000057,0.00000031,-0.00000
 127,-0.00000070,-0.00000023,-0.00000237,-0.00000089,-0.00000083,-0.000
 00127,0.00000127,0.00000005,0.00000050,0.00000192,-0.00000222,0.000001
 00,0.00000153,-0.00000224,0.00000130,0.00000106,-0.00000155,0.00000108
 ,0.00000172,-0.00000248,0.00000051,0.00000077,-0.00000201,-0.00000018,
 0.00000087,-0.00000150,0.00000065,0.00000140,-0.00000177,0.00000066,0.
 00000107,-0.00000132,-0.00000080,-0.00000023,-0.00000039,-0.00000037,0
 .00000020,-0.00000021,-0.00000055,-0.00000065,0.00000038,-0.00000105,-
 0.00000034,0.00000008,-0.00000070,-0.00000066,0.00000247,0.00000076,-0
 .00000176,0.00000046,-0.00000429,0.00000090,-0.00000033,-0.00000048,0.
 00000008,0.00000183,0.,-0.00000090,0.00000264,0.00000242,-0.00000246,0
 .00000129,-0.00000053,-0.00000063,0.00000079,-0.00000005,-0.00000119,0
 .00000198,0.00000118,0.00000040,0.00000108,0.00000112,-0.00000029,0.00
 000128,0.00000271,-0.00000160,0.00000043,0.00000029,-0.00000043,0.0000
 0067,-0.00000125,-0.00000083,0.00000166,-0.00000028,-0.00000140,0.0000
 0230,0.00000137,-0.00000072,0.00000178,-0.00000057,-0.00000074,0.00000
 305,0.00000112,0.00000072,0.00000066,0.00000138,-0.00000103,0.00000115
 ,0.00000288,0.00000034,-0.00000135,-0.00000078,-0.00000043,0.00000175,
 -0.00000121,-0.00000028,0.00000069,0.00000107,-0.00000275,0.00000142,-
 0.00000018,0.,0.00000026,-0.00000029,0.00000008,0.00000010,-0.00000145
 ,-0.00000065,-0.00000038,-0.00000008,0.00000111,-0.00000121,0.00000025
 ,0.,0.00000039,-0.00000106,-0.00000045,-0.00000155,-0.00000105,-0.0000
 0070,0.00000022,-0.00000132,0.00000179,-0.00000093,0.00000018,-0.00000
 208,-0.00000066,-0.00000186,-0.00000077,0.00000165,-0.00000178,-0.0000
 0119,0.00000040,-0.00000122,-0.00000154,0.00000079,-0.00000202,-0.0000
 0153,0.00000092,-0.00000019,-0.00000220,0.00000213,-0.00000068,-0.0000
 0156,0.00000323,-0.00000102,-0.00000179,0.00000254,-0.00000041,-0.0000
 0156,0.00000316,0.00000103,-0.00000158,0.00000309,0.00000100,-0.000000
 99,0.00000294,0.00000130,-0.00000058,0.00000221,0.00000183,-0.00000078
 ,0.00000274,0.00000036,0.00000074,-0.00000018,0.00000208,0.00000110,0.
 00000008,0.00000229,0.00000056,0.00000083,0.00000189,0.00000037,0.0000
 0042,-0.00000115,-0.00000124,-0.00000220,-0.00000102,0.00000042,-0.000
 00245,-0.00000085,0.00000056,-0.00000182,-0.00000084,0.00000302,-0.000
 00335,0.00000079,-0.00000098,-0.00000075,0.00000101,0.00000276,-0.0000
 0119,0.00000103,0.00000066,0.00000181,0.00000136,0.,0.00000080,0.00000
 174,-0.00000062,0.00000017,0.00000169,-0.00000061,0.00000047,0.0000000
 3,-0.00000046,-0.00000008,0.00000153,0.00000045,-0.00000136,0.00000291
 ,-0.00000023,-0.00000003,0.00000202,0.00000119,0.00000016,0.00000019,0
 .00000124,0.00000046,0.00000107,0.00000035,-0.00000147,-0.00000003,0.0
 0000133,-0.00000118,-0.00000022,0.00000271,-0.00000188,-0.00000122,-0.
 00000012,-0.00000111,-0.00000242,0.00000010,-0.00000088,-0.00000216,0.
 00000072,-0.00000185,-0.00000213,-0.00000025,-0.00000094\\\@


 Luck is a matter of preparation meeting opportunity.
                                    -- Oprah Winfrey
 Job cpu time:       5 days  5 hours  2 minutes 16.8 seconds.
 Elapsed time:       0 days  4 hours  9 minutes 38.2 seconds.
 File lengths (MBytes):  RWF=   9711 Int=      0 D2E=      0 Chk=     85 Scr=      1
 Normal termination of Gaussian 16 at Fri May 10 07:09:44 2019.
