 Entering Gaussian System, Link 0=g16
 Input=clay_new-glu_gluC6-DDDR-Na_1Me2O-bisCF3-ts-b3lyp_d3bj-631gd-pcm_thf.gjf
 Output=clay_new-glu_gluC6-DDDR-Na_1Me2O-bisCF3-ts-b3lyp_d3bj-631gd-pcm_thf.out
 Initial command:
 /home/ekwan/sw/g16/l1.exe "/scratch/users/ekwan/clay_new-glu_gluC6-DDDR-Na_1Me2O-bisCF3-ts-b3lyp_d3bj-631gd-pcm_thf/Gau-59892.inp" -scrdir="/scratch/users/ekwan/clay_new-glu_gluC6-DDDR-Na_1Me2O-bisCF3-ts-b3lyp_d3bj-631gd-pcm_thf/"
 Entering Link 1 = /home/ekwan/sw/g16/l1.exe PID=     59893.
  
 Copyright (c) 1988,1990,1992,1993,1995,1998,2003,2009,2016,
            Gaussian, Inc.  All Rights Reserved.
  
 This is part of the Gaussian(R) 16 program.  It is based on
 the Gaussian(R) 09 system (copyright 2009, Gaussian, Inc.),
 the Gaussian(R) 03 system (copyright 2003, Gaussian, Inc.),
 the Gaussian(R) 98 system (copyright 1998, Gaussian, Inc.),
 the Gaussian(R) 94 system (copyright 1995, Gaussian, Inc.),
 the Gaussian 92(TM) system (copyright 1992, Gaussian, Inc.),
 the Gaussian 90(TM) system (copyright 1990, Gaussian, Inc.),
 the Gaussian 88(TM) system (copyright 1988, Gaussian, Inc.),
 the Gaussian 86(TM) system (copyright 1986, Carnegie Mellon
 University), and the Gaussian 82(TM) system (copyright 1983,
 Carnegie Mellon University). Gaussian is a federally registered
 trademark of Gaussian, Inc.
  
 This software contains proprietary and confidential information,
 including trade secrets, belonging to Gaussian, Inc.
  
 This software is provided under written license and may be
 used, copied, transmitted, or stored only in accord with that
 written license.
  
 The following legend is applicable only to US Government
 contracts under FAR:
  
                    RESTRICTED RIGHTS LEGEND
  
 Use, reproduction and disclosure by the US Government is
 subject to restrictions as set forth in subparagraphs (a)
 and (c) of the Commercial Computer Software - Restricted
 Rights clause in FAR 52.227-19.
  
 Gaussian, Inc.
 340 Quinnipiac St., Bldg. 40, Wallingford CT 06492
  
  
 ---------------------------------------------------------------
 Warning -- This program may not be used in any manner that
 competes with the business of Gaussian, Inc. or will provide
 assistance to any competitor of Gaussian, Inc.  The licensee
 of this program is prohibited from giving any competitor of
 Gaussian, Inc. access to this program.  By using this program,
 the user acknowledges that Gaussian, Inc. is engaged in the
 business of creating and licensing software in the field of
 computational chemistry and represents and warrants to the
 licensee that it is not a competitor of Gaussian, Inc. and that
 it will not use this program in any manner prohibited above.
 ---------------------------------------------------------------
  

 Cite this work as:
 Gaussian 16, Revision A.03,
 M. J. Frisch, G. W. Trucks, H. B. Schlegel, G. E. Scuseria, 
 M. A. Robb, J. R. Cheeseman, G. Scalmani, V. Barone, 
 G. A. Petersson, H. Nakatsuji, X. Li, M. Caricato, A. V. Marenich, 
 J. Bloino, B. G. Janesko, R. Gomperts, B. Mennucci, H. P. Hratchian, 
 J. V. Ortiz, A. F. Izmaylov, J. L. Sonnenberg, D. Williams-Young, 
 F. Ding, F. Lipparini, F. Egidi, J. Goings, B. Peng, A. Petrone, 
 T. Henderson, D. Ranasinghe, V. G. Zakrzewski, J. Gao, N. Rega, 
 G. Zheng, W. Liang, M. Hada, M. Ehara, K. Toyota, R. Fukuda, 
 J. Hasegawa, M. Ishida, T. Nakajima, Y. Honda, O. Kitao, H. Nakai, 
 T. Vreven, K. Throssell, J. A. Montgomery, Jr., J. E. Peralta, 
 F. Ogliaro, M. J. Bearpark, J. J. Heyd, E. N. Brothers, K. N. Kudin, 
 V. N. Staroverov, T. A. Keith, R. Kobayashi, J. Normand, 
 K. Raghavachari, A. P. Rendell, J. C. Burant, S. S. Iyengar, 
 J. Tomasi, M. Cossi, J. M. Millam, M. Klene, C. Adamo, R. Cammi, 
 J. W. Ochterski, R. L. Martin, K. Morokuma, O. Farkas, 
 J. B. Foresman, and D. J. Fox, Gaussian, Inc., Wallingford CT, 2016.
 
 ******************************************
 Gaussian 16:  AS64L-G16RevA.03 25-Dec-2016
                 8-May-2019 
 ******************************************
 %mem=48GB
 %nprocshared=32
 Will use up to   32 processors via shared memory.
 ----------------------------------------------------------------------
 #p opt=(ts,noeigentest,calcfc,maxstep=3,modredundant,recalc=30) freq=n
 oraman b3lyp 6-31g* pop=none scrf=(solvent=tetrahydrofuran,pcm) empiri
 caldispersion=gd3bj
 ----------------------------------------------------------------------
 1/5=1,8=3,10=4,11=1,18=120,26=3,38=1,71=30/1,3;
 2/9=110,12=2,17=6,18=5,40=1/2;
 3/5=1,6=6,7=1,11=2,25=1,30=1,70=2201,71=2,72=20,74=-5,124=41,140=1/1,2,3;
 4//1;
 5/5=2,38=5,53=20/2;
 8/6=4,10=90,11=11/1;
 11/6=1,8=1,9=11,15=111,16=1/1,2,10;
 10/6=1,13=1/2;
 7/10=1,18=20,25=1/1,2,3,16;
 1/5=1,8=3,10=4,11=1,18=20,26=3,71=30/3(2);
 2/9=110/2;
 99//99;
 2/9=110/2;
 3/5=1,6=6,7=1,11=2,25=1,30=1,70=2205,71=1,72=20,74=-5,124=41/1,2,3;
 4/5=5,16=3,69=1/1;
 5/5=2,38=5,53=20/2;
 7//1,2,3,16;
 1/5=1,8=3,11=1,18=20,26=3,71=30/3(-5);
 2/9=110/2;
 99/9=1/99;
 Leave Link    1 at Wed May  8 08:00:44 2019, MaxMem=  6442450944 cpu:               7.4 elap:               0.3
 (Enter /home/ekwan/sw/g16/l101.exe)
 -----
 title
 -----
 Symbolic Z-matrix:
 Charge =  0 Multiplicity = 1
 C                     2.87905   1.88119  -1.01053 
 C                     4.01872   1.78247   0.00467 
 C                     3.67167   2.55615   1.27672 
 C                     1.3132    2.17649   1.03532 
 C                     1.49807   1.60746  -0.38672 
 H                     4.43204   2.41397   2.05653 
 H                     4.13564   0.73068   0.29508 
 H                     2.87488   2.89823  -1.42508 
 H                     1.08158   3.247     0.9425 
 H                     1.37062   0.51598  -0.35722 
 O                     2.49555   2.01074   1.83074 
 O                     3.55831   3.91631   0.95454 
 O                     5.19903   2.25012  -0.62503 
 O                     3.04509   0.92484  -2.05422 
 O                     0.45789   2.17925  -1.19331 
 C                     0.2072    1.47096   1.85353 
 H                     0.33711   1.84436   2.89154 
 H                     0.52105   0.40324   1.90036 
 O                    -1.06899   1.62767   1.38327 
 C                     6.39534   1.90759   0.05723 
 H                     6.50098   2.45032   1.00642 
 H                     6.44576   0.82894   0.25645 
 H                     7.2223    2.18889  -0.59904 
 C                     3.8302    1.35225  -3.15909 
 H                     3.46908   2.31587  -3.54773 
 H                     4.88441   1.44983  -2.88819 
 H                     3.71572   0.58932  -3.93149 
 C                     0.27481   1.59856  -2.49124 
 H                     1.05092   1.92594  -3.1878 
 H                     0.25838   0.5075   -2.44154 
 H                    -0.69646   1.95075  -2.85198 
 C                    -4.03408  -1.14771   0.96823 
 C                    -2.63429  -0.71463   1.39649 
 C                    -1.7657   -0.3644    0.2141 
 C                    -3.60963  -0.06555  -1.27995 
 C                    -4.58925  -0.21765  -0.11393 
 H                    -0.69822  -0.30315   0.31597 
 H                    -2.71617   0.23      1.93974 
 H                    -3.9925   -2.16271   0.56112 
 H                    -3.49639  -1.02643  -1.78399 
 H                    -4.77802   0.77003   0.32438 
 O                    -2.2695    0.29307  -0.81073 
 O                    -0.69767  -1.64845  -2.69193 
 O                    -2.01036  -1.69349   2.20694 
 O                    -4.91007  -1.08712   2.08498 
 O                    -5.78678  -0.78889  -0.61508 
 C                    -3.93486   1.05472  -2.2756 
 H                    -3.1367    1.0682   -3.03499 
 H                    -3.925     2.00698  -1.73995 
 O                    -5.20297   0.96906  -2.878 
 S                    -0.71088  -2.59016  -1.55372 
 O                    -0.83203  -4.0202   -1.88933 
 O                    -1.74898  -2.21585  -0.48894 
 C                     0.85756  -2.36564  -0.70295 
 C                     2.01203  -2.17412  -1.46083 
 C                     0.90713  -2.43223   0.68738 
 C                     3.23692  -2.0609   -0.80949 
 H                     1.95075  -2.09957  -2.53891 
 C                     2.14169  -2.29353   1.32486 
 H                    -0.00601  -2.56254   1.25793 
 C                     3.30872  -2.11672   0.584 
 H                     4.26514  -2.02503   1.08592 
 C                    -1.65519  -1.2324    3.51091 
 H                    -0.9222   -0.42075   3.46308 
 H                    -2.54231  -0.89352   4.05996 
 H                    -1.21039  -2.08648   4.02437 
 C                    -5.21157  -2.35739   2.65013 
 H                    -5.73406  -2.99729   1.92595 
 H                    -4.30498  -2.8697    2.99209 
 H                    -5.86861  -2.17228   3.50358 
 C                    -6.9499   -0.00616  -0.38054 
 H                    -7.09563   0.16649   0.69274 
 H                    -6.89277   0.95143  -0.91178 
 H                    -7.79378  -0.58016  -0.7711 
 C                    -5.3586   -0.14549  -3.74952 
 H                    -6.2845    0.02008  -4.30501 
 H                    -4.5199   -0.21328  -4.45727 
 H                    -5.44069  -1.08255  -3.18822 
 C                     3.37416   4.74886   2.09491 
 H                     3.36557   5.77939   1.73441 
 H                     2.42824   4.53018   2.60383 
 H                     4.199     4.62018   2.80988 
 Na                   -1.60794   2.83227  -0.30807 
 O                    -3.76384   3.28362   0.48841 
 C                    -3.85718   3.02328   1.89258 
 H                    -4.69346   2.34206   2.10241 
 H                    -2.90984   2.55981   2.17778 
 H                    -4.01248   3.95979   2.44522 
 C                    -4.91808   3.94246  -0.01765 
 H                    -5.07831   4.89978   0.4959 
 H                    -4.75302   4.12604  -1.08169 
 H                    -5.81179   3.31596   0.10774 
 C                     4.51287  -1.93368  -1.59569 
 F                     5.26011  -3.05875  -1.48469 
 F                     5.28926  -0.91885  -1.14762 
 F                     4.29355  -1.7306   -2.90857 
 C                     2.19921  -2.28802   2.82816 
 F                     3.38114  -2.75152   3.28783 
 F                     1.22251  -3.04978   3.36939 
 F                     2.04536  -1.04015   3.33108 
 
 Add virtual bond connecting atoms O53        and C34        Dist= 3.74D+00.
 Add virtual bond connecting atoms H37        and H18        Dist= 4.01D+00.
 Add virtual bond connecting atoms H37        and O19        Dist= 4.23D+00.
 Add virtual bond connecting atoms H38        and O19        Dist= 4.22D+00.
 Add virtual bond connecting atoms O84        and Na83       Dist= 4.43D+00.
 Add virtual bond connecting atoms H87        and O19        Dist= 4.18D+00.
 Add virtual bond connecting atoms H87        and H38        Dist= 4.44D+00.
 Add virtual bond connecting atoms H91        and H49        Dist= 4.48D+00.
 The following ModRedundant input section has been read:
 
 ITRead=  0  0  0  0  0  0  0  0  0  0  0  0  0  0  0  0  0  0  0  0
 ITRead=  0  0  0  0  0  0  0  0  0  0  0  0  0  0  0  0  0  0  0  0
 ITRead=  0  0  0  0  0  0  0  0  0  0  0  0  0  0  0  0  0  0  0  0
 ITRead=  0  0  0  0  0  0  0  0  0  0  0  0  0  0  0  0  0  0  0  0
 ITRead=  0  0  0  0  0  0  0  0  0  0  0  0  0  0  0  0  0  0  0  0
 MicOpt= -1 -1 -1 -1 -1 -1 -1 -1 -1 -1 -1 -1 -1 -1 -1 -1 -1 -1 -1 -1
 MicOpt= -1 -1 -1 -1 -1 -1 -1 -1 -1 -1 -1 -1 -1 -1 -1 -1 -1 -1 -1 -1
 MicOpt= -1 -1 -1 -1 -1 -1 -1 -1 -1 -1 -1 -1 -1 -1 -1 -1 -1 -1 -1 -1
 MicOpt= -1 -1 -1 -1 -1 -1 -1 -1 -1 -1 -1 -1 -1 -1 -1 -1 -1 -1 -1 -1
 MicOpt= -1 -1 -1 -1 -1 -1 -1 -1 -1 -1 -1 -1 -1 -1 -1 -1 -1 -1 -1 -1
 NAtoms=    100 NQM=      100 NQMF=       0 NMMI=      0 NMMIF=      0
                NMic=       0 NMicF=      0.
                    Isotopes and Nuclear Properties:
 (Nuclear quadrupole moments (NQMom) in fm**2, nuclear magnetic moments (NMagM)
  in nuclear magnetons)

  Atom         1           2           3           4           5           6           7           8           9          10
 IAtWgt=          12          12          12          12          12           1           1           1           1           1
 AtmWgt=  12.0000000  12.0000000  12.0000000  12.0000000  12.0000000   1.0078250   1.0078250   1.0078250   1.0078250   1.0078250
 NucSpn=           0           0           0           0           0           1           1           1           1           1
 AtZEff=   0.0000000   0.0000000   0.0000000   0.0000000   0.0000000   0.0000000   0.0000000   0.0000000   0.0000000   0.0000000
 NQMom=    0.0000000   0.0000000   0.0000000   0.0000000   0.0000000   0.0000000   0.0000000   0.0000000   0.0000000   0.0000000
 NMagM=    0.0000000   0.0000000   0.0000000   0.0000000   0.0000000   2.7928460   2.7928460   2.7928460   2.7928460   2.7928460
 AtZNuc=   6.0000000   6.0000000   6.0000000   6.0000000   6.0000000   1.0000000   1.0000000   1.0000000   1.0000000   1.0000000

  Atom        11          12          13          14          15          16          17          18          19          20
 IAtWgt=          16          16          16          16          16          12           1           1          16          12
 AtmWgt=  15.9949146  15.9949146  15.9949146  15.9949146  15.9949146  12.0000000   1.0078250   1.0078250  15.9949146  12.0000000
 NucSpn=           0           0           0           0           0           0           1           1           0           0
 AtZEff=   0.0000000   0.0000000   0.0000000   0.0000000   0.0000000   0.0000000   0.0000000   0.0000000   0.0000000   0.0000000
 NQMom=    0.0000000   0.0000000   0.0000000   0.0000000   0.0000000   0.0000000   0.0000000   0.0000000   0.0000000   0.0000000
 NMagM=    0.0000000   0.0000000   0.0000000   0.0000000   0.0000000   0.0000000   2.7928460   2.7928460   0.0000000   0.0000000
 AtZNuc=   8.0000000   8.0000000   8.0000000   8.0000000   8.0000000   6.0000000   1.0000000   1.0000000   8.0000000   6.0000000

  Atom        21          22          23          24          25          26          27          28          29          30
 IAtWgt=           1           1           1          12           1           1           1          12           1           1
 AtmWgt=   1.0078250   1.0078250   1.0078250  12.0000000   1.0078250   1.0078250   1.0078250  12.0000000   1.0078250   1.0078250
 NucSpn=           1           1           1           0           1           1           1           0           1           1
 AtZEff=   0.0000000   0.0000000   0.0000000   0.0000000   0.0000000   0.0000000   0.0000000   0.0000000   0.0000000   0.0000000
 NQMom=    0.0000000   0.0000000   0.0000000   0.0000000   0.0000000   0.0000000   0.0000000   0.0000000   0.0000000   0.0000000
 NMagM=    2.7928460   2.7928460   2.7928460   0.0000000   2.7928460   2.7928460   2.7928460   0.0000000   2.7928460   2.7928460
 AtZNuc=   1.0000000   1.0000000   1.0000000   6.0000000   1.0000000   1.0000000   1.0000000   6.0000000   1.0000000   1.0000000

  Atom        31          32          33          34          35          36          37          38          39          40
 IAtWgt=           1          12          12          12          12          12           1           1           1           1
 AtmWgt=   1.0078250  12.0000000  12.0000000  12.0000000  12.0000000  12.0000000   1.0078250   1.0078250   1.0078250   1.0078250
 NucSpn=           1           0           0           0           0           0           1           1           1           1
 AtZEff=   0.0000000   0.0000000   0.0000000   0.0000000   0.0000000   0.0000000   0.0000000   0.0000000   0.0000000   0.0000000
 NQMom=    0.0000000   0.0000000   0.0000000   0.0000000   0.0000000   0.0000000   0.0000000   0.0000000   0.0000000   0.0000000
 NMagM=    2.7928460   0.0000000   0.0000000   0.0000000   0.0000000   0.0000000   2.7928460   2.7928460   2.7928460   2.7928460
 AtZNuc=   1.0000000   6.0000000   6.0000000   6.0000000   6.0000000   6.0000000   1.0000000   1.0000000   1.0000000   1.0000000

  Atom        41          42          43          44          45          46          47          48          49          50
 IAtWgt=           1          16          16          16          16          16          12           1           1          16
 AtmWgt=   1.0078250  15.9949146  15.9949146  15.9949146  15.9949146  15.9949146  12.0000000   1.0078250   1.0078250  15.9949146
 NucSpn=           1           0           0           0           0           0           0           1           1           0
 AtZEff=   0.0000000   0.0000000   0.0000000   0.0000000   0.0000000   0.0000000   0.0000000   0.0000000   0.0000000   0.0000000
 NQMom=    0.0000000   0.0000000   0.0000000   0.0000000   0.0000000   0.0000000   0.0000000   0.0000000   0.0000000   0.0000000
 NMagM=    2.7928460   0.0000000   0.0000000   0.0000000   0.0000000   0.0000000   0.0000000   2.7928460   2.7928460   0.0000000
 AtZNuc=   1.0000000   8.0000000   8.0000000   8.0000000   8.0000000   8.0000000   6.0000000   1.0000000   1.0000000   8.0000000

  Atom        51          52          53          54          55          56          57          58          59          60
 IAtWgt=          32          16          16          12          12          12          12           1          12           1
 AtmWgt=  31.9720718  15.9949146  15.9949146  12.0000000  12.0000000  12.0000000  12.0000000   1.0078250  12.0000000   1.0078250
 NucSpn=           0           0           0           0           0           0           0           1           0           1
 AtZEff=   0.0000000   0.0000000   0.0000000   0.0000000   0.0000000   0.0000000   0.0000000   0.0000000   0.0000000   0.0000000
 NQMom=    0.0000000   0.0000000   0.0000000   0.0000000   0.0000000   0.0000000   0.0000000   0.0000000   0.0000000   0.0000000
 NMagM=    0.0000000   0.0000000   0.0000000   0.0000000   0.0000000   0.0000000   0.0000000   2.7928460   0.0000000   2.7928460
 AtZNuc=  16.0000000   8.0000000   8.0000000   6.0000000   6.0000000   6.0000000   6.0000000   1.0000000   6.0000000   1.0000000

  Atom        61          62          63          64          65          66          67          68          69          70
 IAtWgt=          12           1          12           1           1           1          12           1           1           1
 AtmWgt=  12.0000000   1.0078250  12.0000000   1.0078250   1.0078250   1.0078250  12.0000000   1.0078250   1.0078250   1.0078250
 NucSpn=           0           1           0           1           1           1           0           1           1           1
 AtZEff=   0.0000000   0.0000000   0.0000000   0.0000000   0.0000000   0.0000000   0.0000000   0.0000000   0.0000000   0.0000000
 NQMom=    0.0000000   0.0000000   0.0000000   0.0000000   0.0000000   0.0000000   0.0000000   0.0000000   0.0000000   0.0000000
 NMagM=    0.0000000   2.7928460   0.0000000   2.7928460   2.7928460   2.7928460   0.0000000   2.7928460   2.7928460   2.7928460
 AtZNuc=   6.0000000   1.0000000   6.0000000   1.0000000   1.0000000   1.0000000   6.0000000   1.0000000   1.0000000   1.0000000

  Atom        71          72          73          74          75          76          77          78          79          80
 IAtWgt=          12           1           1           1          12           1           1           1          12           1
 AtmWgt=  12.0000000   1.0078250   1.0078250   1.0078250  12.0000000   1.0078250   1.0078250   1.0078250  12.0000000   1.0078250
 NucSpn=           0           1           1           1           0           1           1           1           0           1
 AtZEff=   0.0000000   0.0000000   0.0000000   0.0000000   0.0000000   0.0000000   0.0000000   0.0000000   0.0000000   0.0000000
 NQMom=    0.0000000   0.0000000   0.0000000   0.0000000   0.0000000   0.0000000   0.0000000   0.0000000   0.0000000   0.0000000
 NMagM=    0.0000000   2.7928460   2.7928460   2.7928460   0.0000000   2.7928460   2.7928460   2.7928460   0.0000000   2.7928460
 AtZNuc=   6.0000000   1.0000000   1.0000000   1.0000000   6.0000000   1.0000000   1.0000000   1.0000000   6.0000000   1.0000000

  Atom        81          82          83          84          85          86          87          88          89          90
 IAtWgt=           1           1          23          16          12           1           1           1          12           1
 AtmWgt=   1.0078250   1.0078250  22.9897697  15.9949146  12.0000000   1.0078250   1.0078250   1.0078250  12.0000000   1.0078250
 NucSpn=           1           1           3           0           0           1           1           1           0           1
 AtZEff=   0.0000000   0.0000000   0.0000000   0.0000000   0.0000000   0.0000000   0.0000000   0.0000000   0.0000000   0.0000000
 NQMom=    0.0000000   0.0000000  10.4000000   0.0000000   0.0000000   0.0000000   0.0000000   0.0000000   0.0000000   0.0000000
 NMagM=    2.7928460   2.7928460   2.2175200   0.0000000   0.0000000   2.7928460   2.7928460   2.7928460   0.0000000   2.7928460
 AtZNuc=   1.0000000   1.0000000  11.0000000   8.0000000   6.0000000   1.0000000   1.0000000   1.0000000   6.0000000   1.0000000

  Atom        91          92          93          94          95          96          97          98          99         100
 IAtWgt=           1           1          12          19          19          19          12          19          19          19
 AtmWgt=   1.0078250   1.0078250  12.0000000  18.9984033  18.9984033  18.9984033  12.0000000  18.9984033  18.9984033  18.9984033
 NucSpn=           1           1           0           1           1           1           0           1           1           1
 AtZEff=   0.0000000   0.0000000   0.0000000   0.0000000   0.0000000   0.0000000   0.0000000   0.0000000   0.0000000   0.0000000
 NQMom=    0.0000000   0.0000000   0.0000000   0.0000000   0.0000000   0.0000000   0.0000000   0.0000000   0.0000000   0.0000000
 NMagM=    2.7928460   2.7928460   0.0000000   2.6288670   2.6288670   2.6288670   0.0000000   2.6288670   2.6288670   2.6288670
 AtZNuc=   1.0000000   1.0000000   6.0000000   9.0000000   9.0000000   9.0000000   6.0000000   9.0000000   9.0000000   9.0000000
 Leave Link  101 at Wed May  8 08:01:03 2019, MaxMem=  6442450944 cpu:             349.5 elap:              18.4
 (Enter /home/ekwan/sw/g16/l103.exe)

 GradGradGradGradGradGradGradGradGradGradGradGradGradGradGradGradGradGrad
 Berny optimization.
 Initialization pass.
                           ----------------------------
                           !    Initial Parameters    !
                           ! (Angstroms and Degrees)  !
 --------------------------                            --------------------------
 ! Name  Definition              Value          Derivative Info.                !
 --------------------------------------------------------------------------------
 ! R1    R(1,2)                  1.5295         calculate D2E/DX2 analytically  !
 ! R2    R(1,5)                  1.5399         calculate D2E/DX2 analytically  !
 ! R3    R(1,8)                  1.0983         calculate D2E/DX2 analytically  !
 ! R4    R(1,14)                 1.4253         calculate D2E/DX2 analytically  !
 ! R5    R(2,3)                  1.5288         calculate D2E/DX2 analytically  !
 ! R6    R(2,7)                  1.0974         calculate D2E/DX2 analytically  !
 ! R7    R(2,13)                 1.4172         calculate D2E/DX2 analytically  !
 ! R8    R(3,6)                  1.0984         calculate D2E/DX2 analytically  !
 ! R9    R(3,11)                 1.4098         calculate D2E/DX2 analytically  !
 ! R10   R(3,12)                 1.4024         calculate D2E/DX2 analytically  !
 ! R11   R(4,5)                  1.5428         calculate D2E/DX2 analytically  !
 ! R12   R(4,9)                  1.0992         calculate D2E/DX2 analytically  !
 ! R13   R(4,11)                 1.4346         calculate D2E/DX2 analytically  !
 ! R14   R(4,16)                 1.5461         calculate D2E/DX2 analytically  !
 ! R15   R(5,10)                 1.0993         calculate D2E/DX2 analytically  !
 ! R16   R(5,15)                 1.4351         calculate D2E/DX2 analytically  !
 ! R17   R(12,79)                1.4239         calculate D2E/DX2 analytically  !
 ! R18   R(13,20)                1.4191         calculate D2E/DX2 analytically  !
 ! R19   R(14,24)                1.4212         calculate D2E/DX2 analytically  !
 ! R20   R(15,28)                1.4336         calculate D2E/DX2 analytically  !
 ! R21   R(16,17)                1.1108         calculate D2E/DX2 analytically  !
 ! R22   R(16,18)                1.1139         calculate D2E/DX2 analytically  !
 ! R23   R(16,19)                1.3691         calculate D2E/DX2 analytically  !
 ! R24   R(18,37)                2.1204         calculate D2E/DX2 analytically  !
 ! R25   R(19,37)                2.2371         calculate D2E/DX2 analytically  !
 ! R26   R(19,38)                2.2308         calculate D2E/DX2 analytically  !
 ! R27   R(19,83)                2.1453         calculate D2E/DX2 analytically  !
 ! R28   R(19,87)                2.2111         calculate D2E/DX2 analytically  !
 ! R29   R(20,21)                1.0985         calculate D2E/DX2 analytically  !
 ! R30   R(20,22)                1.0981         calculate D2E/DX2 analytically  !
 ! R31   R(20,23)                1.0926         calculate D2E/DX2 analytically  !
 ! R32   R(24,25)                1.1            calculate D2E/DX2 analytically  !
 ! R33   R(24,26)                1.0928         calculate D2E/DX2 analytically  !
 ! R34   R(24,27)                1.0917         calculate D2E/DX2 analytically  !
 ! R35   R(28,29)                1.093          calculate D2E/DX2 analytically  !
 ! R36   R(28,30)                1.0923         calculate D2E/DX2 analytically  !
 ! R37   R(28,31)                1.0943         calculate D2E/DX2 analytically  !
 ! R38   R(32,33)                1.5266         calculate D2E/DX2 analytically  !
 ! R39   R(32,36)                1.5311         calculate D2E/DX2 analytically  !
 ! R40   R(32,39)                1.0944         calculate D2E/DX2 analytically  !
 ! R41   R(32,45)                1.4206         calculate D2E/DX2 analytically  !
 ! R42   R(33,34)                1.5084         calculate D2E/DX2 analytically  !
 ! R43   R(33,38)                1.0928         calculate D2E/DX2 analytically  !
 ! R44   R(33,44)                1.4157         calculate D2E/DX2 analytically  !
 ! R45   R(34,37)                1.0741         calculate D2E/DX2 analytically  !
 ! R46   R(34,42)                1.3177         calculate D2E/DX2 analytically  !
 ! R47   R(34,53)                1.9805         calculate D2E/DX2 analytically  !
 ! R48   R(35,36)                1.5305         calculate D2E/DX2 analytically  !
 ! R49   R(35,40)                1.0909         calculate D2E/DX2 analytically  !
 ! R50   R(35,42)                1.4645         calculate D2E/DX2 analytically  !
 ! R51   R(35,47)                1.5337         calculate D2E/DX2 analytically  !
 ! R52   R(36,41)                1.0969         calculate D2E/DX2 analytically  !
 ! R53   R(36,46)                1.4183         calculate D2E/DX2 analytically  !
 ! R54   R(38,87)                2.3499         calculate D2E/DX2 analytically  !
 ! R55   R(43,51)                1.4773         calculate D2E/DX2 analytically  !
 ! R56   R(44,63)                1.428          calculate D2E/DX2 analytically  !
 ! R57   R(45,67)                1.4226         calculate D2E/DX2 analytically  !
 ! R58   R(46,71)                1.4215         calculate D2E/DX2 analytically  !
 ! R59   R(47,48)                1.1018         calculate D2E/DX2 analytically  !
 ! R60   R(47,49)                1.0926         calculate D2E/DX2 analytically  !
 ! R61   R(47,50)                1.4065         calculate D2E/DX2 analytically  !
 ! R62   R(49,91)                2.3684         calculate D2E/DX2 analytically  !
 ! R63   R(50,75)                1.4234         calculate D2E/DX2 analytically  !
 ! R64   R(51,52)                1.4739         calculate D2E/DX2 analytically  !
 ! R65   R(51,53)                1.5335         calculate D2E/DX2 analytically  !
 ! R66   R(51,54)                1.7984         calculate D2E/DX2 analytically  !
 ! R67   R(54,55)                1.3942         calculate D2E/DX2 analytically  !
 ! R68   R(54,56)                1.3928         calculate D2E/DX2 analytically  !
 ! R69   R(55,57)                1.3919         calculate D2E/DX2 analytically  !
 ! R70   R(55,58)                1.0824         calculate D2E/DX2 analytically  !
 ! R71   R(56,59)                1.3963         calculate D2E/DX2 analytically  !
 ! R72   R(56,60)                1.0846         calculate D2E/DX2 analytically  !
 ! R73   R(57,61)                1.3964         calculate D2E/DX2 analytically  !
 ! R74   R(57,93)                1.5041         calculate D2E/DX2 analytically  !
 ! R75   R(59,61)                1.3936         calculate D2E/DX2 analytically  !
 ! R76   R(59,97)                1.5044         calculate D2E/DX2 analytically  !
 ! R77   R(61,62)                1.084          calculate D2E/DX2 analytically  !
 ! R78   R(63,64)                1.0947         calculate D2E/DX2 analytically  !
 ! R79   R(63,65)                1.0969         calculate D2E/DX2 analytically  !
 ! R80   R(63,66)                1.0913         calculate D2E/DX2 analytically  !
 ! R81   R(67,68)                1.0986         calculate D2E/DX2 analytically  !
 ! R82   R(67,69)                1.096          calculate D2E/DX2 analytically  !
 ! R83   R(67,70)                1.0929         calculate D2E/DX2 analytically  !
 ! R84   R(71,72)                1.0968         calculate D2E/DX2 analytically  !
 ! R85   R(71,73)                1.0966         calculate D2E/DX2 analytically  !
 ! R86   R(71,74)                1.0928         calculate D2E/DX2 analytically  !
 ! R87   R(75,76)                1.0924         calculate D2E/DX2 analytically  !
 ! R88   R(75,77)                1.0995         calculate D2E/DX2 analytically  !
 ! R89   R(75,78)                1.0954         calculate D2E/DX2 analytically  !
 ! R90   R(79,80)                1.0918         calculate D2E/DX2 analytically  !
 ! R91   R(79,81)                1.0962         calculate D2E/DX2 analytically  !
 ! R92   R(79,82)                1.0991         calculate D2E/DX2 analytically  !
 ! R93   R(83,84)                2.3422         calculate D2E/DX2 analytically  !
 ! R94   R(84,85)                1.4312         calculate D2E/DX2 analytically  !
 ! R95   R(84,89)                1.4221         calculate D2E/DX2 analytically  !
 ! R96   R(85,86)                1.0988         calculate D2E/DX2 analytically  !
 ! R97   R(85,87)                1.0925         calculate D2E/DX2 analytically  !
 ! R98   R(85,88)                1.0984         calculate D2E/DX2 analytically  !
 ! R99   R(89,90)                1.0981         calculate D2E/DX2 analytically  !
 ! R100  R(89,91)                1.0923         calculate D2E/DX2 analytically  !
 ! R101  R(89,92)                1.0986         calculate D2E/DX2 analytically  !
 ! R102  R(93,94)                1.3552         calculate D2E/DX2 analytically  !
 ! R103  R(93,95)                1.354          calculate D2E/DX2 analytically  !
 ! R104  R(93,96)                1.3465         calculate D2E/DX2 analytically  !
 ! R105  R(97,98)                1.3502         calculate D2E/DX2 analytically  !
 ! R106  R(97,99)                1.3517         calculate D2E/DX2 analytically  !
 ! R107  R(97,100)               1.3542         calculate D2E/DX2 analytically  !
 ! A1    A(2,1,5)              112.8237         calculate D2E/DX2 analytically  !
 ! A2    A(2,1,8)              108.2487         calculate D2E/DX2 analytically  !
 ! A3    A(2,1,14)             110.8506         calculate D2E/DX2 analytically  !
 ! A4    A(5,1,8)              108.3073         calculate D2E/DX2 analytically  !
 ! A5    A(5,1,14)             106.3704         calculate D2E/DX2 analytically  !
 ! A6    A(8,1,14)             110.2058         calculate D2E/DX2 analytically  !
 ! A7    A(1,2,3)              110.5165         calculate D2E/DX2 analytically  !
 ! A8    A(1,2,7)              108.4761         calculate D2E/DX2 analytically  !
 ! A9    A(1,2,13)             107.7205         calculate D2E/DX2 analytically  !
 ! A10   A(3,2,7)              106.8008         calculate D2E/DX2 analytically  !
 ! A11   A(3,2,13)             113.066          calculate D2E/DX2 analytically  !
 ! A12   A(7,2,13)             110.1897         calculate D2E/DX2 analytically  !
 ! A13   A(2,3,6)              111.5969         calculate D2E/DX2 analytically  !
 ! A14   A(2,3,11)             108.6976         calculate D2E/DX2 analytically  !
 ! A15   A(2,3,12)             108.5444         calculate D2E/DX2 analytically  !
 ! A16   A(6,3,11)             104.3846         calculate D2E/DX2 analytically  !
 ! A17   A(6,3,12)             110.1574         calculate D2E/DX2 analytically  !
 ! A18   A(11,3,12)            113.4564         calculate D2E/DX2 analytically  !
 ! A19   A(5,4,9)              107.8559         calculate D2E/DX2 analytically  !
 ! A20   A(5,4,11)             111.6963         calculate D2E/DX2 analytically  !
 ! A21   A(5,4,16)             113.9036         calculate D2E/DX2 analytically  !
 ! A22   A(9,4,11)             109.4507         calculate D2E/DX2 analytically  !
 ! A23   A(9,4,16)             109.7774         calculate D2E/DX2 analytically  !
 ! A24   A(11,4,16)            104.0881         calculate D2E/DX2 analytically  !
 ! A25   A(1,5,4)              114.5384         calculate D2E/DX2 analytically  !
 ! A26   A(1,5,10)             106.9389         calculate D2E/DX2 analytically  !
 ! A27   A(1,5,15)             110.5804         calculate D2E/DX2 analytically  !
 ! A28   A(4,5,10)             109.1222         calculate D2E/DX2 analytically  !
 ! A29   A(4,5,15)             106.5138         calculate D2E/DX2 analytically  !
 ! A30   A(10,5,15)            109.0651         calculate D2E/DX2 analytically  !
 ! A31   A(3,11,4)             115.1477         calculate D2E/DX2 analytically  !
 ! A32   A(3,12,79)            113.1759         calculate D2E/DX2 analytically  !
 ! A33   A(2,13,20)            114.1313         calculate D2E/DX2 analytically  !
 ! A34   A(1,14,24)            115.5847         calculate D2E/DX2 analytically  !
 ! A35   A(5,15,28)            116.1047         calculate D2E/DX2 analytically  !
 ! A36   A(4,16,17)            104.9208         calculate D2E/DX2 analytically  !
 ! A37   A(4,16,18)            104.958          calculate D2E/DX2 analytically  !
 ! A38   A(4,16,19)            115.6456         calculate D2E/DX2 analytically  !
 ! A39   A(17,16,18)           104.4768         calculate D2E/DX2 analytically  !
 ! A40   A(17,16,19)           113.0499         calculate D2E/DX2 analytically  !
 ! A41   A(18,16,19)           112.7562         calculate D2E/DX2 analytically  !
 ! A42   A(16,18,37)            97.2329         calculate D2E/DX2 analytically  !
 ! A43   A(16,19,37)            84.8703         calculate D2E/DX2 analytically  !
 ! A44   A(16,19,38)           122.0664         calculate D2E/DX2 analytically  !
 ! A45   A(16,19,83)           124.6989         calculate D2E/DX2 analytically  !
 ! A46   A(16,19,87)           134.4997         calculate D2E/DX2 analytically  !
 ! A47   A(37,19,38)            72.5803         calculate D2E/DX2 analytically  !
 ! A48   A(37,19,83)            98.6348         calculate D2E/DX2 analytically  !
 ! A49   A(37,19,87)           132.3203         calculate D2E/DX2 analytically  !
 ! A50   A(38,19,83)           111.2828         calculate D2E/DX2 analytically  !
 ! A51   A(83,19,87)            80.6428         calculate D2E/DX2 analytically  !
 ! A52   A(13,20,21)           112.1622         calculate D2E/DX2 analytically  !
 ! A53   A(13,20,22)           111.2862         calculate D2E/DX2 analytically  !
 ! A54   A(13,20,23)           106.6865         calculate D2E/DX2 analytically  !
 ! A55   A(21,20,22)           108.9142         calculate D2E/DX2 analytically  !
 ! A56   A(21,20,23)           108.6051         calculate D2E/DX2 analytically  !
 ! A57   A(22,20,23)           109.0956         calculate D2E/DX2 analytically  !
 ! A58   A(14,24,25)           110.9012         calculate D2E/DX2 analytically  !
 ! A59   A(14,24,26)           111.5335         calculate D2E/DX2 analytically  !
 ! A60   A(14,24,27)           106.3764         calculate D2E/DX2 analytically  !
 ! A61   A(25,24,26)           109.0289         calculate D2E/DX2 analytically  !
 ! A62   A(25,24,27)           109.136          calculate D2E/DX2 analytically  !
 ! A63   A(26,24,27)           109.8133         calculate D2E/DX2 analytically  !
 ! A64   A(15,28,29)           111.4047         calculate D2E/DX2 analytically  !
 ! A65   A(15,28,30)           111.4261         calculate D2E/DX2 analytically  !
 ! A66   A(15,28,31)           106.345          calculate D2E/DX2 analytically  !
 ! A67   A(29,28,30)           109.8074         calculate D2E/DX2 analytically  !
 ! A68   A(29,28,31)           108.8892         calculate D2E/DX2 analytically  !
 ! A69   A(30,28,31)           108.8513         calculate D2E/DX2 analytically  !
 ! A70   A(33,32,36)           111.0042         calculate D2E/DX2 analytically  !
 ! A71   A(33,32,39)           109.4287         calculate D2E/DX2 analytically  !
 ! A72   A(33,32,45)           109.4384         calculate D2E/DX2 analytically  !
 ! A73   A(36,32,39)           108.3143         calculate D2E/DX2 analytically  !
 ! A74   A(36,32,45)           107.825          calculate D2E/DX2 analytically  !
 ! A75   A(39,32,45)           110.8185         calculate D2E/DX2 analytically  !
 ! A76   A(32,33,34)           111.9618         calculate D2E/DX2 analytically  !
 ! A77   A(32,33,38)           108.4202         calculate D2E/DX2 analytically  !
 ! A78   A(32,33,44)           111.627          calculate D2E/DX2 analytically  !
 ! A79   A(34,33,38)           103.4226         calculate D2E/DX2 analytically  !
 ! A80   A(34,33,44)           110.8246         calculate D2E/DX2 analytically  !
 ! A81   A(38,33,44)           110.2505         calculate D2E/DX2 analytically  !
 ! A82   A(33,34,37)           120.7437         calculate D2E/DX2 analytically  !
 ! A83   A(33,34,42)           120.3546         calculate D2E/DX2 analytically  !
 ! A84   A(33,34,53)            93.788          calculate D2E/DX2 analytically  !
 ! A85   A(37,34,42)           115.1692         calculate D2E/DX2 analytically  !
 ! A86   A(37,34,53)            94.5074         calculate D2E/DX2 analytically  !
 ! A87   A(42,34,53)           101.1624         calculate D2E/DX2 analytically  !
 ! A88   A(36,35,40)           109.3238         calculate D2E/DX2 analytically  !
 ! A89   A(36,35,42)           111.4662         calculate D2E/DX2 analytically  !
 ! A90   A(36,35,47)           115.5599         calculate D2E/DX2 analytically  !
 ! A91   A(40,35,42)           105.5889         calculate D2E/DX2 analytically  !
 ! A92   A(40,35,47)           111.4345         calculate D2E/DX2 analytically  !
 ! A93   A(42,35,47)           102.896          calculate D2E/DX2 analytically  !
 ! A94   A(32,36,35)           111.5153         calculate D2E/DX2 analytically  !
 ! A95   A(32,36,41)           109.0825         calculate D2E/DX2 analytically  !
 ! A96   A(32,36,46)           108.1339         calculate D2E/DX2 analytically  !
 ! A97   A(35,36,41)           108.971          calculate D2E/DX2 analytically  !
 ! A98   A(35,36,46)           108.1352         calculate D2E/DX2 analytically  !
 ! A99   A(41,36,46)           111.0107         calculate D2E/DX2 analytically  !
 ! A100  A(18,37,19)            56.7201         calculate D2E/DX2 analytically  !
 ! A101  A(18,37,34)           131.4045         calculate D2E/DX2 analytically  !
 ! A102  A(19,37,34)            85.9719         calculate D2E/DX2 analytically  !
 ! A103  A(19,38,33)           111.2391         calculate D2E/DX2 analytically  !
 ! A104  A(33,38,87)           156.0032         calculate D2E/DX2 analytically  !
 ! A105  A(34,42,35)           118.4808         calculate D2E/DX2 analytically  !
 ! A106  A(33,44,63)           114.1492         calculate D2E/DX2 analytically  !
 ! A107  A(32,45,67)           113.8839         calculate D2E/DX2 analytically  !
 ! A108  A(36,46,71)           114.2554         calculate D2E/DX2 analytically  !
 ! A109  A(35,47,48)           107.6238         calculate D2E/DX2 analytically  !
 ! A110  A(35,47,49)           108.4483         calculate D2E/DX2 analytically  !
 ! A111  A(35,47,50)           115.1346         calculate D2E/DX2 analytically  !
 ! A112  A(48,47,49)           108.705          calculate D2E/DX2 analytically  !
 ! A113  A(48,47,50)           111.0196         calculate D2E/DX2 analytically  !
 ! A114  A(49,47,50)           105.7346         calculate D2E/DX2 analytically  !
 ! A115  A(47,49,91)           155.9073         calculate D2E/DX2 analytically  !
 ! A116  A(47,50,75)           114.1111         calculate D2E/DX2 analytically  !
 ! A117  A(43,51,52)           116.3454         calculate D2E/DX2 analytically  !
 ! A118  A(43,51,53)           112.6705         calculate D2E/DX2 analytically  !
 ! A119  A(43,51,54)           106.0872         calculate D2E/DX2 analytically  !
 ! A120  A(52,51,53)           109.8339         calculate D2E/DX2 analytically  !
 ! A121  A(52,51,54)           107.4899         calculate D2E/DX2 analytically  !
 ! A122  A(53,51,54)           103.382          calculate D2E/DX2 analytically  !
 ! A123  A(34,53,51)           118.7104         calculate D2E/DX2 analytically  !
 ! A124  A(51,54,55)           118.8258         calculate D2E/DX2 analytically  !
 ! A125  A(51,54,56)           119.8217         calculate D2E/DX2 analytically  !
 ! A126  A(55,54,56)           121.3135         calculate D2E/DX2 analytically  !
 ! A127  A(54,55,57)           119.0437         calculate D2E/DX2 analytically  !
 ! A128  A(54,55,58)           120.2652         calculate D2E/DX2 analytically  !
 ! A129  A(57,55,58)           120.6843         calculate D2E/DX2 analytically  !
 ! A130  A(54,56,59)           118.845          calculate D2E/DX2 analytically  !
 ! A131  A(54,56,60)           120.0597         calculate D2E/DX2 analytically  !
 ! A132  A(59,56,60)           121.0741         calculate D2E/DX2 analytically  !
 ! A133  A(55,57,61)           120.5939         calculate D2E/DX2 analytically  !
 ! A134  A(55,57,93)           120.5838         calculate D2E/DX2 analytically  !
 ! A135  A(61,57,93)           118.7741         calculate D2E/DX2 analytically  !
 ! A136  A(56,59,61)           120.6839         calculate D2E/DX2 analytically  !
 ! A137  A(56,59,97)           119.3648         calculate D2E/DX2 analytically  !
 ! A138  A(61,59,97)           119.9171         calculate D2E/DX2 analytically  !
 ! A139  A(57,61,59)           119.5056         calculate D2E/DX2 analytically  !
 ! A140  A(57,61,62)           120.2668         calculate D2E/DX2 analytically  !
 ! A141  A(59,61,62)           120.2276         calculate D2E/DX2 analytically  !
 ! A142  A(44,63,64)           111.4724         calculate D2E/DX2 analytically  !
 ! A143  A(44,63,65)           110.8348         calculate D2E/DX2 analytically  !
 ! A144  A(44,63,66)           106.1596         calculate D2E/DX2 analytically  !
 ! A145  A(64,63,65)           109.5313         calculate D2E/DX2 analytically  !
 ! A146  A(64,63,66)           109.1425         calculate D2E/DX2 analytically  !
 ! A147  A(65,63,66)           109.6274         calculate D2E/DX2 analytically  !
 ! A148  A(45,67,68)           111.0399         calculate D2E/DX2 analytically  !
 ! A149  A(45,67,69)           111.4695         calculate D2E/DX2 analytically  !
 ! A150  A(45,67,70)           106.643          calculate D2E/DX2 analytically  !
 ! A151  A(68,67,69)           109.0744         calculate D2E/DX2 analytically  !
 ! A152  A(68,67,70)           109.1172         calculate D2E/DX2 analytically  !
 ! A153  A(69,67,70)           109.4398         calculate D2E/DX2 analytically  !
 ! A154  A(46,71,72)           110.9077         calculate D2E/DX2 analytically  !
 ! A155  A(46,71,73)           110.9961         calculate D2E/DX2 analytically  !
 ! A156  A(46,71,74)           106.4798         calculate D2E/DX2 analytically  !
 ! A157  A(72,71,73)           110.0918         calculate D2E/DX2 analytically  !
 ! A158  A(72,71,74)           109.2578         calculate D2E/DX2 analytically  !
 ! A159  A(73,71,74)           109.013          calculate D2E/DX2 analytically  !
 ! A160  A(50,75,76)           106.5801         calculate D2E/DX2 analytically  !
 ! A161  A(50,75,77)           111.0396         calculate D2E/DX2 analytically  !
 ! A162  A(50,75,78)           111.3637         calculate D2E/DX2 analytically  !
 ! A163  A(76,75,77)           109.1817         calculate D2E/DX2 analytically  !
 ! A164  A(76,75,78)           109.0689         calculate D2E/DX2 analytically  !
 ! A165  A(77,75,78)           109.5283         calculate D2E/DX2 analytically  !
 ! A166  A(12,79,80)           106.7659         calculate D2E/DX2 analytically  !
 ! A167  A(12,79,81)           111.5179         calculate D2E/DX2 analytically  !
 ! A168  A(12,79,82)           110.8211         calculate D2E/DX2 analytically  !
 ! A169  A(80,79,81)           109.5606         calculate D2E/DX2 analytically  !
 ! A170  A(80,79,82)           109.3408         calculate D2E/DX2 analytically  !
 ! A171  A(81,79,82)           108.7974         calculate D2E/DX2 analytically  !
 ! A172  A(19,83,84)            94.0916         calculate D2E/DX2 analytically  !
 ! A173  A(83,84,85)           111.0158         calculate D2E/DX2 analytically  !
 ! A174  A(83,84,89)           135.6707         calculate D2E/DX2 analytically  !
 ! A175  A(85,84,89)           112.363          calculate D2E/DX2 analytically  !
 ! A176  A(84,85,86)           110.4727         calculate D2E/DX2 analytically  !
 ! A177  A(84,85,87)           106.0658         calculate D2E/DX2 analytically  !
 ! A178  A(84,85,88)           110.3505         calculate D2E/DX2 analytically  !
 ! A179  A(86,85,87)           110.3088         calculate D2E/DX2 analytically  !
 ! A180  A(86,85,88)           108.9583         calculate D2E/DX2 analytically  !
 ! A181  A(87,85,88)           110.6675         calculate D2E/DX2 analytically  !
 ! A182  A(19,87,85)           143.8003         calculate D2E/DX2 analytically  !
 ! A183  A(38,87,85)           117.7496         calculate D2E/DX2 analytically  !
 ! A184  A(84,89,90)           110.8483         calculate D2E/DX2 analytically  !
 ! A185  A(84,89,91)           107.5688         calculate D2E/DX2 analytically  !
 ! A186  A(84,89,92)           110.8209         calculate D2E/DX2 analytically  !
 ! A187  A(90,89,91)           109.3347         calculate D2E/DX2 analytically  !
 ! A188  A(90,89,92)           108.9697         calculate D2E/DX2 analytically  !
 ! A189  A(91,89,92)           109.2665         calculate D2E/DX2 analytically  !
 ! A190  A(49,91,89)            99.9738         calculate D2E/DX2 analytically  !
 ! A191  A(57,93,94)           110.7764         calculate D2E/DX2 analytically  !
 ! A192  A(57,93,95)           112.1377         calculate D2E/DX2 analytically  !
 ! A193  A(57,93,96)           112.5963         calculate D2E/DX2 analytically  !
 ! A194  A(94,93,95)           106.198          calculate D2E/DX2 analytically  !
 ! A195  A(94,93,96)           107.1516         calculate D2E/DX2 analytically  !
 ! A196  A(95,93,96)           107.6386         calculate D2E/DX2 analytically  !
 ! A197  A(59,97,98)           111.8635         calculate D2E/DX2 analytically  !
 ! A198  A(59,97,99)           111.7408         calculate D2E/DX2 analytically  !
 ! A199  A(59,97,100)          111.7242         calculate D2E/DX2 analytically  !
 ! A200  A(98,97,99)           107.6223         calculate D2E/DX2 analytically  !
 ! A201  A(98,97,100)          106.8194         calculate D2E/DX2 analytically  !
 ! A202  A(99,97,100)          106.7693         calculate D2E/DX2 analytically  !
 ! D1    D(5,1,2,3)            -47.188          calculate D2E/DX2 analytically  !
 ! D2    D(5,1,2,7)             69.5832         calculate D2E/DX2 analytically  !
 ! D3    D(5,1,2,13)          -171.1565         calculate D2E/DX2 analytically  !
 ! D4    D(8,1,2,3)             72.654          calculate D2E/DX2 analytically  !
 ! D5    D(8,1,2,7)           -170.5748         calculate D2E/DX2 analytically  !
 ! D6    D(8,1,2,13)           -51.3145         calculate D2E/DX2 analytically  !
 ! D7    D(14,1,2,3)          -166.365          calculate D2E/DX2 analytically  !
 ! D8    D(14,1,2,7)           -49.5938         calculate D2E/DX2 analytically  !
 ! D9    D(14,1,2,13)           69.6665         calculate D2E/DX2 analytically  !
 ! D10   D(2,1,5,4)             38.0996         calculate D2E/DX2 analytically  !
 ! D11   D(2,1,5,10)           -82.9302         calculate D2E/DX2 analytically  !
 ! D12   D(2,1,5,15)           158.4436         calculate D2E/DX2 analytically  !
 ! D13   D(8,1,5,4)            -81.7086         calculate D2E/DX2 analytically  !
 ! D14   D(8,1,5,10)           157.2615         calculate D2E/DX2 analytically  !
 ! D15   D(8,1,5,15)            38.6354         calculate D2E/DX2 analytically  !
 ! D16   D(14,1,5,4)           159.8427         calculate D2E/DX2 analytically  !
 ! D17   D(14,1,5,10)           38.8129         calculate D2E/DX2 analytically  !
 ! D18   D(14,1,5,15)          -79.8133         calculate D2E/DX2 analytically  !
 ! D19   D(2,1,14,24)          -87.9665         calculate D2E/DX2 analytically  !
 ! D20   D(5,1,14,24)          149.0429         calculate D2E/DX2 analytically  !
 ! D21   D(8,1,14,24)           31.8511         calculate D2E/DX2 analytically  !
 ! D22   D(1,2,3,6)            174.2422         calculate D2E/DX2 analytically  !
 ! D23   D(1,2,3,11)            59.6569         calculate D2E/DX2 analytically  !
 ! D24   D(1,2,3,12)           -64.1761         calculate D2E/DX2 analytically  !
 ! D25   D(7,2,3,6)             56.4384         calculate D2E/DX2 analytically  !
 ! D26   D(7,2,3,11)           -58.1469         calculate D2E/DX2 analytically  !
 ! D27   D(7,2,3,12)           178.02           calculate D2E/DX2 analytically  !
 ! D28   D(13,2,3,6)           -64.9219         calculate D2E/DX2 analytically  !
 ! D29   D(13,2,3,11)         -179.5073         calculate D2E/DX2 analytically  !
 ! D30   D(13,2,3,12)           56.6597         calculate D2E/DX2 analytically  !
 ! D31   D(1,2,13,20)         -164.675          calculate D2E/DX2 analytically  !
 ! D32   D(3,2,13,20)           72.915          calculate D2E/DX2 analytically  !
 ! D33   D(7,2,13,20)          -46.5123         calculate D2E/DX2 analytically  !
 ! D34   D(2,3,11,4)           -65.7617         calculate D2E/DX2 analytically  !
 ! D35   D(6,3,11,4)           175.0319         calculate D2E/DX2 analytically  !
 ! D36   D(12,3,11,4)           55.0925         calculate D2E/DX2 analytically  !
 ! D37   D(2,3,12,79)         -173.8097         calculate D2E/DX2 analytically  !
 ! D38   D(6,3,12,79)          -51.3501         calculate D2E/DX2 analytically  !
 ! D39   D(11,3,12,79)          65.2499         calculate D2E/DX2 analytically  !
 ! D40   D(9,4,5,1)             80.3128         calculate D2E/DX2 analytically  !
 ! D41   D(9,4,5,10)          -159.8676         calculate D2E/DX2 analytically  !
 ! D42   D(9,4,5,15)           -42.2619         calculate D2E/DX2 analytically  !
 ! D43   D(11,4,5,1)           -39.9982         calculate D2E/DX2 analytically  !
 ! D44   D(11,4,5,10)           79.8214         calculate D2E/DX2 analytically  !
 ! D45   D(11,4,5,15)         -162.5729         calculate D2E/DX2 analytically  !
 ! D46   D(16,4,5,1)          -157.5723         calculate D2E/DX2 analytically  !
 ! D47   D(16,4,5,10)          -37.7527         calculate D2E/DX2 analytically  !
 ! D48   D(16,4,5,15)           79.853          calculate D2E/DX2 analytically  !
 ! D49   D(5,4,11,3)            55.484          calculate D2E/DX2 analytically  !
 ! D50   D(9,4,11,3)           -63.8886         calculate D2E/DX2 analytically  !
 ! D51   D(16,4,11,3)          178.8145         calculate D2E/DX2 analytically  !
 ! D52   D(5,4,16,17)          168.9478         calculate D2E/DX2 analytically  !
 ! D53   D(5,4,16,18)           59.1334         calculate D2E/DX2 analytically  !
 ! D54   D(5,4,16,19)          -65.784          calculate D2E/DX2 analytically  !
 ! D55   D(9,4,16,17)          -70.0023         calculate D2E/DX2 analytically  !
 ! D56   D(9,4,16,18)         -179.8167         calculate D2E/DX2 analytically  !
 ! D57   D(9,4,16,19)           55.2659         calculate D2E/DX2 analytically  !
 ! D58   D(11,4,16,17)          47.0679         calculate D2E/DX2 analytically  !
 ! D59   D(11,4,16,18)         -62.7465         calculate D2E/DX2 analytically  !
 ! D60   D(11,4,16,19)         172.3361         calculate D2E/DX2 analytically  !
 ! D61   D(1,5,15,28)           66.5234         calculate D2E/DX2 analytically  !
 ! D62   D(4,5,15,28)         -168.4454         calculate D2E/DX2 analytically  !
 ! D63   D(10,5,15,28)         -50.8019         calculate D2E/DX2 analytically  !
 ! D64   D(3,12,79,80)         176.3412         calculate D2E/DX2 analytically  !
 ! D65   D(3,12,79,81)         -64.0124         calculate D2E/DX2 analytically  !
 ! D66   D(3,12,79,82)          57.3534         calculate D2E/DX2 analytically  !
 ! D67   D(2,13,20,21)         -69.5686         calculate D2E/DX2 analytically  !
 ! D68   D(2,13,20,22)          52.73           calculate D2E/DX2 analytically  !
 ! D69   D(2,13,20,23)         171.6325         calculate D2E/DX2 analytically  !
 ! D70   D(1,14,24,25)         -51.7721         calculate D2E/DX2 analytically  !
 ! D71   D(1,14,24,26)          69.9558         calculate D2E/DX2 analytically  !
 ! D72   D(1,14,24,27)        -170.3247         calculate D2E/DX2 analytically  !
 ! D73   D(5,15,28,29)         -76.3195         calculate D2E/DX2 analytically  !
 ! D74   D(5,15,28,30)          46.6922         calculate D2E/DX2 analytically  !
 ! D75   D(5,15,28,31)         165.1694         calculate D2E/DX2 analytically  !
 ! D76   D(4,16,18,37)         -98.1236         calculate D2E/DX2 analytically  !
 ! D77   D(17,16,18,37)        151.7415         calculate D2E/DX2 analytically  !
 ! D78   D(19,16,18,37)         28.5934         calculate D2E/DX2 analytically  !
 ! D79   D(4,16,19,37)          93.9283         calculate D2E/DX2 analytically  !
 ! D80   D(4,16,19,38)         159.6653         calculate D2E/DX2 analytically  !
 ! D81   D(4,16,19,83)          -3.0325         calculate D2E/DX2 analytically  !
 ! D82   D(4,16,19,87)        -116.8081         calculate D2E/DX2 analytically  !
 ! D83   D(17,16,19,37)       -145.0953         calculate D2E/DX2 analytically  !
 ! D84   D(17,16,19,38)        -79.3583         calculate D2E/DX2 analytically  !
 ! D85   D(17,16,19,83)        117.9439         calculate D2E/DX2 analytically  !
 ! D86   D(17,16,19,87)          4.1684         calculate D2E/DX2 analytically  !
 ! D87   D(18,16,19,37)        -26.86           calculate D2E/DX2 analytically  !
 ! D88   D(18,16,19,38)         38.877          calculate D2E/DX2 analytically  !
 ! D89   D(18,16,19,83)       -123.8208         calculate D2E/DX2 analytically  !
 ! D90   D(18,16,19,87)        122.4036         calculate D2E/DX2 analytically  !
 ! D91   D(16,18,37,19)        -18.8489         calculate D2E/DX2 analytically  !
 ! D92   D(16,18,37,34)        -65.1562         calculate D2E/DX2 analytically  !
 ! D93   D(16,19,37,18)         15.1774         calculate D2E/DX2 analytically  !
 ! D94   D(16,19,37,34)        162.2431         calculate D2E/DX2 analytically  !
 ! D95   D(38,19,37,18)       -110.7545         calculate D2E/DX2 analytically  !
 ! D96   D(38,19,37,34)         36.3111         calculate D2E/DX2 analytically  !
 ! D97   D(83,19,37,18)        139.5432         calculate D2E/DX2 analytically  !
 ! D98   D(83,19,37,34)        -73.3911         calculate D2E/DX2 analytically  !
 ! D99   D(87,19,37,18)       -135.2833         calculate D2E/DX2 analytically  !
 ! D100  D(87,19,37,34)         11.7824         calculate D2E/DX2 analytically  !
 ! D101  D(16,19,38,33)        -76.0536         calculate D2E/DX2 analytically  !
 ! D102  D(37,19,38,33)         -3.9408         calculate D2E/DX2 analytically  !
 ! D103  D(83,19,38,33)         88.733          calculate D2E/DX2 analytically  !
 ! D104  D(16,19,83,84)       -151.7884         calculate D2E/DX2 analytically  !
 ! D105  D(37,19,83,84)        118.4895         calculate D2E/DX2 analytically  !
 ! D106  D(38,19,83,84)         43.9046         calculate D2E/DX2 analytically  !
 ! D107  D(87,19,83,84)        -13.2046         calculate D2E/DX2 analytically  !
 ! D108  D(16,19,87,85)        154.7199         calculate D2E/DX2 analytically  !
 ! D109  D(37,19,87,85)        -68.7883         calculate D2E/DX2 analytically  !
 ! D110  D(83,19,87,85)         24.4073         calculate D2E/DX2 analytically  !
 ! D111  D(36,32,33,34)        -44.2353         calculate D2E/DX2 analytically  !
 ! D112  D(36,32,33,38)         69.225          calculate D2E/DX2 analytically  !
 ! D113  D(36,32,33,44)       -169.1413         calculate D2E/DX2 analytically  !
 ! D114  D(39,32,33,34)         75.2595         calculate D2E/DX2 analytically  !
 ! D115  D(39,32,33,38)       -171.2803         calculate D2E/DX2 analytically  !
 ! D116  D(39,32,33,44)        -49.6465         calculate D2E/DX2 analytically  !
 ! D117  D(45,32,33,34)       -163.131          calculate D2E/DX2 analytically  !
 ! D118  D(45,32,33,38)        -49.6708         calculate D2E/DX2 analytically  !
 ! D119  D(45,32,33,44)         71.963          calculate D2E/DX2 analytically  !
 ! D120  D(33,32,36,35)         52.1561         calculate D2E/DX2 analytically  !
 ! D121  D(33,32,36,41)        -68.2505         calculate D2E/DX2 analytically  !
 ! D122  D(33,32,36,46)        170.9179         calculate D2E/DX2 analytically  !
 ! D123  D(39,32,36,35)        -68.003          calculate D2E/DX2 analytically  !
 ! D124  D(39,32,36,41)        171.5903         calculate D2E/DX2 analytically  !
 ! D125  D(39,32,36,46)         50.7588         calculate D2E/DX2 analytically  !
 ! D126  D(45,32,36,35)        172.0182         calculate D2E/DX2 analytically  !
 ! D127  D(45,32,36,41)         51.6115         calculate D2E/DX2 analytically  !
 ! D128  D(45,32,36,46)        -69.2201         calculate D2E/DX2 analytically  !
 ! D129  D(33,32,45,67)       -103.5113         calculate D2E/DX2 analytically  !
 ! D130  D(36,32,45,67)        135.6418         calculate D2E/DX2 analytically  !
 ! D131  D(39,32,45,67)         17.2569         calculate D2E/DX2 analytically  !
 ! D132  D(32,33,34,37)       -163.1647         calculate D2E/DX2 analytically  !
 ! D133  D(32,33,34,42)         39.6483         calculate D2E/DX2 analytically  !
 ! D134  D(32,33,34,53)        -65.6362         calculate D2E/DX2 analytically  !
 ! D135  D(38,33,34,37)         80.3152         calculate D2E/DX2 analytically  !
 ! D136  D(38,33,34,42)        -76.8718         calculate D2E/DX2 analytically  !
 ! D137  D(38,33,34,53)        177.8437         calculate D2E/DX2 analytically  !
 ! D138  D(44,33,34,37)        -37.8158         calculate D2E/DX2 analytically  !
 ! D139  D(44,33,34,42)        164.9972         calculate D2E/DX2 analytically  !
 ! D140  D(44,33,34,53)         59.7128         calculate D2E/DX2 analytically  !
 ! D141  D(32,33,38,19)       -139.294          calculate D2E/DX2 analytically  !
 ! D142  D(32,33,38,87)        -81.8712         calculate D2E/DX2 analytically  !
 ! D143  D(34,33,38,19)        -20.2989         calculate D2E/DX2 analytically  !
 ! D144  D(34,33,38,87)         37.124          calculate D2E/DX2 analytically  !
 ! D145  D(44,33,38,19)         98.2311         calculate D2E/DX2 analytically  !
 ! D146  D(44,33,38,87)        155.6539         calculate D2E/DX2 analytically  !
 ! D147  D(32,33,44,63)       -120.0736         calculate D2E/DX2 analytically  !
 ! D148  D(34,33,44,63)        114.3894         calculate D2E/DX2 analytically  !
 ! D149  D(38,33,44,63)          0.4955         calculate D2E/DX2 analytically  !
 ! D150  D(33,34,37,18)        -36.9236         calculate D2E/DX2 analytically  !
 ! D151  D(33,34,37,19)        -74.2224         calculate D2E/DX2 analytically  !
 ! D152  D(42,34,37,18)        121.381          calculate D2E/DX2 analytically  !
 ! D153  D(42,34,37,19)         84.0823         calculate D2E/DX2 analytically  !
 ! D154  D(53,34,37,18)       -134.0464         calculate D2E/DX2 analytically  !
 ! D155  D(53,34,37,19)       -171.3451         calculate D2E/DX2 analytically  !
 ! D156  D(33,34,42,35)        -40.862          calculate D2E/DX2 analytically  !
 ! D157  D(37,34,42,35)        160.7422         calculate D2E/DX2 analytically  !
 ! D158  D(53,34,42,35)         60.3007         calculate D2E/DX2 analytically  !
 ! D159  D(33,34,53,51)       -165.1012         calculate D2E/DX2 analytically  !
 ! D160  D(37,34,53,51)        -43.8275         calculate D2E/DX2 analytically  !
 ! D161  D(42,34,53,51)         72.9415         calculate D2E/DX2 analytically  !
 ! D162  D(40,35,36,32)         65.2558         calculate D2E/DX2 analytically  !
 ! D163  D(40,35,36,41)       -174.2721         calculate D2E/DX2 analytically  !
 ! D164  D(40,35,36,46)        -53.5053         calculate D2E/DX2 analytically  !
 ! D165  D(42,35,36,32)        -51.0968         calculate D2E/DX2 analytically  !
 ! D166  D(42,35,36,41)         69.3753         calculate D2E/DX2 analytically  !
 ! D167  D(42,35,36,46)       -169.8578         calculate D2E/DX2 analytically  !
 ! D168  D(47,35,36,32)       -168.0909         calculate D2E/DX2 analytically  !
 ! D169  D(47,35,36,41)        -47.6188         calculate D2E/DX2 analytically  !
 ! D170  D(47,35,36,46)         73.1481         calculate D2E/DX2 analytically  !
 ! D171  D(36,35,42,34)         45.6417         calculate D2E/DX2 analytically  !
 ! D172  D(40,35,42,34)        -72.9693         calculate D2E/DX2 analytically  !
 ! D173  D(47,35,42,34)        170.0886         calculate D2E/DX2 analytically  !
 ! D174  D(36,35,47,48)        178.2205         calculate D2E/DX2 analytically  !
 ! D175  D(36,35,47,49)         60.7887         calculate D2E/DX2 analytically  !
 ! D176  D(36,35,47,50)        -57.394          calculate D2E/DX2 analytically  !
 ! D177  D(40,35,47,48)        -56.2009         calculate D2E/DX2 analytically  !
 ! D178  D(40,35,47,49)       -173.6327         calculate D2E/DX2 analytically  !
 ! D179  D(40,35,47,50)         68.1846         calculate D2E/DX2 analytically  !
 ! D180  D(42,35,47,48)         56.5086         calculate D2E/DX2 analytically  !
 ! D181  D(42,35,47,49)        -60.9232         calculate D2E/DX2 analytically  !
 ! D182  D(42,35,47,50)       -179.1059         calculate D2E/DX2 analytically  !
 ! D183  D(32,36,46,71)        116.5078         calculate D2E/DX2 analytically  !
 ! D184  D(35,36,46,71)       -122.6044         calculate D2E/DX2 analytically  !
 ! D185  D(41,36,46,71)         -3.1162         calculate D2E/DX2 analytically  !
 ! D186  D(33,38,87,85)         69.9411         calculate D2E/DX2 analytically  !
 ! D187  D(33,44,63,64)        -62.4826         calculate D2E/DX2 analytically  !
 ! D188  D(33,44,63,65)         59.7994         calculate D2E/DX2 analytically  !
 ! D189  D(33,44,63,66)        178.7765         calculate D2E/DX2 analytically  !
 ! D190  D(32,45,67,68)        -62.4197         calculate D2E/DX2 analytically  !
 ! D191  D(32,45,67,69)         59.4192         calculate D2E/DX2 analytically  !
 ! D192  D(32,45,67,70)        178.8148         calculate D2E/DX2 analytically  !
 ! D193  D(36,46,71,72)        -58.6119         calculate D2E/DX2 analytically  !
 ! D194  D(36,46,71,73)         64.106          calculate D2E/DX2 analytically  !
 ! D195  D(36,46,71,74)       -177.3759         calculate D2E/DX2 analytically  !
 ! D196  D(35,47,49,91)       -131.8547         calculate D2E/DX2 analytically  !
 ! D197  D(48,47,49,91)        111.4073         calculate D2E/DX2 analytically  !
 ! D198  D(50,47,49,91)         -7.856          calculate D2E/DX2 analytically  !
 ! D199  D(35,47,50,75)        -66.8549         calculate D2E/DX2 analytically  !
 ! D200  D(48,47,50,75)         55.7304         calculate D2E/DX2 analytically  !
 ! D201  D(49,47,50,75)        173.4531         calculate D2E/DX2 analytically  !
 ! D202  D(47,49,91,89)        115.266          calculate D2E/DX2 analytically  !
 ! D203  D(47,50,75,76)       -168.1571         calculate D2E/DX2 analytically  !
 ! D204  D(47,50,75,77)        -49.352          calculate D2E/DX2 analytically  !
 ! D205  D(47,50,75,78)         72.9945         calculate D2E/DX2 analytically  !
 ! D206  D(43,51,53,34)        -51.1651         calculate D2E/DX2 analytically  !
 ! D207  D(52,51,53,34)        177.3876         calculate D2E/DX2 analytically  !
 ! D208  D(54,51,53,34)         62.9177         calculate D2E/DX2 analytically  !
 ! D209  D(43,51,54,55)        -39.731          calculate D2E/DX2 analytically  !
 ! D210  D(43,51,54,56)        142.5101         calculate D2E/DX2 analytically  !
 ! D211  D(52,51,54,55)         85.3777         calculate D2E/DX2 analytically  !
 ! D212  D(52,51,54,56)        -92.3812         calculate D2E/DX2 analytically  !
 ! D213  D(53,51,54,55)       -158.4781         calculate D2E/DX2 analytically  !
 ! D214  D(53,51,54,56)         23.7631         calculate D2E/DX2 analytically  !
 ! D215  D(51,54,55,57)       -177.0965         calculate D2E/DX2 analytically  !
 ! D216  D(51,54,55,58)          3.8489         calculate D2E/DX2 analytically  !
 ! D217  D(56,54,55,57)          0.6276         calculate D2E/DX2 analytically  !
 ! D218  D(56,54,55,58)       -178.427          calculate D2E/DX2 analytically  !
 ! D219  D(51,54,56,59)        178.1664         calculate D2E/DX2 analytically  !
 ! D220  D(51,54,56,60)         -3.486          calculate D2E/DX2 analytically  !
 ! D221  D(55,54,56,59)          0.4647         calculate D2E/DX2 analytically  !
 ! D222  D(55,54,56,60)        178.8123         calculate D2E/DX2 analytically  !
 ! D223  D(54,55,57,61)         -1.0075         calculate D2E/DX2 analytically  !
 ! D224  D(54,55,57,93)        176.4361         calculate D2E/DX2 analytically  !
 ! D225  D(58,55,57,61)        178.043          calculate D2E/DX2 analytically  !
 ! D226  D(58,55,57,93)         -4.5134         calculate D2E/DX2 analytically  !
 ! D227  D(54,56,59,61)         -1.1976         calculate D2E/DX2 analytically  !
 ! D228  D(54,56,59,97)        176.6717         calculate D2E/DX2 analytically  !
 ! D229  D(60,56,59,61)       -179.5279         calculate D2E/DX2 analytically  !
 ! D230  D(60,56,59,97)         -1.6585         calculate D2E/DX2 analytically  !
 ! D231  D(55,57,61,59)          0.2911         calculate D2E/DX2 analytically  !
 ! D232  D(55,57,61,62)       -179.8191         calculate D2E/DX2 analytically  !
 ! D233  D(93,57,61,59)       -177.1982         calculate D2E/DX2 analytically  !
 ! D234  D(93,57,61,62)          2.6916         calculate D2E/DX2 analytically  !
 ! D235  D(55,57,93,94)       -110.0198         calculate D2E/DX2 analytically  !
 ! D236  D(55,57,93,95)        131.5263         calculate D2E/DX2 analytically  !
 ! D237  D(55,57,93,96)          9.9495         calculate D2E/DX2 analytically  !
 ! D238  D(61,57,93,94)         67.4697         calculate D2E/DX2 analytically  !
 ! D239  D(61,57,93,95)        -50.9841         calculate D2E/DX2 analytically  !
 ! D240  D(61,57,93,96)       -172.561          calculate D2E/DX2 analytically  !
 ! D241  D(56,59,61,57)          0.8288         calculate D2E/DX2 analytically  !
 ! D242  D(56,59,61,62)       -179.0611         calculate D2E/DX2 analytically  !
 ! D243  D(97,59,61,57)       -177.0289         calculate D2E/DX2 analytically  !
 ! D244  D(97,59,61,62)          3.0813         calculate D2E/DX2 analytically  !
 ! D245  D(56,59,97,98)        151.7751         calculate D2E/DX2 analytically  !
 ! D246  D(56,59,97,99)         31.0317         calculate D2E/DX2 analytically  !
 ! D247  D(56,59,97,100)       -88.5226         calculate D2E/DX2 analytically  !
 ! D248  D(61,59,97,98)        -30.3389         calculate D2E/DX2 analytically  !
 ! D249  D(61,59,97,99)       -151.0824         calculate D2E/DX2 analytically  !
 ! D250  D(61,59,97,100)        89.3634         calculate D2E/DX2 analytically  !
 ! D251  D(19,83,84,85)         18.1276         calculate D2E/DX2 analytically  !
 ! D252  D(19,83,84,89)       -174.3021         calculate D2E/DX2 analytically  !
 ! D253  D(83,84,85,86)       -126.53           calculate D2E/DX2 analytically  !
 ! D254  D(83,84,85,87)         -6.9884         calculate D2E/DX2 analytically  !
 ! D255  D(83,84,85,88)        112.9163         calculate D2E/DX2 analytically  !
 ! D256  D(89,84,85,86)         62.8301         calculate D2E/DX2 analytically  !
 ! D257  D(89,84,85,87)       -177.6283         calculate D2E/DX2 analytically  !
 ! D258  D(89,84,85,88)        -57.7236         calculate D2E/DX2 analytically  !
 ! D259  D(83,84,89,90)       -108.4571         calculate D2E/DX2 analytically  !
 ! D260  D(83,84,89,91)         11.0278         calculate D2E/DX2 analytically  !
 ! D261  D(83,84,89,92)        130.4138         calculate D2E/DX2 analytically  !
 ! D262  D(85,84,89,90)         58.9945         calculate D2E/DX2 analytically  !
 ! D263  D(85,84,89,91)        178.4794         calculate D2E/DX2 analytically  !
 ! D264  D(85,84,89,92)        -62.1346         calculate D2E/DX2 analytically  !
 ! D265  D(84,85,87,19)        -12.7719         calculate D2E/DX2 analytically  !
 ! D266  D(84,85,87,38)        -86.4087         calculate D2E/DX2 analytically  !
 ! D267  D(86,85,87,19)        106.8769         calculate D2E/DX2 analytically  !
 ! D268  D(86,85,87,38)         33.2402         calculate D2E/DX2 analytically  !
 ! D269  D(88,85,87,19)       -132.4696         calculate D2E/DX2 analytically  !
 ! D270  D(88,85,87,38)        153.8937         calculate D2E/DX2 analytically  !
 ! D271  D(84,89,91,49)         46.0518         calculate D2E/DX2 analytically  !
 ! D272  D(90,89,91,49)        166.497          calculate D2E/DX2 analytically  !
 ! D273  D(92,89,91,49)        -74.3213         calculate D2E/DX2 analytically  !
 --------------------------------------------------------------------------------
 Trust Radius=3.00D-02 FncErr=1.00D-07 GrdErr=1.00D-06 EigMax=2.50D+02 EigMin=1.00D-04
 Number of steps in this run=    592 maximum allowed number of steps=    600.
 Search for a saddle point of order  1.
 Step   0 in ReCalcFC=30 IGetFC= 4 compute analytic Hessian.
 GradGradGradGradGradGradGradGradGradGradGradGradGradGradGradGradGradGrad

 Leave Link  103 at Wed May  8 08:01:03 2019, MaxMem=  6442450944 cpu:               8.7 elap:               0.4
 (Enter /home/ekwan/sw/g16/l202.exe)
 Stoichiometry    C30H47F6NaO15S
 Framework group  C1[X(C30H47F6NaO15S)]
 Deg. of freedom   294
 Full point group                 C1      NOp   1
 Largest Abelian subgroup         C1      NOp   1
 Largest concise Abelian subgroup C1      NOp   1
                         Standard orientation:                         
 ---------------------------------------------------------------------
 Center     Atomic      Atomic             Coordinates (Angstroms)
 Number     Number       Type             X           Y           Z
 ---------------------------------------------------------------------
      1          6           0        2.879050    1.881191   -1.010528
      2          6           0        4.018724    1.782468    0.004674
      3          6           0        3.671674    2.556151    1.276719
      4          6           0        1.313201    2.176491    1.035316
      5          6           0        1.498073    1.607462   -0.386724
      6          1           0        4.432044    2.413974    2.056531
      7          1           0        4.135641    0.730679    0.295080
      8          1           0        2.874879    2.898230   -1.425080
      9          1           0        1.081584    3.247003    0.942501
     10          1           0        1.370615    0.515975   -0.357224
     11          8           0        2.495551    2.010744    1.830740
     12          8           0        3.558314    3.916314    0.954542
     13          8           0        5.199033    2.250117   -0.625026
     14          8           0        3.045095    0.924843   -2.054217
     15          8           0        0.457887    2.179248   -1.193309
     16          6           0        0.207202    1.470958    1.853527
     17          1           0        0.337112    1.844355    2.891544
     18          1           0        0.521051    0.403243    1.900361
     19          8           0       -1.068985    1.627667    1.383274
     20          6           0        6.395341    1.907591    0.057231
     21          1           0        6.500975    2.450315    1.006419
     22          1           0        6.445759    0.828940    0.256449
     23          1           0        7.222302    2.188892   -0.599042
     24          6           0        3.830204    1.352249   -3.159091
     25          1           0        3.469082    2.315873   -3.547727
     26          1           0        4.884413    1.449834   -2.888192
     27          1           0        3.715722    0.589318   -3.931488
     28          6           0        0.274812    1.598558   -2.491242
     29          1           0        1.050920    1.925942   -3.187798
     30          1           0        0.258375    0.507503   -2.441535
     31          1           0       -0.696457    1.950752   -2.851980
     32          6           0       -4.034078   -1.147705    0.968234
     33          6           0       -2.634285   -0.714630    1.396491
     34          6           0       -1.765701   -0.364403    0.214098
     35          6           0       -3.609628   -0.065553   -1.279951
     36          6           0       -4.589250   -0.217648   -0.113926
     37          1           0       -0.698219   -0.303152    0.315973
     38          1           0       -2.716174    0.230004    1.939738
     39          1           0       -3.992496   -2.162711    0.561119
     40          1           0       -3.496392   -1.026427   -1.783991
     41          1           0       -4.778019    0.770027    0.324375
     42          8           0       -2.269498    0.293072   -0.810728
     43          8           0       -0.697670   -1.648449   -2.691925
     44          8           0       -2.010359   -1.693486    2.206942
     45          8           0       -4.910071   -1.087121    2.084983
     46          8           0       -5.786778   -0.788893   -0.615082
     47          6           0       -3.934859    1.054723   -2.275597
     48          1           0       -3.136698    1.068202   -3.034988
     49          1           0       -3.925001    2.006983   -1.739950
     50          8           0       -5.202970    0.969055   -2.877998
     51         16           0       -0.710879   -2.590158   -1.553722
     52          8           0       -0.832028   -4.020199   -1.889330
     53          8           0       -1.748980   -2.215854   -0.488936
     54          6           0        0.857561   -2.365639   -0.702946
     55          6           0        2.012030   -2.174119   -1.460831
     56          6           0        0.907129   -2.432227    0.687377
     57          6           0        3.236919   -2.060903   -0.809486
     58          1           0        1.950747   -2.099569   -2.538912
     59          6           0        2.141691   -2.293532    1.324857
     60          1           0       -0.006006   -2.562540    1.257931
     61          6           0        3.308717   -2.116719    0.583996
     62          1           0        4.265139   -2.025031    1.085923
     63          6           0       -1.655192   -1.232400    3.510912
     64          1           0       -0.922199   -0.420745    3.463080
     65          1           0       -2.542306   -0.893519    4.059962
     66          1           0       -1.210392   -2.086484    4.024373
     67          6           0       -5.211567   -2.357388    2.650129
     68          1           0       -5.734060   -2.997288    1.925949
     69          1           0       -4.304977   -2.869702    2.992087
     70          1           0       -5.868605   -2.172284    3.503575
     71          6           0       -6.949899   -0.006163   -0.380540
     72          1           0       -7.095629    0.166486    0.692742
     73          1           0       -6.892774    0.951434   -0.911779
     74          1           0       -7.793777   -0.580163   -0.771102
     75          6           0       -5.358595   -0.145489   -3.749524
     76          1           0       -6.284497    0.020076   -4.305008
     77          1           0       -4.519904   -0.213280   -4.457272
     78          1           0       -5.440692   -1.082549   -3.188218
     79          6           0        3.374159    4.748858    2.094907
     80          1           0        3.365571    5.779392    1.734409
     81          1           0        2.428237    4.530184    2.603831
     82          1           0        4.198995    4.620181    2.809877
     83         11           0       -1.607943    2.832274   -0.308067
     84          8           0       -3.763836    3.283615    0.488408
     85          6           0       -3.857180    3.023282    1.892582
     86          1           0       -4.693464    2.342058    2.102408
     87          1           0       -2.909837    2.559808    2.177784
     88          1           0       -4.012483    3.959787    2.445219
     89          6           0       -4.918081    3.942457   -0.017649
     90          1           0       -5.078315    4.899777    0.495897
     91          1           0       -4.753016    4.126043   -1.081686
     92          1           0       -5.811785    3.315960    0.107743
     93          6           0        4.512872   -1.933682   -1.595688
     94          9           0        5.260110   -3.058753   -1.484685
     95          9           0        5.289259   -0.918853   -1.147619
     96          9           0        4.293546   -1.730598   -2.908569
     97          6           0        2.199211   -2.288020    2.828164
     98          9           0        3.381140   -2.751524    3.287827
     99          9           0        1.222507   -3.049778    3.369387
    100          9           0        2.045361   -1.040155    3.331075
 ---------------------------------------------------------------------
 Rotational constants (GHZ):           0.0729985           0.0389230           0.0361937
 Leave Link  202 at Wed May  8 08:01:07 2019, MaxMem=  6442450944 cpu:              79.5 elap:               3.8
 (Enter /home/ekwan/sw/g16/l301.exe)
 Standard basis: 6-31G(d) (6D, 7F)
 Ernie: Thresh=  0.10000D-02 Tol=  0.10000D-05 Strict=F.
 There are   897 symmetry adapted cartesian basis functions of A   symmetry.
 There are   897 symmetry adapted basis functions of A   symmetry.
   897 basis functions,  1720 primitive gaussians,   897 cartesian basis functions
   214 alpha electrons      214 beta electrons
       nuclear repulsion energy      9802.2556438419 Hartrees.
 IExCor=  402 DFT=T Ex+Corr=B3LYP ExCW=0 ScaHFX=  0.200000
 ScaDFX=  0.800000  0.720000  1.000000  0.810000 ScalE2=  1.000000  1.000000
 IRadAn=      5 IRanWt=     -1 IRanGd=            0 ICorTp=0 IEmpDi=141
[...]
 82,0.00020284,0.00033441,0.00009935,0.00028700,0.00012453,-0.00002242,
 0.00015542,0.00017979,0.00058432,0.00042499,0.00006035,0.00002389,-0.0
 0154120,0.00016837,-0.00117322,-0.00116626,-0.00026009,-0.00013648,0.0
 0005607,-0.00001799,-0.00000942,-0.01302449,0.00061182,0.00752902,0.00
 048869,-0.00044307,0.00048661,0.00164770,0.00038958,0.00301993,0.00011
 298,0.00006558,-0.00015697,-0.00002099,-0.00061091,0.00023380,-0.00011
 509,0.00030027,-0.00004227,0.00004679,0.00011296,0.00001432,0.00108366
 ,-0.00044998,-0.00054174,0.00001572,-0.00009144,0.00004106,0.00000177,
 0.00000906,0.00000068,-0.00001369,0.00000790,-0.00001202,-0.00000223,0
 .00000858,-0.00000298,-0.00001152,0.00000398,0.00000377,0.00000214,-0.
 00000354,-0.00000206,0.00000023,0.00000114,-0.00000118,0.00000502,-0.0
 0000051,0.00000163,-0.00000429,-0.00002231,-0.00001182,0.00000255,0.00
 000063,0.00000318,-0.00000013,0.00000211,-0.00000020,-0.00000148,0.000
 00315,-0.00000093,0.00000454,0.00007102,0.00007393,-0.00000151,-0.0000
 2404,0.00000065,-0.00000668,0.00001022,-0.00000615,0.00000084,0.000002
 24,-0.00001612,-0.00008864,0.00006393,-0.00004429,0.00004190,-0.000008
 87,0.00000719,-0.00000989,-0.00000619,-0.00000343,0.00001383,0.0000032
 5,0.00000275,-0.00003493,0.00001048,0.00001778,0.00000511,-0.00000438,
 0.00000095,-0.00002855,0.00001032,-0.00001317,0.00000316,-0.00000354,0
 .00000021,0.00000025,-0.00000067,0.00000267,0.00000756,0.00000132,0.00
 000005,0.00074101,-0.00018516,-0.00024530,-0.00022860,0.00018720,0.000
 06691,-0.00016760,-0.00003768,0.00006421,-0.00019711,-0.00002709,0.000
 38841,-0.06565743,-0.12341161,0.05437129,-0.00837259,0.01495417,-0.004
 32834,0.12598280,0.17663113,0.00002528,-0.00011838,-0.00006767,-0.0000
 8635,-0.00026152,0.00011208,-0.00002542,-0.00017730,-0.00012155,-0.000
 00529,-0.00006622,-0.00005831,0.00007443,-0.00041442,0.00008920,0.0000
 1354,0.00001574,0.00001862,-0.00007382,0.00002155,-0.00006646,0.000006
 77,0.00006001,-0.00002845,-0.00001752,0.00005844,0.00002791,0.00007785
 ,0.00003260,-0.00000379,0.00001754,0.00014165,0.00007638,-0.00000222,0
 .00019430,0.00010091,0.00018844,0.00015148,0.00000185,0.00007447,0.000
 33265,-0.00016657,-0.00012033,0.00021003,-0.00008889,0.00010756,-0.000
 17841,-0.00002402,0.00001698,0.00009100,0.00008165,0.00000512,0.000092
 34,-0.00005973,-0.00016909,0.00018771,0.00013267,-0.00010742,-0.000057
 75,-0.00005981,0.00001299,0.00001898,0.00002705,-0.00001367,-0.0000004
 3,-0.00000857,0.00002343,0.00001075,-0.00000562,-0.00012388,-0.0000710
 1,0.00022361,0.00000154,0.00006407,-0.00003801,0.00002367,-0.00000726,
 -0.00001357,0.00000942,-0.00002188,0.00001825,0.00001210,-0.00010324,0
 .00005389,0.00001483,0.00001631,-0.00000917,-0.00000154,-0.00001906,0.
 00005704,-0.00003262,0.00003340,-0.00000349,0.00009434,-0.00003148,-0.
 00002289,-0.00010363,0.00026112,-0.00017173,0.00044616,-0.00086992,-0.
 00028319,0.00018852,0.00000645,0.00002688,0.00007370,0.00001662,-0.000
 04028,0.00001490,-0.00011984,-0.00002459,-0.00000986,-0.00000599,0.000
 01966,0.00001552,0.00002115,-0.00000689,0.00001020,-0.00000103,0.00001
 535,-0.00000987,0.00000328,0.00000631,-0.00033337,0.00022191,-0.000075
 73,-0.00072558,0.00016390,-0.00067256,-0.00004156,-0.00011576,0.000585
 99,-0.00008191,-0.00005060,0.00013456,-0.00007938,-0.00000369,0.000024
 46,0.00003404,-0.00002422,0.00004068,0.00000133,-0.00000429,0.00001112
 ,0.00000141,0.00000800,-0.00000243,-0.00005885,0.00000200,-0.00003610,
 0.00296034,0.00062378,0.00099217,-0.00075325,-0.00063573,-0.00035050,-
 0.00120722,0.00037454,0.00037622,0.00035507,-0.00020658,-0.00001728,0.
 00051071,0.00006958,-0.00074389,0.00074105,0.00065479,-0.00117570,0.00
 211916,-0.00097740,-0.00181841,0.00000375,0.00005663,0.00001014,0.0361
 5608,0.02578510,-0.02045792,0.00042418,0.00076044,-0.00211691,-0.00521
 247,0.00121943,-0.00570436,0.00000058,0.00039885,0.00041933,-0.0000021
 8,0.00056655,-0.00115975,-0.00000309,0.00010010,0.00002215,0.00017655,
 -0.00015482,0.00023003,-0.00048348,-0.00051316,0.00059342,-0.00001900,
 0.00008342,-0.00005085,0.00000796,-0.00000970,0.00000809,0.00001082,-0
 .00002130,0.00000117,-0.00000816,-0.00000783,0.00000811,0.00003895,-0.
 00002492,-0.00001273,-0.00000607,0.00000600,0.00000790,-0.00000061,0.0
 0000270,-0.00000048,-0.00000736,0.00000119,-0.00000116,0.00000989,0.00
 001623,0.00001170,-0.00000662,0.00000084,-0.00000550,-0.00000236,-0.00
 000514,0.00000482,0.00000637,-0.00000259,-0.00000186,0.00000468,-0.000
 05838,-0.00009619,-0.00000152,0.00001720,0.00000900,-0.00000996,0.0000
 0004,0.00000875,0.00000980,0.00000254,0.00001720,0.00007778,-0.0000989
 6,-0.00002748,-0.00002551,0.00001185,0.00003562,-0.00000016,0.00000894
 ,-0.00002993,-0.00001070,-0.00000316,-0.00000173,0.00002966,-0.0000111
 4,-0.00002152,-0.00000669,0.00000905,0.00000352,0.00001700,-0.00000863
 ,0.00000555,-0.00000209,0.00000547,0.00000132,0.00000048,-0.00000346,0
 .00000239,-0.00000313,-0.00000238,-0.00000160,-0.00274906,-0.00030222,
 0.00075146,0.00086425,-0.00042569,-0.00018259,0.00071854,0.00035810,-0
 .00010473,0.00060557,0.00020356,-0.00098897,0.05874727,0.04892063,-0.1
 2766193,-0.00117038,-0.00547957,0.01712624,-0.08650935,-0.06902148,0.1
 2456800,-0.00006803,-0.00000078,0.00000649,-0.00003749,0.00008882,-0.0
 0001905,-0.00021317,0.00001223,0.00002239,-0.00037165,0.00029439,0.000
 06433,0.00000910,0.00003199,0.00008741,0.00005081,0.00002588,0.0000148
 8,0.00002703,-0.00001543,-0.00004014,0.00001226,-0.00000234,-0.0000001
 8,0.00010725,0.00010546,-0.00009801,-0.00002750,0.00000679,0.00002222,
 0.00030526,0.00003690,0.00015017,0.00008477,0.00003799,-0.00000188,0.0
 0007214,-0.00003888,0.00000602,0.00004970,-0.00001381,-0.00004383,0.00
 003018,-0.00000896,-0.00008812,0.00091314,-0.00184009,-0.00037536,0.00
 001916,0.00011945,0.00014612,-0.00105938,0.00200057,-0.00070884,-0.000
 98877,0.00046937,-0.00049872,-0.00003475,0.00004186,-0.00002630,0.0000
 0353,0.00000365,0.00000401,0.00000579,-0.00001277,-0.00000719,0.000003
 95,-0.00000608,0.00000537,-0.00001603,-0.00000987,0.00001514,0.0000015
 0,-0.00000018,-0.00000088,0.00000688,0.00000299,-0.00000442,0.00000238
 ,0.00000043,-0.00000696,0.00000572,0.00002277,0.00006125,0.00000548,-0
 .00000058,-0.00001426,-0.00000442,0.00000281,0.00000132,-0.00000520,-0
 .00000241,-0.00000370,0.00007815,0.00004239,-0.00002538,0.00010940,-0.
 00015852,0.00014134,0.00014338,0.00046574,0.00043324,0.00008663,0.0000
 1763,0.00004111,0.00002858,-0.00002096,0.00003022,0.00001865,-0.000015
 20,0.00003120,0.00002054,-0.00000251,-0.00001500,-0.00001307,-0.000008
 69,0.,-0.00001993,-0.00000709,-0.00000660,-0.00000034,0.00000058,-0.00
 000106,-0.00013700,0.00002662,-0.00021535,0.00019115,-0.00002425,0.000
 06978,-0.00014532,0.00000485,-0.00026503,-0.00007379,-0.00003213,0.000
 01663,-0.00008442,0.00000566,-0.00002759,0.00001383,-0.00002052,0.0000
 3002,0.00000218,0.00000236,-0.00000619,0.00000431,-0.00000107,0.000003
 09,-0.00002432,-0.00000340,-0.00003699,-0.00064650,-0.00008837,0.00025
 041,0.00013136,0.00000980,-0.00003983,0.00023975,-0.00023797,-0.000312
 55,0.00028741,-0.00028534,0.00115720,0.00091219,0.00012188,-0.00002120
 ,-0.00130204,0.00075137,0.00070535,0.00006632,0.00017731,-0.00099884,0
 .00002218,0.00001630,0.00000211,0.01210002,0.00207371,0.00095060,0.000
 12536,0.00019068,0.00022376,-0.00072097,-0.00109801,-0.00053851,0.0001
 9366,0.00001673,-0.00028873,0.00028968,0.00061573,0.00044665,-0.000030
 31,-0.00068511,0.00001596,-0.00024573,-0.00009983,-0.00012608,0.000176
 12,0.00017805,-0.00016854,0.00003784,0.00003725,-0.00000823,-0.0000097
 7,-0.00000885,-0.00000704,0.00000459,0.00001276,-0.00000491,-0.0000066
 7,-0.00000133,0.00000618,0.00003467,-0.00002347,-0.00000695,-0.0000002
 1,0.00000220,0.00000229,-0.00000346,0.00000679,-0.00000014,-0.00000865
 ,0.00000024,-0.00000101,-0.00000020,0.00001454,0.00002097,-0.00000287,
 -0.00000061,-0.00000372,0.00000296,-0.00000130,-0.00000288,0.00000196,
 -0.00000024,0.00000068,-0.00002778,-0.00002477,-0.00002024,0.00000230,
 0.00000280,-0.00000003,0.00000256,-0.00000427,-0.00000714,0.00001010,0
 .00000248,0.00000631,0.00004170,-0.00008624,0.00008642,-0.00004133,0.0
 0003100,-0.00002103,0.00000607,-0.00000731,0.00001822,-0.00000657,-0.0
 0000185,-0.00000470,0.00003678,-0.00002289,-0.00002758,-0.00001007,0.0
 0001328,-0.00000249,0.00003238,-0.00002197,0.00001924,-0.00000566,0.00
 000627,0.00000109,-0.00000143,0.00000106,-0.00000600,-0.00000571,0.000
 00051,-0.00000072,-0.00014251,0.00011485,-0.00014669,0.00001298,-0.000
 02344,0.00003086,0.00002641,-0.00000109,0.00003957,0.00003362,-0.00001
 932,-0.00000032,-0.07154495,0.01534473,0.00824856,-0.02078028,0.054181
 79,0.00850521,0.00228208,-0.04008041,-0.00575897,0.07934235,0.00013032
 ,-0.00013653,-0.00032234,0.00020877,-0.00004345,-0.00016281,0.00119440
 ,0.00077011,-0.00056049,-0.00014007,0.00004711,-0.00074631,-0.00013058
 ,-0.00020534,-0.00032024,-0.00003711,0.00002343,0.00004677,0.00001648,
 -0.00011496,-0.00009536,-0.00000792,0.00002596,0.00005062,-0.00006805,
 -0.00030292,0.00031505,0.00007186,-0.00006618,-0.00007904,-0.00075295,
 -0.00150096,0.00104120,-0.00025415,-0.00067141,0.00020528,-0.00031203,
 0.00001132,0.00021469,-0.00010690,0.00029734,0.00029301,0.00009593,0.0
 0009603,0.00044599,-0.00184565,0.00376544,0.00028522,-0.00009761,0.000
 12590,-0.00000177,0.00111139,-0.00273722,-0.00025131,0.00249158,-0.000
 69290,0.00129116,0.00011183,-0.00009117,0.00004348,0.00000734,0.000041
 23,-0.00000246,-0.00000701,0.00001020,-0.00005098,-0.00003106,-0.00000
 506,0.00001674,0.00003106,0.00004221,-0.00004932,-0.00000169,0.0000117
 7,-0.00000525,-0.00000963,-0.00002228,-0.00000445,-0.00000638,-0.00000
 508,0.00005869,-0.00003183,-0.00018129,-0.00024963,-0.00001413,0.00002
 069,0.00004874,-0.00000909,-0.00001128,0.00003064,0.00002318,0.0000160
 4,0.00003698,-0.00008218,-0.00003121,-0.00001007,0.00001000,0.00000239
 ,0.00002901,-0.00038619,-0.00183704,-0.00108801,-0.00013448,-0.0000257
 7,-0.00004875,-0.00002668,-0.00000940,-0.00001440,-0.00007524,-0.00006
 050,-0.00014244,-0.00009736,0.00000638,0.00001969,0.00004572,0.0000292
 7,0.00001385,0.00005675,0.00001720,0.00002754,-0.00001276,0.00000782,0
 .00000047,0.00023990,0.00015633,0.00035122,-0.00058115,0.00026995,-0.0
 0045320,0.00005822,0.00038200,0.00035278,0.00006756,0.00009546,-0.0000
 3144,0.00005700,0.00002415,0.00002010,-0.00000963,0.00000836,-0.000031
 41,-0.00000091,-0.00000457,0.00000395,-0.00001152,0.00001182,-0.000006
 39,0.00003223,0.00002816,0.00005174,0.00241213,-0.00000034,0.00022722,
 -0.00058591,-0.00017074,-0.00015873,-0.00097670,0.00086901,0.00070402,
 -0.00042325,0.00093444,-0.00079909,0.00014548,-0.00027689,-0.00029484,
 0.00136993,0.00024727,-0.00059518,0.00014157,0.00094140,-0.00121489,0.
 00002908,-0.00013611,-0.00000888,0.00309859,-0.01392052,-0.01689907,0.
 00029589,-0.00077613,0.00018967,-0.00208914,-0.00045853,-0.00068686,0.
 00012577,-0.00075839,0.00022249,-0.00031212,-0.00123279,-0.00018537,-0
 .00052896,0.00071292,0.00001025,0.00014767,0.00023723,-0.00001591,0.00
 020170,0.00004556,-0.00020130,-0.00000867,-0.00009185,0.00002696,0.000
 01119,0.00001257,0.00000928,-0.00001385,-0.00000411,-0.00001240,-0.000
 00440,0.00000715,-0.00000252,-0.00001306,0.00000285,-0.00000041,-0.000
 00063,-0.00000311,0.00000154,0.00000189,-0.00000076,-0.00000261,0.0000
 0829,0.00000062,0.00000239,0.00000218,-0.00003824,-0.00003082,0.000001
 35,0.00000260,0.00000446,-0.00000528,0.00000024,0.00000680,0.00000105,
 0.00000389,-0.00000329,0.00004533,0.00017422,0.00015437,-0.00000912,-0
 .00005022,0.00000715,-0.00002852,0.00003676,-0.00000384,-0.00000151,0.
 00000522,-0.00003605,-0.00014231,0.00009832,-0.00018303,0.00010814,-0.
 00003467,0.00006327,-0.00002315,-0.00000264,-0.00004960,0.00003100,0.0
 0000509,0.00000910,-0.00009160,0.00003485,0.00005595,0.00001641,-0.000
 01431,0.00000737,-0.00007518,0.00003510,-0.00004343,0.00001080,-0.0000
 0840,0.00000076,0.00000272,-0.00000501,0.00001353,0.00001971,-0.000000
 19,-0.00000033,-0.00145935,-0.00026689,0.00050256,0.00039333,-0.000123
 96,-0.00013387,0.00046506,0.00035452,-0.00000811,0.00032179,0.00010334
 ,-0.00049900,0.01647035,-0.20784698,-0.07626339,0.04230736,-0.04481778
 ,-0.00307959,-0.02944888,-0.06811713,-0.00199703,-0.03272376,0.3367039
 7,0.00002252,-0.00015283,-0.00014742,-0.00004177,-0.00022607,0.0000584
 7,0.00008368,-0.00002263,-0.00023719,-0.00014851,0.00005378,-0.0001264
 9,0.00002064,-0.00046760,0.00006726,0.00004701,0.00003376,0.00004602,-
 0.00009558,-0.00001896,-0.00003573,0.00001251,0.00006158,-0.00001071,0
 .00000589,0.00003985,0.00004697,0.00007271,0.00002572,-0.00004970,0.00
 033399,-0.00001582,0.00024318,-0.00001174,0.00004491,0.00016684,0.0001
 3963,0.00011850,0.00007260,0.00008066,0.00039704,-0.00007126,-0.000054
 69,0.00022653,0.00001315,-0.00015103,-0.00050251,-0.00032732,0.0000618
 1,0.00035355,0.00025383,-0.00128028,0.00119923,-0.00107581,-0.00014901
 ,0.00041458,0.00021433,-0.00009881,-0.00004805,-0.00007096,0.00001740,
 0.00003407,0.00003000,-0.00001060,-0.00000934,-0.00002718,0.00001457,0
 .00000213,0.00000655,-0.00011545,-0.00005658,0.00020177,0.00000264,0.0
 0006051,-0.00003772,0.00002593,-0.00000902,-0.00001820,0.00000546,-0.0
 0002009,0.00002844,0.00000204,-0.00015512,0.00000048,0.00001299,0.0000
 2368,-0.00000244,-0.00000712,-0.00002179,0.00006739,-0.00002656,0.0000
 3748,0.00000718,0.00010101,-0.00003017,-0.00004441,-0.00008526,0.00018
 654,-0.00013975,0.00037139,-0.00112098,-0.00036977,0.00018771,0.000002
 04,0.00003115,0.00008077,0.00000078,-0.00002730,0.00000582,-0.00012225
 ,-0.00007525,-0.00003015,-0.00001143,0.00001352,0.00002227,0.00002476,
 -0.00000059,0.00001651,0.00000021,0.00001952,-0.00001521,0.00000722,0.
 00000550,-0.00031783,0.00028539,-0.00007847,-0.00091498,0.00022069,-0.
 00082370,0.00001983,0.00013541,0.00058915,-0.00009203,-0.00001476,0.00
 012106,-0.00010652,0.00001203,0.00001585,0.00003789,-0.00003415,0.0000
 4595,0.00000206,-0.00000390,0.00000806,0.00000005,0.00001176,-0.000002
 57,-0.00005879,0.00001296,-0.00003731,0.00336410,0.00067714,0.00095290
 ,-0.00080668,-0.00063113,-0.00038394,-0.00132234,0.00051615,0.00047971
 ,-0.00022388,0.00200299,-0.00104364,0.00002898,-0.00046768,-0.00092702
 ,0.00302738,-0.00036714,-0.00064222,-0.00041654,0.00189898,-0.00116820
 ,0.00003540,-0.00021053,0.00005151,0.00458144,-0.03960844,-0.02211633,
 0.00016223,-0.00099137,-0.00014031,-0.00338972,-0.00107266,-0.00020274
 ,0.00038802,-0.00093698,0.00002873,-0.00029946,-0.00045898,-0.00053805
 ,-0.00027876,0.00042450,-0.00009189,0.00013527,0.00008804,0.00009278,-
 0.00006672,-0.00012299,0.00004636,0.00000448,0.00004902,-0.00003613,0.
 00000657,-0.00000841,0.00000778,0.00000291,-0.00001555,-0.00000798,-0.
 00001448,-0.00000464,0.00001072,0.00005529,-0.00003922,-0.00001685,-0.
 00000639,0.00000563,0.00000982,-0.00000190,0.00000716,-0.00000190,-0.0
 0000889,0.00000148,-0.00000046,0.00000977,0.00000767,0.00001223,-0.000
 00777,0.00000148,-0.00000588,-0.00000238,-0.00000564,0.00000557,0.0000
 0798,-0.00000072,-0.00000303,0.00000472,-0.00002738,-0.00008672,-0.000
 00341,0.00000022,0.00001694,-0.00002518,0.00000974,0.00000422,0.000022
 48,0.00000787,0.00001170,0.00003333,-0.00010717,-0.00004995,-0.0000095
 9,0.00002014,0.00005141,-0.00000951,0.00000361,-0.00003922,-0.00000416
 ,-0.00000130,-0.00000128,0.00002417,-0.00001522,-0.00002762,-0.0000100
 0,0.00001483,0.00000495,0.00000729,-0.00001052,0.00000246,-0.00000235,
 0.00000658,0.00000247,0.00000028,-0.00000536,0.00000382,0.00000082,-0.
 00000155,-0.00000253,-0.00252299,0.00000813,0.00101557,0.00076729,-0.0
 0037258,-0.00022912,0.00075337,0.00039721,-0.00008852,0.00054218,0.000
 06263,-0.00073521,0.00867432,-0.07694497,-0.11616677,0.00115261,0.0056
 4945,0.01718520,-0.00127570,0.00898133,0.01779356,-0.01107932,0.100623
 54,0.10842618\\0.00000007,0.00000187,0.00000137,-0.00000078,0.00000254
 ,0.00000265,-0.00000178,0.00000169,0.00000252,-0.00000156,0.00000157,0
 .00000117,-0.00000066,0.00000013,0.00000151,-0.00000226,0.00000253,0.0
 0000280,-0.00000032,0.00000179,0.00000302,-0.00000018,0.00000107,0.000
 00203,-0.00000162,0.00000035,0.00000066,0.00000036,0.00000084,0.000001
 13,-0.00000135,0.00000169,0.00000164,-0.00000214,0.00000228,0.00000219
 ,-0.00000028,0.00000245,0.00000313,0.00000148,0.00000146,0.00000210,0.
 00000110,0.00000047,0.00000019,-0.00000135,0.00000024,-0.00000046,-0.0
 0000256,0.00000094,0.00000062,-0.00000130,0.00000062,0.00000032,-0.000
 00182,-0.00000085,-0.00000060,-0.00000061,0.00000295,0.00000388,-0.000
 00146,0.00000344,0.00000425,-0.00000033,0.00000326,0.00000432,-0.00000
 058,0.00000354,0.00000473,0.00000134,0.00000085,0.00000233,0.00000149,
 0.00000142,0.00000226,0.00000136,0.00000209,0.00000329,0.00000253,0.00
 000169,0.00000281,0.00000125,-0.00000061,0.00000011,0.00000119,0.00000
 031,0.00000084,0.00000175,0.00000035,0.00000019,0.00000075,-0.00000069
 ,-0.00000088,0.00000022,-0.00000110,-0.00000242,-0.00000160,-0.0000012
 9,0.00000003,0.00000021,-0.00000048,-0.00000106,0.00000121,-0.00000146
 ,-0.00000133,0.00000058,-0.00000147,-0.00000229,0.00000018,-0.00000062
 ,-0.00000002,-0.00000118,-0.00000142,-0.00000159,0.00000076,-0.0000015
 5,-0.00000190,0.00000202,-0.00000185,-0.00000191,-0.00000039,-0.000002
 38,-0.00000298,0.00000008,-0.00000089,-0.00000094,0.00000278,-0.000001
 02,0.00000063,0.00000116,0.00000005,-0.00000263,-0.00000045,-0.0000016
 3,-0.00000259,0.00000117,-0.00000300,-0.00000380,0.00000230,-0.0000008
 4,-0.00000173,0.00000180,-0.00000171,-0.00000215,0.00000056,-0.0000026
 2,-0.00000311,0.00000165,-0.00000261,-0.00000306,0.00000230,-0.0000006
 8,-0.00000063,0.00000331,-0.00000003,0.00000045,0.00000170,-0.00000079
 ,-0.00000055,0.00000226,0.00000078,0.00000097,0.00000131,0.00000100,0.
 00000139,0.00000051,0.00000053,0.00000073,0.00000251,0.00000174,0.0000
 0245,0.00000286,0.00000073,0.00000217,0.00000093,0.00000160,0.00000248
 ,0.00000042,0.00000039,0.00000086,0.00000089,0.00000181,0.00000306,0.0
 0000043,0.00000235,0.00000319,-0.00000156,-0.00000040,0.00000068,-0.00
 000255,0.00000143,-0.00000022,-0.00000102,-0.00000002,-0.00000103,-0.0
 0000186,-0.00000057,0.00000011,0.00000065,-0.00000249,-0.00000248,0.00
 000023,-0.00000237,-0.00000305,-0.00000092,-0.00000109,-0.00000222,-0.
 00000108,-0.00000201,-0.00000298,-0.00000056,-0.00000331,-0.00000473,-
 0.00000027,-0.00000302,-0.00000379,0.00000047,-0.00000325,-0.00000401,
 0.00000151,-0.00000316,-0.00000434,0.00000244,-0.00000298,-0.00000291,
 0.00000281,-0.00000326,-0.00000380,0.00000340,-0.00000247,-0.00000276,
 0.00000278,-0.00000245,-0.00000291,-0.00000356,0.00000202,0.00000199,-
 0.00000352,0.00000181,0.00000179,-0.00000321,0.00000170,0.00000111,-0.
 00000381,0.00000251,0.00000223,-0.00000219,0.00000069,-0.00000062,-0.0
 0000142,-0.00000196,-0.00000190,-0.00000318,-0.00000133,-0.00000270,-0
 .00000211,-0.00000162,-0.00000290,-0.00000163,-0.00000090,-0.00000217,
 -0.00000301,-0.00000159,-0.00000276,-0.00000170,-0.00000145,-0.0000035
 6,-0.00000243,-0.00000228,-0.00000365,-0.00000079,-0.00000268,-0.00000
 294,-0.00000173,-0.00000272,-0.00000371,0.00000176,0.00000220,0.000002
 84,0.00000260,0.00000262,0.00000408,0.00000118,0.00000240,0.00000374,0
 .00000299,0.00000190,0.00000378,-0.00000050,0.00000133,0.00000204,-0.0
 0000070,0.00000224,0.00000279,-0.00000047,0.00000131,0.00000142,-0.000
 00126,0.00000140,0.00000169\\\@


 ADAM SMITH SAID, "THE REAL PRICE OF ANYTHING IS THE TOIL AND TROUBLE
 OF ACQUIRING IT."  BUT IN ALL UNDERTAKINGS WITH NATURE WE SHOULD FIRST
 READ CAREFULLY THE SMALL PRINT IN THE CONTRACT. THIS MIGHT DISCLOSE
 THAT THE REAL PRICE IS TO BE PAID BY THOSE WHO INHERIT THE DEPLETION
 AND DESPOILATION THAT FOLLOWS.
                               -- E. R. HARRISON IN "COSMOLOGY" (1980)
 Job cpu time:       4 days 16 hours  9 minutes 11.4 seconds.
 Elapsed time:       0 days  3 hours 51 minutes 29.1 seconds.
 File lengths (MBytes):  RWF=   9695 Int=      0 D2E=      0 Chk=     85 Scr=      1
 Normal termination of Gaussian 16 at Wed May  8 15:51:08 2019.
