 Entering Gaussian System, Link 0=g16
 Input=clay_new-glu_gluC6-BCUL-Na_1Me2O-bisCF3-ts-b3lyp_d3bj-631gd-pcm_thf.gjf
 Output=clay_new-glu_gluC6-BCUL-Na_1Me2O-bisCF3-ts-b3lyp_d3bj-631gd-pcm_thf.out
 Initial command:
 /home/ekwan/sw/g16/l1.exe "/scratch/users/ekwan/clay_new-glu_gluC6-BCUL-Na_1Me2O-bisCF3-ts-b3lyp_d3bj-631gd-pcm_thf/Gau-43422.inp" -scrdir="/scratch/users/ekwan/clay_new-glu_gluC6-BCUL-Na_1Me2O-bisCF3-ts-b3lyp_d3bj-631gd-pcm_thf/"
 Entering Link 1 = /home/ekwan/sw/g16/l1.exe PID=     43423.
  
 Copyright (c) 1988,1990,1992,1993,1995,1998,2003,2009,2016,
            Gaussian, Inc.  All Rights Reserved.
  
 This is part of the Gaussian(R) 16 program.  It is based on
 the Gaussian(R) 09 system (copyright 2009, Gaussian, Inc.),
 the Gaussian(R) 03 system (copyright 2003, Gaussian, Inc.),
 the Gaussian(R) 98 system (copyright 1998, Gaussian, Inc.),
 the Gaussian(R) 94 system (copyright 1995, Gaussian, Inc.),
 the Gaussian 92(TM) system (copyright 1992, Gaussian, Inc.),
 the Gaussian 90(TM) system (copyright 1990, Gaussian, Inc.),
 the Gaussian 88(TM) system (copyright 1988, Gaussian, Inc.),
 the Gaussian 86(TM) system (copyright 1986, Carnegie Mellon
 University), and the Gaussian 82(TM) system (copyright 1983,
 Carnegie Mellon University). Gaussian is a federally registered
 trademark of Gaussian, Inc.
  
 This software contains proprietary and confidential information,
 including trade secrets, belonging to Gaussian, Inc.
  
 This software is provided under written license and may be
 used, copied, transmitted, or stored only in accord with that
 written license.
  
 The following legend is applicable only to US Government
 contracts under FAR:
  
                    RESTRICTED RIGHTS LEGEND
  
 Use, reproduction and disclosure by the US Government is
 subject to restrictions as set forth in subparagraphs (a)
 and (c) of the Commercial Computer Software - Restricted
 Rights clause in FAR 52.227-19.
  
 Gaussian, Inc.
 340 Quinnipiac St., Bldg. 40, Wallingford CT 06492
  
  
 ---------------------------------------------------------------
 Warning -- This program may not be used in any manner that
 competes with the business of Gaussian, Inc. or will provide
 assistance to any competitor of Gaussian, Inc.  The licensee
 of this program is prohibited from giving any competitor of
 Gaussian, Inc. access to this program.  By using this program,
 the user acknowledges that Gaussian, Inc. is engaged in the
 business of creating and licensing software in the field of
 computational chemistry and represents and warrants to the
 licensee that it is not a competitor of Gaussian, Inc. and that
 it will not use this program in any manner prohibited above.
 ---------------------------------------------------------------
  

 Cite this work as:
 Gaussian 16, Revision A.03,
 M. J. Frisch, G. W. Trucks, H. B. Schlegel, G. E. Scuseria, 
 M. A. Robb, J. R. Cheeseman, G. Scalmani, V. Barone, 
 G. A. Petersson, H. Nakatsuji, X. Li, M. Caricato, A. V. Marenich, 
 J. Bloino, B. G. Janesko, R. Gomperts, B. Mennucci, H. P. Hratchian, 
 J. V. Ortiz, A. F. Izmaylov, J. L. Sonnenberg, D. Williams-Young, 
 F. Ding, F. Lipparini, F. Egidi, J. Goings, B. Peng, A. Petrone, 
 T. Henderson, D. Ranasinghe, V. G. Zakrzewski, J. Gao, N. Rega, 
 G. Zheng, W. Liang, M. Hada, M. Ehara, K. Toyota, R. Fukuda, 
 J. Hasegawa, M. Ishida, T. Nakajima, Y. Honda, O. Kitao, H. Nakai, 
 T. Vreven, K. Throssell, J. A. Montgomery, Jr., J. E. Peralta, 
 F. Ogliaro, M. J. Bearpark, J. J. Heyd, E. N. Brothers, K. N. Kudin, 
 V. N. Staroverov, T. A. Keith, R. Kobayashi, J. Normand, 
 K. Raghavachari, A. P. Rendell, J. C. Burant, S. S. Iyengar, 
 J. Tomasi, M. Cossi, J. M. Millam, M. Klene, C. Adamo, R. Cammi, 
 J. W. Ochterski, R. L. Martin, K. Morokuma, O. Farkas, 
 J. B. Foresman, and D. J. Fox, Gaussian, Inc., Wallingford CT, 2016.
 
 ******************************************
 Gaussian 16:  AS64L-G16RevA.03 25-Dec-2016
                 9-May-2019 
 ******************************************
 %mem=48GB
 %nprocshared=32
 Will use up to   32 processors via shared memory.
 ----------------------------------------------------------------------
 #p opt=(ts,noeigentest,calcfc,maxstep=3,modredundant,recalc=30) freq=n
 oraman b3lyp 6-31g* pop=none scrf=(solvent=tetrahydrofuran,pcm) empiri
 caldispersion=gd3bj
 ----------------------------------------------------------------------
 1/5=1,8=3,10=4,11=1,18=120,26=3,38=1,71=30/1,3;
 2/9=110,12=2,17=6,18=5,40=1/2;
 3/5=1,6=6,7=1,11=2,25=1,30=1,70=2201,71=2,72=20,74=-5,124=41,140=1/1,2,3;
 4//1;
 5/5=2,38=5,53=20/2;
 8/6=4,10=90,11=11/1;
 11/6=1,8=1,9=11,15=111,16=1/1,2,10;
 10/6=1,13=1/2;
 7/10=1,18=20,25=1/1,2,3,16;
 1/5=1,8=3,10=4,11=1,18=20,26=3,71=30/3(2);
 2/9=110/2;
 99//99;
 2/9=110/2;
 3/5=1,6=6,7=1,11=2,25=1,30=1,70=2205,71=1,72=20,74=-5,124=41/1,2,3;
 4/5=5,16=3,69=1/1;
 5/5=2,38=5,53=20/2;
 7//1,2,3,16;
 1/5=1,8=3,11=1,18=20,26=3,71=30/3(-5);
 2/9=110/2;
 99/9=1/99;
 Leave Link    1 at Thu May  9 08:23:58 2019, MaxMem=  6442450944 cpu:               5.5 elap:               0.2
 (Enter /home/ekwan/sw/g16/l101.exe)
 -----
 title
 -----
 Symbolic Z-matrix:
 Charge =  0 Multiplicity = 1
 C                     6.23837   0.15376  -0.00387 
 C                     5.6436    1.43341   0.5916 
 C                     4.7654    2.14927  -0.43952 
 C                     4.25999   0.09174  -1.59918 
 C                     5.13744  -0.70568  -0.62825 
 H                     4.2219    2.98118   0.02988 
 H                     4.98829   1.15392   1.43127 
 H                     6.96651   0.43792  -0.77399 
 H                     4.8656    0.42281  -2.45101 
 H                     4.50116  -1.07952   0.18326 
 O                     3.75094   1.26762  -0.90692 
 O                     5.57965   2.61598  -1.47156 
 O                     6.63534   2.34084   1.03575 
 O                     6.88934  -0.55863   1.04599 
 O                     5.73395  -1.80382  -1.31326 
 C                     3.03812  -0.6991   -2.09515 
 H                     3.45154  -1.49333  -2.75312 
 H                     2.49755  -0.00554  -2.78405 
 O                     2.24415  -1.18208  -1.08374 
 C                     6.96286   2.22529   2.41462 
 H                     6.07589   2.38537   3.04716 
 H                     7.3924    1.24593   2.64572 
 H                     7.69365   3.00957   2.62797 
 C                     8.10777  -1.1817    0.65954 
 H                     7.94766  -1.91283  -0.13926 
 H                     8.84238  -0.43617   0.32235 
 H                     8.49729  -1.68652   1.54752 
 C                     5.13931  -3.05786  -0.99758 
 H                     5.33846  -3.33323   0.04836 
 H                     4.05555  -3.03669  -1.15872 
 H                     5.59889  -3.80044  -1.6551 
 C                    -1.56381  -1.91483   0.44471 
 C                    -0.4736   -2.06728  -0.61301 
 C                    -0.27167  -0.81531  -1.42919 
 C                    -1.24012   0.58921   0.24836 
 C                    -1.36499  -0.60227   1.20585 
 H                     0.35116  -0.85402  -2.30535 
 H                     0.4813   -2.15457  -0.083 
 H                    -2.54391  -1.91424  -0.03319 
 H                    -2.20317   0.74803  -0.23361 
 H                    -0.45904  -0.68603   1.81543 
 O                    -0.28184   0.35749  -0.83088 
 O                    -3.48761  -2.50605  -2.2927 
 O                    -0.67969  -3.19424  -1.42451 
 O                    -1.47604  -2.98453   1.37466 
 O                    -2.49045  -0.29394   2.01269 
 C                    -0.83306   1.8836    0.91433 
 H                    -1.59075   2.13014   1.66742 
 H                    -0.80395   2.68974   0.16995 
 O                     0.44335   1.72309   1.52061 
 S                    -3.26707  -1.12115  -2.74007 
 O                    -3.73848  -0.76011  -4.08823 
 O                    -1.81561  -0.63047  -2.57337 
 C                    -4.14974  -0.0776   -1.5682 
 C                    -4.75085  -0.66117  -0.45931 
 C                    -4.07478   1.30942  -1.69838 
 C                    -5.23203   0.15401   0.56493 
 H                    -4.7957   -1.74002  -0.38361 
 C                    -4.57014   2.1105   -0.67173 
 H                    -3.59764   1.75303  -2.56459 
 C                    -5.139     1.53899   0.46937 
 H                    -5.48602   2.16911   1.2792 
 C                     0.51548  -3.94715  -1.65259 
 H                     1.34554  -3.28797  -1.92558 
 H                     0.79257  -4.51097  -0.75057 
 H                     0.2919   -4.64648  -2.46101 
 C                    -2.4518   -4.00258   1.16133 
 H                    -3.46383  -3.61201   1.33407 
 H                    -2.38534  -4.40652   0.14656 
 H                    -2.24325  -4.79113   1.88815 
 C                    -2.39237  -0.72014   3.36831 
 H                    -2.26797  -1.80455   3.43468 
 H                    -1.55145  -0.22588   3.87424 
 H                    -3.32768  -0.42391   3.8453 
 C                     0.8711    2.89034   2.21675 
 H                     1.85852   2.67028   2.62891 
 H                     0.93998   3.74992   1.53743 
 H                     0.1789    3.12997   3.03369 
 C                     4.8903    3.43487  -2.41261 
 H                     5.64136   3.80849  -3.11066 
 H                     4.13209   2.8641   -2.96019 
 H                     4.4061    4.28315  -1.90876 
 Na                    2.06684   0.40764   0.46091 
 O                     1.94727  -1.07368   2.22537 
 C                     2.29002  -2.42802   1.92686 
 H                     1.43729  -3.08828   2.13524 
 H                     2.5312   -2.44841   0.86224 
 H                     3.15494  -2.74926   2.5228 
 C                     1.64013  -0.87091   3.59705 
 H                     2.51833  -1.06307   4.22839 
 H                     1.32751   0.16962   3.70464 
 H                     0.8216   -1.53066   3.91526 
 C                    -5.82876  -0.47722   1.79274 
 F                    -7.1625   -0.65901   1.66737 
 F                    -5.63736   0.28916   2.89091 
 F                    -5.28812  -1.68921   2.04752 
 C                    -4.34917   3.59634  -0.71838 
 F                    -3.16905   3.9248   -0.12578 
 F                    -5.31332   4.27467  -0.06374 
 F                    -4.29694   4.06434  -1.98031 
 
 Add virtual bond connecting atoms O53        and C34        Dist= 3.65D+00.
 Add virtual bond connecting atoms H37        and H18        Dist= 4.45D+00.
 Add virtual bond connecting atoms H37        and O19        Dist= 4.30D+00.
 Add virtual bond connecting atoms H38        and O19        Dist= 4.25D+00.
 Add virtual bond connecting atoms O50        and Na83       Dist= 4.43D+00.
 Add virtual bond connecting atoms O84        and Na83       Dist= 4.36D+00.
 Add virtual bond connecting atoms H87        and O19        Dist= 4.42D+00.
 Add virtual bond connecting atoms H87        and H38        Dist= 4.30D+00.
 The following ModRedundant input section has been read:
 
 ITRead=  0  0  0  0  0  0  0  0  0  0  0  0  0  0  0  0  0  0  0  0
 ITRead=  0  0  0  0  0  0  0  0  0  0  0  0  0  0  0  0  0  0  0  0
 ITRead=  0  0  0  0  0  0  0  0  0  0  0  0  0  0  0  0  0  0  0  0
 ITRead=  0  0  0  0  0  0  0  0  0  0  0  0  0  0  0  0  0  0  0  0
 ITRead=  0  0  0  0  0  0  0  0  0  0  0  0  0  0  0  0  0  0  0  0
 MicOpt= -1 -1 -1 -1 -1 -1 -1 -1 -1 -1 -1 -1 -1 -1 -1 -1 -1 -1 -1 -1
 MicOpt= -1 -1 -1 -1 -1 -1 -1 -1 -1 -1 -1 -1 -1 -1 -1 -1 -1 -1 -1 -1
 MicOpt= -1 -1 -1 -1 -1 -1 -1 -1 -1 -1 -1 -1 -1 -1 -1 -1 -1 -1 -1 -1
 MicOpt= -1 -1 -1 -1 -1 -1 -1 -1 -1 -1 -1 -1 -1 -1 -1 -1 -1 -1 -1 -1
 MicOpt= -1 -1 -1 -1 -1 -1 -1 -1 -1 -1 -1 -1 -1 -1 -1 -1 -1 -1 -1 -1
 NAtoms=    100 NQM=      100 NQMF=       0 NMMI=      0 NMMIF=      0
                NMic=       0 NMicF=      0.
                    Isotopes and Nuclear Properties:
 (Nuclear quadrupole moments (NQMom) in fm**2, nuclear magnetic moments (NMagM)
  in nuclear magnetons)

  Atom         1           2           3           4           5           6           7           8           9          10
 IAtWgt=          12          12          12          12          12           1           1           1           1           1
 AtmWgt=  12.0000000  12.0000000  12.0000000  12.0000000  12.0000000   1.0078250   1.0078250   1.0078250   1.0078250   1.0078250
 NucSpn=           0           0           0           0           0           1           1           1           1           1
 AtZEff=   0.0000000   0.0000000   0.0000000   0.0000000   0.0000000   0.0000000   0.0000000   0.0000000   0.0000000   0.0000000
 NQMom=    0.0000000   0.0000000   0.0000000   0.0000000   0.0000000   0.0000000   0.0000000   0.0000000   0.0000000   0.0000000
 NMagM=    0.0000000   0.0000000   0.0000000   0.0000000   0.0000000   2.7928460   2.7928460   2.7928460   2.7928460   2.7928460
 AtZNuc=   6.0000000   6.0000000   6.0000000   6.0000000   6.0000000   1.0000000   1.0000000   1.0000000   1.0000000   1.0000000

  Atom        11          12          13          14          15          16          17          18          19          20
 IAtWgt=          16          16          16          16          16          12           1           1          16          12
 AtmWgt=  15.9949146  15.9949146  15.9949146  15.9949146  15.9949146  12.0000000   1.0078250   1.0078250  15.9949146  12.0000000
 NucSpn=           0           0           0           0           0           0           1           1           0           0
 AtZEff=   0.0000000   0.0000000   0.0000000   0.0000000   0.0000000   0.0000000   0.0000000   0.0000000   0.0000000   0.0000000
 NQMom=    0.0000000   0.0000000   0.0000000   0.0000000   0.0000000   0.0000000   0.0000000   0.0000000   0.0000000   0.0000000
 NMagM=    0.0000000   0.0000000   0.0000000   0.0000000   0.0000000   0.0000000   2.7928460   2.7928460   0.0000000   0.0000000
 AtZNuc=   8.0000000   8.0000000   8.0000000   8.0000000   8.0000000   6.0000000   1.0000000   1.0000000   8.0000000   6.0000000

  Atom        21          22          23          24          25          26          27          28          29          30
 IAtWgt=           1           1           1          12           1           1           1          12           1           1
 AtmWgt=   1.0078250   1.0078250   1.0078250  12.0000000   1.0078250   1.0078250   1.0078250  12.0000000   1.0078250   1.0078250
 NucSpn=           1           1           1           0           1           1           1           0           1           1
 AtZEff=   0.0000000   0.0000000   0.0000000   0.0000000   0.0000000   0.0000000   0.0000000   0.0000000   0.0000000   0.0000000
 NQMom=    0.0000000   0.0000000   0.0000000   0.0000000   0.0000000   0.0000000   0.0000000   0.0000000   0.0000000   0.0000000
 NMagM=    2.7928460   2.7928460   2.7928460   0.0000000   2.7928460   2.7928460   2.7928460   0.0000000   2.7928460   2.7928460
 AtZNuc=   1.0000000   1.0000000   1.0000000   6.0000000   1.0000000   1.0000000   1.0000000   6.0000000   1.0000000   1.0000000

  Atom        31          32          33          34          35          36          37          38          39          40
 IAtWgt=           1          12          12          12          12          12           1           1           1           1
 AtmWgt=   1.0078250  12.0000000  12.0000000  12.0000000  12.0000000  12.0000000   1.0078250   1.0078250   1.0078250   1.0078250
 NucSpn=           1           0           0           0           0           0           1           1           1           1
 AtZEff=   0.0000000   0.0000000   0.0000000   0.0000000   0.0000000   0.0000000   0.0000000   0.0000000   0.0000000   0.0000000
 NQMom=    0.0000000   0.0000000   0.0000000   0.0000000   0.0000000   0.0000000   0.0000000   0.0000000   0.0000000   0.0000000
 NMagM=    2.7928460   0.0000000   0.0000000   0.0000000   0.0000000   0.0000000   2.7928460   2.7928460   2.7928460   2.7928460
 AtZNuc=   1.0000000   6.0000000   6.0000000   6.0000000   6.0000000   6.0000000   1.0000000   1.0000000   1.0000000   1.0000000

  Atom        41          42          43          44          45          46          47          48          49          50
 IAtWgt=           1          16          16          16          16          16          12           1           1          16
 AtmWgt=   1.0078250  15.9949146  15.9949146  15.9949146  15.9949146  15.9949146  12.0000000   1.0078250   1.0078250  15.9949146
 NucSpn=           1           0           0           0           0           0           0           1           1           0
 AtZEff=   0.0000000   0.0000000   0.0000000   0.0000000   0.0000000   0.0000000   0.0000000   0.0000000   0.0000000   0.0000000
 NQMom=    0.0000000   0.0000000   0.0000000   0.0000000   0.0000000   0.0000000   0.0000000   0.0000000   0.0000000   0.0000000
 NMagM=    2.7928460   0.0000000   0.0000000   0.0000000   0.0000000   0.0000000   0.0000000   2.7928460   2.7928460   0.0000000
 AtZNuc=   1.0000000   8.0000000   8.0000000   8.0000000   8.0000000   8.0000000   6.0000000   1.0000000   1.0000000   8.0000000

  Atom        51          52          53          54          55          56          57          58          59          60
 IAtWgt=          32          16          16          12          12          12          12           1          12           1
 AtmWgt=  31.9720718  15.9949146  15.9949146  12.0000000  12.0000000  12.0000000  12.0000000   1.0078250  12.0000000   1.0078250
 NucSpn=           0           0           0           0           0           0           0           1           0           1
 AtZEff=   0.0000000   0.0000000   0.0000000   0.0000000   0.0000000   0.0000000   0.0000000   0.0000000   0.0000000   0.0000000
 NQMom=    0.0000000   0.0000000   0.0000000   0.0000000   0.0000000   0.0000000   0.0000000   0.0000000   0.0000000   0.0000000
 NMagM=    0.0000000   0.0000000   0.0000000   0.0000000   0.0000000   0.0000000   0.0000000   2.7928460   0.0000000   2.7928460
 AtZNuc=  16.0000000   8.0000000   8.0000000   6.0000000   6.0000000   6.0000000   6.0000000   1.0000000   6.0000000   1.0000000

  Atom        61          62          63          64          65          66          67          68          69          70
 IAtWgt=          12           1          12           1           1           1          12           1           1           1
 AtmWgt=  12.0000000   1.0078250  12.0000000   1.0078250   1.0078250   1.0078250  12.0000000   1.0078250   1.0078250   1.0078250
 NucSpn=           0           1           0           1           1           1           0           1           1           1
 AtZEff=   0.0000000   0.0000000   0.0000000   0.0000000   0.0000000   0.0000000   0.0000000   0.0000000   0.0000000   0.0000000
 NQMom=    0.0000000   0.0000000   0.0000000   0.0000000   0.0000000   0.0000000   0.0000000   0.0000000   0.0000000   0.0000000
 NMagM=    0.0000000   2.7928460   0.0000000   2.7928460   2.7928460   2.7928460   0.0000000   2.7928460   2.7928460   2.7928460
 AtZNuc=   6.0000000   1.0000000   6.0000000   1.0000000   1.0000000   1.0000000   6.0000000   1.0000000   1.0000000   1.0000000

  Atom        71          72          73          74          75          76          77          78          79          80
 IAtWgt=          12           1           1           1          12           1           1           1          12           1
 AtmWgt=  12.0000000   1.0078250   1.0078250   1.0078250  12.0000000   1.0078250   1.0078250   1.0078250  12.0000000   1.0078250
 NucSpn=           0           1           1           1           0           1           1           1           0           1
 AtZEff=   0.0000000   0.0000000   0.0000000   0.0000000   0.0000000   0.0000000   0.0000000   0.0000000   0.0000000   0.0000000
 NQMom=    0.0000000   0.0000000   0.0000000   0.0000000   0.0000000   0.0000000   0.0000000   0.0000000   0.0000000   0.0000000
 NMagM=    0.0000000   2.7928460   2.7928460   2.7928460   0.0000000   2.7928460   2.7928460   2.7928460   0.0000000   2.7928460
 AtZNuc=   6.0000000   1.0000000   1.0000000   1.0000000   6.0000000   1.0000000   1.0000000   1.0000000   6.0000000   1.0000000

  Atom        81          82          83          84          85          86          87          88          89          90
 IAtWgt=           1           1          23          16          12           1           1           1          12           1
 AtmWgt=   1.0078250   1.0078250  22.9897697  15.9949146  12.0000000   1.0078250   1.0078250   1.0078250  12.0000000   1.0078250
 NucSpn=           1           1           3           0           0           1           1           1           0           1
 AtZEff=   0.0000000   0.0000000   0.0000000   0.0000000   0.0000000   0.0000000   0.0000000   0.0000000   0.0000000   0.0000000
 NQMom=    0.0000000   0.0000000  10.4000000   0.0000000   0.0000000   0.0000000   0.0000000   0.0000000   0.0000000   0.0000000
 NMagM=    2.7928460   2.7928460   2.2175200   0.0000000   0.0000000   2.7928460   2.7928460   2.7928460   0.0000000   2.7928460
 AtZNuc=   1.0000000   1.0000000  11.0000000   8.0000000   6.0000000   1.0000000   1.0000000   1.0000000   6.0000000   1.0000000

  Atom        91          92          93          94          95          96          97          98          99         100
 IAtWgt=           1           1          12          19          19          19          12          19          19          19
 AtmWgt=   1.0078250   1.0078250  12.0000000  18.9984033  18.9984033  18.9984033  12.0000000  18.9984033  18.9984033  18.9984033
 NucSpn=           1           1           0           1           1           1           0           1           1           1
 AtZEff=   0.0000000   0.0000000   0.0000000   0.0000000   0.0000000   0.0000000   0.0000000   0.0000000   0.0000000   0.0000000
 NQMom=    0.0000000   0.0000000   0.0000000   0.0000000   0.0000000   0.0000000   0.0000000   0.0000000   0.0000000   0.0000000
 NMagM=    2.7928460   2.7928460   0.0000000   2.6288670   2.6288670   2.6288670   0.0000000   2.6288670   2.6288670   2.6288670
 AtZNuc=   1.0000000   1.0000000   6.0000000   9.0000000   9.0000000   9.0000000   6.0000000   9.0000000   9.0000000   9.0000000
 Leave Link  101 at Thu May  9 08:23:59 2019, MaxMem=  6442450944 cpu:              18.6 elap:               0.6
 (Enter /home/ekwan/sw/g16/l103.exe)

 GradGradGradGradGradGradGradGradGradGradGradGradGradGradGradGradGradGrad
 Berny optimization.
 Initialization pass.
                           ----------------------------
                           !    Initial Parameters    !
                           ! (Angstroms and Degrees)  !
 --------------------------                            --------------------------
 ! Name  Definition              Value          Derivative Info.                !
 --------------------------------------------------------------------------------
 ! R1    R(1,2)                  1.5316         calculate D2E/DX2 analytically  !
 ! R2    R(1,5)                  1.5299         calculate D2E/DX2 analytically  !
 ! R3    R(1,8)                  1.0973         calculate D2E/DX2 analytically  !
 ! R4    R(1,14)                 1.426          calculate D2E/DX2 analytically  !
 ! R5    R(2,3)                  1.532          calculate D2E/DX2 analytically  !
 ! R6    R(2,7)                  1.1012         calculate D2E/DX2 analytically  !
 ! R7    R(2,13)                 1.4157         calculate D2E/DX2 analytically  !
 ! R8    R(3,6)                  1.099          calculate D2E/DX2 analytically  !
 ! R9    R(3,11)                 1.423          calculate D2E/DX2 analytically  !
 ! R10   R(3,12)                 1.395          calculate D2E/DX2 analytically  !
 ! R11   R(4,5)                  1.5325         calculate D2E/DX2 analytically  !
 ! R12   R(4,9)                  1.0964         calculate D2E/DX2 analytically  !
 ! R13   R(4,11)                 1.4564         calculate D2E/DX2 analytically  !
 ! R14   R(4,16)                 1.5377         calculate D2E/DX2 analytically  !
 ! R15   R(5,10)                 1.0969         calculate D2E/DX2 analytically  !
 ! R16   R(5,15)                 1.4251         calculate D2E/DX2 analytically  !
 ! R17   R(12,79)                1.4253         calculate D2E/DX2 analytically  !
 ! R18   R(13,20)                1.4219         calculate D2E/DX2 analytically  !
 ! R19   R(14,24)                1.422          calculate D2E/DX2 analytically  !
 ! R20   R(15,28)                1.4233         calculate D2E/DX2 analytically  !
 ! R21   R(16,17)                1.1111         calculate D2E/DX2 analytically  !
 ! R22   R(16,18)                1.1171         calculate D2E/DX2 analytically  !
 ! R23   R(16,19)                1.3735         calculate D2E/DX2 analytically  !
 ! R24   R(18,37)                2.3571         calculate D2E/DX2 analytically  !
 ! R25   R(19,37)                2.2767         calculate D2E/DX2 analytically  !
 ! R26   R(19,38)                2.2483         calculate D2E/DX2 analytically  !
 ! R27   R(19,83)                2.2236         calculate D2E/DX2 analytically  !
 ! R28   R(19,87)                2.3394         calculate D2E/DX2 analytically  !
 ! R29   R(20,21)                1.1011         calculate D2E/DX2 analytically  !
 ! R30   R(20,22)                1.0941         calculate D2E/DX2 analytically  !
 ! R31   R(20,23)                1.093          calculate D2E/DX2 analytically  !
 ! R32   R(24,25)                1.0947         calculate D2E/DX2 analytically  !
 ! R33   R(24,26)                1.0996         calculate D2E/DX2 analytically  !
 ! R34   R(24,27)                1.0932         calculate D2E/DX2 analytically  !
 ! R35   R(28,29)                1.0998         calculate D2E/DX2 analytically  !
 ! R36   R(28,30)                1.0959         calculate D2E/DX2 analytically  !
 ! R37   R(28,31)                1.0931         calculate D2E/DX2 analytically  !
 ! R38   R(32,33)                1.5266         calculate D2E/DX2 analytically  !
 ! R39   R(32,36)                1.5303         calculate D2E/DX2 analytically  !
 ! R40   R(32,39)                1.0904         calculate D2E/DX2 analytically  !
 ! R41   R(32,45)                1.4201         calculate D2E/DX2 analytically  !
 ! R42   R(33,34)                1.5081         calculate D2E/DX2 analytically  !
 ! R43   R(33,38)                1.0956         calculate D2E/DX2 analytically  !
 ! R44   R(33,44)                1.4039         calculate D2E/DX2 analytically  !
 ! R45   R(34,37)                1.0757         calculate D2E/DX2 analytically  !
 ! R46   R(34,42)                1.3166         calculate D2E/DX2 analytically  !
 ! R47   R(34,53)                1.9306         calculate D2E/DX2 analytically  !
 ! R48   R(35,36)                1.5336         calculate D2E/DX2 analytically  !
 ! R49   R(35,40)                1.0886         calculate D2E/DX2 analytically  !
 ! R50   R(35,42)                1.4618         calculate D2E/DX2 analytically  !
 ! R51   R(35,47)                1.5115         calculate D2E/DX2 analytically  !
 ! R52   R(36,41)                1.0951         calculate D2E/DX2 analytically  !
 ! R53   R(36,46)                1.4187         calculate D2E/DX2 analytically  !
 ! R54   R(38,87)                2.2764         calculate D2E/DX2 analytically  !
 ! R55   R(43,51)                1.472          calculate D2E/DX2 analytically  !
 ! R56   R(44,63)                1.4308         calculate D2E/DX2 analytically  !
 ! R57   R(45,67)                1.4262         calculate D2E/DX2 analytically  !
 ! R58   R(46,71)                1.4244         calculate D2E/DX2 analytically  !
 ! R59   R(47,48)                1.0964         calculate D2E/DX2 analytically  !
 ! R60   R(47,49)                1.0976         calculate D2E/DX2 analytically  !
 ! R61   R(47,50)                1.4222         calculate D2E/DX2 analytically  !
 ! R62   R(50,75)                1.4248         calculate D2E/DX2 analytically  !
 ! R63   R(50,83)                2.3429         calculate D2E/DX2 analytically  !
 ! R64   R(51,52)                1.4731         calculate D2E/DX2 analytically  !
 ! R65   R(51,53)                1.5412         calculate D2E/DX2 analytically  !
 ! R66   R(51,54)                1.8004         calculate D2E/DX2 analytically  !
 ! R67   R(54,55)                1.3898         calculate D2E/DX2 analytically  !
 ! R68   R(54,56)                1.3951         calculate D2E/DX2 analytically  !
 ! R69   R(55,57)                1.3947         calculate D2E/DX2 analytically  !
 ! R70   R(55,58)                1.0824         calculate D2E/DX2 analytically  !
 ! R71   R(56,59)                1.3932         calculate D2E/DX2 analytically  !
 ! R72   R(56,60)                1.0839         calculate D2E/DX2 analytically  !
 ! R73   R(57,61)                1.3914         calculate D2E/DX2 analytically  !
 ! R74   R(57,93)                1.504          calculate D2E/DX2 analytically  !
 ! R75   R(59,61)                1.3973         calculate D2E/DX2 analytically  !
 ! R76   R(59,97)                1.5029         calculate D2E/DX2 analytically  !
 ! R77   R(61,62)                1.0832         calculate D2E/DX2 analytically  !
 ! R78   R(63,64)                1.0945         calculate D2E/DX2 analytically  !
 ! R79   R(63,65)                1.0992         calculate D2E/DX2 analytically  !
 ! R80   R(63,66)                1.0921         calculate D2E/DX2 analytically  !
 ! R81   R(67,68)                1.0984         calculate D2E/DX2 analytically  !
 ! R82   R(67,69)                1.0942         calculate D2E/DX2 analytically  !
 ! R83   R(67,70)                1.0925         calculate D2E/DX2 analytically  !
 ! R84   R(71,72)                1.0935         calculate D2E/DX2 analytically  !
 ! R85   R(71,73)                1.0988         calculate D2E/DX2 analytically  !
 ! R86   R(71,74)                1.0909         calculate D2E/DX2 analytically  !
 ! R87   R(75,76)                1.0924         calculate D2E/DX2 analytically  !
 ! R88   R(75,77)                1.0978         calculate D2E/DX2 analytically  !
 ! R89   R(75,78)                1.0973         calculate D2E/DX2 analytically  !
 ! R90   R(79,80)                1.0913         calculate D2E/DX2 analytically  !
 ! R91   R(79,81)                1.0957         calculate D2E/DX2 analytically  !
 ! R92   R(79,82)                1.099          calculate D2E/DX2 analytically  !
 ! R93   R(83,84)                2.3069         calculate D2E/DX2 analytically  !
 ! R94   R(84,85)                1.4286         calculate D2E/DX2 analytically  !
 ! R95   R(84,89)                1.4202         calculate D2E/DX2 analytically  !
 ! R96   R(85,86)                1.0984         calculate D2E/DX2 analytically  !
 ! R97   R(85,87)                1.0918         calculate D2E/DX2 analytically  !
 ! R98   R(85,88)                1.0984         calculate D2E/DX2 analytically  !
 ! R99   R(89,90)                1.0985         calculate D2E/DX2 analytically  !
 ! R100  R(89,91)                1.0918         calculate D2E/DX2 analytically  !
 ! R101  R(89,92)                1.0984         calculate D2E/DX2 analytically  !
 ! R102  R(93,94)                1.3519         calculate D2E/DX2 analytically  !
 ! R103  R(93,95)                1.3528         calculate D2E/DX2 analytically  !
 ! R104  R(93,96)                1.3513         calculate D2E/DX2 analytically  !
 ! R105  R(97,98)                1.3608         calculate D2E/DX2 analytically  !
 ! R106  R(97,99)                1.3484         calculate D2E/DX2 analytically  !
 ! R107  R(97,100)               1.3469         calculate D2E/DX2 analytically  !
 ! A1    A(2,1,5)              110.4005         calculate D2E/DX2 analytically  !
 ! A2    A(2,1,8)              108.3124         calculate D2E/DX2 analytically  !
 ! A3    A(2,1,14)             107.9645         calculate D2E/DX2 analytically  !
 ! A4    A(5,1,8)              109.6679         calculate D2E/DX2 analytically  !
 ! A5    A(5,1,14)             110.3853         calculate D2E/DX2 analytically  !
 ! A6    A(8,1,14)             110.0694         calculate D2E/DX2 analytically  !
 ! A7    A(1,2,3)              110.5693         calculate D2E/DX2 analytically  !
 ! A8    A(1,2,7)              108.3904         calculate D2E/DX2 analytically  !
 ! A9    A(1,2,13)             112.6727         calculate D2E/DX2 analytically  !
 ! A10   A(3,2,7)              106.899          calculate D2E/DX2 analytically  !
 ! A11   A(3,2,13)             108.2538         calculate D2E/DX2 analytically  !
 ! A12   A(7,2,13)             109.898          calculate D2E/DX2 analytically  !
 ! A13   A(2,3,6)              110.4714         calculate D2E/DX2 analytically  !
 ! A14   A(2,3,11)             109.8916         calculate D2E/DX2 analytically  !
 ! A15   A(2,3,12)             108.6437         calculate D2E/DX2 analytically  !
 ! A16   A(6,3,11)             104.8766         calculate D2E/DX2 analytically  !
 ! A17   A(6,3,12)             110.5728         calculate D2E/DX2 analytically  !
 ! A18   A(11,3,12)            112.359          calculate D2E/DX2 analytically  !
 ! A19   A(5,4,9)              109.4578         calculate D2E/DX2 analytically  !
 ! A20   A(5,4,11)             108.6085         calculate D2E/DX2 analytically  !
 ! A21   A(5,4,16)             113.0618         calculate D2E/DX2 analytically  !
 ! A22   A(9,4,11)             108.5768         calculate D2E/DX2 analytically  !
 ! A23   A(9,4,16)             110.099          calculate D2E/DX2 analytically  !
 ! A24   A(11,4,16)            106.9074         calculate D2E/DX2 analytically  !
 ! A25   A(1,5,4)              112.2279         calculate D2E/DX2 analytically  !
 ! A26   A(1,5,10)             107.876          calculate D2E/DX2 analytically  !
 ! A27   A(1,5,15)             109.1379         calculate D2E/DX2 analytically  !
 ! A28   A(4,5,10)             108.2971         calculate D2E/DX2 analytically  !
 ! A29   A(4,5,15)             109.6378         calculate D2E/DX2 analytically  !
 ! A30   A(10,5,15)            109.6205         calculate D2E/DX2 analytically  !
 ! A31   A(3,11,4)             114.0288         calculate D2E/DX2 analytically  !
 ! A32   A(3,12,79)            113.478          calculate D2E/DX2 analytically  !
 ! A33   A(2,13,20)            114.4246         calculate D2E/DX2 analytically  !
 ! A34   A(1,14,24)            114.2025         calculate D2E/DX2 analytically  !
 ! A35   A(5,15,28)            113.4178         calculate D2E/DX2 analytically  !
 ! A36   A(4,16,17)            105.246          calculate D2E/DX2 analytically  !
 ! A37   A(4,16,18)            105.3154         calculate D2E/DX2 analytically  !
 ! A38   A(4,16,19)            113.7453         calculate D2E/DX2 analytically  !
 ! A39   A(17,16,18)           104.9914         calculate D2E/DX2 analytically  !
 ! A40   A(17,16,19)           113.5633         calculate D2E/DX2 analytically  !
 ! A41   A(18,16,19)           113.1229         calculate D2E/DX2 analytically  !
 ! A42   A(16,18,37)            95.274          calculate D2E/DX2 analytically  !
 ! A43   A(16,19,37)            91.9972         calculate D2E/DX2 analytically  !
 ! A44   A(16,19,38)           158.9217         calculate D2E/DX2 analytically  !
 ! A45   A(16,19,83)           107.8313         calculate D2E/DX2 analytically  !
 ! A46   A(16,19,87)           137.0484         calculate D2E/DX2 analytically  !
 ! A47   A(37,19,38)            69.4654         calculate D2E/DX2 analytically  !
 ! A48   A(37,19,83)           101.737          calculate D2E/DX2 analytically  !
 ! A49   A(37,19,87)           128.7816         calculate D2E/DX2 analytically  !
 ! A50   A(38,19,83)            86.4178         calculate D2E/DX2 analytically  !
 ! A51   A(83,19,87)            79.5683         calculate D2E/DX2 analytically  !
 ! A52   A(13,20,21)           111.0818         calculate D2E/DX2 analytically  !
 ! A53   A(13,20,22)           111.5916         calculate D2E/DX2 analytically  !
 ! A54   A(13,20,23)           106.5573         calculate D2E/DX2 analytically  !
 ! A55   A(21,20,22)           108.9682         calculate D2E/DX2 analytically  !
 ! A56   A(21,20,23)           108.7919         calculate D2E/DX2 analytically  !
 ! A57   A(22,20,23)           109.7901         calculate D2E/DX2 analytically  !
 ! A58   A(14,24,25)           111.4464         calculate D2E/DX2 analytically  !
 ! A59   A(14,24,26)           111.0194         calculate D2E/DX2 analytically  !
 ! A60   A(14,24,27)           106.6717         calculate D2E/DX2 analytically  !
 ! A61   A(25,24,26)           109.074          calculate D2E/DX2 analytically  !
 ! A62   A(25,24,27)           109.6596         calculate D2E/DX2 analytically  !
 ! A63   A(26,24,27)           108.9125         calculate D2E/DX2 analytically  !
 ! A64   A(15,28,29)           110.8482         calculate D2E/DX2 analytically  !
 ! A65   A(15,28,30)           111.3173         calculate D2E/DX2 analytically  !
 ! A66   A(15,28,31)           106.8256         calculate D2E/DX2 analytically  !
 ! A67   A(29,28,30)           108.8907         calculate D2E/DX2 analytically  !
 ! A68   A(29,28,31)           109.0161         calculate D2E/DX2 analytically  !
 ! A69   A(30,28,31)           109.9037         calculate D2E/DX2 analytically  !
 ! A70   A(33,32,36)           109.7241         calculate D2E/DX2 analytically  !
 ! A71   A(33,32,39)           109.7723         calculate D2E/DX2 analytically  !
 ! A72   A(33,32,45)           109.5326         calculate D2E/DX2 analytically  !
 ! A73   A(36,32,39)           109.5314         calculate D2E/DX2 analytically  !
 ! A74   A(36,32,45)           108.2002         calculate D2E/DX2 analytically  !
 ! A75   A(39,32,45)           110.0573         calculate D2E/DX2 analytically  !
 ! A76   A(32,33,34)           112.8108         calculate D2E/DX2 analytically  !
 ! A77   A(32,33,38)           107.1701         calculate D2E/DX2 analytically  !
 ! A78   A(32,33,44)           112.0746         calculate D2E/DX2 analytically  !
 ! A79   A(34,33,38)           102.1955         calculate D2E/DX2 analytically  !
 ! A80   A(34,33,44)           111.9141         calculate D2E/DX2 analytically  !
 ! A81   A(38,33,44)           110.0961         calculate D2E/DX2 analytically  !
 ! A82   A(33,34,37)           119.2402         calculate D2E/DX2 analytically  !
 ! A83   A(33,34,42)           119.5051         calculate D2E/DX2 analytically  !
 ! A84   A(33,34,53)           107.0466         calculate D2E/DX2 analytically  !
 ! A85   A(37,34,42)           113.9959         calculate D2E/DX2 analytically  !
 ! A86   A(37,34,53)            89.0694         calculate D2E/DX2 analytically  !
 ! A87   A(42,34,53)           100.2454         calculate D2E/DX2 analytically  !
 ! A88   A(36,35,40)           108.5262         calculate D2E/DX2 analytically  !
 ! A89   A(36,35,42)           113.0274         calculate D2E/DX2 analytically  !
 ! A90   A(36,35,47)           114.3401         calculate D2E/DX2 analytically  !
 ! A91   A(40,35,42)           106.0338         calculate D2E/DX2 analytically  !
 ! A92   A(40,35,47)           107.9627         calculate D2E/DX2 analytically  !
 ! A93   A(42,35,47)           106.5294         calculate D2E/DX2 analytically  !
 ! A94   A(32,36,35)           111.495          calculate D2E/DX2 analytically  !
 ! A95   A(32,36,41)           108.5868         calculate D2E/DX2 analytically  !
 ! A96   A(32,36,46)           111.4828         calculate D2E/DX2 analytically  !
 ! A97   A(35,36,41)           109.8512         calculate D2E/DX2 analytically  !
 ! A98   A(35,36,46)           104.5259         calculate D2E/DX2 analytically  !
 ! A99   A(41,36,46)           110.8736         calculate D2E/DX2 analytically  !
 ! A100  A(18,37,19)            53.3954         calculate D2E/DX2 analytically  !
 ! A101  A(18,37,34)           132.8206         calculate D2E/DX2 analytically  !
 ! A102  A(19,37,34)            92.8409         calculate D2E/DX2 analytically  !
 ! A103  A(19,38,33)           115.6959         calculate D2E/DX2 analytically  !
 ! A104  A(34,42,35)           118.8016         calculate D2E/DX2 analytically  !
 ! A105  A(33,44,63)           113.0735         calculate D2E/DX2 analytically  !
 ! A106  A(32,45,67)           113.4182         calculate D2E/DX2 analytically  !
 ! A107  A(36,46,71)           114.9357         calculate D2E/DX2 analytically  !
 ! A108  A(35,47,48)           108.0055         calculate D2E/DX2 analytically  !
 ! A109  A(35,47,49)           109.7109         calculate D2E/DX2 analytically  !
 ! A110  A(35,47,50)           109.4443         calculate D2E/DX2 analytically  !
 ! A111  A(48,47,49)           108.6025         calculate D2E/DX2 analytically  !
 ! A112  A(48,47,50)           110.6596         calculate D2E/DX2 analytically  !
 ! A113  A(49,47,50)           110.3764         calculate D2E/DX2 analytically  !
 ! A114  A(47,50,75)           112.6612         calculate D2E/DX2 analytically  !
 ! A115  A(47,50,83)           119.5034         calculate D2E/DX2 analytically  !
 ! A116  A(75,50,83)           118.2246         calculate D2E/DX2 analytically  !
 ! A117  A(43,51,52)           117.4372         calculate D2E/DX2 analytically  !
 ! A118  A(43,51,53)           114.0649         calculate D2E/DX2 analytically  !
 ! A119  A(43,51,54)           105.9058         calculate D2E/DX2 analytically  !
 ! A120  A(52,51,53)           108.804          calculate D2E/DX2 analytically  !
 ! A121  A(52,51,54)           107.2617         calculate D2E/DX2 analytically  !
 ! A122  A(53,51,54)           101.934          calculate D2E/DX2 analytically  !
 ! A123  A(34,53,51)           141.8867         calculate D2E/DX2 analytically  !
 ! A124  A(51,54,55)           119.2099         calculate D2E/DX2 analytically  !
 ! A125  A(51,54,56)           119.2867         calculate D2E/DX2 analytically  !
 ! A126  A(55,54,56)           121.0069         calculate D2E/DX2 analytically  !
 ! A127  A(54,55,57)           119.3245         calculate D2E/DX2 analytically  !
 ! A128  A(54,55,58)           119.487          calculate D2E/DX2 analytically  !
 ! A129  A(57,55,58)           121.125          calculate D2E/DX2 analytically  !
 ! A130  A(54,56,59)           118.9325         calculate D2E/DX2 analytically  !
 ! A131  A(54,56,60)           120.3397         calculate D2E/DX2 analytically  !
 ! A132  A(59,56,60)           120.6696         calculate D2E/DX2 analytically  !
 ! A133  A(55,57,61)           120.5501         calculate D2E/DX2 analytically  !
 ! A134  A(55,57,93)           119.413          calculate D2E/DX2 analytically  !
 ! A135  A(61,57,93)           120.0242         calculate D2E/DX2 analytically  !
 ! A136  A(56,59,61)           120.754          calculate D2E/DX2 analytically  !
 ! A137  A(56,59,97)           119.5578         calculate D2E/DX2 analytically  !
 ! A138  A(61,59,97)           119.3138         calculate D2E/DX2 analytically  !
 ! A139  A(57,61,59)           119.3708         calculate D2E/DX2 analytically  !
 ! A140  A(57,61,62)           120.4161         calculate D2E/DX2 analytically  !
 ! A141  A(59,61,62)           120.2024         calculate D2E/DX2 analytically  !
 ! A142  A(44,63,64)           110.8734         calculate D2E/DX2 analytically  !
 ! A143  A(44,63,65)           110.4658         calculate D2E/DX2 analytically  !
 ! A144  A(44,63,66)           106.4964         calculate D2E/DX2 analytically  !
 ! A145  A(64,63,65)           108.8082         calculate D2E/DX2 analytically  !
 ! A146  A(64,63,66)           110.8726         calculate D2E/DX2 analytically  !
 ! A147  A(65,63,66)           109.3054         calculate D2E/DX2 analytically  !
 ! A148  A(45,67,68)           110.6717         calculate D2E/DX2 analytically  !
 ! A149  A(45,67,69)           111.142          calculate D2E/DX2 analytically  !
 ! A150  A(45,67,70)           106.5652         calculate D2E/DX2 analytically  !
 ! A151  A(68,67,69)           109.4543         calculate D2E/DX2 analytically  !
 ! A152  A(68,67,70)           109.1404         calculate D2E/DX2 analytically  !
 ! A153  A(69,67,70)           109.8112         calculate D2E/DX2 analytically  !
 ! A154  A(46,71,72)           111.2422         calculate D2E/DX2 analytically  !
 ! A155  A(46,71,73)           110.8729         calculate D2E/DX2 analytically  !
 ! A156  A(46,71,74)           106.012          calculate D2E/DX2 analytically  !
 ! A157  A(72,71,73)           109.3326         calculate D2E/DX2 analytically  !
 ! A158  A(72,71,74)           109.8937         calculate D2E/DX2 analytically  !
 ! A159  A(73,71,74)           109.4311         calculate D2E/DX2 analytically  !
 ! A160  A(50,75,76)           106.8992         calculate D2E/DX2 analytically  !
 ! A161  A(50,75,77)           110.976          calculate D2E/DX2 analytically  !
 ! A162  A(50,75,78)           110.6889         calculate D2E/DX2 analytically  !
 ! A163  A(76,75,77)           109.5422         calculate D2E/DX2 analytically  !
 ! A164  A(76,75,78)           109.47           calculate D2E/DX2 analytically  !
 ! A165  A(77,75,78)           109.2265         calculate D2E/DX2 analytically  !
 ! A166  A(12,79,80)           106.6293         calculate D2E/DX2 analytically  !
 ! A167  A(12,79,81)           111.4305         calculate D2E/DX2 analytically  !
 ! A168  A(12,79,82)           110.7232         calculate D2E/DX2 analytically  !
 ! A169  A(80,79,81)           109.5674         calculate D2E/DX2 analytically  !
 ! A170  A(80,79,82)           109.4031         calculate D2E/DX2 analytically  !
 ! A171  A(81,79,82)           109.0447         calculate D2E/DX2 analytically  !
 ! A172  A(19,83,50)           140.43           calculate D2E/DX2 analytically  !
 ! A173  A(19,83,84)            94.3806         calculate D2E/DX2 analytically  !
 ! A174  A(50,83,84)            88.7776         calculate D2E/DX2 analytically  !
 ! A175  A(83,84,85)           115.8806         calculate D2E/DX2 analytically  !
 ! A176  A(83,84,89)           131.1668         calculate D2E/DX2 analytically  !
 ! A177  A(85,84,89)           112.896          calculate D2E/DX2 analytically  !
 ! A178  A(84,85,86)           110.1189         calculate D2E/DX2 analytically  !
 ! A179  A(84,85,87)           105.9293         calculate D2E/DX2 analytically  !
 ! A180  A(84,85,88)           110.6602         calculate D2E/DX2 analytically  !
 ! A181  A(86,85,87)           110.1974         calculate D2E/DX2 analytically  !
 ! A182  A(86,85,88)           109.4266         calculate D2E/DX2 analytically  !
 ! A183  A(87,85,88)           110.4661         calculate D2E/DX2 analytically  !
 ! A184  A(19,87,85)           140.707          calculate D2E/DX2 analytically  !
 ! A185  A(38,87,85)           101.746          calculate D2E/DX2 analytically  !
 ! A186  A(84,89,90)           110.9296         calculate D2E/DX2 analytically  !
 ! A187  A(84,89,91)           107.0481         calculate D2E/DX2 analytically  !
 ! A188  A(84,89,92)           110.8063         calculate D2E/DX2 analytically  !
 ! A189  A(90,89,91)           109.8145         calculate D2E/DX2 analytically  !
 ! A190  A(90,89,92)           108.9152         calculate D2E/DX2 analytically  !
 ! A191  A(91,89,92)           109.3002         calculate D2E/DX2 analytically  !
 ! A192  A(57,93,94)           111.8485         calculate D2E/DX2 analytically  !
 ! A193  A(57,93,95)           111.6425         calculate D2E/DX2 analytically  !
 ! A194  A(57,93,96)           111.8145         calculate D2E/DX2 analytically  !
 ! A195  A(94,93,95)           106.9209         calculate D2E/DX2 analytically  !
 ! A196  A(94,93,96)           106.9528         calculate D2E/DX2 analytically  !
 ! A197  A(95,93,96)           107.3645         calculate D2E/DX2 analytically  !
 ! A198  A(59,97,98)           110.648          calculate D2E/DX2 analytically  !
 ! A199  A(59,97,99)           112.1567         calculate D2E/DX2 analytically  !
 ! A200  A(59,97,100)          112.2282         calculate D2E/DX2 analytically  !
 ! A201  A(98,97,99)           106.693          calculate D2E/DX2 analytically  !
 ! A202  A(98,97,100)          106.888          calculate D2E/DX2 analytically  !
 ! A203  A(99,97,100)          107.9256         calculate D2E/DX2 analytically  !
 ! A204  L(33,38,87,16,-1)     177.6086         calculate D2E/DX2 analytically  !
 ! A205  L(33,38,87,16,-2)     184.81           calculate D2E/DX2 analytically  !
 ! D1    D(5,1,2,3)            -51.4238         calculate D2E/DX2 analytically  !
 ! D2    D(5,1,2,7)             65.4453         calculate D2E/DX2 analytically  !
 ! D3    D(5,1,2,13)          -172.7119         calculate D2E/DX2 analytically  !
 ! D4    D(8,1,2,3)             68.6644         calculate D2E/DX2 analytically  !
 ! D5    D(8,1,2,7)           -174.4665         calculate D2E/DX2 analytically  !
 ! D6    D(8,1,2,13)           -52.6237         calculate D2E/DX2 analytically  !
 ! D7    D(14,1,2,3)          -172.1725         calculate D2E/DX2 analytically  !
 ! D8    D(14,1,2,7)           -55.3035         calculate D2E/DX2 analytically  !
 ! D9    D(14,1,2,13)           66.5394         calculate D2E/DX2 analytically  !
 ! D10   D(2,1,5,4)             51.2873         calculate D2E/DX2 analytically  !
 ! D11   D(2,1,5,10)           -67.9321         calculate D2E/DX2 analytically  !
 ! D12   D(2,1,5,15)           173.0301         calculate D2E/DX2 analytically  !
 ! D13   D(8,1,5,4)            -67.9823         calculate D2E/DX2 analytically  !
 ! D14   D(8,1,5,10)           172.7982         calculate D2E/DX2 analytically  !
 ! D15   D(8,1,5,15)            53.7605         calculate D2E/DX2 analytically  !
 ! D16   D(14,1,5,4)           170.579          calculate D2E/DX2 analytically  !
 ! D17   D(14,1,5,10)           51.3596         calculate D2E/DX2 analytically  !
 ! D18   D(14,1,5,15)          -67.6782         calculate D2E/DX2 analytically  !
 ! D19   D(2,1,14,24)         -141.3944         calculate D2E/DX2 analytically  !
 ! D20   D(5,1,14,24)           97.8473         calculate D2E/DX2 analytically  !
 ! D21   D(8,1,14,24)          -23.3529         calculate D2E/DX2 analytically  !
 ! D22   D(1,2,3,6)            171.5793         calculate D2E/DX2 analytically  !
 ! D23   D(1,2,3,11)            56.3331         calculate D2E/DX2 analytically  !
 ! D24   D(1,2,3,12)           -66.9669         calculate D2E/DX2 analytically  !
 ! D25   D(7,2,3,6)             53.7923         calculate D2E/DX2 analytically  !
 ! D26   D(7,2,3,11)           -61.4539         calculate D2E/DX2 analytically  !
 ! D27   D(7,2,3,12)           175.246          calculate D2E/DX2 analytically  !
 ! D28   D(13,2,3,6)           -64.5513         calculate D2E/DX2 analytically  !
 ! D29   D(13,2,3,11)         -179.7974         calculate D2E/DX2 analytically  !
 ! D30   D(13,2,3,12)           56.9025         calculate D2E/DX2 analytically  !
 ! D31   D(1,2,13,20)          -94.1147         calculate D2E/DX2 analytically  !
 ! D32   D(3,2,13,20)          143.2884         calculate D2E/DX2 analytically  !
 ! D33   D(7,2,13,20)           26.8712         calculate D2E/DX2 analytically  !
 ! D34   D(2,3,11,4)           -62.5228         calculate D2E/DX2 analytically  !
 ! D35   D(6,3,11,4)           178.73           calculate D2E/DX2 analytically  !
 ! D36   D(12,3,11,4)           58.5705         calculate D2E/DX2 analytically  !
 ! D37   D(2,3,12,79)         -173.1013         calculate D2E/DX2 analytically  !
 ! D38   D(6,3,12,79)          -51.7096         calculate D2E/DX2 analytically  !
 ! D39   D(11,3,12,79)          65.0922         calculate D2E/DX2 analytically  !
 ! D40   D(9,4,5,1)             64.4777         calculate D2E/DX2 analytically  !
 ! D41   D(9,4,5,10)          -176.55           calculate D2E/DX2 analytically  !
 ! D42   D(9,4,5,15)           -56.9791         calculate D2E/DX2 analytically  !
 ! D43   D(11,4,5,1)           -53.9118         calculate D2E/DX2 analytically  !
 ! D44   D(11,4,5,10)           65.0604         calculate D2E/DX2 analytically  !
 ! D45   D(11,4,5,15)         -175.3686         calculate D2E/DX2 analytically  !
 ! D46   D(16,4,5,1)          -172.3932         calculate D2E/DX2 analytically  !
 ! D47   D(16,4,5,10)          -53.421          calculate D2E/DX2 analytically  !
 ! D48   D(16,4,5,15)           66.1499         calculate D2E/DX2 analytically  !
 ! D49   D(5,4,11,3)            60.6824         calculate D2E/DX2 analytically  !
 ! D50   D(9,4,11,3)           -58.2625         calculate D2E/DX2 analytically  !
 ! D51   D(16,4,11,3)         -177.0177         calculate D2E/DX2 analytically  !
 ! D52   D(5,4,16,17)          -69.3667         calculate D2E/DX2 analytically  !
 ! D53   D(5,4,16,18)          179.9854         calculate D2E/DX2 analytically  !
 ! D54   D(5,4,16,19)           55.5627         calculate D2E/DX2 analytically  !
 ! D55   D(9,4,16,17)           53.4066         calculate D2E/DX2 analytically  !
 ! D56   D(9,4,16,18)          -57.2412         calculate D2E/DX2 analytically  !
 ! D57   D(9,4,16,19)          178.336          calculate D2E/DX2 analytically  !
 ! D58   D(11,4,16,17)         171.1679         calculate D2E/DX2 analytically  !
 ! D59   D(11,4,16,18)          60.5201         calculate D2E/DX2 analytically  !
 ! D60   D(11,4,16,19)         -63.9027         calculate D2E/DX2 analytically  !
 ! D61   D(1,5,15,28)          131.5306         calculate D2E/DX2 analytically  !
 ! D62   D(4,5,15,28)         -105.1724         calculate D2E/DX2 analytically  !
 ! D63   D(10,5,15,28)          13.5838         calculate D2E/DX2 analytically  !
 ! D64   D(3,12,79,80)         174.9778         calculate D2E/DX2 analytically  !
 ! D65   D(3,12,79,81)         -65.5023         calculate D2E/DX2 analytically  !
 ! D66   D(3,12,79,82)          56.0509         calculate D2E/DX2 analytically  !
 ! D67   D(2,13,20,21)         -58.8379         calculate D2E/DX2 analytically  !
 ! D68   D(2,13,20,22)          62.9796         calculate D2E/DX2 analytically  !
 ! D69   D(2,13,20,23)        -177.1832         calculate D2E/DX2 analytically  !
 ! D70   D(1,14,24,25)         -60.3293         calculate D2E/DX2 analytically  !
 ! D71   D(1,14,24,26)          61.4786         calculate D2E/DX2 analytically  !
 ! D72   D(1,14,24,27)        -179.9966         calculate D2E/DX2 analytically  !
 ! D73   D(5,15,28,29)         -67.3784         calculate D2E/DX2 analytically  !
 ! D74   D(5,15,28,30)          53.9876         calculate D2E/DX2 analytically  !
 ! D75   D(5,15,28,31)         173.9741         calculate D2E/DX2 analytically  !
 ! D76   D(4,16,18,37)        -148.5071         calculate D2E/DX2 analytically  !
 ! D77   D(17,16,18,37)        100.6634         calculate D2E/DX2 analytically  !
 ! D78   D(19,16,18,37)        -23.6936         calculate D2E/DX2 analytically  !
 ! D79   D(4,16,19,37)         144.5966         calculate D2E/DX2 analytically  !
 ! D80   D(4,16,19,38)         172.2893         calculate D2E/DX2 analytically  !
 ! D81   D(4,16,19,83)          41.5919         calculate D2E/DX2 analytically  !
 ! D82   D(4,16,19,87)         -52.215          calculate D2E/DX2 analytically  !
 ! D83   D(17,16,19,37)        -95.0538         calculate D2E/DX2 analytically  !
 ! D84   D(17,16,19,38)        -67.3611         calculate D2E/DX2 analytically  !
 ! D85   D(17,16,19,83)        161.9415         calculate D2E/DX2 analytically  !
 ! D86   D(17,16,19,87)         68.1346         calculate D2E/DX2 analytically  !
 ! D87   D(18,16,19,37)         24.4898         calculate D2E/DX2 analytically  !
 ! D88   D(18,16,19,38)         52.1826         calculate D2E/DX2 analytically  !
 ! D89   D(18,16,19,83)        -78.5149         calculate D2E/DX2 analytically  !
 ! D90   D(18,16,19,87)       -172.3217         calculate D2E/DX2 analytically  !
 ! D91   D(16,18,37,19)         16.1251         calculate D2E/DX2 analytically  !
 ! D92   D(16,18,37,34)         68.957          calculate D2E/DX2 analytically  !
 ! D93   D(16,19,37,18)        -13.006          calculate D2E/DX2 analytically  !
 ! D94   D(16,19,37,34)       -157.1883         calculate D2E/DX2 analytically  !
 ! D95   D(38,19,37,18)        177.2751         calculate D2E/DX2 analytically  !
 ! D96   D(38,19,37,34)         33.0928         calculate D2E/DX2 analytically  !
 ! D97   D(83,19,37,18)         95.6684         calculate D2E/DX2 analytically  !
 ! D98   D(83,19,37,34)        -48.5139         calculate D2E/DX2 analytically  !
 ! D99   D(87,19,37,18)       -178.3624         calculate D2E/DX2 analytically  !
 ! D100  D(87,19,37,34)         37.4553         calculate D2E/DX2 analytically  !
 ! D101  D(16,19,38,33)        -28.4266         calculate D2E/DX2 analytically  !
 ! D102  D(37,19,38,33)          1.3065         calculate D2E/DX2 analytically  !
 ! D103  D(83,19,38,33)        105.2577         calculate D2E/DX2 analytically  !
 ! D104  D(16,19,83,50)        119.6652         calculate D2E/DX2 analytically  !
 ! D105  D(16,19,83,84)       -146.946          calculate D2E/DX2 analytically  !
 ! D106  D(37,19,83,50)         23.6828         calculate D2E/DX2 analytically  !
 ! D107  D(37,19,83,84)        117.0717         calculate D2E/DX2 analytically  !
 ! D108  D(38,19,83,50)        -44.4799         calculate D2E/DX2 analytically  !
 ! D109  D(38,19,83,84)         48.9089         calculate D2E/DX2 analytically  !
 ! D110  D(87,19,83,50)       -104.0681         calculate D2E/DX2 analytically  !
 ! D111  D(87,19,83,84)        -10.6793         calculate D2E/DX2 analytically  !
 ! D112  D(16,19,87,85)        129.1967         calculate D2E/DX2 analytically  !
 ! D113  D(37,19,87,85)        -72.568          calculate D2E/DX2 analytically  !
 ! D114  D(83,19,87,85)         24.1744         calculate D2E/DX2 analytically  !
 ! D115  D(36,32,33,34)        -47.0598         calculate D2E/DX2 analytically  !
 ! D116  D(36,32,33,38)         64.6443         calculate D2E/DX2 analytically  !
 ! D117  D(36,32,33,44)       -174.4667         calculate D2E/DX2 analytically  !
 ! D118  D(39,32,33,34)         73.3574         calculate D2E/DX2 analytically  !
 ! D119  D(39,32,33,38)       -174.9384         calculate D2E/DX2 analytically  !
 ! D120  D(39,32,33,44)        -54.0495         calculate D2E/DX2 analytically  !
 ! D121  D(45,32,33,34)       -165.6967         calculate D2E/DX2 analytically  !
 ! D122  D(45,32,33,38)        -53.9926         calculate D2E/DX2 analytically  !
 ! D123  D(45,32,33,44)         66.8963         calculate D2E/DX2 analytically  !
 ! D124  D(33,32,36,35)         52.2021         calculate D2E/DX2 analytically  !
 ! D125  D(33,32,36,41)        -68.9609         calculate D2E/DX2 analytically  !
 ! D126  D(33,32,36,46)        168.6051         calculate D2E/DX2 analytically  !
 ! D127  D(39,32,36,35)        -68.3612         calculate D2E/DX2 analytically  !
 ! D128  D(39,32,36,41)        170.4758         calculate D2E/DX2 analytically  !
 ! D129  D(39,32,36,46)         48.0417         calculate D2E/DX2 analytically  !
 ! D130  D(45,32,36,35)        171.6589         calculate D2E/DX2 analytically  !
 ! D131  D(45,32,36,41)         50.4959         calculate D2E/DX2 analytically  !
 ! D132  D(45,32,36,46)        -71.9382         calculate D2E/DX2 analytically  !
 ! D133  D(33,32,45,67)       -102.0662         calculate D2E/DX2 analytically  !
 ! D134  D(36,32,45,67)        138.3564         calculate D2E/DX2 analytically  !
 ! D135  D(39,32,45,67)         18.7068         calculate D2E/DX2 analytically  !
 ! D136  D(32,33,34,37)       -169.9744         calculate D2E/DX2 analytically  !
 ! D137  D(32,33,34,42)         41.5638         calculate D2E/DX2 analytically  !
 ! D138  D(32,33,34,53)        -71.2212         calculate D2E/DX2 analytically  !
 ! D139  D(38,33,34,37)         75.2824         calculate D2E/DX2 analytically  !
 ! D140  D(38,33,34,42)        -73.1794         calculate D2E/DX2 analytically  !
 ! D141  D(38,33,34,53)        174.0357         calculate D2E/DX2 analytically  !
 ! D142  D(44,33,34,37)        -42.4829         calculate D2E/DX2 analytically  !
 ! D143  D(44,33,34,42)        169.0553         calculate D2E/DX2 analytically  !
 ! D144  D(44,33,34,53)         56.2704         calculate D2E/DX2 analytically  !
 ! D145  D(32,33,38,19)       -144.0695         calculate D2E/DX2 analytically  !
 ! D146  D(34,33,38,19)        -25.2586         calculate D2E/DX2 analytically  !
 ! D147  D(44,33,38,19)         93.7972         calculate D2E/DX2 analytically  !
 ! D148  D(32,33,44,63)       -135.8967         calculate D2E/DX2 analytically  !
 ! D149  D(34,33,44,63)         96.2182         calculate D2E/DX2 analytically  !
 ! D150  D(38,33,44,63)        -16.7143         calculate D2E/DX2 analytically  !
 ! D151  D(32,33,87,85)          1.108          calculate D2E/DX2 analytically  !
 ! D152  D(34,33,87,85)        121.2448         calculate D2E/DX2 analytically  !
 ! D153  D(44,33,87,85)       -120.9954         calculate D2E/DX2 analytically  !
 ! D154  D(33,34,37,18)       -108.0819         calculate D2E/DX2 analytically  !
 ! D155  D(33,34,37,19)        -68.2537         calculate D2E/DX2 analytically  !
 ! D156  D(42,34,37,18)         42.0307         calculate D2E/DX2 analytically  !
 ! D157  D(42,34,37,19)         81.8589         calculate D2E/DX2 analytically  !
 ! D158  D(53,34,37,18)        142.8368         calculate D2E/DX2 analytically  !
 ! D159  D(53,34,37,19)       -177.335          calculate D2E/DX2 analytically  !
 ! D160  D(33,34,42,35)        -38.9594         calculate D2E/DX2 analytically  !
 ! D161  D(37,34,42,35)        171.0138         calculate D2E/DX2 analytically  !
 ! D162  D(53,34,42,35)         77.4367         calculate D2E/DX2 analytically  !
 ! D163  D(33,34,53,51)         17.5876         calculate D2E/DX2 analytically  !
 ! D164  D(37,34,53,51)        137.9857         calculate D2E/DX2 analytically  !
 ! D165  D(42,34,53,51)       -107.7857         calculate D2E/DX2 analytically  !
 ! D166  D(40,35,36,32)         68.282          calculate D2E/DX2 analytically  !
 ! D167  D(40,35,36,41)       -171.2946         calculate D2E/DX2 analytically  !
 ! D168  D(40,35,36,46)        -52.2906         calculate D2E/DX2 analytically  !
 ! D169  D(42,35,36,32)        -49.0376         calculate D2E/DX2 analytically  !
 ! D170  D(42,35,36,41)         71.3858         calculate D2E/DX2 analytically  !
 ! D171  D(42,35,36,46)       -169.6102         calculate D2E/DX2 analytically  !
 ! D172  D(47,35,36,32)       -171.1493         calculate D2E/DX2 analytically  !
 ! D173  D(47,35,36,41)        -50.7258         calculate D2E/DX2 analytically  !
 ! D174  D(47,35,36,46)         68.2781         calculate D2E/DX2 analytically  !
 ! D175  D(36,35,42,34)         42.3362         calculate D2E/DX2 analytically  !
 ! D176  D(40,35,42,34)        -76.4389         calculate D2E/DX2 analytically  !
 ! D177  D(47,35,42,34)        168.7265         calculate D2E/DX2 analytically  !
 ! D178  D(36,35,47,48)        -59.6509         calculate D2E/DX2 analytically  !
 ! D179  D(36,35,47,49)       -177.8639         calculate D2E/DX2 analytically  !
 ! D180  D(36,35,47,50)         60.8906         calculate D2E/DX2 analytically  !
 ! D181  D(40,35,47,48)         61.2304         calculate D2E/DX2 analytically  !
 ! D182  D(40,35,47,49)        -56.9826         calculate D2E/DX2 analytically  !
 ! D183  D(40,35,47,50)       -178.2281         calculate D2E/DX2 analytically  !
 ! D184  D(42,35,47,48)        174.7515         calculate D2E/DX2 analytically  !
 ! D185  D(42,35,47,49)         56.5384         calculate D2E/DX2 analytically  !
 ! D186  D(42,35,47,50)        -64.707          calculate D2E/DX2 analytically  !
 ! D187  D(32,36,46,71)         94.8454         calculate D2E/DX2 analytically  !
 ! D188  D(35,36,46,71)       -144.5738         calculate D2E/DX2 analytically  !
 ! D189  D(41,36,46,71)        -26.2643         calculate D2E/DX2 analytically  !
 ! D190  D(33,44,63,64)        -46.6381         calculate D2E/DX2 analytically  !
 ! D191  D(33,44,63,65)         74.0662         calculate D2E/DX2 analytically  !
 ! D192  D(33,44,63,66)       -167.3431         calculate D2E/DX2 analytically  !
 ! D193  D(32,45,67,68)        -65.0556         calculate D2E/DX2 analytically  !
 ! D194  D(32,45,67,69)         56.786          calculate D2E/DX2 analytically  !
 ! D195  D(32,45,67,70)        176.3993         calculate D2E/DX2 analytically  !
 ! D196  D(36,46,71,72)        -59.8897         calculate D2E/DX2 analytically  !
 ! D197  D(36,46,71,73)         62.0049         calculate D2E/DX2 analytically  !
 ! D198  D(36,46,71,74)       -179.3203         calculate D2E/DX2 analytically  !
 ! D199  D(35,47,50,75)       -177.6332         calculate D2E/DX2 analytically  !
 ! D200  D(35,47,50,83)         36.7678         calculate D2E/DX2 analytically  !
 ! D201  D(48,47,50,75)        -58.7226         calculate D2E/DX2 analytically  !
 ! D202  D(48,47,50,83)        155.6784         calculate D2E/DX2 analytically  !
 ! D203  D(49,47,50,75)         61.5247         calculate D2E/DX2 analytically  !
 ! D204  D(49,47,50,83)        -84.0743         calculate D2E/DX2 analytically  !
 ! D205  D(47,50,75,76)       -179.1712         calculate D2E/DX2 analytically  !
 ! D206  D(47,50,75,77)        -59.7725         calculate D2E/DX2 analytically  !
 ! D207  D(47,50,75,78)         61.6786         calculate D2E/DX2 analytically  !
 ! D208  D(83,50,75,76)        -33.0938         calculate D2E/DX2 analytically  !
 ! D209  D(83,50,75,77)         86.3049         calculate D2E/DX2 analytically  !
 ! D210  D(83,50,75,78)       -152.244          calculate D2E/DX2 analytically  !
 ! D211  D(47,50,83,19)        -19.2213         calculate D2E/DX2 analytically  !
 ! D212  D(47,50,83,84)       -114.6215         calculate D2E/DX2 analytically  !
 ! D213  D(75,50,83,19)       -162.9422         calculate D2E/DX2 analytically  !
 ! D214  D(75,50,83,84)        101.6577         calculate D2E/DX2 analytically  !
 ! D215  D(43,51,53,34)        -33.2677         calculate D2E/DX2 analytically  !
 ! D216  D(52,51,53,34)       -166.5155         calculate D2E/DX2 analytically  !
 ! D217  D(54,51,53,34)         80.3832         calculate D2E/DX2 analytically  !
 ! D218  D(43,51,54,55)          5.1018         calculate D2E/DX2 analytically  !
 ! D219  D(43,51,54,56)        177.1019         calculate D2E/DX2 analytically  !
 ! D220  D(52,51,54,55)        131.2776         calculate D2E/DX2 analytically  !
 ! D221  D(52,51,54,56)        -56.7222         calculate D2E/DX2 analytically  !
 ! D222  D(53,51,54,55)       -114.4757         calculate D2E/DX2 analytically  !
 ! D223  D(53,51,54,56)         57.5244         calculate D2E/DX2 analytically  !
 ! D224  D(51,54,55,57)        168.9747         calculate D2E/DX2 analytically  !
 ! D225  D(51,54,55,58)         -8.16           calculate D2E/DX2 analytically  !
 ! D226  D(56,54,55,57)         -2.8837         calculate D2E/DX2 analytically  !
 ! D227  D(56,54,55,58)        179.9815         calculate D2E/DX2 analytically  !
 ! D228  D(51,54,56,59)       -169.5077         calculate D2E/DX2 analytically  !
 ! D229  D(51,54,56,60)          7.7372         calculate D2E/DX2 analytically  !
 ! D230  D(55,54,56,59)          2.3446         calculate D2E/DX2 analytically  !
 ! D231  D(55,54,56,60)        179.5895         calculate D2E/DX2 analytically  !
 ! D232  D(54,55,57,61)          1.3491         calculate D2E/DX2 analytically  !
 ! D233  D(54,55,57,93)       -177.3551         calculate D2E/DX2 analytically  !
 ! D234  D(58,55,57,61)        178.4355         calculate D2E/DX2 analytically  !
 ! D235  D(58,55,57,93)         -0.2688         calculate D2E/DX2 analytically  !
 ! D236  D(54,56,59,61)         -0.2718         calculate D2E/DX2 analytically  !
 ! D237  D(54,56,59,97)        172.6551         calculate D2E/DX2 analytically  !
 ! D238  D(60,56,59,61)       -177.5073         calculate D2E/DX2 analytically  !
 ! D239  D(60,56,59,97)         -4.5805         calculate D2E/DX2 analytically  !
 ! D240  D(55,57,61,59)          0.6732         calculate D2E/DX2 analytically  !
 ! D241  D(55,57,61,62)       -178.1376         calculate D2E/DX2 analytically  !
 ! D242  D(93,57,61,59)        179.3695         calculate D2E/DX2 analytically  !
 ! D243  D(93,57,61,62)          0.5588         calculate D2E/DX2 analytically  !
 ! D244  D(55,57,93,94)        -90.773          calculate D2E/DX2 analytically  !
 ! D245  D(55,57,93,95)        149.4615         calculate D2E/DX2 analytically  !
 ! D246  D(55,57,93,96)         29.1521         calculate D2E/DX2 analytically  !
 ! D247  D(61,57,93,94)         90.5158         calculate D2E/DX2 analytically  !
 ! D248  D(61,57,93,95)        -29.2497         calculate D2E/DX2 analytically  !
 ! D249  D(61,57,93,96)       -149.5591         calculate D2E/DX2 analytically  !
 ! D250  D(56,59,61,57)         -1.216          calculate D2E/DX2 analytically  !
 ! D251  D(56,59,61,62)        177.5973         calculate D2E/DX2 analytically  !
 ! D252  D(97,59,61,57)       -174.1599         calculate D2E/DX2 analytically  !
 ! D253  D(97,59,61,62)          4.6534         calculate D2E/DX2 analytically  !
 ! D254  D(56,59,97,98)        -88.4082         calculate D2E/DX2 analytically  !
 ! D255  D(56,59,97,99)        152.5868         calculate D2E/DX2 analytically  !
 ! D256  D(56,59,97,100)        30.8906         calculate D2E/DX2 analytically  !
 ! D257  D(61,59,97,98)         84.6212         calculate D2E/DX2 analytically  !
 ! D258  D(61,59,97,99)        -34.3837         calculate D2E/DX2 analytically  !
 ! D259  D(61,59,97,100)      -156.08           calculate D2E/DX2 analytically  !
 ! D260  D(19,83,84,85)         12.6257         calculate D2E/DX2 analytically  !
 ! D261  D(19,83,84,89)       -170.3426         calculate D2E/DX2 analytically  !
 ! D262  D(50,83,84,85)        153.1277         calculate D2E/DX2 analytically  !
 ! D263  D(50,83,84,89)        -29.8407         calculate D2E/DX2 analytically  !
 ! D264  D(83,84,85,86)       -119.9035         calculate D2E/DX2 analytically  !
 ! D265  D(83,84,85,87)         -0.7647         calculate D2E/DX2 analytically  !
 ! D266  D(83,84,85,88)        118.9861         calculate D2E/DX2 analytically  !
 ! D267  D(89,84,85,86)         62.5218         calculate D2E/DX2 analytically  !
 ! D268  D(89,84,85,87)       -178.3394         calculate D2E/DX2 analytically  !
 ! D269  D(89,84,85,88)        -58.5886         calculate D2E/DX2 analytically  !
 ! D270  D(83,84,89,90)       -113.0519         calculate D2E/DX2 analytically  !
 ! D271  D(83,84,89,91)          6.742          calculate D2E/DX2 analytically  !
 ! D272  D(83,84,89,92)        125.8429         calculate D2E/DX2 analytically  !
 ! D273  D(85,84,89,90)         64.0491         calculate D2E/DX2 analytically  !
 ! D274  D(85,84,89,91)       -176.157          calculate D2E/DX2 analytically  !
 ! D275  D(85,84,89,92)        -57.056          calculate D2E/DX2 analytically  !
 ! D276  D(84,85,87,19)        -17.3678         calculate D2E/DX2 analytically  !
 ! D277  D(84,85,87,38)        -70.9345         calculate D2E/DX2 analytically  !
 ! D278  D(86,85,87,19)        101.7193         calculate D2E/DX2 analytically  !
 ! D279  D(86,85,87,38)         48.1526         calculate D2E/DX2 analytically  !
 ! D280  D(88,85,87,19)       -137.2456         calculate D2E/DX2 analytically  !
 ! D281  D(88,85,87,38)        169.1877         calculate D2E/DX2 analytically  !
 --------------------------------------------------------------------------------
 Trust Radius=3.00D-02 FncErr=1.00D-07 GrdErr=1.00D-06 EigMax=2.50D+02 EigMin=1.00D-04
 Number of steps in this run=    600 maximum allowed number of steps=    600.
 Search for a saddle point of order  1.
 Step   0 in ReCalcFC=30 IGetFC= 4 compute analytic Hessian.
 GradGradGradGradGradGradGradGradGradGradGradGradGradGradGradGradGradGrad

 Leave Link  103 at Thu May  9 08:23:59 2019, MaxMem=  6442450944 cpu:               4.9 elap:               0.2
 (Enter /home/ekwan/sw/g16/l202.exe)
 Stoichiometry    C30H47F6NaO15S
 Framework group  C1[X(C30H47F6NaO15S)]
 Deg. of freedom   294
 Full point group                 C1      NOp   1
 Largest Abelian subgroup         C1      NOp   1
 Largest concise Abelian subgroup C1      NOp   1
                         Standard orientation:                         
 ---------------------------------------------------------------------
 Center     Atomic      Atomic             Coordinates (Angstroms)
 Number     Number       Type             X           Y           Z
 ---------------------------------------------------------------------
      1          6           0        6.238368    0.153764   -0.003870
      2          6           0        5.643602    1.433414    0.591601
      3          6           0        4.765395    2.149273   -0.439518
      4          6           0        4.259990    0.091738   -1.599180
      5          6           0        5.137441   -0.705676   -0.628247
      6          1           0        4.221903    2.981181    0.029875
      7          1           0        4.988287    1.153917    1.431270
      8          1           0        6.966513    0.437917   -0.773994
      9          1           0        4.865604    0.422809   -2.451013
     10          1           0        4.501163   -1.079520    0.183262
     11          8           0        3.750942    1.267624   -0.906921
     12          8           0        5.579646    2.615981   -1.471556
     13          8           0        6.635340    2.340842    1.035751
     14          8           0        6.889340   -0.558628    1.045987
     15          8           0        5.733949   -1.803824   -1.313263
     16          6           0        3.038116   -0.699097   -2.095154
     17          1           0        3.451541   -1.493334   -2.753118
     18          1           0        2.497550   -0.005537   -2.784045
     19          8           0        2.244148   -1.182075   -1.083744
     20          6           0        6.962864    2.225292    2.414623
     21          1           0        6.075892    2.385369    3.047161
     22          1           0        7.392403    1.245933    2.645715
     23          1           0        7.693646    3.009566    2.627968
     24          6           0        8.107772   -1.181697    0.659540
     25          1           0        7.947655   -1.912829   -0.139260
     26          1           0        8.842384   -0.436172    0.322354
     27          1           0        8.497288   -1.686516    1.547522
     28          6           0        5.139310   -3.057859   -0.997581
     29          1           0        5.338460   -3.333229    0.048357
     30          1           0        4.055554   -3.036695   -1.158722
     31          1           0        5.598887   -3.800438   -1.655102
     32          6           0       -1.563814   -1.914827    0.444708
     33          6           0       -0.473604   -2.067279   -0.613006
     34          6           0       -0.271671   -0.815305   -1.429191
     35          6           0       -1.240120    0.589213    0.248361
     36          6           0       -1.364993   -0.602268    1.205851
     37          1           0        0.351157   -0.854019   -2.305354
     38          1           0        0.481300   -2.154574   -0.083003
     39          1           0       -2.543906   -1.914244   -0.033193
     40          1           0       -2.203165    0.748027   -0.233612
     41          1           0       -0.459044   -0.686026    1.815434
     42          8           0       -0.281841    0.357488   -0.830879
     43          8           0       -3.487608   -2.506051   -2.292703
     44          8           0       -0.679687   -3.194238   -1.424508
     45          8           0       -1.476040   -2.984526    1.374663
     46          8           0       -2.490446   -0.293941    2.012693
     47          6           0       -0.833063    1.883595    0.914332
     48          1           0       -1.590753    2.130144    1.667422
     49          1           0       -0.803950    2.689736    0.169950
     50          8           0        0.443349    1.723092    1.520608
     51         16           0       -3.267066   -1.121146   -2.740070
     52          8           0       -3.738479   -0.760109   -4.088232
     53          8           0       -1.815611   -0.630469   -2.573374
     54          6           0       -4.149740   -0.077604   -1.568204
     55          6           0       -4.750854   -0.661174   -0.459311
     56          6           0       -4.074781    1.309419   -1.698378
     57          6           0       -5.232035    0.154010    0.564934
     58          1           0       -4.795697   -1.740015   -0.383611
     59          6           0       -4.570143    2.110505   -0.671729
     60          1           0       -3.597644    1.753030   -2.564589
     61          6           0       -5.138998    1.538989    0.469366
     62          1           0       -5.486022    2.169114    1.279199
     63          6           0        0.515483   -3.947146   -1.652590
     64          1           0        1.345535   -3.287969   -1.925580
     65          1           0        0.792574   -4.510965   -0.750569
     66          1           0        0.291900   -4.646482   -2.461013
     67          6           0       -2.451797   -4.002575    1.161328
     68          1           0       -3.463827   -3.612013    1.334074
     69          1           0       -2.385341   -4.406517    0.146562
     70          1           0       -2.243247   -4.791125    1.888149
     71          6           0       -2.392369   -0.720144    3.368310
     72          1           0       -2.267968   -1.804546    3.434683
     73          1           0       -1.551453   -0.225882    3.874239
     74          1           0       -3.327683   -0.423910    3.845301
     75          6           0        0.871100    2.890335    2.216746
     76          1           0        1.858523    2.670281    2.628905
     77          1           0        0.939979    3.749924    1.537428
     78          1           0        0.178901    3.129966    3.033689
     79          6           0        4.890304    3.434874   -2.412605
     80          1           0        5.641362    3.808489   -3.110661
     81          1           0        4.132086    2.864102   -2.960191
     82          1           0        4.406100    4.283145   -1.908757
     83         11           0        2.066845    0.407635    0.460914
     84          8           0        1.947273   -1.073680    2.225369
     85          6           0        2.290021   -2.428024    1.926864
     86          1           0        1.437291   -3.088282    2.135236
     87          1           0        2.531201   -2.448406    0.862244
     88          1           0        3.154942   -2.749258    2.522803
     89          6           0        1.640128   -0.870910    3.597047
     90          1           0        2.518328   -1.063066    4.228395
     91          1           0        1.327514    0.169624    3.704636
     92          1           0        0.821597   -1.530661    3.915260
     93          6           0       -5.828758   -0.477218    1.792741
     94          9           0       -7.162501   -0.659006    1.667365
     95          9           0       -5.637364    0.289162    2.890914
     96          9           0       -5.288120   -1.689211    2.047524
     97          6           0       -4.349173    3.596336   -0.718380
     98          9           0       -3.169046    3.924797   -0.125781
     99          9           0       -5.313321    4.274667   -0.063740
    100          9           0       -4.296942    4.064337   -1.980305
 ---------------------------------------------------------------------
[...]
 00040737,-0.00018127,-0.00011257,-0.00021977,-0.00000503,0.00000249,-0
 .00002521,-0.00005286,-0.00000263,0.00002459,0.00028267,0.00018205,0.0
 0023424,-0.00235047,0.00131696,0.00281267,0.00024491,-0.00021659,-0.00
 118772,0.00160743,-0.00011385,-0.00029773,-0.00009669,-0.00184778,-0.0
 0244313,0.00030436,-0.00080607,-0.00031469,-0.00143752,-0.00629883,0.0
 0522139,-0.00034371,-0.00022078,-0.00043164,0.00008753,0.00003410,0.00
 010761,0.03433476,-0.02587620,-0.02646491,0.00036281,0.00042652,0.0002
 3899,0.00065880,-0.00084163,-0.00131231,0.00054933,-0.00187799,0.00042
 534,-0.00014906,0.00013086,0.00002905,0.00002021,0.00000026,0.00000387
 ,0.00003161,-0.00002499,0.00001658,0.00000786,-0.00002394,-0.00001355,
 0.00002842,0.00012967,0.00001645,-0.00000605,0.00001351,-0.00003146,-0
 .00001446,0.00000123,-0.00000452,0.00001143,-0.00003723,0.00002021,-0.
 00000453,0.00007405,-0.00034729,0.00001248,-0.00002959,0.00004069,0.00
 006019,-0.00000572,0.00006974,-0.00003615,-0.00000628,-0.00001051,-0.0
 0003678,-0.00019627,-0.00011919,0.00001935,0.00002437,0.00002294,0.000
 00134,0.00003139,-0.00000585,-0.00001472,0.00001852,0.00002629,-0.0000
 0295,-0.00001854,-0.00000154,0.00000373,0.00000145,-0.00000210,-0.0000
 0043,0.00000431,0.00000496,-0.00000427,0.00000182,0.00000229,-0.000157
 43,-0.00005221,-0.00005275,0.00006379,-0.00001348,0.00006110,-0.000024
 48,0.00001811,0.00000204,-0.00000253,0.00000879,-0.00000593,-0.0000140
 3,0.00001481,-0.00001199,0.00001565,-0.00000328,0.00001477,-0.00000386
 ,-0.00001544,-0.00005898,0.00001518,-0.00000506,0.00001117,-0.00000806
 ,-0.00000313,-0.00000858,-0.00000547,0.00000887,-0.00000388,0.00127175
 ,0.00081650,-0.00200676,-0.00078084,-0.00026723,0.00042332,-0.00020463
 ,0.00001172,0.00076479,-0.00012954,-0.00053463,0.00052323,0.07240044,-
 0.15037828,-0.04838526,0.01006740,0.01479248,0.00327789,-0.11352098,0.
 15503247,-0.00001092,0.00000070,-0.00000972,-0.00000615,-0.00000833,-0
 .00001385,-0.00002411,-0.00001840,-0.00002199,0.00000119,-0.00000139,-
 0.00000628,-0.00000576,0.00001412,-0.00000370,-0.00000105,0.00000175,-
 0.00000021,-0.00000074,-0.00000008,0.00000140,0.00000068,0.00000054,0.
 00000140,0.00000345,0.00000219,0.00000041,-0.00000377,0.00000013,-0.00
 000175,0.00002855,0.00000962,0.00002108,0.00001815,-0.00000052,0.00001
 502,0.00001229,0.00000763,0.00002077,0.00001568,-0.00000656,0.00001289
 ,0.00000960,-0.00000921,0.00000521,-0.00004112,-0.00000376,0.00002602,
 0.00001130,-0.00000467,-0.00000861,0.00000558,-0.00000242,0.00000432,0
 .00009987,-0.00001555,0.00001207,-0.00000027,0.00000015,-0.00001694,-0
 .00000245,-0.00000031,0.00000250,-0.00000001,-0.00000119,0.00000135,0.
 00000144,0.00000086,0.00000156,-0.00000732,0.00000242,0.00000046,-0.00
 000004,0.00000074,-0.00000079,0.00000130,0.00000010,-0.00000104,0.0000
 0172,-0.00000139,0.00000122,-0.00000530,0.00000583,-0.00000713,0.00000
 134,-0.00000141,0.00000382,0.00000006,0.00000424,0.00000124,0.00000152
 ,-0.00000120,-0.00000055,-0.00006296,0.00005220,-0.00008822,0.00003281
 ,0.00005471,0.00004927,-0.00028464,0.00006421,-0.00013799,-0.00011938,
 -0.00001030,-0.00005080,0.00005514,-0.00000352,-0.00007121,0.00000926,
 0.00000251,0.00002295,-0.00000042,-0.00001341,-0.00000431,0.00001311,0
 .00002853,0.00001146,-0.00004783,0.00006036,-0.00001468,-0.00000146,-0
 .00001191,0.00002138,0.00008322,-0.00003578,0.00004493,0.00011565,-0.0
 0034723,-0.00008756,0.00003611,-0.00006544,-0.00001349,0.00001597,-0.0
 0008888,0.00007026,0.00000107,0.00000833,0.00016903,-0.00002373,0.0000
 0768,-0.00014824,0.00000604,0.00000043,0.00000012,-0.00001575,-0.00003
 216,0.00003193,0.00008047,0.00005290,0.00013282,-0.00058323,0.00044980
 ,0.00057314,0.00006630,-0.00010616,-0.00024043,0.00037635,-0.00007230,
 -0.00003367,-0.00044940,-0.00017278,-0.00032625,0.00003322,-0.00004896
 ,0.00007620,-0.00002811,-0.00106753,0.00124520,-0.00075268,-0.00060053
 ,0.00060974,0.00001794,0.00004612,0.00015064,0.01116826,-0.00919426,0.
 00208415,0.00001878,0.00061276,0.00046409,0.00006659,0.00151385,-0.002
 78711,-0.00046560,0.00037224,0.00157228,-0.00004381,0.00004114,0.00000
 500,0.00000443,0.00000081,0.00000121,0.00000961,-0.00000883,0.00000732
 ,0.00000222,-0.00000557,-0.00000402,0.00001558,0.00003887,0.00000239,-
 0.00000428,0.00000218,-0.00001086,-0.00000514,0.00000190,-0.00000018,0
 .00000323,-0.00001245,0.00000591,0.00000791,0.00001360,-0.00012453,0.0
 0000249,-0.00000361,0.00001547,0.00002375,-0.00000471,0.00002367,-0.00
 001722,-0.00001063,0.00000939,-0.00000069,-0.00007393,-0.00008243,0.00
 000376,0.00001085,0.00001028,0.00000190,0.00000619,0.00000167,-0.00001
 072,0.00000583,0.00002492,-0.00001415,0.00000051,-0.00001333,0.0000027
 6,0.00000017,-0.00000052,0.00000048,0.00000633,0.00000520,-0.00000213,
 -0.00000233,-0.00000074,-0.00004422,-0.00000750,-0.00004168,0.00001225
 ,0.00000142,0.00003436,-0.00000485,0.00000030,-0.00000069,-0.00000124,
 0.00000292,-0.00000212,-0.00000516,0.00000769,-0.00000586,0.00000478,-
 0.00000022,0.00000485,0.00000537,-0.00000961,-0.00003112,0.00000376,-0
 .00000125,0.00000503,-0.00000124,0.00000207,-0.00000427,-0.00000239,-0
 .00000040,0.00000045,0.00032034,-0.00016040,-0.00063765,-0.00018503,-0
 .00002547,0.00012984,-0.00003917,0.00011481,0.00026272,-0.00006660,-0.
 00005520,0.00014733,0.05891651,-0.05392997,-0.11182709,-0.00148146,0.0
 0448675,0.01620311,-0.11018752,0.07485965,0.15042232,0.00000770,-0.000
 00659,0.00000372,0.00000828,0.00000226,0.00000620,0.00002009,-0.000007
 26,0.00000374,0.00000825,-0.00001913,-0.00001302,0.00000386,-0.0000125
 5,0.00000049,-0.00000070,0.00000508,0.00000380,-0.00000056,-0.00000051
 ,0.00000028,-0.00000015,0.00000028,-0.00000028,-0.00000093,0.00000239,
 0.00000160,0.00000008,0.00000018,-0.00000125,-0.00002303,0.00002166,-0
 .00000031,-0.00001986,0.00001277,-0.00000604,-0.00001091,0.00000119,-0
 .00000864,-0.00001346,0.00001088,-0.00000577,-0.00000470,0.00001892,0.
 00000036,0.00000369,-0.00002008,0.00002296,-0.00000365,0.00000584,0.00
 000124,-0.00000640,0.00000798,-0.00001441,0.00001072,0.00003164,-0.000
 00836,0.00000496,-0.00000201,0.00000754,-0.00000103,-0.00000006,0.0000
 0017,-0.00000116,0.00000184,-0.00000126,-0.00000048,-0.00000103,-0.000
 00078,0.00000843,-0.00000423,-0.00000210,-0.00000064,0.00000045,0.0000
 0141,-0.00000119,0.00000005,0.00000078,-0.00000157,0.00000098,-0.00000
 102,-0.00000290,-0.00001040,0.00000360,0.00000010,0.00000108,-0.000002
 30,0.00000105,-0.00000140,-0.00000064,-0.00000064,0.00000184,0.0000007
 0,-0.00004803,-0.00001741,-0.00005234,0.00002057,-0.00000689,0.0000149
 2,-0.00013695,-0.00014767,-0.00012445,-0.00002522,-0.00011568,-0.00006
 992,-0.00005632,-0.00000532,0.00006348,0.00000877,0.00000166,0.0000140
 8,0.00000343,-0.00000656,0.00000003,0.00000362,0.00002370,0.00001044,-
 0.00008290,-0.00004669,0.00000788,0.00000842,-0.00000037,-0.00000079,0
 .00002020,0.00017086,0.00007497,0.00009910,-0.00006039,-0.00007997,0.0
 0001137,0.00001570,0.00000099,0.00004067,0.00002241,0.00000931,0.00006
 796,0.00003093,0.00001061,0.00017245,-0.00025256,0.00014803,0.00001581
 ,-0.00009037,0.00011630,0.00018256,0.00004758,-0.00008159,-0.00015078,
 0.00012338,-0.00010011,-0.00040935,0.00002171,0.00030852,0.00007501,-0
 .00000929,-0.00010652,0.00030815,0.00005068,-0.00000807,-0.00000246,-0
 .00007691,-0.00038046,-0.00006574,-0.00006791,0.00027147,-0.00080434,0
 .00027322,0.00022663,-0.00046644,-0.00046716,-0.00040305,0.00004949,0.
 00002063,-0.00001023,0.00932391,-0.00454258,0.00741301,0.00032064,0.00
 007537,-0.00058446,0.00108844,-0.00019769,-0.00006138,0.00027959,0.000
 29868,-0.00013477,-0.00000290,0.00000077,0.00000325,0.00000161,-0.0000
 0237,-0.00000186,0.00000060,0.00000020,-0.00000114,-0.00000021,0.00000
 022,0.00000075,-0.00003013,-0.00000062,0.00000002,0.00000579,0.0000025
 0,-0.00000457,0.00000038,0.00000153,0.00000155,0.00000493,0.00000010,0
 .00000088,-0.00000526,-0.00000378,0.00000065,-0.00000031,0.00000262,-0
 .00000088,0.00000873,-0.00000171,0.00000807,-0.00000312,-0.00000204,-0
 .00001098,0.00002347,0.00003850,0.00006149,-0.00001206,0.00000172,-0.0
 0000865,0.00001410,0.00000261,-0.00000659,0.00000956,-0.00000707,0.000
 00032,0.00001620,-0.00001135,0.00000713,-0.00000447,-0.00000012,0.0000
 0094,0.00000177,-0.00000560,-0.00000506,0.00000186,0.00000679,0.000003
 12,0.00004726,-0.00005984,0.00001131,-0.00000267,0.00002154,-0.0000059
 6,0.00000118,-0.00001556,-0.00000415,0.00000159,0.00000352,-0.00000148
 ,-0.00000046,-0.00000197,0.00000233,-0.00000169,0.00000273,-0.00000086
 ,-0.00000222,-0.00001098,0.00000709,-0.00000150,0.00000207,-0.00000123
 ,0.00000023,0.00000126,0.00000642,0.00000220,0.00000345,-0.00000072,0.
 00000494,0.00010699,-0.00042857,-0.00010846,-0.00003845,0.00010428,-0.
 00000691,-0.00000686,0.00011578,0.00002016,-0.00007259,0.00006540,-0.0
 7145634,-0.00457662,0.00972108,-0.00897508,0.01013305,-0.05025585,-0.0
 0538557,-0.00279530,0.04331002,0.07599791,-0.00000956,-0.00000821,-0.0
 0000843,-0.00000705,-0.00000929,-0.00000140,-0.00003460,-0.00005115,0.
 00000338,0.00001280,-0.00002174,-0.00002021,-0.00001114,0.00000711,0.0
 0000480,0.00000056,0.00000649,0.00000417,0.00000066,0.00000114,-0.0000
 0361,0.00000459,0.00000093,0.00000036,0.00001285,0.00001088,-0.0000011
 6,-0.00000604,0.00000307,-0.00000807,0.00002449,0.00005111,0.00000957,
 0.00000709,0.00003729,-0.00002698,0.00001002,0.00001285,0.00000466,0.0
 0001503,0.00000161,0.00000516,0.00001588,0.00000802,-0.00000193,-0.000
 10255,-0.00007807,0.00016494,0.00002591,-0.00000473,-0.00002869,-0.000
 01010,0.00002790,-0.00003533,0.00028122,0.00002854,-0.00006108,-0.0000
 0194,-0.00000134,-0.00000114,0.00000060,-0.00000169,0.00000052,-0.0000
 0150,0.00000026,0.00000022,0.00000216,0.00000111,0.00000107,-0.0000093
 5,0.00000083,0.00000287,-0.00000069,0.00000022,-0.00000033,0.00000264,
 0.00000169,-0.00000119,0.00000038,-0.00000058,0.00000001,-0.00001653,-
 0.00000673,-0.00000251,0.00000100,0.00000006,0.00000085,0.00000079,0.0
 0000730,0.00000436,0.00000459,-0.00000171,-0.00000086,-0.00018701,0.00
 012389,-0.00020938,0.00006469,0.00012810,0.00014326,-0.00073096,0.0000
 4890,-0.00032750,-0.00036945,0.00003423,0.00001734,-0.00004955,0.00002
 951,0.00001031,0.00002796,-0.00001159,0.00006392,-0.00000330,-0.000031
 21,-0.00000804,0.00001992,0.00009046,0.00003110,-0.00016636,0.00005926
 ,-0.00004579,0.00002363,-0.00002766,0.00003307,0.00028873,-0.00003370,
 -0.00002655,0.00028092,-0.00075011,-0.00041724,0.00011666,-0.00016056,
 -0.00007829,0.00008098,-0.00020700,0.00012121,0.00022050,-0.00006574,0
 .00031092,-0.00016550,-0.00016853,-0.00007769,-0.00000047,-0.00000308,
 -0.00002309,-0.00000214,0.00002164,-0.00000434,0.00022458,0.00017015,0
 .00012090,-0.00150206,0.00135364,0.00211678,0.00019046,-0.00020928,-0.
 00092446,0.00127271,-0.00013699,-0.00030630,-0.00062159,-0.00001274,0.
 00025300,-0.00006572,-0.00065297,0.00046115,0.00000243,-0.00113045,0.0
 0095148,-0.00200057,-0.00120655,0.00176443,0.00005231,0.00002145,0.000
 09610,-0.00462999,-0.01538408,0.04411674,0.00016491,-0.00214130,0.0008
 1653,0.00231677,-0.00684414,-0.00320320,0.00030415,0.00031943,0.000154
 70,-0.00012044,0.00010066,0.00002519,0.00001756,-0.00000053,0.00000286
 ,0.00002410,-0.00001787,0.00001052,0.00000690,-0.00002107,-0.00001074,
 0.00000134,0.00010779,0.00001917,0.00000011,0.00001610,-0.00002501,-0.
 00000937,-0.00000293,-0.00000561,0.00001159,-0.00003014,0.00001600,-0.
 00001220,0.00006818,-0.00028139,0.00001046,-0.00002910,0.00003376,0.00
 005080,-0.00000269,0.00006011,-0.00002762,-0.00000084,-0.00002611,-0.0
 0003684,-0.00015014,-0.00004926,0.00001615,0.00001797,0.00001527,0.000
 00201,0.00003083,-0.00000841,-0.00000490,0.00001476,0.00000634,0.00001
 398,-0.00002388,0.00001282,0.00000070,0.00000146,-0.00000162,-0.000000
 69,-0.00000260,-0.00000045,-0.00000234,0.00000570,0.00000403,-0.000125
 34,-0.00005784,-0.00001327,0.00005990,-0.00001279,0.00003338,-0.000022
 82,0.00001759,0.00000291,-0.00000132,0.00000752,-0.00000488,-0.0000103
 9,0.00000817,-0.00000674,0.00001258,-0.00000315,0.00001127,-0.00001027
 ,-0.00001035,-0.00003415,0.00001329,-0.00000409,0.00000728,-0.00000812
 ,-0.00000523,-0.00000500,-0.00000335,0.00001121,-0.00000512,0.00120208
 ,0.00042772,-0.00236541,-0.00092111,-0.00026337,0.00049974,-0.00018117
 ,-0.00000714,0.00070239,-0.00005045,-0.00077825,0.00070703,-0.00409061
 ,-0.12135743,0.07435251,0.00421847,0.01549173,-0.00100182,0.00243390,0
 .01803932,-0.01672204,0.00217356,0.11516855,0.00000220,0.00000295,-0.0
 0000080,0.00000769,0.00000050,-0.00001374,0.00002474,0.00002129,-0.000
 03737,-0.00000495,0.00000118,0.00000021,0.00000855,0.00000113,-0.00001
 143,-0.00000329,0.00000103,-0.00000087,-0.00000233,-0.00000276,0.00000
 725,-0.00000479,0.00000016,0.00000123,-0.00001200,-0.00000738,0.000003
 73,0.00000225,-0.00000363,0.00000654,-0.00000787,-0.00002181,0.0000252
 1,-0.00000046,-0.00003099,0.00005213,-0.00000425,-0.00000135,0.0000174
 6,-0.00000713,-0.00000050,0.00000814,-0.00000876,-0.00000370,0.0000112
 7,0.00006416,0.00007617,-0.00014756,-0.00001774,0.00000424,0.00002458,
 0.00001624,-0.00003332,0.00003901,-0.00018062,-0.00002663,0.00009655,0
 .00000716,-0.00000056,-0.00001641,-0.00000535,0.00000132,0.00000357,0.
 00000024,-0.00000013,0.00000058,-0.00000074,-0.00000099,0.00000047,0.0
 0000798,-0.00000168,-0.00000468,0.00000004,0.00000140,0.00000060,-0.00
 000220,-0.00000170,0.00000053,0.00000051,-0.00000043,0.00000084,0.0000
 0841,0.00000636,-0.00000413,0.00000106,-0.00000102,0.00000271,0.000000
 43,-0.00000361,-0.00000420,-0.00000400,0.00000217,0.00000082,0.0001095
 2,-0.00010252,0.00007378,0.00000149,-0.00008184,-0.00010206,0.00019995
 ,-0.00017956,-0.00004035,0.00033661,-0.00021202,-0.00027095,0.00002731
 ,-0.00002803,0.00001822,-0.00000859,0.00002813,-0.00001932,0.00000385,
 0.00000650,0.00001108,-0.00001720,-0.00004976,-0.00003071,0.00004171,-
 0.00011442,-0.00004727,-0.00001429,0.00001727,-0.00001799,-0.00023108,
 0.00027336,0.00027548,-0.00016098,0.00034020,0.00035047,-0.00007701,0.
 00011946,0.00008322,-0.00003668,0.00017959,-0.00004915,-0.00014343,0.0
 0012741,-0.00015910,0.00042213,-0.00021755,0.00017191,0.00001747,-0.00
 016818,0.00026613,0.00033399,-0.00000230,-0.00017762,-0.00045358,0.000
 08141,-0.00014386,0.00066671,-0.00033675,-0.00149879,-0.00000980,-0.00
 004277,0.00064654,-0.00050427,0.00004215,0.00029162,0.00017412,0.00112
 361,0.00096248,-0.00026491,0.00013721,0.00030473,0.00235935,-0.0028835
 6,-0.00229669,0.00088507,-0.00006744,-0.00103401,-0.00015929,-0.000040
 81,0.00006275,0.00198397,0.01286326,-0.02004590,-0.00156514,0.00051022
 ,0.00140748,-0.00087007,0.00426364,0.00205716,-0.00040349,-0.00056602,
 0.00045363,0.00007983,-0.00006036,-0.00001973,-0.00001402,-0.00000036,
 -0.00000412,-0.00001483,0.00000849,-0.00000233,-0.00000576,0.00001874,
 0.00000807,-0.00002387,-0.00008485,-0.00002181,0.00000243,-0.00001028,
 0.00001266,0.00000682,0.00000880,0.00000809,-0.00000293,0.00002104,-0.
 00000998,0.00000697,-0.00006586,0.00018842,-0.00000886,0.00003275,-0.0
 0002426,-0.00001806,-0.00000325,-0.00003384,0.00000658,-0.00001291,0.0
 0001882,0.00008240,0.00017379,0.00005800,-0.00003353,-0.00000742,-0.00
 002140,0.00002532,-0.00003277,0.00000072,0.00000521,-0.00002744,0.0000
 2601,-0.00002373,0.00001480,-0.00003202,-0.00000076,-0.00000148,0.0000
 0222,0.00000360,0.00000826,0.00000440,0.00000108,-0.00000285,-0.000002
 19,0.00013878,-0.00000295,-0.00005942,-0.00006040,0.00004653,-0.000000
 25,0.00002243,-0.00004134,-0.00001203,0.00000147,-0.00000041,0.0000017
 5,0.00000448,0.00000009,0.00000126,-0.00001052,0.00000765,-0.00000715,
 0.00001640,-0.00001559,0.00000823,-0.00001288,0.00000656,-0.00000324,0
 .00000702,0.00001098,0.00001130,0.00000324,-0.00000864,0.00000608,-0.0
 0074304,-0.00039120,0.00110712,0.00052392,0.00015937,-0.00020735,0.000
 11246,0.00011422,-0.00028288,0.00001405,0.00052364,-0.00040537,0.00971
 390,0.08413605,-0.22700353,-0.03808062,0.00734815,-0.05455323,0.034925
 04,-0.00497687,-0.05790121,-0.00917826,-0.10189063,0.35757899\\-0.0000
 0021,0.00000165,-0.00000056,-0.00000044,0.00000158,-0.00000089,-0.0000
 0036,0.00000091,-0.00000177,-0.00000015,0.00000060,-0.00000039,-0.0000
 0002,0.00000116,-0.00000030,-0.00000128,0.00000084,-0.00000095,-0.0000
 0020,0.00000171,-0.00000078,-0.00000033,0.00000168,-0.00000082,-0.0000
 0046,0.00000064,-0.00000046,-0.00000003,0.00000139,-0.00000004,-0.0000
 0107,0.00000015,-0.00000030,-0.00000097,0.00000083,-0.00000132,-0.0000
 0064,0.00000240,-0.00000094,0.00000010,0.00000206,-0.00000050,0.000000
 38,0.00000111,-0.00000014,0.00000058,-0.00000103,-0.00000010,0.0000001
 2,0.00000001,0.00000017,0.,-0.00000026,-0.00000031,-0.00000098,0.00000
 265,0.00000025,-0.00000055,0.00000257,-0.00000125,-0.00000066,0.000002
 45,-0.00000115,-0.00000025,0.00000279,-0.00000091,-0.00000081,0.000002
 83,-0.00000147,0.00000036,0.00000246,-0.00000038,0.00000052,0.00000222
 ,-0.00000015,0.00000009,0.00000260,-0.00000065,0.00000060,0.00000280,-
 0.00000030,0.00000079,0.00000108,0.00000041,0.00000101,0.00000137,0.00
 000046,0.00000085,0.00000062,0.00000038,0.00000103,0.00000101,0.000000
 54,0.00000060,-0.00000064,0.00000074,0.00000082,-0.00000059,0.00000103
 ,-0.00000016,-0.00000056,0.00000066,-0.00000011,-0.00000069,0.,0.00000
 012,-0.00000013,0.00000023,-0.00000028,-0.00000074,0.00000037,0.000000
 93,-0.00000125,0.00000033,0.00000054,-0.00000116,0.00000076,-0.0000003
 2,-0.00000098,0.,0.00000009,-0.00000004,0.00000030,-0.00000012,-0.0000
 0089,0.00000006,0.00000033,-0.00000257,0.00000067,0.00000097,-0.000000
 89,0.00000143,0.00000106,-0.00000065,0.00000086,0.00000018,-0.00000078
 ,0.00000027,-0.00000060,-0.00000048,-0.00000029,-0.00000058,-0.0000005
 5,-0.00000038,-0.00000103,-0.00000050,-0.00000061,-0.00000013,0.000001
 21,-0.00000236,0.00000069,-0.00000126,0.00000100,-0.00000046,-0.000002
 80,0.00000042,-0.00000028,-0.00000224,-0.00000057,-0.00000023,-0.00000
 218,0.00000047,0.00000023,-0.00000195,0.00000067,-0.00000025,-0.000002
 15,0.00000009,-0.00000013,-0.00000195,0.00000050,0.00000042,-0.0000019
 3,0.00000081,-0.00000075,-0.00000199,-0.00000013,-0.00000086,-0.000002
 13,-0.00000014,-0.00000099,-0.00000186,-0.00000011,-0.00000068,-0.0000
 0189,0.00000007,0.00000095,-0.00000056,0.00000108,0.00000078,-0.000000
 57,0.00000081,0.00000138,-0.00000027,0.00000107,0.00000123,-0.00000095
 ,0.00000128,0.00000123,-0.00000076,0.00000144,0.00000119,-0.00000117,0
 .00000139,0.00000133,-0.00000095,0.00000151,0.00000163,-0.00000056,0.0
 0000151,0.00000054,-0.00000015,0.00000034,0.00000076,-0.00000015,0.000
 00070,0.00000036,0.00000016,0.00000025,0.00000038,-0.00000041,0.000000
 45,-0.00000151,0.00000036,-0.00000089,-0.00000067,0.00000151,-0.000000
 66,-0.00000135,0.00000042,-0.00000102,-0.00000075,0.00000040,-0.000000
 71,-0.00000140,0.00000061,-0.00000132,-0.00000161,0.00000066,-0.000001
 48,-0.00000128,0.00000021,-0.00000110,-0.00000164,0.00000062,-0.000001
 57,-0.00000026,-0.00000223,0.00000073,0.00000233,0.00000219,0.00000094
 ,0.00000061,0.00000070,0.00000036,0.00000109,0.00000076,0.00000071,0.0
 0000079,0.00000091,0.00000039,0.00000103,0.00000125,0.00000051,0.00000
 011,0.00000068,0.,0.00000060,0.00000144,0.00000012,0.00000011,0.000001
 50,0.00000005,0.00000062,0.00000115,0.00000032,0.00000028,-0.00000177,
 0.00000063,0.00000022,-0.00000214,0.00000091,0.00000015,-0.00000141,0.
 00000045,0.00000061,-0.00000149,0.00000090,-0.00000135,-0.00000195,-0.
 00000031,-0.00000141,-0.00000142,-0.00000092,-0.00000139,-0.00000208,-
 0.00000063,-0.00000174,-0.00000221,-0.00000078\\\@


     SCHOPENHAUER'S LAW OF ENTROPY
 IF YOU PUT A SPOONFUL OF WINE IN A BARREL FULL
 OF SEWAGE, YOU GET SEWAGE.
 IF YOU PUT A SPOONFUL OF SEWAGE IN A BARREL FULL
 OF WINE, YOU GET SEWAGE.
 Job cpu time:       4 days  7 hours  9 minutes 42.8 seconds.
 Elapsed time:       0 days  3 hours 48 minutes  3.1 seconds.
 File lengths (MBytes):  RWF=   9774 Int=      0 D2E=      0 Chk=    108 Scr=      1
 Normal termination of Gaussian 16 at Thu May  9 16:02:07 2019.
