 Entering Gaussian System, Link 0=g16
 Input=clay_new-glu_gluC6-DDUR-Na_1Me2O-bisCF3-ts-b3lyp_d3bj-631gd-pcm_thf.gjf
 Output=clay_new-glu_gluC6-DDUR-Na_1Me2O-bisCF3-ts-b3lyp_d3bj-631gd-pcm_thf.out
 Initial command:
 /home/ekwan/sw/g16/l1.exe "/scratch/users/ekwan/clay_new-glu_gluC6-DDUR-Na_1Me2O-bisCF3-ts-b3lyp_d3bj-631gd-pcm_thf/Gau-1919.inp" -scrdir="/scratch/users/ekwan/clay_new-glu_gluC6-DDUR-Na_1Me2O-bisCF3-ts-b3lyp_d3bj-631gd-pcm_thf/"
 Entering Link 1 = /home/ekwan/sw/g16/l1.exe PID=      1920.
  
 Copyright (c) 1988,1990,1992,1993,1995,1998,2003,2009,2016,
            Gaussian, Inc.  All Rights Reserved.
  
 This is part of the Gaussian(R) 16 program.  It is based on
 the Gaussian(R) 09 system (copyright 2009, Gaussian, Inc.),
 the Gaussian(R) 03 system (copyright 2003, Gaussian, Inc.),
 the Gaussian(R) 98 system (copyright 1998, Gaussian, Inc.),
 the Gaussian(R) 94 system (copyright 1995, Gaussian, Inc.),
 the Gaussian 92(TM) system (copyright 1992, Gaussian, Inc.),
 the Gaussian 90(TM) system (copyright 1990, Gaussian, Inc.),
 the Gaussian 88(TM) system (copyright 1988, Gaussian, Inc.),
 the Gaussian 86(TM) system (copyright 1986, Carnegie Mellon
 University), and the Gaussian 82(TM) system (copyright 1983,
 Carnegie Mellon University). Gaussian is a federally registered
 trademark of Gaussian, Inc.
  
 This software contains proprietary and confidential information,
 including trade secrets, belonging to Gaussian, Inc.
  
 This software is provided under written license and may be
 used, copied, transmitted, or stored only in accord with that
 written license.
  
 The following legend is applicable only to US Government
 contracts under FAR:
  
                    RESTRICTED RIGHTS LEGEND
  
 Use, reproduction and disclosure by the US Government is
 subject to restrictions as set forth in subparagraphs (a)
 and (c) of the Commercial Computer Software - Restricted
 Rights clause in FAR 52.227-19.
  
 Gaussian, Inc.
 340 Quinnipiac St., Bldg. 40, Wallingford CT 06492
  
  
 ---------------------------------------------------------------
 Warning -- This program may not be used in any manner that
 competes with the business of Gaussian, Inc. or will provide
 assistance to any competitor of Gaussian, Inc.  The licensee
 of this program is prohibited from giving any competitor of
 Gaussian, Inc. access to this program.  By using this program,
 the user acknowledges that Gaussian, Inc. is engaged in the
 business of creating and licensing software in the field of
 computational chemistry and represents and warrants to the
 licensee that it is not a competitor of Gaussian, Inc. and that
 it will not use this program in any manner prohibited above.
 ---------------------------------------------------------------
  

 Cite this work as:
 Gaussian 16, Revision A.03,
 M. J. Frisch, G. W. Trucks, H. B. Schlegel, G. E. Scuseria, 
 M. A. Robb, J. R. Cheeseman, G. Scalmani, V. Barone, 
 G. A. Petersson, H. Nakatsuji, X. Li, M. Caricato, A. V. Marenich, 
 J. Bloino, B. G. Janesko, R. Gomperts, B. Mennucci, H. P. Hratchian, 
 J. V. Ortiz, A. F. Izmaylov, J. L. Sonnenberg, D. Williams-Young, 
 F. Ding, F. Lipparini, F. Egidi, J. Goings, B. Peng, A. Petrone, 
 T. Henderson, D. Ranasinghe, V. G. Zakrzewski, J. Gao, N. Rega, 
 G. Zheng, W. Liang, M. Hada, M. Ehara, K. Toyota, R. Fukuda, 
 J. Hasegawa, M. Ishida, T. Nakajima, Y. Honda, O. Kitao, H. Nakai, 
 T. Vreven, K. Throssell, J. A. Montgomery, Jr., J. E. Peralta, 
 F. Ogliaro, M. J. Bearpark, J. J. Heyd, E. N. Brothers, K. N. Kudin, 
 V. N. Staroverov, T. A. Keith, R. Kobayashi, J. Normand, 
 K. Raghavachari, A. P. Rendell, J. C. Burant, S. S. Iyengar, 
 J. Tomasi, M. Cossi, J. M. Millam, M. Klene, C. Adamo, R. Cammi, 
 J. W. Ochterski, R. L. Martin, K. Morokuma, O. Farkas, 
 J. B. Foresman, and D. J. Fox, Gaussian, Inc., Wallingford CT, 2016.
 
 ******************************************
 Gaussian 16:  AS64L-G16RevA.03 25-Dec-2016
                 9-May-2019 
 ******************************************
 %mem=48GB
 %nprocshared=32
 Will use up to   32 processors via shared memory.
 ----------------------------------------------------------------------
 #p opt=(calcfc,ts,noeigentest,maxstep=3,recalc=30) freq=noraman b3lyp/
 6-31g(d) scrf=(solvent=tetrahydrofuran,pcm) pop=none empiricaldispersi
 on=gd3bj
 ----------------------------------------------------------------------
 1/5=1,8=3,10=4,11=1,18=20,26=3,38=1,71=30/1,3;
 2/9=110,12=2,17=6,18=5,40=1/2;
 3/5=1,6=6,7=1,11=2,25=1,30=1,70=2201,71=2,72=20,74=-5,124=41,140=1/1,2,3;
 4//1;
 5/5=2,38=5,53=20/2;
 8/6=4,10=90,11=11/1;
 11/6=1,8=1,9=11,15=111,16=1/1,2,10;
 10/6=1,13=1/2;
 7/10=1,18=20,25=1/1,2,3,16;
 1/5=1,8=3,10=4,11=1,18=20,26=3,71=30/3(2);
 2/9=110/2;
 99//99;
 2/9=110/2;
 3/5=1,6=6,7=1,11=2,25=1,30=1,70=2205,71=1,72=20,74=-5,124=41/1,2,3;
 4/5=5,16=3,69=1/1;
 5/5=2,38=5,53=20/2;
 7//1,2,3,16;
 1/5=1,8=3,11=1,18=20,26=3,71=30/3(-5);
 2/9=110/2;
 99/9=1/99;
 Leave Link    1 at Thu May  9 22:44:22 2019, MaxMem=  6442450944 cpu:               4.4 elap:               0.2
 (Enter /home/ekwan/sw/g16/l101.exe)
 -----
 title
 -----
 Symbolic Z-matrix:
 Charge =  0 Multiplicity = 1
 C                    -3.20858  -2.41165  -0.20865 
 C                    -3.79182  -2.5018   -1.61612 
 C                    -3.13192  -1.45667  -2.52124 
 C                    -1.01232  -1.63634  -1.37084 
 C                    -1.67113  -2.38816  -0.20245 
 H                    -3.48751  -1.54262  -3.55777 
 H                    -3.55685  -3.49029  -2.04038 
 H                    -3.5677   -1.48385   0.24205 
 H                    -0.91704  -0.58697  -1.07122 
 H                    -1.32486  -3.43104  -0.2112 
 O                    -1.75435  -1.71449  -2.60447 
 O                    -3.43973  -0.18063  -2.0203 
 O                    -5.19781  -2.33782  -1.51899 
 O                    -3.60551  -3.53301   0.58518 
 O                    -1.20921  -1.74248   0.98874 
 C                     0.36893  -2.24129  -1.73899 
 H                     0.80469  -1.54298  -2.4922 
 H                     0.1041   -3.15567  -2.32704 
 O                     1.20095  -2.4986   -0.68623 
 C                    -5.91067  -2.72778  -2.68046 
 H                    -5.72643  -2.05432  -3.52859 
 H                    -5.65204  -3.75324  -2.98356 
 H                    -6.97282  -2.68724  -2.42736 
 C                    -4.8137   -3.35833   1.31709 
 H                    -4.75657  -2.47708   1.96745 
 H                    -5.67712  -3.25583   0.65317 
 H                    -4.93076  -4.25149   1.93768 
 C                    -1.0732   -2.59018   2.11634 
 H                    -2.03374  -3.00204   2.43865 
 H                    -0.38073  -3.41597   1.89909 
 H                    -0.65367  -1.97528   2.91756 
 C                     4.05394   0.29995   0.33321 
 C                     3.10517  -0.80163   0.77942 
 C                     1.66091  -0.33362   0.73588 
 C                     2.15607   1.3979   -0.91976 
 C                     3.59125   0.8805   -1.00143 
 H                     0.86988  -1.01375   1.01341 
 H                     3.10721  -1.6146    0.03982 
 H                     4.06025   1.09413   1.08815 
 H                     2.16568   2.32354  -0.34524 
 H                     3.66383   0.09652  -1.76697 
 O                     1.26068   0.48815  -0.20422 
 O                     2.077     2.93614   1.79564 
 O                     3.54599  -1.2715    2.03188 
 O                     5.35627  -0.24522   0.16796 
 O                     4.42697   1.98093  -1.33222 
 C                     1.45108   1.56331  -2.2722 
 H                     0.42488   1.90984  -2.08436 
 H                     1.39832   0.58531  -2.76064 
 O                     2.11685   2.42515  -3.1678 
 S                     1.20459   2.02959   2.5697 
 O                     1.03394   2.3281    4.00114 
 O                     1.60182   0.55158   2.40993 
 C                    -0.41979   2.11163   1.81142 
 C                    -0.65174   2.98904   0.76111 
 C                    -1.43152   1.28809   2.30163 
 C                    -1.91876   3.02374   0.17324 
 H                     0.14792   3.63121   0.41088 
 C                    -2.6933    1.34964   1.71949 
 H                    -1.23673   0.61053   3.12372 
 C                    -2.94318   2.20712   0.64529 
 H                    -3.92453   2.23728   0.18979 
 C                     2.76551  -2.30833   2.60367 
 H                     1.82102  -1.92501   3.00497 
 H                     2.54664  -3.09949   1.8753 
 H                     3.35617  -2.72712   3.42164 
 C                     6.37641   0.46729   0.85605 
 H                     6.43313   1.50703   0.51353 
 H                     6.20632   0.45032   1.9404 
 H                     7.31728  -0.04138   0.63205 
 C                     5.19509   1.79857  -2.51536 
 H                     5.85082   0.92334  -2.42838 
 H                     4.54375   1.695    -3.39046 
 H                     5.80783   2.69648  -2.62701 
 C                     2.09465   3.79194  -2.77134 
 H                     2.45261   4.37152  -3.62563 
 H                     1.07397   4.11151  -2.52075 
 H                     2.75622   3.9732   -1.91639 
 C                    -2.9731    0.86834  -2.85945 
 H                    -3.41862   1.79246  -2.4924 
 H                    -1.88107   0.95208  -2.83146 
 H                    -3.28822   0.70615  -3.90024 
 Na                    2.27033  -4.34191  -0.59786 
 O                     4.49841  -3.80984  -0.5688 
 C                     5.33837  -3.7811    0.58547 
 H                     5.47595  -2.75126   0.9298 
 H                     4.83756  -4.36433   1.36128 
 H                     6.31304  -4.23682   0.36427 
 C                     5.07749  -3.10126  -1.66451 
 H                     5.99235  -3.60457  -2.00648 
 H                     4.34294  -3.09844  -2.47327 
 H                     5.31363  -2.07224  -1.37305 
 C                    -3.82296   0.55977   2.31819 
 F                    -4.75198   0.22439   1.3944 
 F                    -4.46503   1.26782   3.27593 
 F                    -3.39353  -0.58276   2.89862 
 C                    -2.1443    3.9661   -0.97538 
 F                    -1.76539   5.22375  -0.66908 
 F                    -3.43673   4.00902  -1.36199 
 F                    -1.41881   3.60387  -2.06866 
 
 Add virtual bond connecting atoms O53        and C34        Dist= 3.58D+00.
 Add virtual bond connecting atoms H37        and O15        Dist= 4.16D+00.
 Add virtual bond connecting atoms H37        and O19        Dist= 4.31D+00.
 Add virtual bond connecting atoms H38        and O19        Dist= 4.20D+00.
 Add virtual bond connecting atoms H49        and H17        Dist= 4.21D+00.
 ITRead=  0  0  0  0  0  0  0  0  0  0  0  0  0  0  0  0  0  0  0  0
 ITRead=  0  0  0  0  0  0  0  0  0  0  0  0  0  0  0  0  0  0  0  0
 ITRead=  0  0  0  0  0  0  0  0  0  0  0  0  0  0  0  0  0  0  0  0
 ITRead=  0  0  0  0  0  0  0  0  0  0  0  0  0  0  0  0  0  0  0  0
 ITRead=  0  0  0  0  0  0  0  0  0  0  0  0  0  0  0  0  0  0  0  0
 MicOpt= -1 -1 -1 -1 -1 -1 -1 -1 -1 -1 -1 -1 -1 -1 -1 -1 -1 -1 -1 -1
 MicOpt= -1 -1 -1 -1 -1 -1 -1 -1 -1 -1 -1 -1 -1 -1 -1 -1 -1 -1 -1 -1
 MicOpt= -1 -1 -1 -1 -1 -1 -1 -1 -1 -1 -1 -1 -1 -1 -1 -1 -1 -1 -1 -1
 MicOpt= -1 -1 -1 -1 -1 -1 -1 -1 -1 -1 -1 -1 -1 -1 -1 -1 -1 -1 -1 -1
 MicOpt= -1 -1 -1 -1 -1 -1 -1 -1 -1 -1 -1 -1 -1 -1 -1 -1 -1 -1 -1 -1
 NAtoms=    100 NQM=      100 NQMF=       0 NMMI=      0 NMMIF=      0
                NMic=       0 NMicF=      0.
                    Isotopes and Nuclear Properties:
 (Nuclear quadrupole moments (NQMom) in fm**2, nuclear magnetic moments (NMagM)
  in nuclear magnetons)

  Atom         1           2           3           4           5           6           7           8           9          10
 IAtWgt=          12          12          12          12          12           1           1           1           1           1
 AtmWgt=  12.0000000  12.0000000  12.0000000  12.0000000  12.0000000   1.0078250   1.0078250   1.0078250   1.0078250   1.0078250
 NucSpn=           0           0           0           0           0           1           1           1           1           1
 AtZEff=   0.0000000   0.0000000   0.0000000   0.0000000   0.0000000   0.0000000   0.0000000   0.0000000   0.0000000   0.0000000
 NQMom=    0.0000000   0.0000000   0.0000000   0.0000000   0.0000000   0.0000000   0.0000000   0.0000000   0.0000000   0.0000000
 NMagM=    0.0000000   0.0000000   0.0000000   0.0000000   0.0000000   2.7928460   2.7928460   2.7928460   2.7928460   2.7928460
 AtZNuc=   6.0000000   6.0000000   6.0000000   6.0000000   6.0000000   1.0000000   1.0000000   1.0000000   1.0000000   1.0000000

  Atom        11          12          13          14          15          16          17          18          19          20
 IAtWgt=          16          16          16          16          16          12           1           1          16          12
 AtmWgt=  15.9949146  15.9949146  15.9949146  15.9949146  15.9949146  12.0000000   1.0078250   1.0078250  15.9949146  12.0000000
 NucSpn=           0           0           0           0           0           0           1           1           0           0
 AtZEff=   0.0000000   0.0000000   0.0000000   0.0000000   0.0000000   0.0000000   0.0000000   0.0000000   0.0000000   0.0000000
 NQMom=    0.0000000   0.0000000   0.0000000   0.0000000   0.0000000   0.0000000   0.0000000   0.0000000   0.0000000   0.0000000
 NMagM=    0.0000000   0.0000000   0.0000000   0.0000000   0.0000000   0.0000000   2.7928460   2.7928460   0.0000000   0.0000000
 AtZNuc=   8.0000000   8.0000000   8.0000000   8.0000000   8.0000000   6.0000000   1.0000000   1.0000000   8.0000000   6.0000000

  Atom        21          22          23          24          25          26          27          28          29          30
 IAtWgt=           1           1           1          12           1           1           1          12           1           1
 AtmWgt=   1.0078250   1.0078250   1.0078250  12.0000000   1.0078250   1.0078250   1.0078250  12.0000000   1.0078250   1.0078250
 NucSpn=           1           1           1           0           1           1           1           0           1           1
 AtZEff=   0.0000000   0.0000000   0.0000000   0.0000000   0.0000000   0.0000000   0.0000000   0.0000000   0.0000000   0.0000000
 NQMom=    0.0000000   0.0000000   0.0000000   0.0000000   0.0000000   0.0000000   0.0000000   0.0000000   0.0000000   0.0000000
 NMagM=    2.7928460   2.7928460   2.7928460   0.0000000   2.7928460   2.7928460   2.7928460   0.0000000   2.7928460   2.7928460
 AtZNuc=   1.0000000   1.0000000   1.0000000   6.0000000   1.0000000   1.0000000   1.0000000   6.0000000   1.0000000   1.0000000

  Atom        31          32          33          34          35          36          37          38          39          40
 IAtWgt=           1          12          12          12          12          12           1           1           1           1
 AtmWgt=   1.0078250  12.0000000  12.0000000  12.0000000  12.0000000  12.0000000   1.0078250   1.0078250   1.0078250   1.0078250
 NucSpn=           1           0           0           0           0           0           1           1           1           1
 AtZEff=   0.0000000   0.0000000   0.0000000   0.0000000   0.0000000   0.0000000   0.0000000   0.0000000   0.0000000   0.0000000
 NQMom=    0.0000000   0.0000000   0.0000000   0.0000000   0.0000000   0.0000000   0.0000000   0.0000000   0.0000000   0.0000000
 NMagM=    2.7928460   0.0000000   0.0000000   0.0000000   0.0000000   0.0000000   2.7928460   2.7928460   2.7928460   2.7928460
 AtZNuc=   1.0000000   6.0000000   6.0000000   6.0000000   6.0000000   6.0000000   1.0000000   1.0000000   1.0000000   1.0000000

  Atom        41          42          43          44          45          46          47          48          49          50
 IAtWgt=           1          16          16          16          16          16          12           1           1          16
 AtmWgt=   1.0078250  15.9949146  15.9949146  15.9949146  15.9949146  15.9949146  12.0000000   1.0078250   1.0078250  15.9949146
 NucSpn=           1           0           0           0           0           0           0           1           1           0
 AtZEff=   0.0000000   0.0000000   0.0000000   0.0000000   0.0000000   0.0000000   0.0000000   0.0000000   0.0000000   0.0000000
 NQMom=    0.0000000   0.0000000   0.0000000   0.0000000   0.0000000   0.0000000   0.0000000   0.0000000   0.0000000   0.0000000
 NMagM=    2.7928460   0.0000000   0.0000000   0.0000000   0.0000000   0.0000000   0.0000000   2.7928460   2.7928460   0.0000000
 AtZNuc=   1.0000000   8.0000000   8.0000000   8.0000000   8.0000000   8.0000000   6.0000000   1.0000000   1.0000000   8.0000000

  Atom        51          52          53          54          55          56          57          58          59          60
 IAtWgt=          32          16          16          12          12          12          12           1          12           1
 AtmWgt=  31.9720718  15.9949146  15.9949146  12.0000000  12.0000000  12.0000000  12.0000000   1.0078250  12.0000000   1.0078250
 NucSpn=           0           0           0           0           0           0           0           1           0           1
 AtZEff=   0.0000000   0.0000000   0.0000000   0.0000000   0.0000000   0.0000000   0.0000000   0.0000000   0.0000000   0.0000000
 NQMom=    0.0000000   0.0000000   0.0000000   0.0000000   0.0000000   0.0000000   0.0000000   0.0000000   0.0000000   0.0000000
 NMagM=    0.0000000   0.0000000   0.0000000   0.0000000   0.0000000   0.0000000   0.0000000   2.7928460   0.0000000   2.7928460
 AtZNuc=  16.0000000   8.0000000   8.0000000   6.0000000   6.0000000   6.0000000   6.0000000   1.0000000   6.0000000   1.0000000

  Atom        61          62          63          64          65          66          67          68          69          70
 IAtWgt=          12           1          12           1           1           1          12           1           1           1
 AtmWgt=  12.0000000   1.0078250  12.0000000   1.0078250   1.0078250   1.0078250  12.0000000   1.0078250   1.0078250   1.0078250
 NucSpn=           0           1           0           1           1           1           0           1           1           1
 AtZEff=   0.0000000   0.0000000   0.0000000   0.0000000   0.0000000   0.0000000   0.0000000   0.0000000   0.0000000   0.0000000
 NQMom=    0.0000000   0.0000000   0.0000000   0.0000000   0.0000000   0.0000000   0.0000000   0.0000000   0.0000000   0.0000000
 NMagM=    0.0000000   2.7928460   0.0000000   2.7928460   2.7928460   2.7928460   0.0000000   2.7928460   2.7928460   2.7928460
 AtZNuc=   6.0000000   1.0000000   6.0000000   1.0000000   1.0000000   1.0000000   6.0000000   1.0000000   1.0000000   1.0000000

  Atom        71          72          73          74          75          76          77          78          79          80
 IAtWgt=          12           1           1           1          12           1           1           1          12           1
 AtmWgt=  12.0000000   1.0078250   1.0078250   1.0078250  12.0000000   1.0078250   1.0078250   1.0078250  12.0000000   1.0078250
 NucSpn=           0           1           1           1           0           1           1           1           0           1
 AtZEff=   0.0000000   0.0000000   0.0000000   0.0000000   0.0000000   0.0000000   0.0000000   0.0000000   0.0000000   0.0000000
 NQMom=    0.0000000   0.0000000   0.0000000   0.0000000   0.0000000   0.0000000   0.0000000   0.0000000   0.0000000   0.0000000
 NMagM=    0.0000000   2.7928460   2.7928460   2.7928460   0.0000000   2.7928460   2.7928460   2.7928460   0.0000000   2.7928460
 AtZNuc=   6.0000000   1.0000000   1.0000000   1.0000000   6.0000000   1.0000000   1.0000000   1.0000000   6.0000000   1.0000000

  Atom        81          82          83          84          85          86          87          88          89          90
 IAtWgt=           1           1          23          16          12           1           1           1          12           1
 AtmWgt=   1.0078250   1.0078250  22.9897697  15.9949146  12.0000000   1.0078250   1.0078250   1.0078250  12.0000000   1.0078250
 NucSpn=           1           1           3           0           0           1           1           1           0           1
 AtZEff=   0.0000000   0.0000000   0.0000000   0.0000000   0.0000000   0.0000000   0.0000000   0.0000000   0.0000000   0.0000000
 NQMom=    0.0000000   0.0000000  10.4000000   0.0000000   0.0000000   0.0000000   0.0000000   0.0000000   0.0000000   0.0000000
 NMagM=    2.7928460   2.7928460   2.2175200   0.0000000   0.0000000   2.7928460   2.7928460   2.7928460   0.0000000   2.7928460
 AtZNuc=   1.0000000   1.0000000  11.0000000   8.0000000   6.0000000   1.0000000   1.0000000   1.0000000   6.0000000   1.0000000

  Atom        91          92          93          94          95          96          97          98          99         100
 IAtWgt=           1           1          12          19          19          19          12          19          19          19
 AtmWgt=   1.0078250   1.0078250  12.0000000  18.9984033  18.9984033  18.9984033  12.0000000  18.9984033  18.9984033  18.9984033
 NucSpn=           1           1           0           1           1           1           0           1           1           1
 AtZEff=   0.0000000   0.0000000   0.0000000   0.0000000   0.0000000   0.0000000   0.0000000   0.0000000   0.0000000   0.0000000
 NQMom=    0.0000000   0.0000000   0.0000000   0.0000000   0.0000000   0.0000000   0.0000000   0.0000000   0.0000000   0.0000000
 NMagM=    2.7928460   2.7928460   0.0000000   2.6288670   2.6288670   2.6288670   0.0000000   2.6288670   2.6288670   2.6288670
 AtZNuc=   1.0000000   1.0000000   6.0000000   9.0000000   9.0000000   9.0000000   6.0000000   9.0000000   9.0000000   9.0000000
 Leave Link  101 at Thu May  9 22:44:22 2019, MaxMem=  6442450944 cpu:              18.0 elap:               0.7
 (Enter /home/ekwan/sw/g16/l103.exe)

 GradGradGradGradGradGradGradGradGradGradGradGradGradGradGradGradGradGrad
 Berny optimization.
 Initialization pass.
                           ----------------------------
                           !    Initial Parameters    !
                           ! (Angstroms and Degrees)  !
 --------------------------                            --------------------------
 ! Name  Definition              Value          Derivative Info.                !
 --------------------------------------------------------------------------------
 ! R1    R(1,2)                  1.5262         calculate D2E/DX2 analytically  !
 ! R2    R(1,5)                  1.5376         calculate D2E/DX2 analytically  !
 ! R3    R(1,8)                  1.0922         calculate D2E/DX2 analytically  !
 ! R4    R(1,14)                 1.4301         calculate D2E/DX2 analytically  !
 ! R5    R(2,3)                  1.532          calculate D2E/DX2 analytically  !
 ! R6    R(2,7)                  1.1011         calculate D2E/DX2 analytically  !
 ! R7    R(2,13)                 1.4188         calculate D2E/DX2 analytically  !
 ! R8    R(3,6)                  1.0992         calculate D2E/DX2 analytically  !
 ! R9    R(3,11)                 1.404          calculate D2E/DX2 analytically  !
 ! R10   R(3,12)                 1.405          calculate D2E/DX2 analytically  !
 ! R11   R(4,5)                  1.5377         calculate D2E/DX2 analytically  !
 ! R12   R(4,9)                  1.0955         calculate D2E/DX2 analytically  !
 ! R13   R(4,11)                 1.4417         calculate D2E/DX2 analytically  !
 ! R14   R(4,16)                 1.5522         calculate D2E/DX2 analytically  !
 ! R15   R(5,10)                 1.0989         calculate D2E/DX2 analytically  !
 ! R16   R(5,15)                 1.4315         calculate D2E/DX2 analytically  !
 ! R17   R(12,79)                1.4221         calculate D2E/DX2 analytically  !
 ! R18   R(13,20)                1.4175         calculate D2E/DX2 analytically  !
 ! R19   R(14,24)                1.4233         calculate D2E/DX2 analytically  !
 ! R20   R(15,28)                1.4172         calculate D2E/DX2 analytically  !
 ! R21   R(15,37)                2.2032         calculate D2E/DX2 analytically  !
 ! R22   R(16,17)                1.1157         calculate D2E/DX2 analytically  !
 ! R23   R(16,18)                1.1189         calculate D2E/DX2 analytically  !
 ! R24   R(16,19)                1.3663         calculate D2E/DX2 analytically  !
 ! R25   R(17,49)                2.2258         calculate D2E/DX2 analytically  !
 ! R26   R(19,37)                2.281          calculate D2E/DX2 analytically  !
 ! R27   R(19,38)                2.2232         calculate D2E/DX2 analytically  !
 ! R28   R(19,83)                2.1329         calculate D2E/DX2 analytically  !
 ! R29   R(20,21)                1.0986         calculate D2E/DX2 analytically  !
 ! R30   R(20,22)                1.1001         calculate D2E/DX2 analytically  !
 ! R31   R(20,23)                1.0926         calculate D2E/DX2 analytically  !
 ! R32   R(24,25)                1.0967         calculate D2E/DX2 analytically  !
 ! R33   R(24,26)                1.094          calculate D2E/DX2 analytically  !
 ! R34   R(24,27)                1.0939         calculate D2E/DX2 analytically  !
 ! R35   R(28,29)                1.0937         calculate D2E/DX2 analytically  !
 ! R36   R(28,30)                1.0994         calculate D2E/DX2 analytically  !
 ! R37   R(28,31)                1.0936         calculate D2E/DX2 analytically  !
 ! R38   R(32,33)                1.5208         calculate D2E/DX2 analytically  !
 ! R39   R(32,36)                1.5272         calculate D2E/DX2 analytically  !
 ! R40   R(32,39)                1.0958         calculate D2E/DX2 analytically  !
 ! R41   R(32,45)                1.4215         calculate D2E/DX2 analytically  !
 ! R42   R(33,34)                1.5188         calculate D2E/DX2 analytically  !
 ! R43   R(33,38)                1.0991         calculate D2E/DX2 analytically  !
 ! R44   R(33,44)                1.4085         calculate D2E/DX2 analytically  !
 ! R45   R(34,37)                1.0795         calculate D2E/DX2 analytically  !
 ! R46   R(34,42)                1.3112         calculate D2E/DX2 analytically  !
 ! R47   R(34,53)                1.8946         calculate D2E/DX2 analytically  !
 ! R48   R(35,36)                1.5278         calculate D2E/DX2 analytically  !
 ! R49   R(35,40)                1.0895         calculate D2E/DX2 analytically  !
 ! R50   R(35,42)                1.4633         calculate D2E/DX2 analytically  !
 ! R51   R(35,47)                1.5341         calculate D2E/DX2 analytically  !
 ! R52   R(36,41)                1.0982         calculate D2E/DX2 analytically  !
 ! R53   R(36,46)                1.4208         calculate D2E/DX2 analytically  !
 ! R54   R(43,51)                1.4772         calculate D2E/DX2 analytically  !
 ! R55   R(44,63)                1.4181         calculate D2E/DX2 analytically  !
 ! R56   R(45,67)                1.4219         calculate D2E/DX2 analytically  !
 ! R57   R(46,71)                1.4224         calculate D2E/DX2 analytically  !
 ! R58   R(47,48)                1.0993         calculate D2E/DX2 analytically  !
 ! R59   R(47,49)                1.0945         calculate D2E/DX2 analytically  !
 ! R60   R(47,50)                1.41           calculate D2E/DX2 analytically  !
 ! R61   R(50,75)                1.4233         calculate D2E/DX2 analytically  !
 ! R62   R(51,52)                1.4722         calculate D2E/DX2 analytically  !
 ! R63   R(51,53)                1.5388         calculate D2E/DX2 analytically  !
 ! R64   R(51,54)                1.7945         calculate D2E/DX2 analytically  !
 ! R65   R(54,55)                1.3881         calculate D2E/DX2 analytically  !
 ! R66   R(54,56)                1.3936         calculate D2E/DX2 analytically  !
 ! R67   R(55,57)                1.3972         calculate D2E/DX2 analytically  !
 ! R68   R(55,58)                1.0837         calculate D2E/DX2 analytically  !
 ! R69   R(56,59)                1.391          calculate D2E/DX2 analytically  !
 ! R70   R(56,60)                1.083          calculate D2E/DX2 analytically  !
 ! R71   R(57,61)                1.3925         calculate D2E/DX2 analytically  !
 ! R72   R(57,97)                1.5027         calculate D2E/DX2 analytically  !
 ! R73   R(59,61)                1.397          calculate D2E/DX2 analytically  !
 ! R74   R(59,93)                1.5028         calculate D2E/DX2 analytically  !
 ! R75   R(61,62)                1.0823         calculate D2E/DX2 analytically  !
 ! R76   R(63,64)                1.0955         calculate D2E/DX2 analytically  !
 ! R77   R(63,65)                1.0974         calculate D2E/DX2 analytically  !
 ! R78   R(63,66)                1.0924         calculate D2E/DX2 analytically  !
 ! R79   R(67,68)                1.0962         calculate D2E/DX2 analytically  !
 ! R80   R(67,69)                1.0977         calculate D2E/DX2 analytically  !
 ! R81   R(67,70)                1.0928         calculate D2E/DX2 analytically  !
 ! R82   R(71,72)                1.0971         calculate D2E/DX2 analytically  !
 ! R83   R(71,73)                1.0958         calculate D2E/DX2 analytically  !
 ! R84   R(71,74)                1.0928         calculate D2E/DX2 analytically  !
 ! R85   R(75,76)                1.0926         calculate D2E/DX2 analytically  !
 ! R86   R(75,77)                1.0985         calculate D2E/DX2 analytically  !
 ! R87   R(75,78)                1.0961         calculate D2E/DX2 analytically  !
 ! R88   R(79,80)                1.0896         calculate D2E/DX2 analytically  !
 ! R89   R(79,81)                1.0956         calculate D2E/DX2 analytically  !
 ! R90   R(79,82)                1.0995         calculate D2E/DX2 analytically  !
 ! R91   R(83,84)                2.2909         calculate D2E/DX2 analytically  !
 ! R92   R(84,85)                1.4278         calculate D2E/DX2 analytically  !
 ! R93   R(84,89)                1.4276         calculate D2E/DX2 analytically  !
 ! R94   R(85,86)                1.0946         calculate D2E/DX2 analytically  !
 ! R95   R(85,87)                1.0922         calculate D2E/DX2 analytically  !
 ! R96   R(85,88)                1.0984         calculate D2E/DX2 analytically  !
 ! R97   R(89,90)                1.0987         calculate D2E/DX2 analytically  !
 ! R98   R(89,91)                1.0925         calculate D2E/DX2 analytically  !
 ! R99   R(89,92)                1.0953         calculate D2E/DX2 analytically  !
 ! R100  R(93,94)                1.3524         calculate D2E/DX2 analytically  !
 ! R101  R(93,95)                1.3531         calculate D2E/DX2 analytically  !
 ! R102  R(93,96)                1.3515         calculate D2E/DX2 analytically  !
 ! R103  R(97,98)                1.3487         calculate D2E/DX2 analytically  !
 ! R104  R(97,99)                1.3497         calculate D2E/DX2 analytically  !
 ! R105  R(97,100)               1.3612         calculate D2E/DX2 analytically  !
 ! A1    A(2,1,5)              112.7509         calculate D2E/DX2 analytically  !
 ! A2    A(2,1,8)              107.7625         calculate D2E/DX2 analytically  !
 ! A3    A(2,1,14)             111.0709         calculate D2E/DX2 analytically  !
 ! A4    A(5,1,8)              108.3077         calculate D2E/DX2 analytically  !
 ! A5    A(5,1,14)             106.6942         calculate D2E/DX2 analytically  !
 ! A6    A(8,1,14)             110.2289         calculate D2E/DX2 analytically  !
 ! A7    A(1,2,3)              109.874          calculate D2E/DX2 analytically  !
 ! A8    A(1,2,7)              109.0761         calculate D2E/DX2 analytically  !
 ! A9    A(1,2,13)             107.9831         calculate D2E/DX2 analytically  !
 ! A10   A(3,2,7)              107.0306         calculate D2E/DX2 analytically  !
 ! A11   A(3,2,13)             112.8575         calculate D2E/DX2 analytically  !
 ! A12   A(7,2,13)             109.9741         calculate D2E/DX2 analytically  !
 ! A13   A(2,3,6)              111.3733         calculate D2E/DX2 analytically  !
 ! A14   A(2,3,11)             109.4139         calculate D2E/DX2 analytically  !
 ! A15   A(2,3,12)             108.3348         calculate D2E/DX2 analytically  !
 ! A16   A(6,3,11)             104.3096         calculate D2E/DX2 analytically  !
 ! A17   A(6,3,12)             109.6558         calculate D2E/DX2 analytically  !
 ! A18   A(11,3,12)            113.7588         calculate D2E/DX2 analytically  !
 ! A19   A(5,4,9)              107.3254         calculate D2E/DX2 analytically  !
 ! A20   A(5,4,11)             113.7754         calculate D2E/DX2 analytically  !
 ! A21   A(5,4,16)             111.7726         calculate D2E/DX2 analytically  !
 ! A22   A(9,4,11)             109.3128         calculate D2E/DX2 analytically  !
 ! A23   A(9,4,16)             111.1506         calculate D2E/DX2 analytically  !
 ! A24   A(11,4,16)            103.5285         calculate D2E/DX2 analytically  !
 ! A25   A(1,5,4)              115.6455         calculate D2E/DX2 analytically  !
 ! A26   A(1,5,10)             107.49           calculate D2E/DX2 analytically  !
 ! A27   A(1,5,15)             109.4441         calculate D2E/DX2 analytically  !
 ! A28   A(4,5,10)             108.8412         calculate D2E/DX2 analytically  !
 ! A29   A(4,5,15)             105.8726         calculate D2E/DX2 analytically  !
 ! A30   A(10,5,15)            109.4517         calculate D2E/DX2 analytically  !
 ! A31   A(3,11,4)             116.3809         calculate D2E/DX2 analytically  !
 ! A32   A(3,12,79)            112.809          calculate D2E/DX2 analytically  !
 ! A33   A(2,13,20)            114.234          calculate D2E/DX2 analytically  !
 ! A34   A(1,14,24)            115.1384         calculate D2E/DX2 analytically  !
 ! A35   A(5,15,28)            115.0394         calculate D2E/DX2 analytically  !
 ! A36   A(5,15,37)            117.5809         calculate D2E/DX2 analytically  !
 ! A37   A(28,15,37)            95.645          calculate D2E/DX2 analytically  !
 ! A38   A(4,16,17)            105.2914         calculate D2E/DX2 analytically  !
 ! A39   A(4,16,18)            103.4452         calculate D2E/DX2 analytically  !
 ! A40   A(4,16,19)            115.6283         calculate D2E/DX2 analytically  !
 ! A41   A(17,16,18)           104.425          calculate D2E/DX2 analytically  !
 ! A42   A(17,16,19)           113.591          calculate D2E/DX2 analytically  !
 ! A43   A(18,16,19)           113.2771         calculate D2E/DX2 analytically  !
 ! A44   A(16,17,49)           141.633          calculate D2E/DX2 analytically  !
 ! A45   A(16,19,37)           111.2939         calculate D2E/DX2 analytically  !
 ! A46   A(16,19,38)           134.3393         calculate D2E/DX2 analytically  !
 ! A47   A(16,19,83)           119.9999         calculate D2E/DX2 analytically  !
 ! A48   A(37,19,38)            67.8068         calculate D2E/DX2 analytically  !
 ! A49   A(37,19,83)           127.1912         calculate D2E/DX2 analytically  !
 ! A50   A(38,19,83)            84.2728         calculate D2E/DX2 analytically  !
 ! A51   A(13,20,21)           112.3093         calculate D2E/DX2 analytically  !
 ! A52   A(13,20,22)           111.3433         calculate D2E/DX2 analytically  !
 ! A53   A(13,20,23)           106.7893         calculate D2E/DX2 analytically  !
 ! A54   A(21,20,22)           108.6204         calculate D2E/DX2 analytically  !
 ! A55   A(21,20,23)           108.61           calculate D2E/DX2 analytically  !
 ! A56   A(22,20,23)           109.0826         calculate D2E/DX2 analytically  !
 ! A57   A(14,24,25)           111.0589         calculate D2E/DX2 analytically  !
 ! A58   A(14,24,26)           111.6765         calculate D2E/DX2 analytically  !
 ! A59   A(14,24,27)           106.4018         calculate D2E/DX2 analytically  !
 ! A60   A(25,24,26)           109.0082         calculate D2E/DX2 analytically  !
 ! A61   A(25,24,27)           108.9789         calculate D2E/DX2 analytically  !
 ! A62   A(26,24,27)           109.6546         calculate D2E/DX2 analytically  !
 ! A63   A(15,28,29)           112.051          calculate D2E/DX2 analytically  !
 ! A64   A(15,28,30)           110.6404         calculate D2E/DX2 analytically  !
 ! A65   A(15,28,31)           106.4635         calculate D2E/DX2 analytically  !
 ! A66   A(29,28,30)           109.1811         calculate D2E/DX2 analytically  !
 ! A67   A(29,28,31)           109.4356         calculate D2E/DX2 analytically  !
 ! A68   A(30,28,31)           108.9945         calculate D2E/DX2 analytically  !
 ! A69   A(33,32,36)           110.0449         calculate D2E/DX2 analytically  !
 ! A70   A(33,32,39)           109.0528         calculate D2E/DX2 analytically  !
 ! A71   A(33,32,45)           109.1406         calculate D2E/DX2 analytically  !
 ! A72   A(36,32,39)           109.1666         calculate D2E/DX2 analytically  !
 ! A73   A(36,32,45)           108.7697         calculate D2E/DX2 analytically  !
 ! A74   A(39,32,45)           110.6581         calculate D2E/DX2 analytically  !
 ! A75   A(32,33,34)           111.2004         calculate D2E/DX2 analytically  !
 ! A76   A(32,33,38)           109.7063         calculate D2E/DX2 analytically  !
 ! A77   A(32,33,44)           107.8967         calculate D2E/DX2 analytically  !
 ! A78   A(34,33,38)           102.146          calculate D2E/DX2 analytically  !
 ! A79   A(34,33,44)           115.2079         calculate D2E/DX2 analytically  !
 ! A80   A(38,33,44)           110.5522         calculate D2E/DX2 analytically  !
 ! A81   A(33,34,37)           119.6885         calculate D2E/DX2 analytically  !
 ! A82   A(33,34,42)           120.2599         calculate D2E/DX2 analytically  !
 ! A83   A(33,34,53)            98.5282         calculate D2E/DX2 analytically  !
 ! A84   A(37,34,42)           110.8254         calculate D2E/DX2 analytically  !
 ! A85   A(37,34,53)            92.5419         calculate D2E/DX2 analytically  !
 ! A86   A(42,34,53)           109.3402         calculate D2E/DX2 analytically  !
 ! A87   A(36,35,40)           107.9167         calculate D2E/DX2 analytically  !
 ! A88   A(36,35,42)           112.9786         calculate D2E/DX2 analytically  !
 ! A89   A(36,35,47)           114.9025         calculate D2E/DX2 analytically  !
 ! A90   A(40,35,42)           106.007          calculate D2E/DX2 analytically  !
 ! A91   A(40,35,47)           112.1687         calculate D2E/DX2 analytically  !
 ! A92   A(42,35,47)           102.5281         calculate D2E/DX2 analytically  !
 ! A93   A(32,36,35)           111.5072         calculate D2E/DX2 analytically  !
 ! A94   A(32,36,41)           108.5302         calculate D2E/DX2 analytically  !
 ! A95   A(32,36,46)           108.6429         calculate D2E/DX2 analytically  !
 ! A96   A(35,36,41)           109.9455         calculate D2E/DX2 analytically  !
 ! A97   A(35,36,46)           107.6192         calculate D2E/DX2 analytically  !
 ! A98   A(41,36,46)           110.5943         calculate D2E/DX2 analytically  !
 ! A99   A(15,37,19)            85.027          calculate D2E/DX2 analytically  !
 ! A100  A(15,37,34)           153.7652         calculate D2E/DX2 analytically  !
 ! A101  A(19,37,34)            96.4429         calculate D2E/DX2 analytically  !
 ! A102  A(19,38,33)           120.8176         calculate D2E/DX2 analytically  !
 ! A103  A(34,42,35)           123.6039         calculate D2E/DX2 analytically  !
 ! A104  A(33,44,63)           115.4799         calculate D2E/DX2 analytically  !
 ! A105  A(32,45,67)           114.134          calculate D2E/DX2 analytically  !
 ! A106  A(36,46,71)           114.3306         calculate D2E/DX2 analytically  !
 ! A107  A(35,47,48)           108.2            calculate D2E/DX2 analytically  !
 ! A108  A(35,47,49)           108.6169         calculate D2E/DX2 analytically  !
 ! A109  A(35,47,50)           114.1343         calculate D2E/DX2 analytically  !
 ! A110  A(48,47,49)           108.2368         calculate D2E/DX2 analytically  !
 ! A111  A(48,47,50)           110.8939         calculate D2E/DX2 analytically  !
 ! A112  A(49,47,50)           106.5881         calculate D2E/DX2 analytically  !
 ! A113  A(17,49,47)           144.4384         calculate D2E/DX2 analytically  !
 ! A114  A(47,50,75)           113.7451         calculate D2E/DX2 analytically  !
 ! A115  A(43,51,52)           116.9713         calculate D2E/DX2 analytically  !
 ! A116  A(43,51,53)           112.4948         calculate D2E/DX2 analytically  !
 ! A117  A(43,51,54)           106.5654         calculate D2E/DX2 analytically  !
 ! A118  A(52,51,53)           109.0045         calculate D2E/DX2 analytically  !
 ! A119  A(52,51,54)           107.2573         calculate D2E/DX2 analytically  !
 ! A120  A(53,51,54)           103.5151         calculate D2E/DX2 analytically  !
 ! A121  A(34,53,51)           123.2684         calculate D2E/DX2 analytically  !
 ! A122  A(51,54,55)           119.9921         calculate D2E/DX2 analytically  !
 ! A123  A(51,54,56)           118.7833         calculate D2E/DX2 analytically  !
 ! A124  A(55,54,56)           121.2238         calculate D2E/DX2 analytically  !
 ! A125  A(54,55,57)           119.0516         calculate D2E/DX2 analytically  !
 ! A126  A(54,55,58)           119.7211         calculate D2E/DX2 analytically  !
 ! A127  A(57,55,58)           121.2271         calculate D2E/DX2 analytically  !
 ! A128  A(54,56,59)           119.0252         calculate D2E/DX2 analytically  !
 ! A129  A(54,56,60)           120.408          calculate D2E/DX2 analytically  !
 ! A130  A(59,56,60)           120.5668         calculate D2E/DX2 analytically  !
 ! A131  A(55,57,61)           120.6586         calculate D2E/DX2 analytically  !
 ! A132  A(55,57,97)           118.2475         calculate D2E/DX2 analytically  !
 ! A133  A(61,57,97)           121.0937         calculate D2E/DX2 analytically  !
 ! A134  A(56,59,61)           120.7457         calculate D2E/DX2 analytically  !
 ! A135  A(56,59,93)           119.4652         calculate D2E/DX2 analytically  !
 ! A136  A(61,59,93)           119.6358         calculate D2E/DX2 analytically  !
 ! A137  A(57,61,59)           119.2765         calculate D2E/DX2 analytically  !
 ! A138  A(57,61,62)           120.5317         calculate D2E/DX2 analytically  !
 ! A139  A(59,61,62)           120.1913         calculate D2E/DX2 analytically  !
 ! A140  A(44,63,64)           111.4927         calculate D2E/DX2 analytically  !
 ! A141  A(44,63,65)           111.6687         calculate D2E/DX2 analytically  !
 ! A142  A(44,63,66)           106.5356         calculate D2E/DX2 analytically  !
 ! A143  A(64,63,65)           108.8715         calculate D2E/DX2 analytically  !
 ! A144  A(64,63,66)           109.0282         calculate D2E/DX2 analytically  !
 ! A145  A(65,63,66)           109.1731         calculate D2E/DX2 analytically  !
 ! A146  A(45,67,68)           111.1741         calculate D2E/DX2 analytically  !
 ! A147  A(45,67,69)           111.0454         calculate D2E/DX2 analytically  !
 ! A148  A(45,67,70)           106.5747         calculate D2E/DX2 analytically  !
 ! A149  A(68,67,69)           109.3503         calculate D2E/DX2 analytically  !
 ! A150  A(68,67,70)           109.446          calculate D2E/DX2 analytically  !
 ! A151  A(69,67,70)           109.1896         calculate D2E/DX2 analytically  !
 ! A152  A(46,71,72)           111.0461         calculate D2E/DX2 analytically  !
 ! A153  A(46,71,73)           110.8185         calculate D2E/DX2 analytically  !
 ! A154  A(46,71,74)           106.4068         calculate D2E/DX2 analytically  !
 ! A155  A(72,71,73)           110.0713         calculate D2E/DX2 analytically  !
 ! A156  A(72,71,74)           109.1763         calculate D2E/DX2 analytically  !
 ! A157  A(73,71,74)           109.2294         calculate D2E/DX2 analytically  !
 ! A158  A(50,75,76)           106.6474         calculate D2E/DX2 analytically  !
 ! A159  A(50,75,77)           110.9405         calculate D2E/DX2 analytically  !
 ! A160  A(50,75,78)           111.509          calculate D2E/DX2 analytically  !
 ! A161  A(76,75,77)           109.1748         calculate D2E/DX2 analytically  !
 ! A162  A(76,75,78)           108.9286         calculate D2E/DX2 analytically  !
 ! A163  A(77,75,78)           109.558          calculate D2E/DX2 analytically  !
 ! A164  A(12,79,80)           107.0176         calculate D2E/DX2 analytically  !
 ! A165  A(12,79,81)           111.6151         calculate D2E/DX2 analytically  !
 ! A166  A(12,79,82)           110.8385         calculate D2E/DX2 analytically  !
 ! A167  A(80,79,81)           109.5194         calculate D2E/DX2 analytically  !
 ! A168  A(80,79,82)           109.0754         calculate D2E/DX2 analytically  !
 ! A169  A(81,79,82)           108.7317         calculate D2E/DX2 analytically  !
 ! A170  A(19,83,84)           106.7044         calculate D2E/DX2 analytically  !
 ! A171  A(83,84,85)           125.9496         calculate D2E/DX2 analytically  !
 ! A172  A(83,84,89)           120.0034         calculate D2E/DX2 analytically  !
 ! A173  A(85,84,89)           111.8304         calculate D2E/DX2 analytically  !
 ! A174  A(84,85,86)           110.3157         calculate D2E/DX2 analytically  !
 ! A175  A(84,85,87)           107.0821         calculate D2E/DX2 analytically  !
 ! A176  A(84,85,88)           110.5388         calculate D2E/DX2 analytically  !
 ! A177  A(86,85,87)           109.6704         calculate D2E/DX2 analytically  !
 ! A178  A(86,85,88)           110.0092         calculate D2E/DX2 analytically  !
 ! A179  A(87,85,88)           109.1695         calculate D2E/DX2 analytically  !
 ! A180  A(84,89,90)           110.4426         calculate D2E/DX2 analytically  !
 ! A181  A(84,89,91)           107.2611         calculate D2E/DX2 analytically  !
 ! A182  A(84,89,92)           110.4588         calculate D2E/DX2 analytically  !
 ! A183  A(90,89,91)           109.3052         calculate D2E/DX2 analytically  !
 ! A184  A(90,89,92)           109.4924         calculate D2E/DX2 analytically  !
 ! A185  A(91,89,92)           109.8472         calculate D2E/DX2 analytically  !
 ! A186  A(59,93,94)           111.9988         calculate D2E/DX2 analytically  !
 ! A187  A(59,93,95)           111.3244         calculate D2E/DX2 analytically  !
 ! A188  A(59,93,96)           112.1205         calculate D2E/DX2 analytically  !
 ! A189  A(94,93,95)           106.6965         calculate D2E/DX2 analytically  !
 ! A190  A(94,93,96)           107.5761         calculate D2E/DX2 analytically  !
 ! A191  A(95,93,96)           106.8072         calculate D2E/DX2 analytically  !
 ! A192  A(57,97,98)           111.6534         calculate D2E/DX2 analytically  !
 ! A193  A(57,97,99)           112.4948         calculate D2E/DX2 analytically  !
 ! A194  A(57,97,100)          111.5333         calculate D2E/DX2 analytically  !
 ! A195  A(98,97,99)           107.7231         calculate D2E/DX2 analytically  !
 ! A196  A(98,97,100)          106.3088         calculate D2E/DX2 analytically  !
 ! A197  A(99,97,100)          106.7844         calculate D2E/DX2 analytically  !
 ! D1    D(5,1,2,3)            -48.8935         calculate D2E/DX2 analytically  !
 ! D2    D(5,1,2,7)             68.1413         calculate D2E/DX2 analytically  !
 ! D3    D(5,1,2,13)          -172.3696         calculate D2E/DX2 analytically  !
 ! D4    D(8,1,2,3)             70.5793         calculate D2E/DX2 analytically  !
 ! D5    D(8,1,2,7)           -172.3859         calculate D2E/DX2 analytically  !
 ! D6    D(8,1,2,13)           -52.8969         calculate D2E/DX2 analytically  !
 ! D7    D(14,1,2,3)          -168.589          calculate D2E/DX2 analytically  !
 ! D8    D(14,1,2,7)           -51.5542         calculate D2E/DX2 analytically  !
 ! D9    D(14,1,2,13)           67.9348         calculate D2E/DX2 analytically  !
 ! D10   D(2,1,5,4)             35.6551         calculate D2E/DX2 analytically  !
 ! D11   D(2,1,5,10)           -86.14           calculate D2E/DX2 analytically  !
 ! D12   D(2,1,5,15)           155.0759         calculate D2E/DX2 analytically  !
 ! D13   D(8,1,5,4)            -83.5016         calculate D2E/DX2 analytically  !
 ! D14   D(8,1,5,10)           154.7033         calculate D2E/DX2 analytically  !
 ! D15   D(8,1,5,15)            35.9192         calculate D2E/DX2 analytically  !
 ! D16   D(14,1,5,4)           157.8483         calculate D2E/DX2 analytically  !
 ! D17   D(14,1,5,10)           36.0532         calculate D2E/DX2 analytically  !
 ! D18   D(14,1,5,15)          -82.7309         calculate D2E/DX2 analytically  !
 ! D19   D(2,1,14,24)          -90.2954         calculate D2E/DX2 analytically  !
 ! D20   D(5,1,14,24)          146.4595         calculate D2E/DX2 analytically  !
 ! D21   D(8,1,14,24)           29.0715         calculate D2E/DX2 analytically  !
 ! D22   D(1,2,3,6)            176.3499         calculate D2E/DX2 analytically  !
 ! D23   D(1,2,3,11)            61.5568         calculate D2E/DX2 analytically  !
 ! D24   D(1,2,3,12)           -62.9715         calculate D2E/DX2 analytically  !
 ! D25   D(7,2,3,6)             58.0435         calculate D2E/DX2 analytically  !
 ! D26   D(7,2,3,11)           -56.7496         calculate D2E/DX2 analytically  !
 ! D27   D(7,2,3,12)           178.7221         calculate D2E/DX2 analytically  !
 ! D28   D(13,2,3,6)           -63.0765         calculate D2E/DX2 analytically  !
 ! D29   D(13,2,3,11)         -177.8696         calculate D2E/DX2 analytically  !
 ! D30   D(13,2,3,12)           57.6021         calculate D2E/DX2 analytically  !
 ! D31   D(1,2,13,20)         -164.8945         calculate D2E/DX2 analytically  !
 ! D32   D(3,2,13,20)           73.4573         calculate D2E/DX2 analytically  !
 ! D33   D(7,2,13,20)          -45.9752         calculate D2E/DX2 analytically  !
 ! D34   D(2,3,11,4)           -62.1622         calculate D2E/DX2 analytically  !
 ! D35   D(6,3,11,4)           178.5838         calculate D2E/DX2 analytically  !
 ! D36   D(12,3,11,4)           59.1402         calculate D2E/DX2 analytically  !
 ! D37   D(2,3,12,79)         -174.6909         calculate D2E/DX2 analytically  !
 ! D38   D(6,3,12,79)          -52.9515         calculate D2E/DX2 analytically  !
 ! D39   D(11,3,12,79)          63.4071         calculate D2E/DX2 analytically  !
 ! D40   D(9,4,5,1)             88.256          calculate D2E/DX2 analytically  !
 ! D41   D(9,4,5,10)          -150.6743         calculate D2E/DX2 analytically  !
 ! D42   D(9,4,5,15)           -33.1039         calculate D2E/DX2 analytically  !
 ! D43   D(11,4,5,1)           -32.8083         calculate D2E/DX2 analytically  !
 ! D44   D(11,4,5,10)           88.2614         calculate D2E/DX2 analytically  !
 ! D45   D(11,4,5,15)         -154.1682         calculate D2E/DX2 analytically  !
 ! D46   D(16,4,5,1)          -149.6302         calculate D2E/DX2 analytically  !
 ! D47   D(16,4,5,10)          -28.5605         calculate D2E/DX2 analytically  !
 ! D48   D(16,4,5,15)           89.0099         calculate D2E/DX2 analytically  !
 ! D49   D(5,4,11,3)            47.4129         calculate D2E/DX2 analytically  !
 ! D50   D(9,4,11,3)           -72.5345         calculate D2E/DX2 analytically  !
 ! D51   D(16,4,11,3)          168.9389         calculate D2E/DX2 analytically  !
 ! D52   D(5,4,16,17)         -172.6821         calculate D2E/DX2 analytically  !
 ! D53   D(5,4,16,18)           77.9947         calculate D2E/DX2 analytically  !
 ! D54   D(5,4,16,19)          -46.431          calculate D2E/DX2 analytically  !
 ! D55   D(9,4,16,17)          -52.7903         calculate D2E/DX2 analytically  !
 ! D56   D(9,4,16,18)         -162.1135         calculate D2E/DX2 analytically  !
 ! D57   D(9,4,16,19)           73.4608         calculate D2E/DX2 analytically  !
 ! D58   D(11,4,16,17)          64.4562         calculate D2E/DX2 analytically  !
 ! D59   D(11,4,16,18)         -44.8669         calculate D2E/DX2 analytically  !
 ! D60   D(11,4,16,19)        -169.2926         calculate D2E/DX2 analytically  !
 ! D61   D(1,5,15,28)           86.587          calculate D2E/DX2 analytically  !
 ! D62   D(1,5,15,37)         -161.9126         calculate D2E/DX2 analytically  !
 ! D63   D(4,5,15,28)         -148.1346         calculate D2E/DX2 analytically  !
 ! D64   D(4,5,15,37)          -36.6342         calculate D2E/DX2 analytically  !
 ! D65   D(10,5,15,28)         -30.9736         calculate D2E/DX2 analytically  !
 ! D66   D(10,5,15,37)          80.5268         calculate D2E/DX2 analytically  !
 ! D67   D(3,12,79,80)         169.4475         calculate D2E/DX2 analytically  !
 ! D68   D(3,12,79,81)         -70.7422         calculate D2E/DX2 analytically  !
 ! D69   D(3,12,79,82)          50.6184         calculate D2E/DX2 analytically  !
 ! D70   D(2,13,20,21)         -68.8778         calculate D2E/DX2 analytically  !
 ! D71   D(2,13,20,22)          53.187          calculate D2E/DX2 analytically  !
 ! D72   D(2,13,20,23)         172.1686         calculate D2E/DX2 analytically  !
 ! D73   D(1,14,24,25)         -56.3614         calculate D2E/DX2 analytically  !
 ! D74   D(1,14,24,26)          65.5508         calculate D2E/DX2 analytically  !
 ! D75   D(1,14,24,27)        -174.8261         calculate D2E/DX2 analytically  !
 ! D76   D(5,15,28,29)         -64.09           calculate D2E/DX2 analytically  !
 ! D77   D(5,15,28,30)          58.0086         calculate D2E/DX2 analytically  !
 ! D78   D(5,15,28,31)         176.3021         calculate D2E/DX2 analytically  !
 ! D79   D(37,15,28,29)        171.8754         calculate D2E/DX2 analytically  !
 ! D80   D(37,15,28,30)        -66.026          calculate D2E/DX2 analytically  !
 ! D81   D(37,15,28,31)         52.2675         calculate D2E/DX2 analytically  !
 ! D82   D(5,15,37,19)         -20.5796         calculate D2E/DX2 analytically  !
 ! D83   D(5,15,37,34)          73.9078         calculate D2E/DX2 analytically  !
 ! D84   D(28,15,37,19)        101.5249         calculate D2E/DX2 analytically  !
 ! D85   D(28,15,37,34)       -163.9877         calculate D2E/DX2 analytically  !
 ! D86   D(4,16,17,49)          58.4243         calculate D2E/DX2 analytically  !
 ! D87   D(18,16,17,49)        167.0402         calculate D2E/DX2 analytically  !
 ! D88   D(19,16,17,49)        -69.071          calculate D2E/DX2 analytically  !
 ! D89   D(4,16,19,37)         -31.4503         calculate D2E/DX2 analytically  !
 ! D90   D(4,16,19,38)        -110.7331         calculate D2E/DX2 analytically  !
 ! D91   D(4,16,19,83)         135.4966         calculate D2E/DX2 analytically  !
 ! D92   D(17,16,19,37)         90.4659         calculate D2E/DX2 analytically  !
 ! D93   D(17,16,19,38)         11.1831         calculate D2E/DX2 analytically  !
 ! D94   D(17,16,19,83)       -102.5872         calculate D2E/DX2 analytically  !
 ! D95   D(18,16,19,37)       -150.6013         calculate D2E/DX2 analytically  !
 ! D96   D(18,16,19,38)        130.1159         calculate D2E/DX2 analytically  !
 ! D97   D(18,16,19,83)         16.3456         calculate D2E/DX2 analytically  !
 ! D98   D(16,17,49,47)          0.134          calculate D2E/DX2 analytically  !
 ! D99   D(16,19,37,15)         58.1735         calculate D2E/DX2 analytically  !
 ! D100  D(16,19,37,34)        -95.4993         calculate D2E/DX2 analytically  !
 ! D101  D(38,19,37,15)       -171.1996         calculate D2E/DX2 analytically  !
 ! D102  D(38,19,37,34)         35.1277         calculate D2E/DX2 analytically  !
 ! D103  D(83,19,37,15)       -107.6132         calculate D2E/DX2 analytically  !
 ! D104  D(83,19,37,34)         98.714          calculate D2E/DX2 analytically  !
 ! D105  D(16,19,38,33)         91.8686         calculate D2E/DX2 analytically  !
 ! D106  D(37,19,38,33)         -6.7426         calculate D2E/DX2 analytically  !
 ! D107  D(83,19,38,33)       -140.932          calculate D2E/DX2 analytically  !
 ! D108  D(16,19,83,84)        119.9867         calculate D2E/DX2 analytically  !
 ! D109  D(37,19,83,84)        -75.3304         calculate D2E/DX2 analytically  !
 ! D110  D(38,19,83,84)        -18.8792         calculate D2E/DX2 analytically  !
 ! D111  D(36,32,33,34)        -50.7434         calculate D2E/DX2 analytically  !
 ! D112  D(36,32,33,38)         61.5064         calculate D2E/DX2 analytically  !
 ! D113  D(36,32,33,44)       -177.9944         calculate D2E/DX2 analytically  !
 ! D114  D(39,32,33,34)         68.9757         calculate D2E/DX2 analytically  !
 ! D115  D(39,32,33,38)       -178.7745         calculate D2E/DX2 analytically  !
 ! D116  D(39,32,33,44)        -58.2753         calculate D2E/DX2 analytically  !
 ! D117  D(45,32,33,34)       -170.0307         calculate D2E/DX2 analytically  !
 ! D118  D(45,32,33,38)        -57.7809         calculate D2E/DX2 analytically  !
 ! D119  D(45,32,33,44)         62.7183         calculate D2E/DX2 analytically  !
 ! D120  D(33,32,36,35)         56.5241         calculate D2E/DX2 analytically  !
 ! D121  D(33,32,36,41)        -64.7266         calculate D2E/DX2 analytically  !
 ! D122  D(33,32,36,46)        174.9682         calculate D2E/DX2 analytically  !
 ! D123  D(39,32,36,35)        -63.1258         calculate D2E/DX2 analytically  !
 ! D124  D(39,32,36,41)        175.6235         calculate D2E/DX2 analytically  !
 ! D125  D(39,32,36,46)         55.3183         calculate D2E/DX2 analytically  !
 ! D126  D(45,32,36,35)        176.0375         calculate D2E/DX2 analytically  !
 ! D127  D(45,32,36,41)         54.7868         calculate D2E/DX2 analytically  !
 ! D128  D(45,32,36,46)        -65.5184         calculate D2E/DX2 analytically  !
 ! D129  D(33,32,45,67)       -128.3147         calculate D2E/DX2 analytically  !
 ! D130  D(36,32,45,67)        111.6098         calculate D2E/DX2 analytically  !
 ! D131  D(39,32,45,67)         -8.3052         calculate D2E/DX2 analytically  !
 ! D132  D(32,33,34,37)        179.1807         calculate D2E/DX2 analytically  !
 ! D133  D(32,33,34,42)         35.4333         calculate D2E/DX2 analytically  !
 ! D134  D(32,33,34,53)        -82.9384         calculate D2E/DX2 analytically  !
 ! D135  D(38,33,34,37)         62.2162         calculate D2E/DX2 analytically  !
 ! D136  D(38,33,34,42)        -81.5312         calculate D2E/DX2 analytically  !
 ! D137  D(38,33,34,53)        160.0971         calculate D2E/DX2 analytically  !
 ! D138  D(44,33,34,37)        -57.6653         calculate D2E/DX2 analytically  !
 ! D139  D(44,33,34,42)        158.5873         calculate D2E/DX2 analytically  !
 ! D140  D(44,33,34,53)         40.2156         calculate D2E/DX2 analytically  !
 ! D141  D(32,33,38,19)       -133.2917         calculate D2E/DX2 analytically  !
 ! D142  D(34,33,38,19)        -15.2567         calculate D2E/DX2 analytically  !
 ! D143  D(44,33,38,19)        107.8337         calculate D2E/DX2 analytically  !
 ! D144  D(32,33,44,63)        179.7861         calculate D2E/DX2 analytically  !
 ! D145  D(34,33,44,63)         54.8941         calculate D2E/DX2 analytically  !
 ! D146  D(38,33,44,63)        -60.2468         calculate D2E/DX2 analytically  !
 ! D147  D(33,34,37,15)       -156.2353         calculate D2E/DX2 analytically  !
 ! D148  D(33,34,37,19)        -64.4131         calculate D2E/DX2 analytically  !
 ! D149  D(42,34,37,15)         -9.361          calculate D2E/DX2 analytically  !
 ! D150  D(42,34,37,19)         82.4612         calculate D2E/DX2 analytically  !
 ! D151  D(53,34,37,15)        102.4509         calculate D2E/DX2 analytically  !
 ! D152  D(53,34,37,19)       -165.7269         calculate D2E/DX2 analytically  !
 ! D153  D(33,34,42,35)        -24.4004         calculate D2E/DX2 analytically  !
 ! D154  D(37,34,42,35)       -171.0588         calculate D2E/DX2 analytically  !
 ! D155  D(53,34,42,35)         88.3505         calculate D2E/DX2 analytically  !
 ! D156  D(33,34,53,51)        123.5616         calculate D2E/DX2 analytically  !
 ! D157  D(37,34,53,51)       -115.9096         calculate D2E/DX2 analytically  !
 ! D158  D(42,34,53,51)         -2.7847         calculate D2E/DX2 analytically  !
 ! D159  D(40,35,36,32)         73.3718         calculate D2E/DX2 analytically  !
 ! D160  D(40,35,36,41)       -166.2048         calculate D2E/DX2 analytically  !
 ! D161  D(40,35,36,46)        -45.6833         calculate D2E/DX2 analytically  !
 ! D162  D(42,35,36,32)        -43.4927         calculate D2E/DX2 analytically  !
 ! D163  D(42,35,36,41)         76.9306         calculate D2E/DX2 analytically  !
 ! D164  D(42,35,36,46)       -162.5479         calculate D2E/DX2 analytically  !
 ! D165  D(47,35,36,32)       -160.6617         calculate D2E/DX2 analytically  !
 ! D166  D(47,35,36,41)        -40.2384         calculate D2E/DX2 analytically  !
 ! D167  D(47,35,36,46)         80.2831         calculate D2E/DX2 analytically  !
 ! D168  D(36,35,42,34)         28.0527         calculate D2E/DX2 analytically  !
 ! D169  D(40,35,42,34)        -89.9343         calculate D2E/DX2 analytically  !
 ! D170  D(47,35,42,34)        152.2987         calculate D2E/DX2 analytically  !
 ! D171  D(36,35,47,48)        178.3657         calculate D2E/DX2 analytically  !
 ! D172  D(36,35,47,49)         61.0838         calculate D2E/DX2 analytically  !
 ! D173  D(36,35,47,50)        -57.6693         calculate D2E/DX2 analytically  !
 ! D174  D(40,35,47,48)        -57.8961         calculate D2E/DX2 analytically  !
 ! D175  D(40,35,47,49)       -175.178          calculate D2E/DX2 analytically  !
 ! D176  D(40,35,47,50)         66.0689         calculate D2E/DX2 analytically  !
 ! D177  D(42,35,47,48)         55.4054         calculate D2E/DX2 analytically  !
 ! D178  D(42,35,47,49)        -61.8766         calculate D2E/DX2 analytically  !
 ! D179  D(42,35,47,50)        179.3704         calculate D2E/DX2 analytically  !
 ! D180  D(32,36,46,71)        116.3253         calculate D2E/DX2 analytically  !
 ! D181  D(35,36,46,71)       -122.8036         calculate D2E/DX2 analytically  !
 ! D182  D(41,36,46,71)         -2.6919         calculate D2E/DX2 analytically  !
 ! D183  D(33,44,63,64)        -74.9266         calculate D2E/DX2 analytically  !
 ! D184  D(33,44,63,65)         47.1126         calculate D2E/DX2 analytically  !
 ! D185  D(33,44,63,66)        166.2299         calculate D2E/DX2 analytically  !
 ! D186  D(32,45,67,68)        -59.8256         calculate D2E/DX2 analytically  !
 ! D187  D(32,45,67,69)         62.1645         calculate D2E/DX2 analytically  !
 ! D188  D(32,45,67,70)       -179.0209         calculate D2E/DX2 analytically  !
 ! D189  D(36,46,71,72)        -59.4125         calculate D2E/DX2 analytically  !
 ! D190  D(36,46,71,73)         63.2517         calculate D2E/DX2 analytically  !
 ! D191  D(36,46,71,74)       -178.1104         calculate D2E/DX2 analytically  !
 ! D192  D(35,47,49,17)         51.0395         calculate D2E/DX2 analytically  !
 ! D193  D(48,47,49,17)        -66.219          calculate D2E/DX2 analytically  !
 ! D194  D(50,47,49,17)        174.4432         calculate D2E/DX2 analytically  !
 ! D195  D(35,47,50,75)        -68.9895         calculate D2E/DX2 analytically  !
 ! D196  D(48,47,50,75)         53.5156         calculate D2E/DX2 analytically  !
 ! D197  D(49,47,50,75)        171.1115         calculate D2E/DX2 analytically  !
 ! D198  D(47,50,75,76)       -168.7643         calculate D2E/DX2 analytically  !
 ! D199  D(47,50,75,77)        -49.9816         calculate D2E/DX2 analytically  !
 ! D200  D(47,50,75,78)         72.4351         calculate D2E/DX2 analytically  !
 ! D201  D(43,51,53,34)        -58.4169         calculate D2E/DX2 analytically  !
 ! D202  D(52,51,53,34)        170.1443         calculate D2E/DX2 analytically  !
 ! D203  D(54,51,53,34)         56.2228         calculate D2E/DX2 analytically  !
 ! D204  D(43,51,54,55)         -3.8776         calculate D2E/DX2 analytically  !
 ! D205  D(43,51,54,56)        176.4513         calculate D2E/DX2 analytically  !
 ! D206  D(52,51,54,55)        122.1302         calculate D2E/DX2 analytically  !
 ! D207  D(52,51,54,56)        -57.541          calculate D2E/DX2 analytically  !
 ! D208  D(53,51,54,55)       -122.6956         calculate D2E/DX2 analytically  !
 ! D209  D(53,51,54,56)         57.6332         calculate D2E/DX2 analytically  !
 ! D210  D(51,54,55,57)        179.1354         calculate D2E/DX2 analytically  !
 ! D211  D(51,54,55,58)         -0.7625         calculate D2E/DX2 analytically  !
 ! D212  D(56,54,55,57)         -1.2016         calculate D2E/DX2 analytically  !
 ! D213  D(56,54,55,58)        178.9005         calculate D2E/DX2 analytically  !
 ! D214  D(51,54,56,59)        179.8629         calculate D2E/DX2 analytically  !
 ! D215  D(51,54,56,60)         -0.1451         calculate D2E/DX2 analytically  !
 ! D216  D(55,54,56,59)          0.1959         calculate D2E/DX2 analytically  !
 ! D217  D(55,54,56,60)       -179.8121         calculate D2E/DX2 analytically  !
 ! D218  D(54,55,57,61)          1.0346         calculate D2E/DX2 analytically  !
 ! D219  D(54,55,57,97)       -179.1319         calculate D2E/DX2 analytically  !
 ! D220  D(58,55,57,61)       -179.0691         calculate D2E/DX2 analytically  !
 ! D221  D(58,55,57,97)          0.7643         calculate D2E/DX2 analytically  !
 ! D222  D(54,56,59,61)          0.9982         calculate D2E/DX2 analytically  !
 ! D223  D(54,56,59,93)       -174.4855         calculate D2E/DX2 analytically  !
 ! D224  D(60,56,59,61)       -178.9938         calculate D2E/DX2 analytically  !
 ! D225  D(60,56,59,93)          5.5224         calculate D2E/DX2 analytically  !
 ! D226  D(55,57,61,59)          0.1268         calculate D2E/DX2 analytically  !
 ! D227  D(55,57,61,62)        179.8621         calculate D2E/DX2 analytically  !
 ! D228  D(97,57,61,59)       -179.7018         calculate D2E/DX2 analytically  !
 ! D229  D(97,57,61,62)          0.0334         calculate D2E/DX2 analytically  !
 ! D230  D(55,57,97,98)        -52.2019         calculate D2E/DX2 analytically  !
 ! D231  D(55,57,97,99)       -173.4608         calculate D2E/DX2 analytically  !
 ! D232  D(55,57,97,100)        66.5787         calculate D2E/DX2 analytically  !
 ! D233  D(61,57,97,98)        127.6307         calculate D2E/DX2 analytically  !
 ! D234  D(61,57,97,99)          6.3719         calculate D2E/DX2 analytically  !
 ! D235  D(61,57,97,100)      -113.5887         calculate D2E/DX2 analytically  !
 ! D236  D(56,59,61,57)         -1.1569         calculate D2E/DX2 analytically  !
 ! D237  D(56,59,61,62)        179.1069         calculate D2E/DX2 analytically  !
 ! D238  D(93,59,61,57)        174.3191         calculate D2E/DX2 analytically  !
 ! D239  D(93,59,61,62)         -5.417          calculate D2E/DX2 analytically  !
 ! D240  D(56,59,93,94)       -152.1558         calculate D2E/DX2 analytically  !
 ! D241  D(56,59,93,95)         88.4808         calculate D2E/DX2 analytically  !
 ! D242  D(56,59,93,96)        -31.1062         calculate D2E/DX2 analytically  !
 ! D243  D(61,59,93,94)         32.3098         calculate D2E/DX2 analytically  !
 ! D244  D(61,59,93,95)        -87.0536         calculate D2E/DX2 analytically  !
 ! D245  D(61,59,93,96)        153.3594         calculate D2E/DX2 analytically  !
 ! D246  D(19,83,84,85)        100.5754         calculate D2E/DX2 analytically  !
 ! D247  D(19,83,84,89)        -61.0803         calculate D2E/DX2 analytically  !
 ! D248  D(83,84,85,86)       -100.6979         calculate D2E/DX2 analytically  !
 ! D249  D(83,84,85,87)         18.5946         calculate D2E/DX2 analytically  !
 ! D250  D(83,84,85,88)        137.4086         calculate D2E/DX2 analytically  !
 ! D251  D(89,84,85,86)         62.228          calculate D2E/DX2 analytically  !
 ! D252  D(89,84,85,87)       -178.4794         calculate D2E/DX2 analytically  !
 ! D253  D(89,84,85,88)        -59.6654         calculate D2E/DX2 analytically  !
 ! D254  D(83,84,89,90)       -130.2976         calculate D2E/DX2 analytically  !
 ! D255  D(83,84,89,91)        -11.2669         calculate D2E/DX2 analytically  !
 ! D256  D(83,84,89,92)        108.4278         calculate D2E/DX2 analytically  !
 ! D257  D(85,84,89,90)         65.6325         calculate D2E/DX2 analytically  !
 ! D258  D(85,84,89,91)       -175.3368         calculate D2E/DX2 analytically  !
 ! D259  D(85,84,89,92)        -55.6421         calculate D2E/DX2 analytically  !
 --------------------------------------------------------------------------------
 Trust Radius=3.00D-02 FncErr=1.00D-07 GrdErr=1.00D-06 EigMax=2.50D+02 EigMin=1.00D-04
 Number of steps in this run=    571 maximum allowed number of steps=    600.
 Search for a saddle point of order  1.
 Step   0 in ReCalcFC=30 IGetFC= 4 compute analytic Hessian.
 GradGradGradGradGradGradGradGradGradGradGradGradGradGradGradGradGradGrad

 Leave Link  103 at Thu May  9 22:44:22 2019, MaxMem=  6442450944 cpu:               5.0 elap:               0.2
 (Enter /home/ekwan/sw/g16/l202.exe)
 Stoichiometry    C30H47F6NaO15S
 Framework group  C1[X(C30H47F6NaO15S)]
 Deg. of freedom   294
 Full point group                 C1      NOp   1
 Largest Abelian subgroup         C1      NOp   1
 Largest concise Abelian subgroup C1      NOp   1
                         Standard orientation:                         
 ---------------------------------------------------------------------
 Center     Atomic      Atomic             Coordinates (Angstroms)
 Number     Number       Type             X           Y           Z
 ---------------------------------------------------------------------
      1          6           0       -3.208581   -2.411653   -0.208647
      2          6           0       -3.791818   -2.501797   -1.616116
      3          6           0       -3.131924   -1.456671   -2.521242
      4          6           0       -1.012316   -1.636341   -1.370842
      5          6           0       -1.671131   -2.388163   -0.202445
      6          1           0       -3.487514   -1.542624   -3.557770
      7          1           0       -3.556852   -3.490291   -2.040378
      8          1           0       -3.567700   -1.483854    0.242051
      9          1           0       -0.917044   -0.586966   -1.071216
     10          1           0       -1.324858   -3.431041   -0.211203
     11          8           0       -1.754352   -1.714493   -2.604467
     12          8           0       -3.439731   -0.180632   -2.020298
     13          8           0       -5.197810   -2.337823   -1.518994
     14          8           0       -3.605514   -3.533012    0.585175
     15          8           0       -1.209213   -1.742479    0.988742
     16          6           0        0.368933   -2.241294   -1.738992
     17          1           0        0.804688   -1.542983   -2.492199
     18          1           0        0.104096   -3.155669   -2.327042
     19          8           0        1.200946   -2.498603   -0.686228
     20          6           0       -5.910666   -2.727783   -2.680464
     21          1           0       -5.726426   -2.054321   -3.528590
     22          1           0       -5.652038   -3.753239   -2.983563
     23          1           0       -6.972818   -2.687240   -2.427357
     24          6           0       -4.813697   -3.358334    1.317086
     25          1           0       -4.756572   -2.477082    1.967450
     26          1           0       -5.677115   -3.255833    0.653166
     27          1           0       -4.930761   -4.251488    1.937683
     28          6           0       -1.073200   -2.590175    2.116342
     29          1           0       -2.033735   -3.002043    2.438646
     30          1           0       -0.380731   -3.415965    1.899088
     31          1           0       -0.653667   -1.975275    2.917557
     32          6           0        4.053940    0.299949    0.333209
     33          6           0        3.105172   -0.801630    0.779417
     34          6           0        1.660907   -0.333615    0.735876
     35          6           0        2.156071    1.397902   -0.919755
     36          6           0        3.591250    0.880500   -1.001432
     37          1           0        0.869876   -1.013749    1.013407
     38          1           0        3.107211   -1.614597    0.039817
     39          1           0        4.060247    1.094132    1.088148
     40          1           0        2.165685    2.323537   -0.345242
     41          1           0        3.663826    0.096518   -1.766969
     42          8           0        1.260684    0.488145   -0.204221
     43          8           0        2.076998    2.936138    1.795637
     44          8           0        3.545990   -1.271500    2.031881
     45          8           0        5.356266   -0.245216    0.167956
     46          8           0        4.426965    1.980926   -1.332218
     47          6           0        1.451080    1.563310   -2.272202
     48          1           0        0.424883    1.909838   -2.084360
     49          1           0        1.398322    0.585311   -2.760635
     50          8           0        2.116853    2.425149   -3.167800
     51         16           0        1.204594    2.029592    2.569704
     52          8           0        1.033935    2.328097    4.001144
     53          8           0        1.601818    0.551578    2.409933
     54          6           0       -0.419790    2.111626    1.811418
     55          6           0       -0.651742    2.989037    0.761111
     56          6           0       -1.431523    1.288089    2.301631
     57          6           0       -1.918759    3.023738    0.173241
     58          1           0        0.147915    3.631208    0.410879
     59          6           0       -2.693302    1.349642    1.719492
     60          1           0       -1.236730    0.610534    3.123717
     61          6           0       -2.943179    2.207119    0.645293
     62          1           0       -3.924531    2.237279    0.189794
     63          6           0        2.765505   -2.308332    2.603670
     64          1           0        1.821020   -1.925014    3.004969
     65          1           0        2.546640   -3.099493    1.875304
     66          1           0        3.356173   -2.727123    3.421638
     67          6           0        6.376407    0.467290    0.856054
     68          1           0        6.433126    1.507031    0.513531
     69          1           0        6.206315    0.450317    1.940400
     70          1           0        7.317280   -0.041382    0.632051
     71          6           0        5.195089    1.798567   -2.515356
     72          1           0        5.850815    0.923344   -2.428376
     73          1           0        4.543746    1.694998   -3.390464
     74          1           0        5.807832    2.696479   -2.627013
     75          6           0        2.094651    3.791940   -2.771339
     76          1           0        2.452614    4.371520   -3.625629
     77          1           0        1.073973    4.111506   -2.520747
     78          1           0        2.756216    3.973196   -1.916390
     79          6           0       -2.973101    0.868342   -2.859448
     80          1           0       -3.418619    1.792464   -2.492397
     81          1           0       -1.881066    0.952078   -2.831457
     82          1           0       -3.288222    0.706150   -3.900241
     83         11           0        2.270327   -4.341907   -0.597864
     84          8           0        4.498411   -3.809835   -0.568800
     85          6           0        5.338370   -3.781096    0.585467
     86          1           0        5.475946   -2.751255    0.929800
     87          1           0        4.837560   -4.364331    1.361279
     88          1           0        6.313035   -4.236819    0.364266
     89          6           0        5.077491   -3.101263   -1.664512
     90          1           0        5.992348   -3.604571   -2.006478
     91          1           0        4.342943   -3.098440   -2.473270
     92          1           0        5.313627   -2.072239   -1.373052
     93          6           0       -3.822962    0.559774    2.318194
     94          9           0       -4.751977    0.224386    1.394404
     95          9           0       -4.465029    1.267817    3.275934
     96          9           0       -3.393528   -0.582757    2.898618
     97          6           0       -2.144301    3.966099   -0.975382
     98          9           0       -1.765393    5.223754   -0.669075
     99          9           0       -3.436734    4.009017   -1.361991
    100          9           0       -1.418811    3.603874   -2.068655
 ---------------------------------------------------------------------
 Rotational constants (GHZ):           0.0640155           0.0435029           0.0369876
 Leave Link  202 at Thu May  9 22:44:24 2019, MaxMem=  6442450944 cpu:              30.4 elap:               1.2
 (Enter /home/ekwan/sw/g16/l301.exe)
 Standard basis: 6-31G(d) (6D, 7F)
 Ernie: Thresh=  0.10000D-02 Tol=  0.10000D-05 Strict=F.
 There are   897 symmetry adapted cartesian basis functions of A   symmetry.
 There are   897 symmetry adapted basis functions of A   symmetry.
   897 basis functions,  1720 primitive gaussians,   897 cartesian basis functions
   214 alpha electrons      214 beta electrons
       nuclear repulsion energy      9786.2142022849 Hartrees.
 IExCor=  402 DFT=T Ex+Corr=B3LYP ExCW=0 ScaHFX=  0.200000
 ScaDFX=  0.800000  0.720000  1.000000  0.810000 ScalE2=  1.000000  1.000000
 IRadAn=      5 IRanWt=     -1 IRanGd=            0 ICorTp=0 IEmpDi=141
 NAtoms=  100 NActive=  100 NUniq=  100 SFac= 1.00D+00 NAtFMM=   60 NAOKFM=T Big=T
 Integral buffers will be    131072 words long.
 Raffenetti 2 integral format.
 Two-electron integral symmetry is turned on.
 R6Disp:  Grimme-D3(BJ) Dispersion energy=       -0.2363457662 Hartrees.
 Nuclear repulsion after empirical dispersion term =     9785.9778565187 Hartrees.
 Force inversion solution in PCM.
 ------------------------------------------------------------------------------
 Polarizable Continuum Model (PCM)
 =================================
 Model                : PCM.
 Atomic radii         : UFF (Universal Force Field).
 Polarization charges : Total charges.
 Charge compensation  : None.
 Solution method      : Matrix inversion.
 Cavity type          : Scaled VdW (van der Waals Surface) (Alpha=1.100).
 Cavity algorithm     : GePol (No added spheres)
                        Default sphere list used, NSphG=  100.
                        Lebedev-Laikov grids with approx.  5.0 points / Ang**2.
                        Smoothing algorithm: York/Karplus (Gamma=1.0000).
                        Polarization charges: spherical gaussians, with
                                              point-specific exponents (IZeta= 3).
                        Self-potential: point-specific (ISelfS= 7).
                        Self-field    : sphere-specific E.n sum rule (ISelfD= 2).
 1st derivatives      : Analytical E(r).r(x)/FMM algorithm (CHGder, D1EAlg=3).
                        Cavity 1st derivative terms included.
 2nd derivatives      : Analytical E(r).r(xy)/FMM algorithm (CHGder, D2EAlg=3).
                        Cavity 2nd derivative terms included.
 Solvent              : TetraHydroFuran, Eps=   7.425700 Eps(inf)=   1.974025
 ------------------------------------------------------------------------------
 GePol: Number of generator spheres                  =     100
 GePol: Total number of spheres                      =     100
 GePol: Number of exposed spheres                    =     100 (100.00%)
 GePol: Number of points                             =    5859
[...]
 0.00011513,-0.00000501,0.00001052,0.00009076,0.00003862,-0.00005843,-0
 .00020441,-0.00003978,0.00014255,0.00001201,0.00001713,0.00002913,0.00
 002568,-0.00000972,-0.00001211,0.00010880,0.00011701,-0.00009627,-0.00
 171116,-0.00017093,-0.00077039,0.00037381,0.00007948,0.00056409,0.0006
 0829,-0.00057038,0.00002735,0.00155013,-0.00012604,0.00064151,-0.00164
 960,-0.00250039,0.00324407,0.00034551,-0.00008489,0.00035127,0.0227841
 5,0.00586897,0.01014369,0.00009590,0.00003952,-0.00006757,0.00064103,0
 .00031012,-0.00005460,0.00006750,-0.00002074,0.00001895,-0.00010343,-0
 .00144874,0.00125821,0.00153749,-0.00103317,0.00145596,0.00000107,0.00
 005486,-0.00001293,0.00000367,0.00000692,-0.00001194,-0.00000147,-0.00
 000783,-0.00000846,0.00000959,-0.00000923,0.00000822,-0.00004463,-0.00
 003231,-0.00002793,0.00000204,0.00000800,0.00000246,0.00000176,0.00000
 512,0.00000636,0.00001134,0.00000029,0.00000201,-0.00003944,0.00000273
 ,0.00005360,0.00000671,-0.00000478,-0.00000528,-0.00000493,-0.00000096
 ,-0.00000265,0.00001103,0.00000604,-0.00000666,-0.00008518,0.00000320,
 0.00000282,0.00003486,0.00000820,-0.00002072,-0.00002992,-0.00010749,-
 0.00000262,0.00002683,-0.00000212,0.00000501,-0.00084421,0.00126517,-0
 .00032478,0.00107381,-0.00235388,-0.00060416,0.00008746,-0.00009744,-0
 .00000331,0.00015756,-0.00047858,-0.00022132,-0.00002042,0.00004585,0.
 00000645,0.00002418,-0.00001434,-0.00000374,-0.00000831,0.00000981,-0.
 00000754,-0.00000858,0.00000029,-0.00000039,-0.00000197,0.00000141,0.0
 0000087,0.00000523,-0.00000455,-0.00000217,-0.00000885,0.00000320,0.00
 001165,0.00000511,-0.00000506,-0.00000173,-0.00000039,0.00000172,0.000
 00202,-0.00000539,0.00000082,0.00000281,0.00090607,0.00052131,-0.00065
 477,-0.00029536,-0.00017637,0.00005467,-0.00036096,0.00003097,0.000330
 59,-0.00014591,-0.00029023,0.00020867,0.01822347,-0.07811850,0.0123599
 5,-0.05122033,-0.00944820,-0.02068716,-0.00895089,0.08053128,-0.000006
 37,-0.00005903,-0.00007924,0.00007077,-0.00000277,-0.00009988,-0.00028
 721,0.00042239,0.00028301,-0.00011352,-0.00003153,-0.00022309,-0.00006
 844,-0.00005542,-0.00017257,0.00002651,-0.00001054,-0.00000914,-0.0000
 1104,-0.00003968,0.00003886,-0.00001426,0.00000357,-0.00002979,-0.0000
 0393,0.00001177,-0.00002192,0.00000721,0.00002751,0.00002916,0.0002628
 3,-0.00015866,0.00015591,0.00003298,-0.00102540,0.00004958,-0.00000473
 ,-0.00003158,0.00005017,0.00000961,0.00001655,0.00008565,0.00002765,0.
 00020409,0.00013809,-0.00007662,0.00004795,-0.00011781,-0.00000909,-0.
 00002550,0.00002885,0.00002169,0.00002435,0.00003947,0.00007596,0.0001
 0067,0.00019408,0.00000832,0.00002736,-0.00002121,-0.00000107,-0.00000
 518,0.00001784,0.00000357,-0.00000946,0.00000219,-0.00000137,0.0000012
 3,0.00000251,-0.00000033,-0.00004638,-0.00004742,-0.00001658,-0.000001
 91,0.00001773,0.00001084,0.00001127,0.00000288,0.00000013,0.00000922,0
 .00000507,0.00000646,-0.00007611,0.00004091,0.00000523,-0.00000412,-0.
 00000931,-0.00001170,0.00003098,0.00000500,0.00002590,-0.00002255,0.00
 003703,0.00008977,-0.00000143,-0.00004840,0.00008783,-0.00000279,0.000
 07366,0.00007893,-0.00052556,-0.00075333,0.00018546,0.00004100,-0.0002
 5664,0.00007191,0.00002618,0.00000545,-0.00004234,-0.00002841,0.000045
 57,-0.00005186,0.00000936,-0.00001151,0.00002475,0.00000619,0.00000563
 ,0.00006012,0.00000166,-0.00004206,-0.00002712,0.00001343,0.00001048,-
 0.00011847,0.00003612,0.00035178,-0.00083866,-0.00013975,-0.00003571,-
 0.00005373,0.00008795,-0.00000684,-0.00009881,0.00000971,0.00002103,-0
 .00008123,-0.00004126,0.00009479,-0.00024564,0.00006472,-0.00003693,0.
 00002220,0.00010527,-0.00010664,0.00002465,-0.00000503,0.00002050,0.00
 008397,-0.00008105,0.00006375,0.00270392,-0.00034903,0.00085137,-0.000
 70583,-0.00003416,-0.00086405,-0.00080437,0.00103820,0.00014346,-0.001
 82763,-0.00018434,-0.00133476,0.00195223,0.00530020,-0.00301168,-0.000
 49790,0.00011645,-0.00040433,-0.03604338,0.00469847,-0.00633195,0.0001
 5502,-0.00011723,0.00033606,-0.00037993,0.00003794,-0.00006802,-0.0000
 0644,0.00003134,-0.00001044,-0.00096191,0.00034883,-0.00086760,-0.0007
 1203,0.00134401,-0.00165057,0.00000486,-0.00007721,0.00000682,-0.00001
 028,-0.00001323,0.00001479,-0.00000117,0.00001639,0.00001420,-0.000010
 88,0.00000997,-0.00000722,0.00003496,0.00001775,0.00001662,-0.00000167
 ,-0.00000572,-0.00000622,-0.00000018,-0.00000615,-0.00000097,-0.000011
 62,0.00000201,-0.00000079,0.00002743,-0.00000994,-0.00007526,-0.000003
 87,0.00000497,0.00000785,-0.00000330,0.00000815,0.00001713,-0.00000716
 ,-0.00000263,0.00000695,-0.00020485,0.00014496,0.00004396,0.00002145,-
 0.00000754,0.00000367,-0.00005511,-0.00012215,-0.00002381,0.00008110,-
 0.00000537,0.00000009,-0.00066554,0.00118686,0.00010897,0.00076583,-0.
 00054536,-0.00052033,0.00006979,-0.00008688,-0.00004818,0.00008258,-0.
 00029422,-0.00012077,0.00000272,-0.00003701,-0.00002661,-0.00001483,0.
 00001526,0.00002300,0.00000026,-0.00001317,-0.00000556,0.00001206,0.00
 000097,0.00000079,0.00000191,-0.00000356,0.00000082,-0.00000387,0.0000
 0510,0.00000368,0.00000498,-0.00000230,-0.00002385,-0.00000455,0.00000
 423,0.00000326,0.00000334,0.00000073,0.00000192,0.00000493,-0.00000168
 ,-0.00000475,-0.00145366,-0.00088705,0.00065781,0.00051434,0.00030519,
 0.00006207,0.00049821,0.00002709,-0.00039492,0.00024126,0.00044437,-0.
 00027698,-0.06100837,0.01403293,-0.10108411,-0.02142470,-0.01497009,0.
 00261509,0.08203801,-0.00413426,0.10180705,-0.00003470,0.00004212,0.00
 000682,-0.00000587,-0.00001464,-0.00001171,-0.00018788,0.00004869,0.00
 010720,-0.00005013,-0.00006057,-0.00004795,-0.00000567,0.00002095,0.00
 007605,0.00000737,-0.00000408,-0.00000604,-0.00000284,-0.00002004,-0.0
 0000050,0.00000515,-0.00000250,0.00000036,-0.00003846,0.00000215,0.000
 03832,0.00000395,-0.00000703,-0.00001547,0.00015133,-0.00000425,0.0000
 0547,0.00028312,-0.00021673,-0.00024443,0.00002486,-0.00001966,-0.0000
 1666,0.00003621,-0.00002231,-0.00002591,0.00005086,-0.00006291,-0.0000
 5852,-0.00004616,-0.00010273,0.00014851,0.00004588,0.00005224,-0.00009
 583,0.00002665,0.00004164,-0.00000849,0.00000816,0.00009097,-0.0000786
 0,0.00000394,0.00001593,0.00001064,-0.00000412,0.00000241,0.00000365,0
 .00000324,-0.00001106,-0.00000045,0.00000507,0.00000485,-0.00000092,-0
 .00001698,0.00002869,0.00002708,0.00000381,0.00000007,-0.00001277,0.00
 000318,0.00000115,-0.00000137,0.00000216,-0.00000758,-0.00000068,-0.00
 000946,0.00002029,0.00000925,0.00000401,0.00000806,-0.00000369,0.00000
 555,-0.00001600,-0.00000466,-0.00001572,0.00001003,-0.00001066,-0.0000
 0087,-0.00006929,0.00018590,-0.00001651,-0.00008349,0.00003799,0.00013
 267,-0.00004250,0.00085329,-0.00040988,-0.00015601,0.00080571,0.000150
 79,0.00003491,-0.00031184,-0.00003445,0.00000591,-0.00006201,0.0000158
 3,-0.00000855,-0.00000872,-0.00001769,0.00000298,-0.00001347,0.0000120
 2,0.00004481,0.00011100,0.00002232,-0.00000798,0.00000739,-0.00004728,
 0.00045276,-0.00068736,0.00040282,0.00007073,-0.00020823,0.00001120,0.
 00007596,-0.00011891,-0.00019558,0.00006329,-0.00011590,-0.00019106,0.
 00008183,-0.00000254,0.00264233,-0.00000368,-0.00072210,-0.00276314,0.
 00121736,0.00008463,-0.00051841,0.00023280,0.00002520,-0.00108003,0.00
 043861,0.00071945,-0.00124748,0.00015214,-0.00007865,0.00030530,-0.000
 03394,0.00012626,0.00044105,-0.00055105,-0.00026507,0.00066992,-0.0015
 8557,0.00064894,-0.00177868,-0.00061999,-0.00015322,0.00067420,0.00031
 386,0.00023310,0.00474092,0.00189932,0.01095772,0.00037951,0.00063795,
 0.00029519,0.00014768,-0.00010905,-0.00047381,0.00002241,0.00008885,0.
 00007602,0.00022770,-0.00024498,0.00011096,0.00017088,0.00067832,-0.00
 007346,-0.00004708,-0.00003804,0.00002653,0.00001325,0.00000872,-0.000
 00484,0.00000694,0.00000400,0.00000234,0.00000191,0.00000901,-0.000010
 31,0.00006965,0.00005310,0.00005682,0.00000537,-0.00000525,-0.00000002
 ,-0.00000708,-0.00000755,-0.00002133,-0.00001847,-0.00000148,-0.000004
 90,0.00014086,-0.00000682,-0.00007129,-0.00003959,0.00002317,-0.000002
 02,0.00006119,-0.00003954,-0.00004799,-0.00001550,-0.00001581,0.000004
 57,0.00194528,-0.00157850,-0.00042940,-0.00045791,0.00005521,0.0001518
 7,-0.00184799,0.00043789,0.00039660,-0.00046306,0.00004712,0.00003264,
 -0.00147897,0.00033267,0.00026961,0.00003441,-0.00059067,-0.00011772,0
 .00025252,-0.00055740,-0.00011174,0.00015296,-0.00018517,-0.00008228,-
 0.00000481,-0.00003683,0.00001348,-0.00000816,0.00002652,-0.00002586,0
 .00001166,-0.00001110,0.00001418,0.00000256,-0.00000317,0.00000468,0.0
 0000163,0.00000361,-0.00000422,-0.00000451,0.00000271,0.00000038,-0.00
 000135,-0.00002363,0.00001507,-0.00000372,0.00000831,-0.00000128,-0.00
 000420,-0.00000710,-0.00000580,0.00001009,0.00000039,-0.00000086,0.000
 35669,0.00037574,-0.00026927,-0.00010288,-0.00012576,0.00003440,-0.000
 12842,-0.00001788,0.00013479,-0.00005653,-0.00023580,0.00012877,-0.106
 55545,0.01364088,0.06750718,0.01281743,0.01024974,0.00522521,-0.067242
 07,0.01650720,0.03846269,0.15947834,0.00001417,0.00009517,-0.00006550,
 0.00017048,-0.00000777,-0.00004652,-0.00023871,0.00054907,0.00033590,-
 0.00000270,0.00013836,-0.00001948,0.00001131,0.00004415,0.00000177,0.0
 0000726,-0.00002671,-0.00006754,-0.00002571,-0.00004891,0.00001774,0.0
 0001957,-0.00001836,-0.00000446,-0.00000311,-0.00001734,-0.00001267,-0
 .00000285,-0.00003391,0.00000478,0.00010939,-0.00019041,-0.00002682,-0
 .00029820,-0.00103603,-0.00019117,-0.00013477,-0.00004761,-0.00003191,
 -0.00007866,-0.00009006,0.00008004,0.00001073,-0.00013859,0.00005899,-
 0.00006717,0.00006846,-0.00002324,-0.00000816,-0.00001283,0.00003001,-
 0.00000901,-0.00005197,-0.00002264,0.00008896,-0.00012932,0.00000745,0
 .00005139,0.00004385,0.00006399,0.00000341,-0.00000443,-0.00000647,0.0
 0000069,-0.00001106,-0.00001111,-0.00001771,-0.00000546,-0.00000206,0.
 00006829,0.00000951,-0.00002457,0.00000183,0.00000883,-0.00000280,-0.0
 0001155,0.00000117,-0.00000574,-0.00000997,-0.00001288,0.00001020,-0.0
 0002191,0.00009717,-0.00010122,-0.00001035,-0.00001006,0.00001257,0.00
 001022,-0.00002933,0.00000402,-0.00000618,0.00001465,-0.00000462,-0.00
 005035,0.00002817,-0.00008702,-0.00004637,0.00005859,-0.00006620,-0.00
 014133,0.00027578,-0.00014866,0.00020556,-0.00008029,-0.00034364,-0.00
 014938,-0.00008378,0.00025811,0.00001056,0.00001497,0.00000564,0.00000
 918,-0.00000091,0.00000763,-0.00000123,-0.00000530,0.00000787,-0.00003
 645,-0.00002861,0.00000258,-0.00000487,0.00000813,-0.00000677,0.000137
 79,-0.00021119,0.00016255,0.00031441,0.00014464,0.00010825,0.00004216,
 -0.00008248,0.00007718,0.00019495,-0.00002717,0.00006132,0.00015235,0.
 00005614,-0.00007006,-0.00173462,-0.00019788,0.00075902,0.00193767,-0.
 00085673,0.00014129,0.00032190,-0.00010794,-0.00004630,0.00061575,0.00
 064241,-0.00047377,-0.00087206,-0.00016163,-0.00064608,0.00016796,0.00
 007272,0.00032534,0.00028243,-0.00011530,0.00014491,-0.00001814,-0.000
 42412,-0.00032570,-0.00091030,-0.00002237,0.00077376,-0.00016621,-0.00
 023296,0.00040524,-0.00604057,0.00931211,0.01564477,-0.00002771,0.0000
 2443,0.00023476,0.00072038,-0.00096393,-0.00024644,-0.00003228,0.00006
 077,0.00002909,0.00092926,0.00096939,-0.00003752,-0.00022347,0.0002136
 7,0.00026737,0.00001343,0.00005661,-0.00001853,-0.00000234,0.00000052,
 -0.00000982,-0.00000420,-0.00000616,-0.00000761,0.00000816,-0.00001128
 ,0.00001129,-0.00007121,-0.00005861,-0.00004821,0.00000114,0.00001169,
 0.00000158,0.00000509,0.00000780,0.00001429,0.00001792,0.00000200,0.00
 000446,-0.00007996,0.00000058,0.00007999,0.00001663,-0.00000945,-0.000
 00569,-0.00002181,0.00000789,0.00000934,0.00002063,0.00001224,-0.00000
 986,-0.00016344,-0.00019617,-0.00004382,0.00004453,0.00004985,-0.00003
 088,-0.00043608,-0.00011095,-0.00024530,0.00004274,0.00002445,0.000036
 97,0.00026645,-0.00005926,-0.00034325,0.00042703,-0.00110870,-0.000257
 41,-0.00132091,-0.00016467,0.00012838,-0.00033831,-0.00044215,-0.00019
 411,-0.00002318,0.00005721,0.00000055,0.00002835,-0.00002081,0.0000053
 3,-0.00001295,0.00001218,-0.00001290,-0.00000863,0.00000164,-0.0000018
 0,-0.00000238,0.00000008,0.00000211,0.00000674,-0.00000532,-0.00000203
 ,-0.00000919,0.00000973,0.00000643,0.00000644,-0.00000788,-0.00000120,
 0.00000105,0.00000399,0.00000435,-0.00000865,0.00000093,0.00000287,0.0
 0075785,0.00024751,-0.00044163,-0.00022381,-0.00009763,0.00001318,-0.0
 0024165,0.00002355,0.00022171,-0.00015219,-0.00016407,0.00016617,0.012
 35489,-0.07395797,-0.02027299,0.01887172,-0.03820876,-0.05615372,0.016
 11516,0.00876347,-0.00614148,-0.04109299,0.09790919,0.00003144,-0.0001
 1093,-0.00012341,0.00013165,0.00000277,-0.00013525,-0.00028671,0.00062
 562,0.00031084,-0.00009806,0.00005336,-0.00024316,-0.00008336,-0.00008
 847,-0.00031324,0.00002830,-0.00001666,-0.00002409,-0.00001532,-0.0000
 3761,0.00005633,-0.00002150,0.00000677,-0.00004149,0.00002711,0.000020
 03,-0.00007605,0.00000526,0.00004066,0.00005828,0.00021558,-0.00023101
 ,0.00019589,-0.00048413,-0.00134939,0.00010585,-0.00004992,-0.00002311
 ,0.00007943,-0.00003795,0.00003507,0.00015116,-0.00002722,0.00033570,0
 .00026297,-0.00006282,0.00015133,-0.00027676,-0.00005388,-0.00007918,0
 .00012270,0.00000309,-0.00001130,0.00005088,0.00009165,0.00001917,0.00
 030937,0.00001398,0.00002211,-0.00002947,0.00000471,-0.00001013,0.0000
 1696,0.00000061,-0.00000013,0.00000136,-0.00001044,-0.00000525,0.00000
 423,0.00002892,-0.00009349,-0.00009676,-0.00002809,-0.00000175,0.00003
 695,0.00000922,0.00001405,0.00000494,-0.00000341,0.00001989,0.00000878
 ,0.00002058,-0.00011454,0.00004085,0.00000064,-0.00001733,-0.00000759,
 -0.00002154,0.00005588,0.00001205,0.00005252,-0.00003977,0.00005757,0.
 00009457,0.00005639,-0.00021218,0.00010122,0.00005717,0.00003137,-0.00
 000246,-0.00051378,-0.00145483,0.00056615,0.00015947,-0.00093650,-0.00
 006822,0.00000523,0.00025927,-0.00000262,-0.00004127,0.00009206,-0.000
 06484,0.00001648,-0.00000498,0.00004061,0.00000364,0.00001843,0.000072
 60,-0.00004148,-0.00012686,-0.00004938,0.00002175,0.00000413,-0.000094
 99,-0.00032825,0.00095291,-0.00122560,-0.00016558,0.00008541,-0.000066
 68,0.00001811,0.00010105,0.00006574,-0.00004229,0.00012523,0.00007072,
 -0.00011856,0.00011271,-0.00198907,0.00029620,0.00063774,0.00010824,0.
 00088204,-0.00051104,0.00033162,-0.00018918,0.00000068,0.00076026,-0.0
 0038123,-0.00024000,0.00355219,-0.00069428,0.00125841,-0.00083140,0.00
 005637,-0.00078240,-0.00112775,0.00140595,0.00035740,-0.00035003,0.001
 13830,0.00019532,0.00245672,0.00094916,0.00101427,0.00041722,0.0002411
 1,-0.00088174,0.02677635,-0.00177829,-0.03973684,-0.00010926,-0.000721
 26,-0.00086343,-0.00013738,0.00293072,-0.00030162,0.00002314,-0.000120
 85,-0.00009555,-0.00457584,-0.00134957,-0.00389975,0.00028803,-0.00089
 976,-0.00034664,0.00005207,-0.00004312,-0.00002226,-0.00002245,-0.0000
 1943,0.00002034,-0.00000762,0.00001317,0.00001286,-0.00001277,0.000001
 87,0.00000219,-0.00002554,-0.00002847,-0.00003445,-0.00000606,-0.00000
 141,-0.00000686,0.00000579,0.00000006,0.00001850,0.00000374,0.00000364
 ,0.00000314,-0.00009046,-0.00000575,-0.00002921,0.00002841,-0.00001478
 ,0.00001062,-0.00005006,0.00004229,0.00005958,0.00000497,0.00001103,0.
 00000321,-0.00154455,0.00117524,0.00058037,0.00032280,-0.00002005,-0.0
 0012330,-0.00024742,-0.00097780,-0.00029277,0.00049132,-0.00004935,-0.
 00003186,0.00088671,0.00069652,-0.00007991,0.00085683,-0.00037092,-0.0
 0024818,-0.00097902,0.00062941,0.00025062,-0.00027913,-0.00022572,-0.0
 0014420,0.00000635,-0.00000216,-0.00004695,-0.00000604,-0.00000956,0.0
 0005435,-0.00001265,-0.00000392,-0.00002305,0.00001085,0.00000396,-0.0
 0000309,0.00000044,-0.00000751,0.00000548,0.00000054,0.00000296,0.0000
 0379,0.00000511,0.00001983,-0.00004360,-0.00000134,-0.00000312,0.00000
 510,0.00000865,0.00000823,0.00000836,-0.00000393,-0.00000281,-0.000004
 76,-0.00261854,-0.00110272,0.00103301,0.00076276,0.00047907,0.00008729
 ,0.00074379,0.00000396,-0.00062295,0.00049843,0.00100708,-0.00065330,0
 .06605366,-0.02102628,-0.19620147,0.00987798,-0.04335957,-0.02477129,0
 .02391780,-0.00350648,0.01062915,-0.12304219,0.06665782,0.25522336\\-0
 .00000076,0.00000065,0.00000080,-0.00000031,0.00000133,0.00000042,-0.0
 0000087,0.00000074,0.00000076,-0.00000094,0.00000062,-0.00000021,0.000
 00093,0.00000031,0.00000042,-0.00000102,0.00000115,0.00000084,-0.00000
 103,0.00000087,0.00000038,0.,0.00000052,0.00000116,-0.00000031,0.,0.00
 000046,-0.00000047,0.00000017,0.00000005,-0.00000045,0.00000019,0.0000
 0031,-0.00000049,0.00000103,0.00000141,-0.00000052,0.00000167,0.000000
 93,-0.00000016,0.00000009,0.00000054,-0.00000071,0.00000106,0.00000057
 ,-0.00000022,-0.00000064,0.00000048,-0.00000265,-0.00000024,-0.0000009
 1,-0.00000063,0.00000042,-0.00000050,0.00000034,0.00000113,-0.00000033
 ,-0.00000077,0.00000014,0.00000090,-0.00000085,0.00000144,0.00000111,-
 0.00000142,0.00000164,0.00000105,-0.00000120,0.00000166,0.00000138,0.0
 0000008,0.00000073,0.00000017,-0.00000009,0.00000070,0.00000070,-0.000
 00041,0.00000082,0.00000103,0.00000001,0.00000039,0.00000103,0.0000003
 3,-0.00000032,-0.00000018,0.00000016,0.00000013,0.00000032,-0.00000079
 ,-0.00000053,0.00000033,0.00000066,-0.00000024,-0.00000022,0.00000089,
 -0.00000067,-0.00000109,0.00000030,-0.00000334,-0.00000039,0.00000051,
 0.00000215,0.00000314,0.00000045,-0.00000035,-0.00000074,0.00000055,-0
 .00000060,0.00000027,0.00000071,-0.00000348,-0.00000397,-0.00000026,0.
 00000251,-0.00000294,0.00000046,-0.00000085,-0.00000074,0.00000007,-0.
 00000017,-0.00000062,-0.00000012,-0.00000014,-0.00000135,-0.00000010,0
 .00000064,0.00000044,0.00000135,-0.00000016,-0.00000027,-0.00000085,0.
 00000087,-0.00000031,-0.00000044,-0.00000161,-0.00000064,-0.00000023,-
 0.00000013,-0.00000039,-0.00000252,0.00000045,-0.00000035,0.00000039,0
 .,0.00000046,0.00000258,0.00000064,0.00000081,-0.00000022,-0.00000035,
 -0.00000046,0.00000113,-0.00000048,-0.00000018,0.00000140,-0.00000066,
 0.00000094,0.00000045,-0.00000132,-0.00000081,0.00000087,-0.00000071,0
 .00000078,0.00000087,-0.00000015,-0.00000020,0.00000030,0.00000069,0.0
 0000071,0.00000007,-0.00000043,0.00000109,0.00000084,-0.00000005,0.000
 00069,0.00000072,0.00000012,0.00000138,0.00000097,-0.00000031,0.000000
 65,0.00000129,0.00000084,0.00000080,0.00000051,0.00000061,0.00000134,0
 .00000128,-0.00000168,-0.00000090,0.00000069,-0.00000107,-0.00000094,-
 0.00000012,-0.00000137,-0.00000162,0.00000029,-0.00000099,-0.00000107,
 0.00000108,-0.00000072,-0.00000188,0.00000047,-0.00000124,-0.00000112,
 0.00000060,-0.00000136,-0.00000101,-0.00000005,-0.00000101,-0.00000158
 ,0.00000069,-0.00000040,-0.00000036,-0.00000036,-0.00000044,-0.0000012
 1,-0.00000067,-0.00000028,-0.00000104,-0.00000026,-0.00000081,-0.00000
 090,-0.00000005,0.00000047,0.00000017,-0.00000006,0.00000012,0.0000000
 7,0.00000022,0.00000015,0.00000052,0.00000044,-0.00000016,0.00000016,-
 0.00000097,0.00000115,0.00000085,-0.00000007,0.00000070,0.00000116,-0.
 00000002,0.00000077,0.00000076,-0.00000061,0.00000103,0.00000091,-0.00
 000205,-0.00000055,0.00000171,-0.00000059,-0.00000060,-0.00000239,0.00
 000010,-0.00000101,-0.00000164,-0.00000022,-0.00000137,-0.00000146,-0.
 00000016,-0.00000115,-0.00000148,-0.00000044,-0.00000079,-0.00000198,-
 0.00000026,-0.00000035,-0.00000171,-0.00000116,-0.00000032,-0.00000146
 ,-0.00000108,-0.00000079,-0.00000156,-0.00000067,-0.00000040,-0.000001
 34,0.00000108,0.00000055,0.00000148,0.00000051,0.00000051,0.00000102,0
 .00000142,0.00000004,0.00000126,0.00000064,-0.00000002,0.00000035,-0.0
 0000008,0.00000071,0.00000140,0.00000066,0.00000051,0.00000124,0.00000
 101,0.00000041,0.00000141,0.00000036,0.00000057,0.00000093\\\@


 YOU KNOW YOU'VE SPOKEN TOO LONG WHEN THE AUDIENCE STOPS LOOKING AT
 THEIR WATCHES AND STARTS SHAKING THEM.
 Job cpu time:       4 days 22 hours 36 minutes 52.6 seconds.
 Elapsed time:       0 days  3 hours 54 minutes 42.4 seconds.
 File lengths (MBytes):  RWF=   9715 Int=      0 D2E=      0 Chk=     85 Scr=      1
 Normal termination of Gaussian 16 at Fri May 10 06:32:29 2019.
