 Entering Gaussian System, Link 0=g16
 Input=clay_new-glu_gluC6-CCDL-Na_1Me2O-bisCF3-ts-b3lyp_d3bj-631gd-pcm_thf.gjf
 Output=clay_new-glu_gluC6-CCDL-Na_1Me2O-bisCF3-ts-b3lyp_d3bj-631gd-pcm_thf.out
 Initial command:
 /home/ekwan/sw/g16/l1.exe "/scratch/users/ekwan/clay_new-glu_gluC6-CCDL-Na_1Me2O-bisCF3-ts-b3lyp_d3bj-631gd-pcm_thf/Gau-58299.inp" -scrdir="/scratch/users/ekwan/clay_new-glu_gluC6-CCDL-Na_1Me2O-bisCF3-ts-b3lyp_d3bj-631gd-pcm_thf/"
 Entering Link 1 = /home/ekwan/sw/g16/l1.exe PID=     58300.
  
 Copyright (c) 1988,1990,1992,1993,1995,1998,2003,2009,2016,
            Gaussian, Inc.  All Rights Reserved.
  
 This is part of the Gaussian(R) 16 program.  It is based on
 the Gaussian(R) 09 system (copyright 2009, Gaussian, Inc.),
 the Gaussian(R) 03 system (copyright 2003, Gaussian, Inc.),
 the Gaussian(R) 98 system (copyright 1998, Gaussian, Inc.),
 the Gaussian(R) 94 system (copyright 1995, Gaussian, Inc.),
 the Gaussian 92(TM) system (copyright 1992, Gaussian, Inc.),
 the Gaussian 90(TM) system (copyright 1990, Gaussian, Inc.),
 the Gaussian 88(TM) system (copyright 1988, Gaussian, Inc.),
 the Gaussian 86(TM) system (copyright 1986, Carnegie Mellon
 University), and the Gaussian 82(TM) system (copyright 1983,
 Carnegie Mellon University). Gaussian is a federally registered
 trademark of Gaussian, Inc.
  
 This software contains proprietary and confidential information,
 including trade secrets, belonging to Gaussian, Inc.
  
 This software is provided under written license and may be
 used, copied, transmitted, or stored only in accord with that
 written license.
  
 The following legend is applicable only to US Government
 contracts under FAR:
  
                    RESTRICTED RIGHTS LEGEND
  
 Use, reproduction and disclosure by the US Government is
 subject to restrictions as set forth in subparagraphs (a)
 and (c) of the Commercial Computer Software - Restricted
 Rights clause in FAR 52.227-19.
  
 Gaussian, Inc.
 340 Quinnipiac St., Bldg. 40, Wallingford CT 06492
  
  
 ---------------------------------------------------------------
 Warning -- This program may not be used in any manner that
 competes with the business of Gaussian, Inc. or will provide
 assistance to any competitor of Gaussian, Inc.  The licensee
 of this program is prohibited from giving any competitor of
 Gaussian, Inc. access to this program.  By using this program,
 the user acknowledges that Gaussian, Inc. is engaged in the
 business of creating and licensing software in the field of
 computational chemistry and represents and warrants to the
 licensee that it is not a competitor of Gaussian, Inc. and that
 it will not use this program in any manner prohibited above.
 ---------------------------------------------------------------
  

 Cite this work as:
 Gaussian 16, Revision A.03,
 M. J. Frisch, G. W. Trucks, H. B. Schlegel, G. E. Scuseria, 
 M. A. Robb, J. R. Cheeseman, G. Scalmani, V. Barone, 
 G. A. Petersson, H. Nakatsuji, X. Li, M. Caricato, A. V. Marenich, 
 J. Bloino, B. G. Janesko, R. Gomperts, B. Mennucci, H. P. Hratchian, 
 J. V. Ortiz, A. F. Izmaylov, J. L. Sonnenberg, D. Williams-Young, 
 F. Ding, F. Lipparini, F. Egidi, J. Goings, B. Peng, A. Petrone, 
 T. Henderson, D. Ranasinghe, V. G. Zakrzewski, J. Gao, N. Rega, 
 G. Zheng, W. Liang, M. Hada, M. Ehara, K. Toyota, R. Fukuda, 
 J. Hasegawa, M. Ishida, T. Nakajima, Y. Honda, O. Kitao, H. Nakai, 
 T. Vreven, K. Throssell, J. A. Montgomery, Jr., J. E. Peralta, 
 F. Ogliaro, M. J. Bearpark, J. J. Heyd, E. N. Brothers, K. N. Kudin, 
 V. N. Staroverov, T. A. Keith, R. Kobayashi, J. Normand, 
 K. Raghavachari, A. P. Rendell, J. C. Burant, S. S. Iyengar, 
 J. Tomasi, M. Cossi, J. M. Millam, M. Klene, C. Adamo, R. Cammi, 
 J. W. Ochterski, R. L. Martin, K. Morokuma, O. Farkas, 
 J. B. Foresman, and D. J. Fox, Gaussian, Inc., Wallingford CT, 2016.
 
 ******************************************
 Gaussian 16:  AS64L-G16RevA.03 25-Dec-2016
                 9-May-2019 
 ******************************************
 %mem=48GB
 %nprocshared=32
 Will use up to   32 processors via shared memory.
 ----------------------------------------------------------------------
 #p opt=(ts,noeigentest,calcfc,maxstep=3,modredundant,recalc=30) freq=n
 oraman b3lyp 6-31g* pop=none scrf=(solvent=tetrahydrofuran,pcm) empiri
 caldispersion=gd3bj
 ----------------------------------------------------------------------
 1/5=1,8=3,10=4,11=1,18=120,26=3,38=1,71=30/1,3;
 2/9=110,12=2,17=6,18=5,40=1/2;
 3/5=1,6=6,7=1,11=2,25=1,30=1,70=2201,71=2,72=20,74=-5,124=41,140=1/1,2,3;
 4//1;
 5/5=2,38=5,53=20/2;
 8/6=4,10=90,11=11/1;
 11/6=1,8=1,9=11,15=111,16=1/1,2,10;
 10/6=1,13=1/2;
 7/10=1,18=20,25=1/1,2,3,16;
 1/5=1,8=3,10=4,11=1,18=20,26=3,71=30/3(2);
 2/9=110/2;
 99//99;
 2/9=110/2;
 3/5=1,6=6,7=1,11=2,25=1,30=1,70=2205,71=1,72=20,74=-5,124=41/1,2,3;
 4/5=5,16=3,69=1/1;
 5/5=2,38=5,53=20/2;
 7//1,2,3,16;
 1/5=1,8=3,11=1,18=20,26=3,71=30/3(-5);
 2/9=110/2;
 99/9=1/99;
 Leave Link    1 at Thu May  9 08:24:01 2019, MaxMem=  6442450944 cpu:               9.2 elap:               0.3
 (Enter /home/ekwan/sw/g16/l101.exe)
 -----
 title
 -----
 Symbolic Z-matrix:
 Charge =  0 Multiplicity = 1
 C                     4.63692  -1.62026  -0.70346 
 C                     3.34853  -2.38846  -0.99324 
 C                     2.79303  -2.97984   0.30802 
 C                     3.65067  -1.14426   1.62736 
 C                     4.42241  -0.60472   0.41665 
 H                     1.82373  -3.45977   0.15128 
 H                     2.59501  -1.68273  -1.37577 
 H                     5.41452  -2.3309   -0.39734 
 H                     4.3236   -1.78261   2.21441 
 H                     3.84972   0.22926  -0.00342 
 O                     2.51016  -1.9252    1.21476 
 O                     3.73262  -3.8905    0.81508 
 O                     3.6129   -3.37644  -1.97337 
 O                     5.06766  -0.8837   -1.8458 
 O                     5.70812  -0.15575   0.84943 
 C                     3.09479  -0.01093   2.51307 
 H                     3.97716   0.41366   3.04103 
 H                     2.49909  -0.52046   3.30047 
 O                     2.37605   0.94009   1.8278 
 C                     2.44039  -3.87117  -2.60737 
 H                     1.80509  -4.44262  -1.91881 
 H                     1.83634  -3.05547  -3.02711 
 H                     2.77353  -4.52991  -3.41309 
 C                     6.04352  -1.54598  -2.63602 
 H                     6.94859  -1.76068  -2.04837 
 H                     5.65782  -2.48229  -3.05272 
 H                     6.30494  -0.86408  -3.45018 
 C                     5.87279   1.24631   0.89304 
 H                     5.63485   1.70974  -0.07598 
 H                     5.25633   1.71015   1.67796 
 H                     6.92461   1.43839   1.12292 
 C                    -1.31824   1.75228   0.18609 
 C                    -0.38623   0.79361   0.92835 
 C                     0.7646    0.30193   0.08322 
 C                     0.52931   2.07037  -1.50938 
 C                    -0.49892   2.76473  -0.61115 
 H                     1.32921  -0.57218   0.36724 
 H                     0.12162   1.35733   1.72046 
 H                    -1.95474   1.18816  -0.50387 
 H                     0.00448   1.49136  -2.27216 
 H                     0.01466   3.42962   0.0915 
 O                     1.3514    1.11102  -0.771 
 O                    -0.35408  -2.92767  -0.19956 
 O                    -1.14323  -0.24703   1.48841 
 O                    -2.10937   2.48381   1.1109 
 O                    -1.32986   3.50446  -1.49185 
 C                     1.48668   3.02119  -2.19 
 H                     0.90127   3.68708  -2.83495 
 H                     2.19518   2.45695  -2.81063 
 O                     2.18889   3.77817  -1.20885 
 S                    -0.91297  -2.08475  -1.27584 
 O                    -0.97239  -2.68667  -2.62359 
 O                    -0.26392  -0.70411  -1.35434 
 C                    -2.61014  -1.72108  -0.80864 
 C                    -3.08246  -2.1407    0.42637 
 C                    -3.40063  -0.94596  -1.65476 
 C                    -4.361    -1.75877   0.83272 
 H                    -2.44264  -2.73467   1.06617 
 C                    -4.68007  -0.58018  -1.23991 
 H                    -3.0206   -0.62383  -2.61742 
 C                    -5.16565  -0.97822   0.00753 
 H                    -6.1543   -0.67763   0.33145 
 C                    -0.52282  -0.92052   2.58451 
 H                     0.31001  -1.54617   2.25265 
 H                    -0.1611   -0.19841   3.32753 
 H                    -1.30317  -1.54077   3.03044 
 C                    -3.39547   1.92247   1.36406 
 H                    -3.97945   1.85588   0.43761 
 H                    -3.31991   0.93002   1.81761 
 H                    -3.89759   2.60474   2.05446 
 C                    -1.66589   4.80606  -1.02426 
 H                    -2.19136   4.75762  -0.06522 
 H                    -0.76814   5.43092  -0.9177 
 H                    -2.31981   5.24782  -1.77969 
 C                     3.01429   4.78578  -1.78883 
 H                     3.50448   5.31182  -0.9666 
 H                     3.77368   4.34203  -2.44543 
 H                     2.40828   5.49556  -2.36558 
 C                     3.24281  -4.63125   1.92669 
 H                     4.02179  -5.34688   2.19807 
 H                     3.03153  -3.97881   2.78217 
 H                     2.32486  -5.1744    1.66145 
 Na                    2.8008    2.79216   0.81225 
 O                     1.3843    4.16218   1.99638 
 C                     0.78204   3.59086   3.15919 
 H                    -0.30531   3.51969   3.02629 
 H                     1.21203   2.59222   3.25871 
 H                     1.00612   4.19586   4.04797 
 C                     0.96592   5.49892   1.75996 
 H                     1.28159   6.15855   2.57958 
 H                     1.4328    5.82245   0.82754 
 H                    -0.12597   5.55468   1.65853 
 C                    -4.79992  -2.11183   2.22423 
 F                    -4.53484  -3.40119   2.52483 
 F                    -6.11801  -1.90709   2.41965 
 F                    -4.13857  -1.35791   3.14256 
 C                    -5.50351   0.34282  -2.09224 
 F                    -5.2711    1.64323  -1.77256 
 F                    -6.82763   0.13535  -1.93114 
 F                    -5.22276   0.20931  -3.40453 
 
 Add virtual bond connecting atoms H37        and O11        Dist= 3.75D+00.
 Add virtual bond connecting atoms O53        and C34        Dist= 3.84D+00.
 The following ModRedundant input section has been read:
 
 ITRead=  0  0  0  0  0  0  0  0  0  0  0  0  0  0  0  0  0  0  0  0
 ITRead=  0  0  0  0  0  0  0  0  0  0  0  0  0  0  0  0  0  0  0  0
 ITRead=  0  0  0  0  0  0  0  0  0  0  0  0  0  0  0  0  0  0  0  0
 ITRead=  0  0  0  0  0  0  0  0  0  0  0  0  0  0  0  0  0  0  0  0
 ITRead=  0  0  0  0  0  0  0  0  0  0  0  0  0  0  0  0  0  0  0  0
 MicOpt= -1 -1 -1 -1 -1 -1 -1 -1 -1 -1 -1 -1 -1 -1 -1 -1 -1 -1 -1 -1
 MicOpt= -1 -1 -1 -1 -1 -1 -1 -1 -1 -1 -1 -1 -1 -1 -1 -1 -1 -1 -1 -1
 MicOpt= -1 -1 -1 -1 -1 -1 -1 -1 -1 -1 -1 -1 -1 -1 -1 -1 -1 -1 -1 -1
 MicOpt= -1 -1 -1 -1 -1 -1 -1 -1 -1 -1 -1 -1 -1 -1 -1 -1 -1 -1 -1 -1
 MicOpt= -1 -1 -1 -1 -1 -1 -1 -1 -1 -1 -1 -1 -1 -1 -1 -1 -1 -1 -1 -1
 NAtoms=    100 NQM=      100 NQMF=       0 NMMI=      0 NMMIF=      0
                NMic=       0 NMicF=      0.
                    Isotopes and Nuclear Properties:
 (Nuclear quadrupole moments (NQMom) in fm**2, nuclear magnetic moments (NMagM)
  in nuclear magnetons)

  Atom         1           2           3           4           5           6           7           8           9          10
 IAtWgt=          12          12          12          12          12           1           1           1           1           1
 AtmWgt=  12.0000000  12.0000000  12.0000000  12.0000000  12.0000000   1.0078250   1.0078250   1.0078250   1.0078250   1.0078250
 NucSpn=           0           0           0           0           0           1           1           1           1           1
 AtZEff=   0.0000000   0.0000000   0.0000000   0.0000000   0.0000000   0.0000000   0.0000000   0.0000000   0.0000000   0.0000000
 NQMom=    0.0000000   0.0000000   0.0000000   0.0000000   0.0000000   0.0000000   0.0000000   0.0000000   0.0000000   0.0000000
 NMagM=    0.0000000   0.0000000   0.0000000   0.0000000   0.0000000   2.7928460   2.7928460   2.7928460   2.7928460   2.7928460
 AtZNuc=   6.0000000   6.0000000   6.0000000   6.0000000   6.0000000   1.0000000   1.0000000   1.0000000   1.0000000   1.0000000

  Atom        11          12          13          14          15          16          17          18          19          20
 IAtWgt=          16          16          16          16          16          12           1           1          16          12
 AtmWgt=  15.9949146  15.9949146  15.9949146  15.9949146  15.9949146  12.0000000   1.0078250   1.0078250  15.9949146  12.0000000
 NucSpn=           0           0           0           0           0           0           1           1           0           0
 AtZEff=   0.0000000   0.0000000   0.0000000   0.0000000   0.0000000   0.0000000   0.0000000   0.0000000   0.0000000   0.0000000
 NQMom=    0.0000000   0.0000000   0.0000000   0.0000000   0.0000000   0.0000000   0.0000000   0.0000000   0.0000000   0.0000000
 NMagM=    0.0000000   0.0000000   0.0000000   0.0000000   0.0000000   0.0000000   2.7928460   2.7928460   0.0000000   0.0000000
 AtZNuc=   8.0000000   8.0000000   8.0000000   8.0000000   8.0000000   6.0000000   1.0000000   1.0000000   8.0000000   6.0000000

  Atom        21          22          23          24          25          26          27          28          29          30
 IAtWgt=           1           1           1          12           1           1           1          12           1           1
 AtmWgt=   1.0078250   1.0078250   1.0078250  12.0000000   1.0078250   1.0078250   1.0078250  12.0000000   1.0078250   1.0078250
 NucSpn=           1           1           1           0           1           1           1           0           1           1
 AtZEff=   0.0000000   0.0000000   0.0000000   0.0000000   0.0000000   0.0000000   0.0000000   0.0000000   0.0000000   0.0000000
 NQMom=    0.0000000   0.0000000   0.0000000   0.0000000   0.0000000   0.0000000   0.0000000   0.0000000   0.0000000   0.0000000
 NMagM=    2.7928460   2.7928460   2.7928460   0.0000000   2.7928460   2.7928460   2.7928460   0.0000000   2.7928460   2.7928460
 AtZNuc=   1.0000000   1.0000000   1.0000000   6.0000000   1.0000000   1.0000000   1.0000000   6.0000000   1.0000000   1.0000000

  Atom        31          32          33          34          35          36          37          38          39          40
 IAtWgt=           1          12          12          12          12          12           1           1           1           1
 AtmWgt=   1.0078250  12.0000000  12.0000000  12.0000000  12.0000000  12.0000000   1.0078250   1.0078250   1.0078250   1.0078250
 NucSpn=           1           0           0           0           0           0           1           1           1           1
 AtZEff=   0.0000000   0.0000000   0.0000000   0.0000000   0.0000000   0.0000000   0.0000000   0.0000000   0.0000000   0.0000000
 NQMom=    0.0000000   0.0000000   0.0000000   0.0000000   0.0000000   0.0000000   0.0000000   0.0000000   0.0000000   0.0000000
 NMagM=    2.7928460   0.0000000   0.0000000   0.0000000   0.0000000   0.0000000   2.7928460   2.7928460   2.7928460   2.7928460
 AtZNuc=   1.0000000   6.0000000   6.0000000   6.0000000   6.0000000   6.0000000   1.0000000   1.0000000   1.0000000   1.0000000

  Atom        41          42          43          44          45          46          47          48          49          50
 IAtWgt=           1          16          16          16          16          16          12           1           1          16
 AtmWgt=   1.0078250  15.9949146  15.9949146  15.9949146  15.9949146  15.9949146  12.0000000   1.0078250   1.0078250  15.9949146
 NucSpn=           1           0           0           0           0           0           0           1           1           0
 AtZEff=   0.0000000   0.0000000   0.0000000   0.0000000   0.0000000   0.0000000   0.0000000   0.0000000   0.0000000   0.0000000
 NQMom=    0.0000000   0.0000000   0.0000000   0.0000000   0.0000000   0.0000000   0.0000000   0.0000000   0.0000000   0.0000000
 NMagM=    2.7928460   0.0000000   0.0000000   0.0000000   0.0000000   0.0000000   0.0000000   2.7928460   2.7928460   0.0000000
 AtZNuc=   1.0000000   8.0000000   8.0000000   8.0000000   8.0000000   8.0000000   6.0000000   1.0000000   1.0000000   8.0000000

  Atom        51          52          53          54          55          56          57          58          59          60
 IAtWgt=          32          16          16          12          12          12          12           1          12           1
 AtmWgt=  31.9720718  15.9949146  15.9949146  12.0000000  12.0000000  12.0000000  12.0000000   1.0078250  12.0000000   1.0078250
 NucSpn=           0           0           0           0           0           0           0           1           0           1
 AtZEff=   0.0000000   0.0000000   0.0000000   0.0000000   0.0000000   0.0000000   0.0000000   0.0000000   0.0000000   0.0000000
 NQMom=    0.0000000   0.0000000   0.0000000   0.0000000   0.0000000   0.0000000   0.0000000   0.0000000   0.0000000   0.0000000
 NMagM=    0.0000000   0.0000000   0.0000000   0.0000000   0.0000000   0.0000000   0.0000000   2.7928460   0.0000000   2.7928460
 AtZNuc=  16.0000000   8.0000000   8.0000000   6.0000000   6.0000000   6.0000000   6.0000000   1.0000000   6.0000000   1.0000000

  Atom        61          62          63          64          65          66          67          68          69          70
 IAtWgt=          12           1          12           1           1           1          12           1           1           1
 AtmWgt=  12.0000000   1.0078250  12.0000000   1.0078250   1.0078250   1.0078250  12.0000000   1.0078250   1.0078250   1.0078250
 NucSpn=           0           1           0           1           1           1           0           1           1           1
 AtZEff=   0.0000000   0.0000000   0.0000000   0.0000000   0.0000000   0.0000000   0.0000000   0.0000000   0.0000000   0.0000000
 NQMom=    0.0000000   0.0000000   0.0000000   0.0000000   0.0000000   0.0000000   0.0000000   0.0000000   0.0000000   0.0000000
 NMagM=    0.0000000   2.7928460   0.0000000   2.7928460   2.7928460   2.7928460   0.0000000   2.7928460   2.7928460   2.7928460
 AtZNuc=   6.0000000   1.0000000   6.0000000   1.0000000   1.0000000   1.0000000   6.0000000   1.0000000   1.0000000   1.0000000

  Atom        71          72          73          74          75          76          77          78          79          80
 IAtWgt=          12           1           1           1          12           1           1           1          12           1
 AtmWgt=  12.0000000   1.0078250   1.0078250   1.0078250  12.0000000   1.0078250   1.0078250   1.0078250  12.0000000   1.0078250
 NucSpn=           0           1           1           1           0           1           1           1           0           1
 AtZEff=   0.0000000   0.0000000   0.0000000   0.0000000   0.0000000   0.0000000   0.0000000   0.0000000   0.0000000   0.0000000
 NQMom=    0.0000000   0.0000000   0.0000000   0.0000000   0.0000000   0.0000000   0.0000000   0.0000000   0.0000000   0.0000000
 NMagM=    0.0000000   2.7928460   2.7928460   2.7928460   0.0000000   2.7928460   2.7928460   2.7928460   0.0000000   2.7928460
 AtZNuc=   6.0000000   1.0000000   1.0000000   1.0000000   6.0000000   1.0000000   1.0000000   1.0000000   6.0000000   1.0000000

  Atom        81          82          83          84          85          86          87          88          89          90
 IAtWgt=           1           1          23          16          12           1           1           1          12           1
 AtmWgt=   1.0078250   1.0078250  22.9897697  15.9949146  12.0000000   1.0078250   1.0078250   1.0078250  12.0000000   1.0078250
 NucSpn=           1           1           3           0           0           1           1           1           0           1
 AtZEff=   0.0000000   0.0000000   0.0000000   0.0000000   0.0000000   0.0000000   0.0000000   0.0000000   0.0000000   0.0000000
 NQMom=    0.0000000   0.0000000  10.4000000   0.0000000   0.0000000   0.0000000   0.0000000   0.0000000   0.0000000   0.0000000
 NMagM=    2.7928460   2.7928460   2.2175200   0.0000000   0.0000000   2.7928460   2.7928460   2.7928460   0.0000000   2.7928460
 AtZNuc=   1.0000000   1.0000000  11.0000000   8.0000000   6.0000000   1.0000000   1.0000000   1.0000000   6.0000000   1.0000000

  Atom        91          92          93          94          95          96          97          98          99         100
 IAtWgt=           1           1          12          19          19          19          12          19          19          19
 AtmWgt=   1.0078250   1.0078250  12.0000000  18.9984033  18.9984033  18.9984033  12.0000000  18.9984033  18.9984033  18.9984033
 NucSpn=           1           1           0           1           1           1           0           1           1           1
 AtZEff=   0.0000000   0.0000000   0.0000000   0.0000000   0.0000000   0.0000000   0.0000000   0.0000000   0.0000000   0.0000000
 NQMom=    0.0000000   0.0000000   0.0000000   0.0000000   0.0000000   0.0000000   0.0000000   0.0000000   0.0000000   0.0000000
 NMagM=    2.7928460   2.7928460   0.0000000   2.6288670   2.6288670   2.6288670   0.0000000   2.6288670   2.6288670   2.6288670
 AtZNuc=   1.0000000   1.0000000   6.0000000   9.0000000   9.0000000   9.0000000   6.0000000   9.0000000   9.0000000   9.0000000
 Leave Link  101 at Thu May  9 08:24:02 2019, MaxMem=  6442450944 cpu:              18.8 elap:               0.7
 (Enter /home/ekwan/sw/g16/l103.exe)

 GradGradGradGradGradGradGradGradGradGradGradGradGradGradGradGradGradGrad
 Berny optimization.
 Initialization pass.
                           ----------------------------
                           !    Initial Parameters    !
                           ! (Angstroms and Degrees)  !
 --------------------------                            --------------------------
 ! Name  Definition              Value          Derivative Info.                !
 --------------------------------------------------------------------------------
 ! R1    R(1,2)                  1.5278         calculate D2E/DX2 analytically  !
 ! R2    R(1,5)                  1.5271         calculate D2E/DX2 analytically  !
 ! R3    R(1,8)                  1.097          calculate D2E/DX2 analytically  !
 ! R4    R(1,14)                 1.4258         calculate D2E/DX2 analytically  !
 ! R5    R(2,3)                  1.5335         calculate D2E/DX2 analytically  !
 ! R6    R(2,7)                  1.101          calculate D2E/DX2 analytically  !
 ! R7    R(2,13)                 1.4166         calculate D2E/DX2 analytically  !
 ! R8    R(3,6)                  1.0929         calculate D2E/DX2 analytically  !
 ! R9    R(3,11)                 1.4193         calculate D2E/DX2 analytically  !
 ! R10   R(3,12)                 1.4033         calculate D2E/DX2 analytically  !
 ! R11   R(4,5)                  1.5338         calculate D2E/DX2 analytically  !
 ! R12   R(4,9)                  1.0977         calculate D2E/DX2 analytically  !
 ! R13   R(4,11)                 1.4425         calculate D2E/DX2 analytically  !
 ! R14   R(4,16)                 1.5421         calculate D2E/DX2 analytically  !
 ! R15   R(5,10)                 1.0954         calculate D2E/DX2 analytically  !
 ! R16   R(5,15)                 1.429          calculate D2E/DX2 analytically  !
 ! R17   R(11,37)                1.9859         calculate D2E/DX2 analytically  !
 ! R18   R(12,79)                1.4228         calculate D2E/DX2 analytically  !
 ! R19   R(13,20)                1.4218         calculate D2E/DX2 analytically  !
 ! R20   R(14,24)                1.4196         calculate D2E/DX2 analytically  !
 ! R21   R(15,28)                1.4124         calculate D2E/DX2 analytically  !
 ! R22   R(16,17)                1.1125         calculate D2E/DX2 analytically  !
 ! R23   R(16,18)                1.1111         calculate D2E/DX2 analytically  !
 ! R24   R(16,19)                1.375          calculate D2E/DX2 analytically  !
 ! R25   R(19,83)                2.1545         calculate D2E/DX2 analytically  !
 ! R26   R(20,21)                1.0974         calculate D2E/DX2 analytically  !
 ! R27   R(20,22)                1.0984         calculate D2E/DX2 analytically  !
 ! R28   R(20,23)                1.0927         calculate D2E/DX2 analytically  !
 ! R29   R(24,25)                1.1003         calculate D2E/DX2 analytically  !
 ! R30   R(24,26)                1.095          calculate D2E/DX2 analytically  !
 ! R31   R(24,27)                1.0937         calculate D2E/DX2 analytically  !
 ! R32   R(28,29)                1.1002         calculate D2E/DX2 analytically  !
 ! R33   R(28,30)                1.1006         calculate D2E/DX2 analytically  !
 ! R34   R(28,31)                1.0936         calculate D2E/DX2 analytically  !
 ! R35   R(32,33)                1.5293         calculate D2E/DX2 analytically  !
 ! R36   R(32,36)                1.5271         calculate D2E/DX2 analytically  !
 ! R37   R(32,39)                1.0952         calculate D2E/DX2 analytically  !
 ! R38   R(32,45)                1.42           calculate D2E/DX2 analytically  !
 ! R39   R(33,34)                1.5101         calculate D2E/DX2 analytically  !
 ! R40   R(33,38)                1.0969         calculate D2E/DX2 analytically  !
 ! R41   R(33,44)                1.4034         calculate D2E/DX2 analytically  !
 ! R42   R(34,37)                1.0787         calculate D2E/DX2 analytically  !
 ! R43   R(34,42)                1.3148         calculate D2E/DX2 analytically  !
 ! R44   R(34,53)                2.0339         calculate D2E/DX2 analytically  !
 ! R45   R(35,36)                1.5317         calculate D2E/DX2 analytically  !
 ! R46   R(35,40)                1.092          calculate D2E/DX2 analytically  !
 ! R47   R(35,42)                1.4633         calculate D2E/DX2 analytically  !
 ! R48   R(35,47)                1.5112         calculate D2E/DX2 analytically  !
 ! R49   R(36,41)                1.0952         calculate D2E/DX2 analytically  !
 ! R50   R(36,46)                1.4189         calculate D2E/DX2 analytically  !
 ! R51   R(43,51)                1.4769         calculate D2E/DX2 analytically  !
 ! R52   R(44,63)                1.4283         calculate D2E/DX2 analytically  !
 ! R53   R(45,67)                1.4259         calculate D2E/DX2 analytically  !
 ! R54   R(46,71)                1.4233         calculate D2E/DX2 analytically  !
 ! R55   R(47,48)                1.0964         calculate D2E/DX2 analytically  !
 ! R56   R(47,49)                1.098          calculate D2E/DX2 analytically  !
 ! R57   R(47,50)                1.4243         calculate D2E/DX2 analytically  !
 ! R58   R(50,75)                1.4258         calculate D2E/DX2 analytically  !
 ! R59   R(51,52)                1.4773         calculate D2E/DX2 analytically  !
 ! R60   R(51,53)                1.5276         calculate D2E/DX2 analytically  !
 ! R61   R(51,54)                1.7975         calculate D2E/DX2 analytically  !
 ! R62   R(54,55)                1.3872         calculate D2E/DX2 analytically  !
 ! R63   R(54,56)                1.3934         calculate D2E/DX2 analytically  !
 ! R64   R(55,57)                1.3949         calculate D2E/DX2 analytically  !
 ! R65   R(55,58)                1.0824         calculate D2E/DX2 analytically  !
 ! R66   R(56,59)                1.3939         calculate D2E/DX2 analytically  !
 ! R67   R(56,60)                1.0839         calculate D2E/DX2 analytically  !
 ! R68   R(57,61)                1.392          calculate D2E/DX2 analytically  !
 ! R69   R(57,93)                1.5012         calculate D2E/DX2 analytically  !
 ! R70   R(59,61)                1.3965         calculate D2E/DX2 analytically  !
 ! R71   R(59,97)                1.5022         calculate D2E/DX2 analytically  !
 ! R72   R(61,62)                1.0829         calculate D2E/DX2 analytically  !
 ! R73   R(63,64)                1.0932         calculate D2E/DX2 analytically  !
 ! R74   R(63,65)                1.0974         calculate D2E/DX2 analytically  !
 ! R75   R(63,66)                1.092          calculate D2E/DX2 analytically  !
 ! R76   R(67,68)                1.0972         calculate D2E/DX2 analytically  !
 ! R77   R(67,69)                1.0938         calculate D2E/DX2 analytically  !
 ! R78   R(67,70)                1.0928         calculate D2E/DX2 analytically  !
 ! R79   R(71,72)                1.0946         calculate D2E/DX2 analytically  !
 ! R80   R(71,73)                1.099          calculate D2E/DX2 analytically  !
 ! R81   R(71,74)                1.0924         calculate D2E/DX2 analytically  !
 ! R82   R(75,76)                1.0923         calculate D2E/DX2 analytically  !
 ! R83   R(75,77)                1.0976         calculate D2E/DX2 analytically  !
 ! R84   R(75,78)                1.0971         calculate D2E/DX2 analytically  !
 ! R85   R(79,80)                1.0921         calculate D2E/DX2 analytically  !
 ! R86   R(79,81)                1.0964         calculate D2E/DX2 analytically  !
 ! R87   R(79,82)                1.0991         calculate D2E/DX2 analytically  !
 ! R88   R(83,84)                2.299          calculate D2E/DX2 analytically  !
 ! R89   R(84,85)                1.4287         calculate D2E/DX2 analytically  !
 ! R90   R(84,89)                1.4205         calculate D2E/DX2 analytically  !
 ! R91   R(85,86)                1.0978         calculate D2E/DX2 analytically  !
 ! R92   R(85,87)                1.0918         calculate D2E/DX2 analytically  !
 ! R93   R(85,88)                1.0983         calculate D2E/DX2 analytically  !
 ! R94   R(89,90)                1.0984         calculate D2E/DX2 analytically  !
 ! R95   R(89,91)                1.0918         calculate D2E/DX2 analytically  !
 ! R96   R(89,92)                1.098          calculate D2E/DX2 analytically  !
 ! R97   R(93,94)                1.3502         calculate D2E/DX2 analytically  !
 ! R98   R(93,95)                1.3481         calculate D2E/DX2 analytically  !
 ! R99   R(93,96)                1.3598         calculate D2E/DX2 analytically  !
 ! R100  R(97,98)                1.3591         calculate D2E/DX2 analytically  !
 ! R101  R(97,99)                1.3499         calculate D2E/DX2 analytically  !
 ! R102  R(97,100)               1.3486         calculate D2E/DX2 analytically  !
 ! A1    A(2,1,5)              110.7968         calculate D2E/DX2 analytically  !
 ! A2    A(2,1,8)              108.9645         calculate D2E/DX2 analytically  !
 ! A3    A(2,1,14)             111.2569         calculate D2E/DX2 analytically  !
 ! A4    A(5,1,8)              109.0075         calculate D2E/DX2 analytically  !
 ! A5    A(5,1,14)             106.6517         calculate D2E/DX2 analytically  !
 ! A6    A(8,1,14)             110.1258         calculate D2E/DX2 analytically  !
 ! A7    A(1,2,3)              109.7826         calculate D2E/DX2 analytically  !
 ! A8    A(1,2,7)              108.7094         calculate D2E/DX2 analytically  !
 ! A9    A(1,2,13)             108.9383         calculate D2E/DX2 analytically  !
 ! A10   A(3,2,7)              107.1033         calculate D2E/DX2 analytically  !
 ! A11   A(3,2,13)             112.6911         calculate D2E/DX2 analytically  !
 ! A12   A(7,2,13)             109.5353         calculate D2E/DX2 analytically  !
 ! A13   A(2,3,6)              111.6499         calculate D2E/DX2 analytically  !
 ! A14   A(2,3,11)             109.1323         calculate D2E/DX2 analytically  !
 ! A15   A(2,3,12)             108.3204         calculate D2E/DX2 analytically  !
 ! A16   A(6,3,11)             103.9548         calculate D2E/DX2 analytically  !
 ! A17   A(6,3,12)             111.142          calculate D2E/DX2 analytically  !
 ! A18   A(11,3,12)            112.6317         calculate D2E/DX2 analytically  !
 ! A19   A(5,4,9)              108.558          calculate D2E/DX2 analytically  !
 ! A20   A(5,4,11)             111.2522         calculate D2E/DX2 analytically  !
 ! A21   A(5,4,16)             112.1006         calculate D2E/DX2 analytically  !
 ! A22   A(9,4,11)             108.834          calculate D2E/DX2 analytically  !
 ! A23   A(9,4,16)             109.9508         calculate D2E/DX2 analytically  !
 ! A24   A(11,4,16)            106.0904         calculate D2E/DX2 analytically  !
 ! A25   A(1,5,4)              114.566          calculate D2E/DX2 analytically  !
 ! A26   A(1,5,10)             107.3655         calculate D2E/DX2 analytically  !
 ! A27   A(1,5,15)             107.7407         calculate D2E/DX2 analytically  !
 ! A28   A(4,5,10)             107.9061         calculate D2E/DX2 analytically  !
 ! A29   A(4,5,15)             108.9152         calculate D2E/DX2 analytically  !
 ! A30   A(10,5,15)            110.3238         calculate D2E/DX2 analytically  !
 ! A31   A(3,11,4)             115.304          calculate D2E/DX2 analytically  !
 ! A32   A(3,11,37)            110.6182         calculate D2E/DX2 analytically  !
 ! A33   A(4,11,37)            102.9084         calculate D2E/DX2 analytically  !
 ! A34   A(3,12,79)            112.9337         calculate D2E/DX2 analytically  !
 ! A35   A(2,13,20)            113.4103         calculate D2E/DX2 analytically  !
 ! A36   A(1,14,24)            114.3699         calculate D2E/DX2 analytically  !
 ! A37   A(5,15,28)            115.2242         calculate D2E/DX2 analytically  !
 ! A38   A(4,16,17)            105.4961         calculate D2E/DX2 analytically  !
 ! A39   A(4,16,18)            105.2647         calculate D2E/DX2 analytically  !
 ! A40   A(4,16,19)            114.237          calculate D2E/DX2 analytically  !
 ! A41   A(17,16,18)           105.3041         calculate D2E/DX2 analytically  !
 ! A42   A(17,16,19)           112.7772         calculate D2E/DX2 analytically  !
 ! A43   A(18,16,19)           112.962          calculate D2E/DX2 analytically  !
 ! A44   A(16,19,83)           136.5871         calculate D2E/DX2 analytically  !
 ! A45   A(13,20,21)           112.2605         calculate D2E/DX2 analytically  !
 ! A46   A(13,20,22)           111.4397         calculate D2E/DX2 analytically  !
 ! A47   A(13,20,23)           106.6864         calculate D2E/DX2 analytically  !
 ! A48   A(21,20,22)           107.9464         calculate D2E/DX2 analytically  !
 ! A49   A(21,20,23)           108.9782         calculate D2E/DX2 analytically  !
 ! A50   A(22,20,23)           109.4864         calculate D2E/DX2 analytically  !
 ! A51   A(14,24,25)           111.05           calculate D2E/DX2 analytically  !
 ! A52   A(14,24,26)           111.6285         calculate D2E/DX2 analytically  !
 ! A53   A(14,24,27)           106.7264         calculate D2E/DX2 analytically  !
 ! A54   A(25,24,26)           109.0348         calculate D2E/DX2 analytically  !
 ! A55   A(25,24,27)           108.8225         calculate D2E/DX2 analytically  !
 ! A56   A(26,24,27)           109.5136         calculate D2E/DX2 analytically  !
 ! A57   A(15,28,29)           111.4533         calculate D2E/DX2 analytically  !
 ! A58   A(15,28,30)           112.0298         calculate D2E/DX2 analytically  !
 ! A59   A(15,28,31)           107.036          calculate D2E/DX2 analytically  !
 ! A60   A(29,28,30)           109.2379         calculate D2E/DX2 analytically  !
 ! A61   A(29,28,31)           108.6122         calculate D2E/DX2 analytically  !
 ! A62   A(30,28,31)           108.3478         calculate D2E/DX2 analytically  !
 ! A63   A(33,32,36)           110.0012         calculate D2E/DX2 analytically  !
 ! A64   A(33,32,39)           109.6993         calculate D2E/DX2 analytically  !
 ! A65   A(33,32,45)           110.2664         calculate D2E/DX2 analytically  !
 ! A66   A(36,32,39)           108.9313         calculate D2E/DX2 analytically  !
 ! A67   A(36,32,45)           107.3007         calculate D2E/DX2 analytically  !
 ! A68   A(39,32,45)           110.6016         calculate D2E/DX2 analytically  !
 ! A69   A(32,33,34)           113.3859         calculate D2E/DX2 analytically  !
 ! A70   A(32,33,38)           108.09           calculate D2E/DX2 analytically  !
 ! A71   A(32,33,44)           109.2562         calculate D2E/DX2 analytically  !
 ! A72   A(34,33,38)           102.6292         calculate D2E/DX2 analytically  !
 ! A73   A(34,33,44)           113.1398         calculate D2E/DX2 analytically  !
 ! A74   A(38,33,44)           110.0371         calculate D2E/DX2 analytically  !
 ! A75   A(33,34,37)           121.0234         calculate D2E/DX2 analytically  !
 ! A76   A(33,34,42)           120.2235         calculate D2E/DX2 analytically  !
 ! A77   A(33,34,53)            99.8596         calculate D2E/DX2 analytically  !
 ! A78   A(37,34,42)           115.8581         calculate D2E/DX2 analytically  !
 ! A79   A(37,34,53)            92.8636         calculate D2E/DX2 analytically  !
 ! A80   A(42,34,53)            94.0641         calculate D2E/DX2 analytically  !
 ! A81   A(36,35,40)           109.1075         calculate D2E/DX2 analytically  !
 ! A82   A(36,35,42)           112.2358         calculate D2E/DX2 analytically  !
 ! A83   A(36,35,47)           113.8377         calculate D2E/DX2 analytically  !
 ! A84   A(40,35,42)           105.9529         calculate D2E/DX2 analytically  !
 ! A85   A(40,35,47)           108.8725         calculate D2E/DX2 analytically  !
 ! A86   A(42,35,47)           106.4888         calculate D2E/DX2 analytically  !
 ! A87   A(32,36,35)           111.4546         calculate D2E/DX2 analytically  !
 ! A88   A(32,36,41)           108.611          calculate D2E/DX2 analytically  !
 ! A89   A(32,36,46)           110.8236         calculate D2E/DX2 analytically  !
 ! A90   A(35,36,41)           109.6714         calculate D2E/DX2 analytically  !
 ! A91   A(35,36,46)           105.395          calculate D2E/DX2 analytically  !
 ! A92   A(41,36,46)           110.8747         calculate D2E/DX2 analytically  !
 ! A93   A(34,42,35)           118.7201         calculate D2E/DX2 analytically  !
 ! A94   A(33,44,63)           114.9359         calculate D2E/DX2 analytically  !
 ! A95   A(32,45,67)           114.5406         calculate D2E/DX2 analytically  !
 ! A96   A(36,46,71)           114.2749         calculate D2E/DX2 analytically  !
 ! A97   A(35,47,48)           107.9873         calculate D2E/DX2 analytically  !
 ! A98   A(35,47,49)           109.8795         calculate D2E/DX2 analytically  !
 ! A99   A(35,47,50)           109.6613         calculate D2E/DX2 analytically  !
 ! A100  A(48,47,49)           108.9135         calculate D2E/DX2 analytically  !
 ! A101  A(48,47,50)           110.2226         calculate D2E/DX2 analytically  !
 ! A102  A(49,47,50)           110.142          calculate D2E/DX2 analytically  !
 ! A103  A(47,50,75)           112.382          calculate D2E/DX2 analytically  !
 ! A104  A(43,51,52)           116.5854         calculate D2E/DX2 analytically  !
 ! A105  A(43,51,53)           113.1096         calculate D2E/DX2 analytically  !
 ! A106  A(43,51,54)           106.4606         calculate D2E/DX2 analytically  !
 ! A107  A(52,51,53)           109.7834         calculate D2E/DX2 analytically  !
 ! A108  A(52,51,54)           106.3553         calculate D2E/DX2 analytically  !
 ! A109  A(53,51,54)           103.3952         calculate D2E/DX2 analytically  !
 ! A110  A(34,53,51)           128.726          calculate D2E/DX2 analytically  !
 ! A111  A(51,54,55)           119.4507         calculate D2E/DX2 analytically  !
 ! A112  A(51,54,56)           119.3646         calculate D2E/DX2 analytically  !
 ! A113  A(55,54,56)           121.0447         calculate D2E/DX2 analytically  !
 ! A114  A(54,55,57)           119.2492         calculate D2E/DX2 analytically  !
 ! A115  A(54,55,58)           119.405          calculate D2E/DX2 analytically  !
 ! A116  A(57,55,58)           121.3248         calculate D2E/DX2 analytically  !
 ! A117  A(54,56,59)           119.077          calculate D2E/DX2 analytically  !
 ! A118  A(54,56,60)           120.378          calculate D2E/DX2 analytically  !
 ! A119  A(59,56,60)           120.5419         calculate D2E/DX2 analytically  !
 ! A120  A(55,57,61)           120.7096         calculate D2E/DX2 analytically  !
 ! A121  A(55,57,93)           118.2702         calculate D2E/DX2 analytically  !
 ! A122  A(61,57,93)           120.8213         calculate D2E/DX2 analytically  !
 ! A123  A(56,59,61)           120.6782         calculate D2E/DX2 analytically  !
 ! A124  A(56,59,97)           119.7053         calculate D2E/DX2 analytically  !
 ! A125  A(61,59,97)           119.43           calculate D2E/DX2 analytically  !
 ! A126  A(57,61,59)           119.2321         calculate D2E/DX2 analytically  !
 ! A127  A(57,61,62)           120.402          calculate D2E/DX2 analytically  !
 ! A128  A(59,61,62)           120.3647         calculate D2E/DX2 analytically  !
 ! A129  A(44,63,64)           111.5803         calculate D2E/DX2 analytically  !
 ! A130  A(44,63,65)           110.6396         calculate D2E/DX2 analytically  !
 ! A131  A(44,63,66)           105.713          calculate D2E/DX2 analytically  !
 ! A132  A(64,63,65)           109.3289         calculate D2E/DX2 analytically  !
 ! A133  A(64,63,66)           110.0771         calculate D2E/DX2 analytically  !
 ! A134  A(65,63,66)           109.4384         calculate D2E/DX2 analytically  !
 ! A135  A(45,67,68)           110.7357         calculate D2E/DX2 analytically  !
 ! A136  A(45,67,69)           111.6234         calculate D2E/DX2 analytically  !
 ! A137  A(45,67,70)           106.3082         calculate D2E/DX2 analytically  !
 ! A138  A(68,67,69)           109.3802         calculate D2E/DX2 analytically  !
 ! A139  A(68,67,70)           109.0743         calculate D2E/DX2 analytically  !
 ! A140  A(69,67,70)           109.6482         calculate D2E/DX2 analytically  !
 ! A141  A(46,71,72)           111.143          calculate D2E/DX2 analytically  !
 ! A142  A(46,71,73)           111.0364         calculate D2E/DX2 analytically  !
 ! A143  A(46,71,74)           106.496          calculate D2E/DX2 analytically  !
 ! A144  A(72,71,73)           109.4114         calculate D2E/DX2 analytically  !
 ! A145  A(72,71,74)           109.6577         calculate D2E/DX2 analytically  !
 ! A146  A(73,71,74)           109.0332         calculate D2E/DX2 analytically  !
 ! A147  A(50,75,76)           107.0936         calculate D2E/DX2 analytically  !
 ! A148  A(50,75,77)           110.9861         calculate D2E/DX2 analytically  !
 ! A149  A(50,75,78)           110.5648         calculate D2E/DX2 analytically  !
 ! A150  A(76,75,77)           109.5447         calculate D2E/DX2 analytically  !
 ! A151  A(76,75,78)           109.393          calculate D2E/DX2 analytically  !
 ! A152  A(77,75,78)           109.2226         calculate D2E/DX2 analytically  !
 ! A153  A(12,79,80)           106.8438         calculate D2E/DX2 analytically  !
 ! A154  A(12,79,81)           111.4772         calculate D2E/DX2 analytically  !
 ! A155  A(12,79,82)           110.8712         calculate D2E/DX2 analytically  !
 ! A156  A(80,79,81)           109.4816         calculate D2E/DX2 analytically  !
 ! A157  A(80,79,82)           109.3827         calculate D2E/DX2 analytically  !
 ! A158  A(81,79,82)           108.7491         calculate D2E/DX2 analytically  !
 ! A159  A(19,83,84)            98.5116         calculate D2E/DX2 analytically  !
 ! A160  A(83,84,85)           116.1436         calculate D2E/DX2 analytically  !
 ! A161  A(83,84,89)           131.0349         calculate D2E/DX2 analytically  !
 ! A162  A(85,84,89)           112.8053         calculate D2E/DX2 analytically  !
 ! A163  A(84,85,86)           110.178          calculate D2E/DX2 analytically  !
 ! A164  A(84,85,87)           105.8981         calculate D2E/DX2 analytically  !
 ! A165  A(84,85,88)           110.631          calculate D2E/DX2 analytically  !
 ! A166  A(86,85,87)           109.9886         calculate D2E/DX2 analytically  !
 ! A167  A(86,85,88)           109.6208         calculate D2E/DX2 analytically  !
 ! A168  A(87,85,88)           110.471          calculate D2E/DX2 analytically  !
 ! A169  A(84,89,90)           110.8716         calculate D2E/DX2 analytically  !
 ! A170  A(84,89,91)           107.1594         calculate D2E/DX2 analytically  !
 ! A171  A(84,89,92)           110.858          calculate D2E/DX2 analytically  !
 ! A172  A(90,89,91)           109.6582         calculate D2E/DX2 analytically  !
 ! A173  A(90,89,92)           108.9187         calculate D2E/DX2 analytically  !
 ! A174  A(91,89,92)           109.3476         calculate D2E/DX2 analytically  !
 ! A175  A(57,93,94)           111.9349         calculate D2E/DX2 analytically  !
 ! A176  A(57,93,95)           112.6133         calculate D2E/DX2 analytically  !
 ! A177  A(57,93,96)           110.6955         calculate D2E/DX2 analytically  !
 ! A178  A(94,93,95)           107.7399         calculate D2E/DX2 analytically  !
 ! A179  A(94,93,96)           106.4751         calculate D2E/DX2 analytically  !
 ! A180  A(95,93,96)           107.0627         calculate D2E/DX2 analytically  !
 ! A181  A(59,97,98)           111.1433         calculate D2E/DX2 analytically  !
 ! A182  A(59,97,99)           112.0576         calculate D2E/DX2 analytically  !
 ! A183  A(59,97,100)          112.1594         calculate D2E/DX2 analytically  !
 ! A184  A(98,97,99)           106.6609         calculate D2E/DX2 analytically  !
 ! A185  A(98,97,100)          106.7382         calculate D2E/DX2 analytically  !
 ! A186  A(99,97,100)          107.7649         calculate D2E/DX2 analytically  !
 ! A187  L(11,37,34,10,-1)     175.0623         calculate D2E/DX2 analytically  !
 ! A188  L(11,37,34,10,-2)     192.0403         calculate D2E/DX2 analytically  !
 ! D1    D(5,1,2,3)            -52.3771         calculate D2E/DX2 analytically  !
 ! D2    D(5,1,2,7)             64.4812         calculate D2E/DX2 analytically  !
 ! D3    D(5,1,2,13)          -176.2142         calculate D2E/DX2 analytically  !
 ! D4    D(8,1,2,3)             67.5501         calculate D2E/DX2 analytically  !
 ! D5    D(8,1,2,7)           -175.5915         calculate D2E/DX2 analytically  !
 ! D6    D(8,1,2,13)           -56.287          calculate D2E/DX2 analytically  !
 ! D7    D(14,1,2,3)          -170.8441         calculate D2E/DX2 analytically  !
 ! D8    D(14,1,2,7)           -53.9857         calculate D2E/DX2 analytically  !
 ! D9    D(14,1,2,13)           65.3189         calculate D2E/DX2 analytically  !
 ! D10   D(2,1,5,4)             45.2011         calculate D2E/DX2 analytically  !
 ! D11   D(2,1,5,10)           -74.6106         calculate D2E/DX2 analytically  !
 ! D12   D(2,1,5,15)           166.5649         calculate D2E/DX2 analytically  !
 ! D13   D(8,1,5,4)            -74.7004         calculate D2E/DX2 analytically  !
 ! D14   D(8,1,5,10)           165.4879         calculate D2E/DX2 analytically  !
 ! D15   D(8,1,5,15)            46.6634         calculate D2E/DX2 analytically  !
 ! D16   D(14,1,5,4)           166.4255         calculate D2E/DX2 analytically  !
 ! D17   D(14,1,5,10)           46.6138         calculate D2E/DX2 analytically  !
 ! D18   D(14,1,5,15)          -72.2107         calculate D2E/DX2 analytically  !
 ! D19   D(2,1,14,24)          -96.0821         calculate D2E/DX2 analytically  !
 ! D20   D(5,1,14,24)          142.9869         calculate D2E/DX2 analytically  !
 ! D21   D(8,1,14,24)           24.8447         calculate D2E/DX2 analytically  !
 ! D22   D(1,2,3,6)            174.8597         calculate D2E/DX2 analytically  !
 ! D23   D(1,2,3,11)            60.5083         calculate D2E/DX2 analytically  !
 ! D24   D(1,2,3,12)           -62.4425         calculate D2E/DX2 analytically  !
 ! D25   D(7,2,3,6)             56.9984         calculate D2E/DX2 analytically  !
 ! D26   D(7,2,3,11)           -57.353          calculate D2E/DX2 analytically  !
 ! D27   D(7,2,3,12)           179.6962         calculate D2E/DX2 analytically  !
 ! D28   D(13,2,3,6)           -63.5237         calculate D2E/DX2 analytically  !
 ! D29   D(13,2,3,11)         -177.8751         calculate D2E/DX2 analytically  !
 ! D30   D(13,2,3,12)           59.1741         calculate D2E/DX2 analytically  !
 ! D31   D(1,2,13,20)         -162.1141         calculate D2E/DX2 analytically  !
 ! D32   D(3,2,13,20)           75.7919         calculate D2E/DX2 analytically  !
 ! D33   D(7,2,13,20)          -43.3252         calculate D2E/DX2 analytically  !
 ! D34   D(2,3,11,4)           -62.6379         calculate D2E/DX2 analytically  !
 ! D35   D(2,3,11,37)           53.5868         calculate D2E/DX2 analytically  !
 ! D36   D(6,3,11,4)           178.1145         calculate D2E/DX2 analytically  !
 ! D37   D(6,3,11,37)          -65.6608         calculate D2E/DX2 analytically  !
 ! D38   D(12,3,11,4)           57.6999         calculate D2E/DX2 analytically  !
 ! D39   D(12,3,11,37)         173.9245         calculate D2E/DX2 analytically  !
 ! D40   D(2,3,12,79)         -172.101          calculate D2E/DX2 analytically  !
 ! D41   D(6,3,12,79)          -49.0951         calculate D2E/DX2 analytically  !
 ! D42   D(11,3,12,79)          67.0953         calculate D2E/DX2 analytically  !
 ! D43   D(9,4,5,1)             75.705          calculate D2E/DX2 analytically  !
 ! D44   D(9,4,5,10)          -164.7851         calculate D2E/DX2 analytically  !
 ! D45   D(9,4,5,15)           -45.0123         calculate D2E/DX2 analytically  !
 ! D46   D(11,4,5,1)           -44.0275         calculate D2E/DX2 analytically  !
 ! D47   D(11,4,5,10)           75.4824         calculate D2E/DX2 analytically  !
 ! D48   D(11,4,5,15)         -164.7448         calculate D2E/DX2 analytically  !
 ! D49   D(16,4,5,1)          -162.6403         calculate D2E/DX2 analytically  !
 ! D50   D(16,4,5,10)          -43.1304         calculate D2E/DX2 analytically  !
 ! D51   D(16,4,5,15)           76.6424         calculate D2E/DX2 analytically  !
 ! D52   D(5,4,11,3)            53.7586         calculate D2E/DX2 analytically  !
 ! D53   D(5,4,11,37)          -66.7698         calculate D2E/DX2 analytically  !
 ! D54   D(9,4,11,3)           -65.8098         calculate D2E/DX2 analytically  !
 ! D55   D(9,4,11,37)          173.6617         calculate D2E/DX2 analytically  !
 ! D56   D(16,4,11,3)          175.9217         calculate D2E/DX2 analytically  !
 ! D57   D(16,4,11,37)          55.3933         calculate D2E/DX2 analytically  !
 ! D58   D(5,4,16,17)          -73.1212         calculate D2E/DX2 analytically  !
 ! D59   D(5,4,16,18)          175.8044         calculate D2E/DX2 analytically  !
 ! D60   D(5,4,16,19)           51.3092         calculate D2E/DX2 analytically  !
 ! D61   D(9,4,16,17)           47.7318         calculate D2E/DX2 analytically  !
 ! D62   D(9,4,16,18)          -63.3426         calculate D2E/DX2 analytically  !
 ! D63   D(9,4,16,19)          172.1621         calculate D2E/DX2 analytically  !
 ! D64   D(11,4,16,17)         165.2576         calculate D2E/DX2 analytically  !
 ! D65   D(11,4,16,18)          54.1832         calculate D2E/DX2 analytically  !
 ! D66   D(11,4,16,19)         -70.312          calculate D2E/DX2 analytically  !
 ! D67   D(1,5,15,28)          128.5176         calculate D2E/DX2 analytically  !
 ! D68   D(4,5,15,28)         -106.6593         calculate D2E/DX2 analytically  !
 ! D69   D(10,5,15,28)          11.6027         calculate D2E/DX2 analytically  !
 ! D70   D(3,11,34,33)         133.7822         calculate D2E/DX2 analytically  !
 ! D71   D(3,11,34,42)         -73.6803         calculate D2E/DX2 analytically  !
 ! D72   D(3,11,34,53)          26.3447         calculate D2E/DX2 analytically  !
 ! D73   D(4,11,34,33)        -102.5728         calculate D2E/DX2 analytically  !
 ! D74   D(4,11,34,42)          49.9647         calculate D2E/DX2 analytically  !
 ! D75   D(4,11,34,53)         149.9897         calculate D2E/DX2 analytically  !
 ! D76   D(3,12,79,80)         176.4413         calculate D2E/DX2 analytically  !
 ! D77   D(3,12,79,81)         -63.983          calculate D2E/DX2 analytically  !
 ! D78   D(3,12,79,82)          57.328          calculate D2E/DX2 analytically  !
 ! D79   D(2,13,20,21)         -67.1719         calculate D2E/DX2 analytically  !
 ! D80   D(2,13,20,22)          54.0553         calculate D2E/DX2 analytically  !
 ! D81   D(2,13,20,23)         173.5176         calculate D2E/DX2 analytically  !
 ! D82   D(1,14,24,25)         -59.7377         calculate D2E/DX2 analytically  !
 ! D83   D(1,14,24,26)          62.1686         calculate D2E/DX2 analytically  !
 ! D84   D(1,14,24,27)        -178.2038         calculate D2E/DX2 analytically  !
 ! D85   D(5,15,28,29)         -54.8388         calculate D2E/DX2 analytically  !
 ! D86   D(5,15,28,30)          67.9068         calculate D2E/DX2 analytically  !
 ! D87   D(5,15,28,31)        -173.4634         calculate D2E/DX2 analytically  !
 ! D88   D(4,16,19,83)         -89.2478         calculate D2E/DX2 analytically  !
 ! D89   D(17,16,19,83)         31.2039         calculate D2E/DX2 analytically  !
 ! D90   D(18,16,19,83)        150.4661         calculate D2E/DX2 analytically  !
 ! D91   D(16,19,83,84)       -122.9834         calculate D2E/DX2 analytically  !
 ! D92   D(36,32,33,34)        -43.9489         calculate D2E/DX2 analytically  !
 ! D93   D(36,32,33,38)         69.1213         calculate D2E/DX2 analytically  !
 ! D94   D(36,32,33,44)       -171.1483         calculate D2E/DX2 analytically  !
 ! D95   D(39,32,33,34)         75.8557         calculate D2E/DX2 analytically  !
 ! D96   D(39,32,33,38)       -171.0741         calculate D2E/DX2 analytically  !
 ! D97   D(39,32,33,44)        -51.3436         calculate D2E/DX2 analytically  !
 ! D98   D(45,32,33,34)       -162.0977         calculate D2E/DX2 analytically  !
 ! D99   D(45,32,33,38)        -49.0275         calculate D2E/DX2 analytically  !
 ! D100  D(45,32,33,44)         70.7029         calculate D2E/DX2 analytically  !
 ! D101  D(33,32,36,35)         52.3873         calculate D2E/DX2 analytically  !
 ! D102  D(33,32,36,41)        -68.5424         calculate D2E/DX2 analytically  !
 ! D103  D(33,32,36,46)        169.429          calculate D2E/DX2 analytically  !
 ! D104  D(39,32,36,35)        -67.8829         calculate D2E/DX2 analytically  !
 ! D105  D(39,32,36,41)        171.1874         calculate D2E/DX2 analytically  !
 ! D106  D(39,32,36,46)         49.1588         calculate D2E/DX2 analytically  !
 ! D107  D(45,32,36,35)        172.3517         calculate D2E/DX2 analytically  !
 ! D108  D(45,32,36,41)         51.422          calculate D2E/DX2 analytically  !
 ! D109  D(45,32,36,46)        -70.6065         calculate D2E/DX2 analytically  !
 ! D110  D(33,32,45,67)        -94.8984         calculate D2E/DX2 analytically  !
 ! D111  D(36,32,45,67)        145.3064         calculate D2E/DX2 analytically  !
 ! D112  D(39,32,45,67)         26.6138         calculate D2E/DX2 analytically  !
 ! D113  D(32,33,34,37)       -162.5207         calculate D2E/DX2 analytically  !
 ! D114  D(32,33,34,42)         37.533          calculate D2E/DX2 analytically  !
 ! D115  D(32,33,34,53)        -63.099          calculate D2E/DX2 analytically  !
 ! D116  D(38,33,34,37)         81.1465         calculate D2E/DX2 analytically  !
 ! D117  D(38,33,34,42)        -78.7998         calculate D2E/DX2 analytically  !
 ! D118  D(38,33,34,53)       -179.4318         calculate D2E/DX2 analytically  !
 ! D119  D(44,33,34,37)        -37.3822         calculate D2E/DX2 analytically  !
 ! D120  D(44,33,34,42)        162.6715         calculate D2E/DX2 analytically  !
 ! D121  D(44,33,34,53)         62.0395         calculate D2E/DX2 analytically  !
 ! D122  D(32,33,44,63)       -158.0132         calculate D2E/DX2 analytically  !
 ! D123  D(34,33,44,63)         74.6485         calculate D2E/DX2 analytically  !
 ! D124  D(38,33,44,63)        -39.4903         calculate D2E/DX2 analytically  !
 ! D125  D(33,34,42,35)        -37.5118         calculate D2E/DX2 analytically  !
 ! D126  D(37,34,42,35)        161.5475         calculate D2E/DX2 analytically  !
 ! D127  D(53,34,42,35)         66.3785         calculate D2E/DX2 analytically  !
 ! D128  D(33,34,53,51)        -77.5723         calculate D2E/DX2 analytically  !
 ! D129  D(37,34,53,51)         44.5996         calculate D2E/DX2 analytically  !
 ! D130  D(42,34,53,51)        160.7893         calculate D2E/DX2 analytically  !
 ! D131  D(40,35,36,32)         65.5175         calculate D2E/DX2 analytically  !
 ! D132  D(40,35,36,41)       -174.1746         calculate D2E/DX2 analytically  !
 ! D133  D(40,35,36,46)        -54.773          calculate D2E/DX2 analytically  !
 ! D134  D(42,35,36,32)        -51.6033         calculate D2E/DX2 analytically  !
 ! D135  D(42,35,36,41)         68.7046         calculate D2E/DX2 analytically  !
 ! D136  D(42,35,36,46)       -171.8938         calculate D2E/DX2 analytically  !
 ! D137  D(47,35,36,32)       -172.6582         calculate D2E/DX2 analytically  !
 ! D138  D(47,35,36,41)        -52.3504         calculate D2E/DX2 analytically  !
 ! D139  D(47,35,36,46)         67.0512         calculate D2E/DX2 analytically  !
 ! D140  D(36,35,42,34)         44.0465         calculate D2E/DX2 analytically  !
 ! D141  D(40,35,42,34)        -74.9443         calculate D2E/DX2 analytically  !
 ! D142  D(47,35,42,34)        169.241          calculate D2E/DX2 analytically  !
 ! D143  D(36,35,47,48)        -61.6147         calculate D2E/DX2 analytically  !
 ! D144  D(36,35,47,49)        179.7137         calculate D2E/DX2 analytically  !
 ! D145  D(36,35,47,50)         58.5134         calculate D2E/DX2 analytically  !
 ! D146  D(40,35,47,48)         60.3395         calculate D2E/DX2 analytically  !
 ! D147  D(40,35,47,49)        -58.3321         calculate D2E/DX2 analytically  !
 ! D148  D(40,35,47,50)       -179.5324         calculate D2E/DX2 analytically  !
 ! D149  D(42,35,47,48)        174.1745         calculate D2E/DX2 analytically  !
 ! D150  D(42,35,47,49)         55.5028         calculate D2E/DX2 analytically  !
 ! D151  D(42,35,47,50)        -65.6974         calculate D2E/DX2 analytically  !
 ! D152  D(32,36,46,71)        100.9595         calculate D2E/DX2 analytically  !
 ! D153  D(35,36,46,71)       -138.3357         calculate D2E/DX2 analytically  !
 ! D154  D(41,36,46,71)        -19.7359         calculate D2E/DX2 analytically  !
 ! D155  D(33,44,63,64)        -71.8426         calculate D2E/DX2 analytically  !
 ! D156  D(33,44,63,65)         50.118          calculate D2E/DX2 analytically  !
 ! D157  D(33,44,63,66)        168.5028         calculate D2E/DX2 analytically  !
 ! D158  D(32,45,67,68)        -59.5045         calculate D2E/DX2 analytically  !
 ! D159  D(32,45,67,69)         62.6192         calculate D2E/DX2 analytically  !
 ! D160  D(32,45,67,70)       -177.8535         calculate D2E/DX2 analytically  !
 ! D161  D(36,46,71,72)        -59.3021         calculate D2E/DX2 analytically  !
 ! D162  D(36,46,71,73)         62.7381         calculate D2E/DX2 analytically  !
 ! D163  D(36,46,71,74)       -178.6879         calculate D2E/DX2 analytically  !
 ! D164  D(35,47,50,75)       -174.2908         calculate D2E/DX2 analytically  !
 ! D165  D(48,47,50,75)        -55.5346         calculate D2E/DX2 analytically  !
 ! D166  D(49,47,50,75)         64.6673         calculate D2E/DX2 analytically  !
 ! D167  D(47,50,75,76)        179.7523         calculate D2E/DX2 analytically  !
 ! D168  D(47,50,75,77)        -60.7211         calculate D2E/DX2 analytically  !
 ! D169  D(47,50,75,78)         60.6476         calculate D2E/DX2 analytically  !
 ! D170  D(43,51,53,34)        -21.0451         calculate D2E/DX2 analytically  !
 ! D171  D(52,51,53,34)       -153.1577         calculate D2E/DX2 analytically  !
 ! D172  D(54,51,53,34)         93.6834         calculate D2E/DX2 analytically  !
 ! D173  D(43,51,54,55)          5.0143         calculate D2E/DX2 analytically  !
 ! D174  D(43,51,54,56)       -179.2413         calculate D2E/DX2 analytically  !
 ! D175  D(52,51,54,55)        129.9773         calculate D2E/DX2 analytically  !
 ! D176  D(52,51,54,56)        -54.2783         calculate D2E/DX2 analytically  !
 ! D177  D(53,51,54,55)       -114.3969         calculate D2E/DX2 analytically  !
 ! D178  D(53,51,54,56)         61.3475         calculate D2E/DX2 analytically  !
 ! D179  D(51,54,55,57)        174.5593         calculate D2E/DX2 analytically  !
 ! D180  D(51,54,55,58)         -3.7963         calculate D2E/DX2 analytically  !
 ! D181  D(56,54,55,57)         -1.1117         calculate D2E/DX2 analytically  !
 ! D182  D(56,54,55,58)       -179.4672         calculate D2E/DX2 analytically  !
 ! D183  D(51,54,56,59)       -175.0419         calculate D2E/DX2 analytically  !
 ! D184  D(51,54,56,60)          4.3128         calculate D2E/DX2 analytically  !
 ! D185  D(55,54,56,59)          0.6327         calculate D2E/DX2 analytically  !
 ! D186  D(55,54,56,60)        179.9874         calculate D2E/DX2 analytically  !
 ! D187  D(54,55,57,61)          0.7274         calculate D2E/DX2 analytically  !
 ! D188  D(54,55,57,93)       -174.1895         calculate D2E/DX2 analytically  !
 ! D189  D(58,55,57,61)        179.0504         calculate D2E/DX2 analytically  !
 ! D190  D(58,55,57,93)          4.1335         calculate D2E/DX2 analytically  !
 ! D191  D(54,56,59,61)          0.2397         calculate D2E/DX2 analytically  !
 ! D192  D(54,56,59,97)        175.249          calculate D2E/DX2 analytically  !
 ! D193  D(60,56,59,61)       -179.114          calculate D2E/DX2 analytically  !
 ! D194  D(60,56,59,97)         -4.1046         calculate D2E/DX2 analytically  !
 ! D195  D(55,57,61,59)          0.1232         calculate D2E/DX2 analytically  !
 ! D196  D(55,57,61,62)       -179.4868         calculate D2E/DX2 analytically  !
 ! D197  D(93,57,61,59)        174.9098         calculate D2E/DX2 analytically  !
 ! D198  D(93,57,61,62)         -4.7002         calculate D2E/DX2 analytically  !
 ! D199  D(55,57,93,94)        -47.3518         calculate D2E/DX2 analytically  !
 ! D200  D(55,57,93,95)       -168.9239         calculate D2E/DX2 analytically  !
 ! D201  D(55,57,93,96)         71.2653         calculate D2E/DX2 analytically  !
 ! D202  D(61,57,93,94)        137.7372         calculate D2E/DX2 analytically  !
 ! D203  D(61,57,93,95)         16.1651         calculate D2E/DX2 analytically  !
 ! D204  D(61,57,93,96)       -103.6457         calculate D2E/DX2 analytically  !
 ! D205  D(56,59,61,57)         -0.611          calculate D2E/DX2 analytically  !
 ! D206  D(56,59,61,62)        178.9992         calculate D2E/DX2 analytically  !
 ! D207  D(97,59,61,57)       -175.634          calculate D2E/DX2 analytically  !
 ! D208  D(97,59,61,62)          3.9762         calculate D2E/DX2 analytically  !
 ! D209  D(56,59,97,98)        -88.9666         calculate D2E/DX2 analytically  !
 ! D210  D(56,59,97,99)        151.7991         calculate D2E/DX2 analytically  !
 ! D211  D(56,59,97,100)        30.4343         calculate D2E/DX2 analytically  !
 ! D212  D(61,59,97,98)         86.1054         calculate D2E/DX2 analytically  !
 ! D213  D(61,59,97,99)        -33.1289         calculate D2E/DX2 analytically  !
 ! D214  D(61,59,97,100)      -154.4937         calculate D2E/DX2 analytically  !
 ! D215  D(19,83,84,85)          9.4721         calculate D2E/DX2 analytically  !
 ! D216  D(19,83,84,89)       -168.9408         calculate D2E/DX2 analytically  !
 ! D217  D(83,84,85,86)       -115.0912         calculate D2E/DX2 analytically  !
 ! D218  D(83,84,85,87)          3.8125         calculate D2E/DX2 analytically  !
 ! D219  D(83,84,85,88)        123.5347         calculate D2E/DX2 analytically  !
 ! D220  D(89,84,85,86)         63.6102         calculate D2E/DX2 analytically  !
 ! D221  D(89,84,85,87)       -177.4862         calculate D2E/DX2 analytically  !
 ! D222  D(89,84,85,88)        -57.764          calculate D2E/DX2 analytically  !
 ! D223  D(83,84,89,90)       -118.0292         calculate D2E/DX2 analytically  !
 ! D224  D(83,84,89,91)          1.6103         calculate D2E/DX2 analytically  !
 ! D225  D(83,84,89,92)        120.8655         calculate D2E/DX2 analytically  !
 ! D226  D(85,84,89,90)         63.5164         calculate D2E/DX2 analytically  !
 ! D227  D(85,84,89,91)       -176.8442         calculate D2E/DX2 analytically  !
 ! D228  D(85,84,89,92)        -57.589          calculate D2E/DX2 analytically  !
 --------------------------------------------------------------------------------
 Trust Radius=3.00D-02 FncErr=1.00D-07 GrdErr=1.00D-06 EigMax=2.50D+02 EigMin=1.00D-04
 Number of steps in this run=    528 maximum allowed number of steps=    600.
 Search for a saddle point of order  1.
 Step   0 in ReCalcFC=30 IGetFC= 4 compute analytic Hessian.
 GradGradGradGradGradGradGradGradGradGradGradGradGradGradGradGradGradGrad

 Leave Link  103 at Thu May  9 08:24:02 2019, MaxMem=  6442450944 cpu:               4.4 elap:               0.2
 (Enter /home/ekwan/sw/g16/l202.exe)
 Stoichiometry    C30H47F6NaO15S
 Framework group  C1[X(C30H47F6NaO15S)]
 Deg. of freedom   294
 Full point group                 C1      NOp   1
 Largest Abelian subgroup         C1      NOp   1
 Largest concise Abelian subgroup C1      NOp   1
                         Standard orientation:                         
 ---------------------------------------------------------------------
 Center     Atomic      Atomic             Coordinates (Angstroms)
 Number     Number       Type             X           Y           Z
 ---------------------------------------------------------------------
      1          6           0        4.636919   -1.620262   -0.703459
      2          6           0        3.348534   -2.388458   -0.993238
      3          6           0        2.793032   -2.979840    0.308018
      4          6           0        3.650674   -1.144260    1.627361
      5          6           0        4.422409   -0.604724    0.416645
      6          1           0        1.823733   -3.459770    0.151283
      7          1           0        2.595005   -1.682730   -1.375768
      8          1           0        5.414516   -2.330898   -0.397337
      9          1           0        4.323602   -1.782611    2.214412
     10          1           0        3.849716    0.229259   -0.003420
     11          8           0        2.510155   -1.925204    1.214762
     12          8           0        3.732622   -3.890499    0.815080
     13          8           0        3.612900   -3.376439   -1.973373
     14          8           0        5.067655   -0.883697   -1.845802
     15          8           0        5.708120   -0.155747    0.849430
     16          6           0        3.094791   -0.010929    2.513067
     17          1           0        3.977156    0.413660    3.041032
     18          1           0        2.499092   -0.520456    3.300470
     19          8           0        2.376045    0.940091    1.827801
     20          6           0        2.440387   -3.871166   -2.607373
     21          1           0        1.805092   -4.442624   -1.918813
     22          1           0        1.836336   -3.055466   -3.027108
     23          1           0        2.773526   -4.529905   -3.413085
     24          6           0        6.043525   -1.545983   -2.636023
     25          1           0        6.948588   -1.760679   -2.048366
     26          1           0        5.657821   -2.482287   -3.052716
     27          1           0        6.304942   -0.864082   -3.450180
     28          6           0        5.872794    1.246312    0.893044
     29          1           0        5.634850    1.709742   -0.075976
     30          1           0        5.256328    1.710150    1.677957
     31          1           0        6.924608    1.438386    1.122918
     32          6           0       -1.318239    1.752280    0.186085
     33          6           0       -0.386230    0.793608    0.928351
     34          6           0        0.764604    0.301934    0.083219
     35          6           0        0.529307    2.070368   -1.509375
     36          6           0       -0.498922    2.764729   -0.611154
     37          1           0        1.329205   -0.572176    0.367235
     38          1           0        0.121618    1.357327    1.720461
     39          1           0       -1.954742    1.188163   -0.503866
     40          1           0        0.004475    1.491358   -2.272163
     41          1           0        0.014660    3.429615    0.091499
     42          8           0        1.351399    1.111021   -0.770999
     43          8           0       -0.354082   -2.927665   -0.199560
     44          8           0       -1.143228   -0.247028    1.488409
     45          8           0       -2.109369    2.483811    1.110902
     46          8           0       -1.329859    3.504457   -1.491854
     47          6           0        1.486675    3.021189   -2.189995
     48          1           0        0.901273    3.687078   -2.834950
     49          1           0        2.195185    2.456951   -2.810631
     50          8           0        2.188890    3.778168   -1.208848
     51         16           0       -0.912965   -2.084749   -1.275842
     52          8           0       -0.972389   -2.686669   -2.623593
     53          8           0       -0.263918   -0.704110   -1.354344
     54          6           0       -2.610137   -1.721077   -0.808641
     55          6           0       -3.082458   -2.140703    0.426367
     56          6           0       -3.400634   -0.945962   -1.654763
     57          6           0       -4.361003   -1.758769    0.832722
     58          1           0       -2.442640   -2.734674    1.066165
     59          6           0       -4.680072   -0.580178   -1.239906
     60          1           0       -3.020596   -0.623827   -2.617417
     61          6           0       -5.165654   -0.978221    0.007532
     62          1           0       -6.154297   -0.677631    0.331449
     63          6           0       -0.522824   -0.920520    2.584510
     64          1           0        0.310011   -1.546168    2.252645
     65          1           0       -0.161097   -0.198405    3.327529
     66          1           0       -1.303168   -1.540771    3.030443
     67          6           0       -3.395470    1.922473    1.364056
     68          1           0       -3.979452    1.855875    0.437614
     69          1           0       -3.319909    0.930018    1.817614
     70          1           0       -3.897588    2.604740    2.054458
     71          6           0       -1.665890    4.806064   -1.024263
     72          1           0       -2.191358    4.757619   -0.065218
     73          1           0       -0.768143    5.430916   -0.917699
     74          1           0       -2.319811    5.247821   -1.779693
     75          6           0        3.014292    4.785783   -1.788826
     76          1           0        3.504475    5.311820   -0.966595
     77          1           0        3.773681    4.342026   -2.445431
     78          1           0        2.408281    5.495562   -2.365577
     79          6           0        3.242809   -4.631246    1.926691
     80          1           0        4.021785   -5.346881    2.198070
     81          1           0        3.031535   -3.978813    2.782166
     82          1           0        2.324855   -5.174404    1.661450
     83         11           0        2.800803    2.792160    0.812247
     84          8           0        1.384303    4.162176    1.996381
     85          6           0        0.782038    3.590857    3.159187
     86          1           0       -0.305311    3.519689    3.026286
     87          1           0        1.212026    2.592218    3.258712
     88          1           0        1.006125    4.195856    4.047966
     89          6           0        0.965915    5.498923    1.759962
     90          1           0        1.281594    6.158549    2.579583
     91          1           0        1.432797    5.822445    0.827536
     92          1           0       -0.125967    5.554679    1.658532
     93          6           0       -4.799917   -2.111827    2.224227
     94          9           0       -4.534835   -3.401190    2.524834
     95          9           0       -6.118013   -1.907093    2.419649
     96          9           0       -4.138570   -1.357910    3.142563
     97          6           0       -5.503510    0.342822   -2.092243
     98          9           0       -5.271102    1.643233   -1.772556
     99          9           0       -6.827629    0.135347   -1.931135
    100          9           0       -5.222764    0.209313   -3.404531
 ---------------------------------------------------------------------
 Rotational constants (GHZ):           0.0656485           0.0399229           0.0331106
 Leave Link  202 at Thu May  9 08:24:03 2019, MaxMem=  6442450944 cpu:               4.6 elap:               0.2
 (Enter /home/ekwan/sw/g16/l301.exe)
 Standard basis: 6-31G(d) (6D, 7F)
 Ernie: Thresh=  0.10000D-02 Tol=  0.10000D-05 Strict=F.
 There are   897 symmetry adapted cartesian basis functions of A   symmetry.
 There are   897 symmetry adapted basis functions of A   symmetry.
   897 basis functions,  1720 primitive gaussians,   897 cartesian basis functions
   214 alpha electrons      214 beta electrons
       nuclear repulsion energy      9682.1990499863 Hartrees.
 IExCor=  402 DFT=T Ex+Corr=B3LYP ExCW=0 ScaHFX=  0.200000
 ScaDFX=  0.800000  0.720000  1.000000  0.810000 ScalE2=  1.000000  1.000000
 IRadAn=      5 IRanWt=     -1 IRanGd=            0 ICorTp=0 IEmpDi=141
 NAtoms=  100 NActive=  100 NUniq=  100 SFac= 1.00D+00 NAtFMM=   60 NAOKFM=T Big=T
 Integral buffers will be    131072 words long.
 Raffenetti 2 integral format.
 Two-electron integral symmetry is turned on.
 R6Disp:  Grimme-D3(BJ) Dispersion energy=       -0.2388118915 Hartrees.
 Nuclear repulsion after empirical dispersion term =     9681.9602380947 Hartrees.
 Force inversion solution in PCM.
 ------------------------------------------------------------------------------
 Polarizable Continuum Model (PCM)
 =================================
 Model                : PCM.
 Atomic radii         : UFF (Universal Force Field).
 Polarization charges : Total charges.
 Charge compensation  : None.
 Solution method      : Matrix inversion.
 Cavity type          : Scaled VdW (van der Waals Surface) (Alpha=1.100).
 Cavity algorithm     : GePol (No added spheres)
                        Default sphere list used, NSphG=  100.
                        Lebedev-Laikov grids with approx.  5.0 points / Ang**2.
                        Smoothing algorithm: York/Karplus (Gamma=1.0000).
                        Polarization charges: spherical gaussians, with
                                              point-specific exponents (IZeta= 3).
                        Self-potential: point-specific (ISelfS= 7).
                        Self-field    : sphere-specific E.n sum rule (ISelfD= 2).
 1st derivatives      : Analytical E(r).r(x)/FMM algorithm (CHGder, D1EAlg=3).
                        Cavity 1st derivative terms included.
 2nd derivatives      : Analytical E(r).r(xy)/FMM algorithm (CHGder, D2EAlg=3).
                        Cavity 2nd derivative terms included.
 Solvent              : TetraHydroFuran, Eps=   7.425700 Eps(inf)=   1.974025
 ------------------------------------------------------------------------------
 GePol: Number of generator spheres                  =     100
 GePol: Total number of spheres                      =     100
 GePol: Number of exposed spheres                    =      99 ( 99.00%)
 GePol: Number of points                             =    6061
 GePol: Average weight of points                     =       0.12
 GePol: Minimum weight of points                     =   0.33D-10
 GePol: Maximum weight of points                     =    0.21593
 GePol: Number of points with low weight             =     469
 GePol: Fraction of low-weight points (<1% of avg)   =       7.74%
 GePol: Cavity surface area                          =    745.773 Ang**2
 GePol: Cavity volume                                =    969.838 Ang**3
 Leave Link  301 at Thu May  9 08:24:03 2019, MaxMem=  6442450944 cpu:               7.5 elap:               0.3
 (Enter /home/ekwan/sw/g16/l302.exe)
 NPDir=0 NMtPBC=     1 NCelOv=     1 NCel=       1 NClECP=     1 NCelD=      1
         NCelK=      1 NCelE2=     1 NClLst=     1 CellRange=     0.0.
 One-electron integrals computed using PRISM.
 One-electron integral symmetry used in STVInt
 NBasis=   897 RedAO= T EigKep=  4.06D-04  NBF=   897
 NBsUse=   897 1.00D-06 EigRej= -1.00D+00 NBFU=   897
 Precomputing XC quadrature grid using
 IXCGrd= 4 IRadAn=           5 IRanWt=          -1 IRanGd=           0 AccXCQ= 0.00D+00.
 Generated NRdTot=       0 NPtTot=           0 NUsed=           0 NTot=          32
 NSgBfM=   838   827   828   828   838 MxSgAt=   100 MxSgA2=   100.
 Leave Link  302 at Thu May  9 08:24:21 2019, MaxMem=  6442450944 cpu:             513.7 elap:              17.8
 (Enter /home/ekwan/sw/g16/l303.exe)
 DipDrv:  MaxL=1.
 Leave Link  303 at Thu May  9 08:24:21 2019, MaxMem=  6442450944 cpu:              16.2 elap:               0.6
 (Enter /home/ekwan/sw/g16/l401.exe)
 ExpMin= 2.60D-02 ExpMax= 2.19D+04 ExpMxC= 3.30D+03 IAcc=3 IRadAn=         5 AccDes= 0.00D+00
 Harris functional with IExCor=  402 and IRadAn=       5 diagonalized for initial guess.
 HarFok:  IExCor=  402 AccDes= 0.00D+00 IRadAn=         5 IDoV= 1 UseB2=F ITyADJ=14
 ICtDFT=  3500011 ScaDFX=  1.000000  1.000000  1.000000  1.000000
 FoFCou: FMM=F IPFlag=           0 FMFlag=      100000 FMFlg1=        2001
         NFxFlg=           0 DoJE=T BraDBF=F KetDBF=T FulRan=T
         wScrn=  0.000000 ICntrl=       500 IOpCl=  0 I1Cent=   200000004 NGrid=           0
         NMat0=    1 NMatS0=      1 NMatT0=    0 NMatD0=    1 NMtDS0=    0 NMtDT0=    0
 Petite list used in FoFCou.
 Harris En= -3459.37027572095    
 JPrj=0 DoOrth=F DoCkMO=F.
 Leave Link  401 at Thu May  9 08:24:42 2019, MaxMem=  6442450944 cpu:             589.3 elap:              20.4
 (Enter /home/ekwan/sw/g16/l502.exe)
 Integral symmetry usage will be decided dynamically.
 Closed shell SCF:
 Using DIIS extrapolation, IDIIS=  1040.
 NGot=  6442450944 LenX=  6440803163 LenY=  6439997657
 Requested convergence on RMS density matrix=1.00D-08 within 128 cycles.
 Requested convergence on MAX density matrix=1.00D-06.
 Requested convergence on             energy=1.00D-06.
 No special actions if energy rises.
 Fock matrices will be formed incrementally for  20 cycles.

 Cycle   1  Pass 1  IDiag  1:
 FoFJK:  IHMeth= 1 ICntrl=       0 DoSepK=F KAlg= 0 I1Cent=           0 FoldK=F
 IRaf= 870000000 NMat=       1 IRICut=       1 DoRegI=T DoRafI=F ISym2E= 0 IDoP0=0 IntGTp=1.
 FoFCou: FMM=T IPFlag=           0 FMFlag=      100000 FMFlg1=        2001
         NFxFlg=           0 DoJE=F BraDBF=F KetDBF=F FulRan=T
         wScrn=  0.000000 ICntrl=         0 IOpCl=  0 I1Cent=           0 NGrid=           0
         NMat0=    1 NMatS0=      1 NMatT0=    0 NMatD0=    1 NMtDS0=    0 NMtDT0=    0
 Symmetry not used in FoFCou.
 FMM levels:  10  Number of levels for PrismC:   9
 Inv3:  Mode=1 IEnd=   110207163.
 Iteration    1 A*A^-1 deviation from unit magnitude is 2.74D-14 for   6050.
[...]
 ,-0.00000719,0.00001522,-0.00001061,-0.00142404,-0.00026930,0.00060500
 ,0.00032019,-0.00006571,-0.00034881,0.00053823,0.00046379,-0.00001975,
 0.00056524,-0.00145596,0.00009707,0.00065266,-0.00024679,-0.00025079,0
 .00006068,0.00016654,0.00258901,-0.00003007,0.00005892,-0.00045505,0.0
 0001554,0.00004825,0.00001056,0.02067175,0.00860966,0.00084055,0.00004
 081,0.00034247,-0.00002191,0.00073447,-0.00045123,0.00115406,0.0008095
 1,-0.00040818,0.00022573,-0.00003227,0.00002612,-0.00006035,-0.0000066
 9,-0.00000033,-0.00000171,0.00001930,0.00001404,0.00002158,-0.00000738
 ,0.00000182,-0.00003314,0.00038063,0.00007603,0.00030385,0.00001429,-0
 .00011550,0.00018542,-0.00005936,-0.00000471,-0.00014029,-0.00002250,0
 .00001906,-0.00003964,0.00003781,-0.00000644,-0.00000384,0.00001117,0.
 00001109,0.00002011,-0.00002490,-0.00000234,0.00000105,0.00000227,0.00
 002716,-0.00001628,0.00000317,-0.00000781,0.00000463,0.00000091,-0.000
 00007,-0.00000063,-0.00000084,0.00000155,0.00000083,-0.00000097,0.0000
 0305,-0.00000257,-0.00000514,0.00000170,-0.00001225,0.00000292,-0.0000
 0256,0.00000156,-0.00000209,0.00000063,0.00000059,0.00000112,0.0000030
 9,0.00000289,0.00000005,-0.00003343,0.00000291,-0.00001362,0.00001967,
 -0.00000928,0.00000788,-0.00000479,0.00000894,-0.00000015,-0.00000144,
 0.00000131,-0.00000164,-0.00000198,-0.00000675,-0.00000007,0.00000216,
 -0.00000138,0.00001677,-0.00001602,0.00000608,-0.00000260,0.00000183,-
 0.00000181,0.00000228,0.00000142,-0.00000051,-0.00000697,0.00000192,0.
 00000306,0.00017516,0.00017466,-0.00092798,-0.00002194,-0.00017394,0.0
 0023718,-0.00014534,-0.00002678,0.00022364,0.00004673,0.00007546,0.000
 34846,-0.01354161,-0.07335020,0.00349567,-0.05951225,-0.02918076,-0.00
 397485,0.05142991,0.08438254,0.00001361,0.00001120,-0.00001525,0.00000
 916,-0.00001790,-0.00001811,0.00004434,-0.00001715,-0.00000277,0.00002
 478,0.00001437,0.00000937,0.00001321,0.00000807,-0.00000156,0.00001301
 ,-0.00001964,0.00000713,0.00000243,0.00000702,-0.00000662,-0.00000358,
 -0.00000061,0.00000150,-0.00000689,0.00000207,-0.00000129,0.00000417,-
 0.00000093,-0.00000401,-0.00004112,0.00000731,-0.00000121,-0.00003515,
 0.00001999,-0.00001253,-0.00001352,0.00001250,0.00001945,-0.00001646,-
 0.00000595,0.00002349,-0.00001775,-0.00001254,0.00000238,0.00002038,-0
 .00003636,0.00001851,-0.00001557,0.00000436,-0.00001099,0.00000039,0.0
 0000472,-0.00000030,-0.00006864,-0.00001085,-0.00003831,0.00000128,-0.
 00000035,-0.00000477,0.00000234,-0.00001276,0.00000516,0.00000891,0.00
 000661,-0.00001113,-0.00000730,0.00000477,0.00000403,0.00000938,-0.000
 00562,-0.00000895,-0.00000124,0.00000113,0.00000093,-0.00000028,0.0000
 0249,-0.00000049,-0.00000276,-0.00000122,0.00000259,0.00000373,0.00000
 975,-0.00000502,0.00000128,-0.00000225,0.00000221,0.00000136,0.0000006
 2,0.00000244,-0.00000257,-0.00000106,0.00000003,0.00003184,0.00002715,
 0.00002186,0.00001338,0.00007035,-0.00004294,0.00023953,0.00021924,0.0
 0011770,-0.00002319,0.00004643,-0.00004866,-0.00002140,0.00005041,-0.0
 0005873,0.00000723,-0.00002888,-0.00000513,-0.00000377,-0.00001536,-0.
 00000284,0.00001058,0.00003311,-0.00001396,0.00000392,0.00000874,-0.00
 000842,-0.00000054,-0.00000927,0.00001099,-0.00007686,-0.00013963,0.00
 007665,-0.00048176,0.00020406,-0.00003454,-0.00010530,-0.00006963,-0.0
 0006663,-0.00009202,-0.00007347,0.00000421,0.00003136,-0.00005037,0.00
 004972,0.00000253,0.00001071,-0.00001538,-0.00000149,-0.00001020,0.000
 00160,-0.00000764,-0.00000168,0.00000124,-0.00001219,-0.00001748,0.000
 02080,0.00119670,0.00002647,-0.00074088,-0.00025182,0.00011801,0.00039
 479,-0.00047633,-0.00034855,0.00007511,-0.00120870,0.00061332,0.000412
 15,-0.00045262,0.00022972,0.00004901,-0.00036494,0.00136535,-0.0029723
 4,-0.00030448,-0.00031971,0.00080212,-0.00005632,0.00000898,0.00004055
 ,-0.01762819,0.00111301,0.00996748,-0.00040281,0.00008265,0.00008182,-
 0.00068903,0.00012911,-0.00236567,-0.00191129,0.00064754,0.00017845,0.
 00003708,-0.00003565,0.00007165,0.00000096,0.00000301,-0.00000166,-0.0
 0001458,-0.00001028,-0.00001831,0.00000881,-0.00000194,0.00001959,0.00
 008219,0.00005759,0.00001628,0.00001961,0.00005507,-0.00000362,0.00001
 875,-0.00000776,0.00004439,-0.00000302,-0.00002163,-0.00000957,-0.0000
 0356,0.00002414,-0.00000648,-0.00000172,0.00000510,0.00000253,-0.00000
 211,-0.00000360,0.,0.00000576,-0.00001046,0.00000228,0.00000772,0.0000
 1362,-0.00001016,-0.00000061,-0.00000109,0.00000100,-0.00000284,-0.000
 00057,0.00000176,0.00000075,-0.00000361,0.00000180,0.00000115,-0.00000
 634,0.00000948,-0.00000270,0.00000247,-0.00000169,0.00000222,0.0000003
 1,0.00000084,0.00000092,-0.00000195,-0.00000241,0.00002144,0.00002646,
 -0.00000596,-0.00000795,-0.00001937,0.00000580,0.00001137,0.00000663,-
 0.00000777,-0.00000441,0.00000381,0.00000337,0.00000256,0.00000073,0.0
 0000583,-0.00000282,-0.00000464,-0.00000093,0.00000021,0.00001627,-0.0
 0000348,0.00000014,-0.00000264,-0.00000146,-0.00000133,-0.00000105,0.0
 0000230,0.00000015,0.00000004,-0.00000006,-0.00008017,-0.00036605,0.00
 085984,0.00000002,0.00024096,-0.00021523,0.00010408,0.00007178,-0.0002
 2058,-0.00004289,-0.00003611,-0.00031887,0.00703537,0.00417063,-0.0761
 6272,-0.00741882,-0.00473938,0.01210014,-0.03505624,-0.00680428,0.0816
 5712,0.00001399,0.00000589,-0.00000462,0.00001736,-0.00001984,-0.00000
 131,0.00003886,-0.00002694,0.00001145,0.00002540,0.00001199,0.00001302
 ,0.00001899,0.00000471,0.00000614,0.00001013,-0.00001490,0.00000648,-0
 .00000198,0.00000855,-0.00000581,-0.00000600,0.00000107,0.00000038,-0.
 00000792,0.00000417,-0.00000281,0.00000359,0.00000285,-0.00000379,-0.0
 0003973,0.00001291,-0.00001425,-0.00003057,0.00002987,-0.00002610,-0.0
 0002388,0.00001311,-0.00000337,-0.00002152,-0.00000078,0.00001023,-0.0
 0002247,-0.00001349,-0.00000554,0.00002453,-0.00005269,0.00003201,-0.0
 0002056,0.00000658,-0.00001500,0.00000266,0.00001007,-0.00000672,-0.00
 007977,-0.00000573,-0.00006919,0.00001723,-0.00001183,0.00001072,0.000
 00186,-0.00000760,0.00000192,0.00000545,0.00001140,-0.00001065,-0.0000
 0582,0.00000298,0.00000334,0.00001566,-0.00000701,-0.00000589,-0.00000
 469,0.00000157,-0.00000226,0.00000010,0.00000031,0.00000028,-0.0000001
 5,0.00000039,0.00000148,0.00000468,0.00001007,0.00000194,0.00000087,-0
 .00000040,-0.00000038,0.00000291,-0.00000054,0.00000119,-0.00000394,-0
 .00000126,-0.00000022,0.00000447,0.00010421,0.00012549,-0.00000635,0.0
 0001515,-0.00002367,0.00022659,0.00019467,0.00020223,0.00002021,0.0000
 3970,0.00002141,0.00001316,0.00002127,-0.00001562,0.00000954,-0.000037
 21,-0.00000891,-0.00000265,-0.00000443,-0.00000852,-0.00000066,0.00002
 072,0.00000236,0.00001677,0.00000303,-0.00001603,-0.00000495,-0.000012
 11,0.00000191,-0.00007178,-0.00007896,-0.00000729,-0.00027563,0.000172
 11,-0.00010672,-0.00005996,-0.00002839,-0.00008670,0.00006442,-0.00006
 154,-0.00007643,0.00000811,-0.00009673,-0.00001977,0.00003456,0.000029
 23,0.00000708,-0.00000057,0.00000062,-0.00000388,-0.00000375,-0.000002
 40,-0.00000092,-0.00004697,-0.00004783,-0.00000959,0.00101027,-0.00026
 284,-0.00007745,-0.00026587,0.00012852,0.00015358,-0.00042220,-0.00022
 357,-0.00004040,0.00093560,-0.00030773,-0.00041716,-0.00003178,0.00020
 773,-0.00035502,-0.00274857,0.00023020,-0.00074061,0.00050733,0.000510
 81,-0.00107898,0.00007372,0.00002600,-0.00009710,0.01069263,0.00204906
 ,-0.01374394,0.00026212,0.00069620,-0.00207353,-0.00242983,0.00123463,
 -0.00039364,0.00012433,0.00011533,-0.00045146,0.00003531,-0.00003325,0
 .00007730,-0.00000030,0.00000130,-0.00000243,-0.00001609,-0.00001055,-
 0.00001660,0.00000821,0.00000312,0.00001400,-0.00006826,0.00000589,-0.
 00000821,0.00001801,0.00004964,0.00000743,0.00002069,0.00000766,0.0000
 4860,0.00000183,-0.00002757,-0.00001768,-0.00002302,0.00008453,0.00003
 050,0.00000121,-0.00000487,-0.00001331,-0.00000543,-0.00001553,-0.0000
 0842,0.00000101,-0.00000135,0.00000528,0.00001992,0.00002550,-0.000014
 38,-0.00000419,-0.00000434,-0.00000228,-0.00000225,-0.00000165,0.00000
 438,-0.00000037,-0.00000216,0.00000486,-0.00000337,-0.00001069,0.00001
 785,-0.00000250,0.00000345,-0.00000240,0.00000242,-0.00000085,-0.00000
 126,0.00000165,-0.00000084,-0.00000210,0.00002815,0.00002912,0.0000147
 1,-0.00000240,-0.00001959,-0.00001735,-0.00000030,-0.00000130,0.000007
 08,-0.00000189,0.00000405,0.00000462,0.00000175,0.00000252,0.00000842,
 -0.00000258,-0.00000617,-0.00000410,-0.00000374,0.00001870,-0.00000044
 ,-0.00000165,-0.00000349,-0.00000415,0.00000245,0.00000164,0.00000137,
 0.00000055,0.00000138,0.00000399,-0.00052633,-0.00008842,0.00075816,0.
 00005388,0.00024016,-0.00027197,0.00022702,0.00000333,-0.00017248,0.00
 000591,-0.00005734,-0.00035222,-0.07912729,0.00337350,0.02544176,0.012
 57427,0.00166379,0.00014498,-0.03304323,-0.00198625,0.05837925,0.09226
 342,-0.00001598,-0.00001261,0.00001170,-0.00000834,0.00000790,0.000005
 93,-0.00004331,0.00000204,-0.00000998,-0.00002970,-0.00001694,-0.00001
 206,-0.00001288,-0.00001136,-0.00000187,-0.00001275,0.00001974,-0.0000
 0730,-0.00000272,-0.00000725,0.00000551,0.00000364,0.00000059,-0.00000
 092,0.00000645,-0.00000090,0.00000164,-0.00000254,0.00000079,0.0000026
 7,0.00003971,0.00001082,0.00001172,0.00003449,-0.00001151,0.00001607,0
 .00002658,0.00000208,0.00000035,0.00001725,0.00000913,-0.00001684,0.00
 002001,0.00002104,0.00000139,-0.00001141,0.00002032,-0.00001197,0.0000
 1347,-0.00000219,0.00000930,-0.00000075,-0.00000303,-0.00000097,0.0000
 4653,0.00003331,0.00003718,-0.00001932,-0.00000327,-0.00000429,-0.0000
 0144,0.00001316,-0.00000762,-0.00000840,-0.00000993,0.00001168,0.00000
 590,-0.00000289,-0.00000254,-0.00001003,0.00000244,0.00000555,0.000002
 19,-0.00000105,0.00000031,-0.00000007,-0.00000054,0.00000118,0.0000019
 4,0.00000081,-0.00000268,-0.00000244,-0.00001635,0.00000264,-0.0000009
 2,0.00000203,-0.00000209,-0.00000236,0.00000097,-0.00000027,0.00000255
 ,0.00000158,0.00000003,0.00012739,-0.00010734,-0.00008019,-0.00001688,
 -0.00011735,0.00008405,-0.00028331,-0.00029100,-0.00019206,0.00005118,
 -0.00010194,0.00004771,0.00007972,-0.00006733,0.00009103,-0.00000771,0
 .00002999,0.00001963,0.00000654,0.00002697,0.00000342,0.00000293,-0.00
 007479,0.00002111,0.00000017,-0.00001387,0.00000692,-0.00000484,0.0000
 1270,-0.00001428,0.00007069,0.00019904,-0.00008701,0.00039992,-0.00012
 341,0.00003865,0.00011227,0.00015756,0.00005209,-0.00025312,0.00007735
 ,0.00001444,-0.00013057,0.00004537,-0.00006001,0.00000423,-0.00000505,
 0.00001389,0.00000608,0.00001288,-0.00000848,-0.00000533,0.,0.00000257
 ,-0.00000795,0.00001574,-0.00001155,-0.00131808,-0.00002486,0.00038035
 ,0.00033492,-0.00008566,-0.00024676,0.00056135,0.00044840,-0.00000214,
 -0.00045076,0.00000950,0.00002255,-0.00021318,-0.00021709,0.00058459,0
 .00095313,-0.00053616,0.00073249,-0.00006741,-0.00133615,0.00069990,-0
 .00003144,0.00004062,0.00005302,-0.00137061,0.00757911,0.02259268,0.00
 020082,-0.00046553,0.00087102,0.00303627,0.00009093,0.00035517,-0.0000
 5288,0.00034525,-0.00000453,-0.00003753,0.00002167,-0.00005957,-0.0000
 0537,0.00000006,-0.00000105,0.00002021,0.00001558,0.00001978,-0.000009
 05,0.00000396,-0.00003644,0.00034802,0.00007822,0.00033571,0.00012703,
 -0.00013038,0.00015092,-0.00006988,-0.00000812,-0.00015412,-0.00002068
 ,0.00002185,-0.00003751,0.00003563,-0.00000521,0.00000010,0.00001067,0
 .00000950,0.00001748,-0.00002382,-0.00000285,0.00000006,0.00000135,0.0
 0002820,-0.00001501,0.00000342,-0.00000851,0.00000479,0.00000078,-0.00
 000006,-0.00000067,-0.00000089,0.00000161,0.00000083,-0.00000108,0.000
 00329,-0.00000261,-0.00000537,0.00000145,-0.00001155,0.00000295,-0.000
 00257,0.00000145,-0.00000209,0.00000069,0.00000052,0.00000128,0.000003
 12,0.00000284,-0.00000124,-0.00003420,0.00000320,-0.00001254,0.0000203
 8,-0.00001005,0.00000637,-0.00000534,0.00000951,0.00000023,-0.00000170
 ,0.00000105,-0.00000174,-0.00000195,-0.00000687,0.00000016,0.00000239,
 -0.00000133,0.00001605,-0.00001657,0.00000612,-0.00000256,0.00000195,-
 0.00000173,0.00000246,0.00000151,-0.00000070,-0.00000676,0.00000191,0.
 00000316,0.00044452,-0.00007220,-0.00118514,-0.00005046,-0.00032672,0.
 00045432,-0.00023832,-0.00001009,0.00024790,0.00003814,0.00008464,0.00
 040138,0.00375607,-0.07269105,-0.00215299,0.00375987,-0.02342486,-0.05
 927444,-0.00200071,0.01156352,0.00348788,-0.00785397,0.07930408,0.0000
 3095,0.00002585,-0.00004420,0.00002039,-0.00004579,-0.00005058,0.00009
 757,-0.00006199,-0.00002808,0.00005684,0.00003404,0.00002075,0.0000336
 8,0.00001885,-0.00000734,0.00002770,-0.00003819,0.00001422,0.00000618,
 0.00001485,-0.00001653,-0.00000789,-0.00000153,0.00000470,-0.00001715,
 0.00000620,-0.00000247,0.00001202,-0.00000313,-0.00001160,-0.00010377,
 0.00003697,0.00001208,-0.00007775,0.00004857,-0.00001637,-0.00002259,0
 .00003648,0.00006320,-0.00003841,-0.00001325,0.00006471,-0.00004311,-0
 .00002626,0.00000983,0.00006242,-0.00010319,0.00005002,-0.00004267,0.0
 0001273,-0.00002869,0.00000060,0.00001191,0.00000093,-0.00020016,-0.00
 000947,-0.00009159,-0.00000998,0.00000034,-0.00002143,0.00000656,-0.00
 002926,0.00001227,0.00002141,0.00001094,-0.00002428,-0.00001652,0.0000
 1263,0.00000958,0.00002162,-0.00001483,-0.00002431,-0.00000181,0.00000
 279,0.00000360,-0.00000113,0.00000762,-0.00000095,-0.00000778,-0.00000
 361,0.00000668,0.00001046,0.00002079,-0.00001562,0.00000359,-0.0000062
 5,0.00000612,0.00000273,0.00000293,0.00000791,-0.00000655,-0.00000219,
 0.00000026,0.00024335,0.00001500,0.00002446,0.00005353,0.00018805,-0.0
 0012422,0.00055930,0.00044347,0.00015983,-0.00004160,0.00006661,-0.000
 14344,-0.00002223,0.00013990,-0.00016659,0.00001636,-0.00007022,0.0000
 0568,-0.00002032,-0.00004180,0.00000426,0.00005610,0.00006698,-0.00006
 716,0.00001152,0.00001955,-0.00001972,-0.00000535,-0.00002608,0.000033
 76,-0.00020074,-0.00030001,0.00021857,-0.00086145,0.00036894,0.0000733
 4,-0.00038591,-0.00018920,-0.00016954,-0.00062407,-0.00025650,0.000008
 64,0.00002331,-0.00014587,0.00014963,0.00000248,0.00003416,-0.00004332
 ,-0.00000046,-0.00002699,0.00000011,-0.00003119,-0.00000708,0.00000707
 ,-0.00004137,-0.00004318,0.00006714,0.00255048,-0.00033769,-0.00155427
 ,-0.00054306,0.00031740,0.00090770,-0.00106356,-0.00062334,0.00020335,
 -0.00052953,0.00120867,-0.00010705,-0.00026234,0.00026156,-0.00011361,
 0.00367245,-0.00031161,-0.00104954,0.00139578,0.00119337,-0.00183742,-
 0.00005576,-0.00014268,0.00000995,0.00822789,0.00052389,-0.04459608,-0
 .00224670,0.00002012,-0.00021376,-0.00764383,0.00296171,-0.00108884,-0
 .00000316,-0.00063772,0.00060135,0.00013182,-0.00012030,0.00022731,-0.
 00000809,0.00001247,-0.00001530,-0.00004585,-0.00002706,-0.00005415,0.
 00002753,-0.00000461,0.00006021,0.00068024,0.00029444,0.00037493,0.000
 03727,0.00009100,0.00006657,0.00000090,-0.00002631,0.00003249,-0.00005
 236,-0.00009242,-0.00011002,0.00001235,0.00007879,-0.00002565,-0.00000
 021,0.00002855,0.00002358,-0.00002367,-0.00001351,0.00000152,0.0000219
 7,-0.00001980,-0.00000221,0.00002627,0.00003950,-0.00002996,-0.0000011
 5,-0.00000332,0.00000313,-0.00001017,-0.00000108,0.00000618,0.00000196
 ,-0.00001016,0.00000393,0.00000455,-0.00001421,0.00001463,-0.00000681,
 0.00000565,-0.00000332,0.00000552,0.00000147,0.00000440,0.00000210,-0.
 00000502,-0.00000588,0.00007149,0.00006372,-0.00002102,-0.00003608,-0.
 00005461,0.00001283,0.00004475,0.00001923,-0.00002109,-0.00001585,0.00
 001428,0.00001542,0.00000893,0.00000065,0.00001515,-0.00001112,-0.0000
 1499,-0.00000445,0.00001090,0.00004654,-0.00000812,-0.00000155,-0.0000
 0808,-0.00000625,-0.00000296,-0.00000287,0.00000717,-0.00000391,0.0000
 0165,0.00000202,-0.00110091,-0.00035307,0.00232411,0.00010342,0.000927
 36,-0.00091152,0.00041563,0.00012603,-0.00054419,-0.00005550,-0.000154
 58,-0.00093224,0.01747604,0.00337634,-0.26390954,0.00170267,-0.0433095
 1,-0.03775360,0.04318866,0.00271380,-0.02370105,-0.06464616,0.03177907
 ,0.37378094\\-0.00000153,-0.00000220,-0.00000206,-0.00000216,-0.000001
 02,-0.00000203,-0.00000200,-0.00000125,-0.00000258,-0.00000001,-0.0000
 0212,-0.00000174,-0.00000037,-0.00000198,-0.00000211,-0.00000208,-0.00
 000062,-0.00000218,-0.00000177,-0.00000045,-0.00000184,-0.00000143,-0.
 00000271,-0.00000287,-0.00000078,-0.00000306,-0.00000216,0.00000109,-0
 .00000227,-0.00000073,-0.00000096,-0.00000181,-0.00000227,-0.00000215,
 -0.00000187,-0.00000312,-0.00000347,-0.00000067,-0.00000251,-0.0000011
 4,-0.00000143,-0.00000197,0.00000005,-0.00000357,-0.00000232,0.0000002
 8,-0.00000181,-0.00000154,0.00000119,-0.00000357,-0.00000099,0.0000007
 1,-0.00000266,-0.00000091,0.00000045,-0.00000273,0.00000052,-0.0000022
 7,-0.00000011,-0.00000260,-0.00000337,0.00000046,-0.00000260,-0.000003
 26,0.00000030,-0.00000205,-0.00000392,0.00000038,-0.00000303,-0.000001
 94,-0.00000171,-0.00000305,-0.00000197,-0.00000258,-0.00000307,-0.0000
 0227,-0.00000158,-0.00000324,-0.00000190,-0.00000150,-0.00000253,0.000
 00024,-0.00000380,-0.00000049,0.00000063,-0.00000291,-0.00000106,0.000
 00125,-0.00000406,-0.00000177,0.00000097,-0.00000409,-0.00000168,0.000
 00110,0.00000080,0.00000144,0.00000134,0.00000107,0.00000025,0.0000006
 4,0.00000255,0.00000100,0.00000027,0.00000102,0.00000098,0.00000051,0.
 00000113,0.00000178,-0.00000017,-0.00000060,-0.00000077,0.00000135,-0.
 00000050,0.00000049,0.00000017,0.00000183,0.00000143,-0.00000007,0.000
 00141,0.00000086,0.00000162,-0.00000039,0.00000181,-0.00000003,0.00000
 139,0.00000216,-0.00000264,0.00000078,-0.00000117,0.00000017,-0.000000
 04,0.00000047,0.00000146,0.00000143,0.00000178,0.00000123,0.00000187,0
 .00000202,0.00000081,0.00000070,0.00000099,0.00000055,0.00000133,0.000
 00145,-0.00000003,0.00000064,0.00000047,0.00000067,0.00000133,-0.00000
 022,-0.00000116,0.00000098,-0.00000039,-0.00000403,0.00000285,-0.00000
 064,-0.00000049,0.00000165,-0.00000041,-0.00000129,0.00000257,0.000000
 13,-0.00000131,0.00000198,0.00000011,-0.00000084,0.00000322,0.00000060
 ,-0.00000090,0.00000265,0.00000073,-0.00000139,0.00000125,-0.00000030,
 -0.00000113,0.00000316,0.00000097,-0.00000183,0.00000322,0.00000081,-0
 .00000049,0.00000344,0.00000142,-0.00000054,0.00000345,0.00000206,0.00
 000028,-0.00000044,-0.00000048,-0.00000019,-0.00000078,-0.00000065,0.0
 0000064,-0.00000103,-0.00000020,-0.00000011,-0.00000035,-0.00000024,0.
 00000127,0.00000150,0.00000213,0.00000111,0.00000234,0.00000238,0.0000
 0093,0.00000151,0.00000185,0.00000195,0.00000166,0.00000269,0.00000218
 ,0.00000171,0.00000300,0.00000269,0.00000191,0.00000315,0.00000254,0.0
 0000124,0.00000298,0.00000209,0.00000258,0.00000334,0.00000295,-0.0000
 0165,0.00000278,0.00000218,-0.00000063,0.00000066,0.00000167,-0.000000
 65,0.00000073,0.00000233,0.00000010,0.00000184,-0.00000214,-0.00000246
 ,-0.00000320,-0.00000246,-0.00000290,-0.00000387,-0.00000155,-0.000002
 68,-0.00000278,-0.00000256,-0.00000172,-0.00000316,0.00000215,-0.00000
 500,-0.00000344,0.00000158,-0.00000116,0.00000227,0.00000313,-0.000001
 50,0.00000138,0.00000293,-0.00000111,0.00000193,0.00000284,-0.00000140
 ,0.00000091,0.00000346,-0.00000208,0.00000175,0.00000363,-0.00000096,0
 .00000215,0.00000421,-0.00000149,0.00000257,0.00000293,-0.00000092,0.0
 0000250,0.00000329,-0.00000025,0.00000269,-0.00000082,0.00000206,0.000
 00083,-0.00000131,0.00000182,0.,-0.00000048,0.00000270,0.00000135,0.00
 000019,0.00000143,0.00000092,-0.00000050,0.00000466,0.00000247,-0.0000
 0068,0.00000460,0.00000268,-0.00000078,0.00000514,0.00000225,-0.000001
 24,0.00000504,0.00000209\\\@


 The earth never tires,
 The earth is rude, silent, incomprehensible at first,
 Nature is rude and incomprehensible at first,
 Be not discouraged, keep on,
 There are divine things well envelop'd,
 I swear to you there are divine things more beautiful than words can tell.
                                 -- Walt Whitman
 Job cpu time:       4 days 17 hours 33 minutes 23.9 seconds.
 Elapsed time:       0 days  3 hours 51 minutes 15.0 seconds.
 File lengths (MBytes):  RWF=   9737 Int=      0 D2E=      0 Chk=    106 Scr=      1
 Normal termination of Gaussian 16 at Thu May  9 16:18:08 2019.
