 Entering Gaussian System, Link 0=g16
 Input=clay_new-glu_gluC6-CADL-Na_1Me2O-bisCF3-ts-b3lyp_d3bj-631gd-pcm_thf.gjf
 Output=clay_new-glu_gluC6-CADL-Na_1Me2O-bisCF3-ts-b3lyp_d3bj-631gd-pcm_thf.out
 Initial command:
 /home/ekwan/sw/g16/l1.exe "/scratch/users/ekwan/clay_new-glu_gluC6-CADL-Na_1Me2O-bisCF3-ts-b3lyp_d3bj-631gd-pcm_thf/Gau-18184.inp" -scrdir="/scratch/users/ekwan/clay_new-glu_gluC6-CADL-Na_1Me2O-bisCF3-ts-b3lyp_d3bj-631gd-pcm_thf/"
 Entering Link 1 = /home/ekwan/sw/g16/l1.exe PID=     18185.
  
 Copyright (c) 1988,1990,1992,1993,1995,1998,2003,2009,2016,
            Gaussian, Inc.  All Rights Reserved.
  
 This is part of the Gaussian(R) 16 program.  It is based on
 the Gaussian(R) 09 system (copyright 2009, Gaussian, Inc.),
 the Gaussian(R) 03 system (copyright 2003, Gaussian, Inc.),
 the Gaussian(R) 98 system (copyright 1998, Gaussian, Inc.),
 the Gaussian(R) 94 system (copyright 1995, Gaussian, Inc.),
 the Gaussian 92(TM) system (copyright 1992, Gaussian, Inc.),
 the Gaussian 90(TM) system (copyright 1990, Gaussian, Inc.),
 the Gaussian 88(TM) system (copyright 1988, Gaussian, Inc.),
 the Gaussian 86(TM) system (copyright 1986, Carnegie Mellon
 University), and the Gaussian 82(TM) system (copyright 1983,
 Carnegie Mellon University). Gaussian is a federally registered
 trademark of Gaussian, Inc.
  
 This software contains proprietary and confidential information,
 including trade secrets, belonging to Gaussian, Inc.
  
 This software is provided under written license and may be
 used, copied, transmitted, or stored only in accord with that
 written license.
  
 The following legend is applicable only to US Government
 contracts under FAR:
  
                    RESTRICTED RIGHTS LEGEND
  
 Use, reproduction and disclosure by the US Government is
 subject to restrictions as set forth in subparagraphs (a)
 and (c) of the Commercial Computer Software - Restricted
 Rights clause in FAR 52.227-19.
  
 Gaussian, Inc.
 340 Quinnipiac St., Bldg. 40, Wallingford CT 06492
  
  
 ---------------------------------------------------------------
 Warning -- This program may not be used in any manner that
 competes with the business of Gaussian, Inc. or will provide
 assistance to any competitor of Gaussian, Inc.  The licensee
 of this program is prohibited from giving any competitor of
 Gaussian, Inc. access to this program.  By using this program,
 the user acknowledges that Gaussian, Inc. is engaged in the
 business of creating and licensing software in the field of
 computational chemistry and represents and warrants to the
 licensee that it is not a competitor of Gaussian, Inc. and that
 it will not use this program in any manner prohibited above.
 ---------------------------------------------------------------
  

 Cite this work as:
 Gaussian 16, Revision A.03,
 M. J. Frisch, G. W. Trucks, H. B. Schlegel, G. E. Scuseria, 
 M. A. Robb, J. R. Cheeseman, G. Scalmani, V. Barone, 
 G. A. Petersson, H. Nakatsuji, X. Li, M. Caricato, A. V. Marenich, 
 J. Bloino, B. G. Janesko, R. Gomperts, B. Mennucci, H. P. Hratchian, 
 J. V. Ortiz, A. F. Izmaylov, J. L. Sonnenberg, D. Williams-Young, 
 F. Ding, F. Lipparini, F. Egidi, J. Goings, B. Peng, A. Petrone, 
 T. Henderson, D. Ranasinghe, V. G. Zakrzewski, J. Gao, N. Rega, 
 G. Zheng, W. Liang, M. Hada, M. Ehara, K. Toyota, R. Fukuda, 
 J. Hasegawa, M. Ishida, T. Nakajima, Y. Honda, O. Kitao, H. Nakai, 
 T. Vreven, K. Throssell, J. A. Montgomery, Jr., J. E. Peralta, 
 F. Ogliaro, M. J. Bearpark, J. J. Heyd, E. N. Brothers, K. N. Kudin, 
 V. N. Staroverov, T. A. Keith, R. Kobayashi, J. Normand, 
 K. Raghavachari, A. P. Rendell, J. C. Burant, S. S. Iyengar, 
 J. Tomasi, M. Cossi, J. M. Millam, M. Klene, C. Adamo, R. Cammi, 
 J. W. Ochterski, R. L. Martin, K. Morokuma, O. Farkas, 
 J. B. Foresman, and D. J. Fox, Gaussian, Inc., Wallingford CT, 2016.
 
 ******************************************
 Gaussian 16:  AS64L-G16RevA.03 25-Dec-2016
                 8-May-2019 
 ******************************************
 %mem=48GB
 %nprocshared=32
 Will use up to   32 processors via shared memory.
 ----------------------------------------------------------------------
 #p opt=(ts,noeigentest,calcfc,maxstep=3,modredundant,recalc=30) freq=n
 oraman b3lyp 6-31g* pop=none scrf=(solvent=tetrahydrofuran,pcm) empiri
 caldispersion=gd3bj
 ----------------------------------------------------------------------
 1/5=1,8=3,10=4,11=1,18=120,26=3,38=1,71=30/1,3;
 2/9=110,12=2,17=6,18=5,40=1/2;
 3/5=1,6=6,7=1,11=2,25=1,30=1,70=2201,71=2,72=20,74=-5,124=41,140=1/1,2,3;
 4//1;
 5/5=2,38=5,53=20/2;
 8/6=4,10=90,11=11/1;
 11/6=1,8=1,9=11,15=111,16=1/1,2,10;
 10/6=1,13=1/2;
 7/10=1,18=20,25=1/1,2,3,16;
 1/5=1,8=3,10=4,11=1,18=20,26=3,71=30/3(2);
 2/9=110/2;
 99//99;
 2/9=110/2;
 3/5=1,6=6,7=1,11=2,25=1,30=1,70=2205,71=1,72=20,74=-5,124=41/1,2,3;
 4/5=5,16=3,69=1/1;
 5/5=2,38=5,53=20/2;
 7//1,2,3,16;
 1/5=1,8=3,11=1,18=20,26=3,71=30/3(-5);
 2/9=110/2;
 99/9=1/99;
 Leave Link    1 at Wed May  8 08:00:46 2019, MaxMem=  6442450944 cpu:              61.0 elap:               5.0
 (Enter /home/ekwan/sw/g16/l101.exe)
 -----
 title
 -----
 Symbolic Z-matrix:
 Charge =  0 Multiplicity = 1
 C                     4.17523  -2.10739  -0.86534 
 C                     2.83159  -2.83186  -0.98342 
 C                     2.32902  -3.26355   0.39717 
 C                     3.41247  -1.40316   1.48026 
 C                     4.09217  -0.97844   0.17015 
 H                     1.31811  -3.67614   0.34533 
 H                     2.09121  -2.12282  -1.38504 
 H                     4.94722  -2.82477  -0.5588 
 H                     4.09847  -2.06591   2.02419 
 H                     3.50279  -0.17139  -0.2864 
 O                     2.18928  -2.11378   1.21519 
 O                     3.23087  -4.19996   0.92467 
 O                     2.9832   -3.91856  -1.87905 
 O                     4.52226  -1.51222  -2.11646 
 O                     5.36603  -0.47972   0.56731 
 C                     3.02863  -0.20938   2.37594 
 H                     3.98409   0.17396   2.79446 
 H                     2.4881   -0.66338   3.2352 
 O                     2.29811   0.76568   1.73791 
 C                     1.75009  -4.4364   -2.36147 
 H                     1.18402  -4.95378  -1.57584 
 H                     1.11421  -3.64228  -2.77496 
 H                     1.99794  -5.15288  -3.14842 
 C                     5.36254  -2.30904  -2.93958 
 H                     6.31702  -2.52764  -2.43668 
 H                     4.87889  -3.25096  -3.21365 
 H                     5.56557  -1.72293  -3.84002 
 C                     6.12295   0.21575  -0.41098 
 H                     6.60789  -0.46077  -1.12259 
 H                     5.5021    0.92024  -0.98252 
 H                     6.89123   0.77336   0.13342 
 C                    -1.26603   1.96458   0.14842 
 C                    -0.42755   0.92942   0.89965 
 C                     0.61408   0.26912   0.02516 
 C                     0.56764   2.03655  -1.58389 
 C                    -0.34095   2.86567  -0.66921 
 H                     1.0863   -0.65172   0.32821 
 H                     0.18085   1.45526   1.64931 
 H                    -1.96065   1.45876  -0.53127 
 H                    -0.04941   1.52385  -2.32525 
 H                     0.27147   3.46197   0.01961 
 O                     1.28319   0.99317  -0.85336 
 O                    -0.77063  -2.76835  -0.0632 
 O                    -1.27782   0.00525   1.52637 
 O                    -1.97193   2.78687   1.06295 
 O                    -1.07715   3.71179  -1.53533 
 C                     1.61663   2.8516   -2.30481 
 H                     1.10175   3.59301  -2.92675 
 H                     2.21766   2.19914  -2.95221 
 O                     2.45267   3.50157  -1.35218 
 S                    -1.30099  -1.93597  -1.15971 
 O                    -1.45064  -2.58584  -2.47706 
 O                    -0.54439  -0.61323  -1.32524 
 C                    -2.9453   -1.40986  -0.66358 
 C                    -3.41793  -1.74366   0.59711 
 C                    -3.68975  -0.60298  -1.5214 
 C                    -4.64921  -1.24051   1.01702 
 H                    -2.81447  -2.36709   1.24421 
 C                    -4.92334  -0.1163   -1.09224 
 H                    -3.3093   -0.35083  -2.5046 
 C                    -5.40711  -0.42551   0.18066 
 H                    -6.3587   -0.03155   0.51501 
 C                    -0.70125  -0.68254   2.63769 
 H                     0.077    -1.38116   2.31919 
 H                    -0.27834   0.03066   3.35642 
 H                    -1.5242   -1.22588   3.10686 
 C                    -3.30747   2.3644    1.32761 
 H                    -3.89689   2.33006   0.40252 
 H                    -3.33163   1.38258   1.80946 
 H                    -3.73914   3.1124    1.99742 
 C                    -1.27202   5.03247  -1.03839 
 H                    -1.841     5.02293  -0.10402 
 H                    -0.3085    5.53587  -0.87308 
 H                    -1.83018   5.57272  -1.80649 
 C                     3.36866   4.40778  -1.96291 
 H                     3.96192   4.85039  -1.16046 
 H                     4.03083   3.88332  -2.6643 
 H                     2.82985   5.19955  -2.49766 
 C                     2.7715   -4.79301   2.13395 
 H                     3.50745  -5.54931   2.41481 
 H                     2.68395  -4.05178   2.93699 
 H                     1.79339  -5.27255   1.98759 
 Na                    3.17887   2.31879   0.51727 
 O                     3.77525   3.82896   2.11871 
 C                     3.25774   3.44804   3.39492 
 H                     2.58668   4.22575   3.78525 
 H                     2.70977   2.51606   3.23321 
 H                     4.07623   3.28962   4.11032 
 C                     4.52071   5.03563   2.16555 
 H                     5.38133   4.93951   2.84183 
 H                     4.87869   5.23903   1.15369 
 H                     3.89401   5.87224   2.50396 
 C                    -5.08062  -1.50558   2.43043 
 F                    -4.91982  -2.80224   2.77134 
 F                    -6.37078  -1.18068   2.64786 
 F                    -4.33315  -0.78101   3.30429 
 C                    -5.68939   0.83717  -1.96476 
 F                    -5.47664   0.60699  -3.27663 
 F                    -5.3199    2.12331  -1.72854 
 F                    -7.01929   0.76884  -1.74501 
 
 Add virtual bond connecting atoms O53        and C34        Dist= 3.75D+00.
 Add virtual bond connecting atoms H37        and O11        Dist= 3.85D+00.
 The following ModRedundant input section has been read:
 
 ITRead=  0  0  0  0  0  0  0  0  0  0  0  0  0  0  0  0  0  0  0  0
 ITRead=  0  0  0  0  0  0  0  0  0  0  0  0  0  0  0  0  0  0  0  0
 ITRead=  0  0  0  0  0  0  0  0  0  0  0  0  0  0  0  0  0  0  0  0
 ITRead=  0  0  0  0  0  0  0  0  0  0  0  0  0  0  0  0  0  0  0  0
 ITRead=  0  0  0  0  0  0  0  0  0  0  0  0  0  0  0  0  0  0  0  0
 MicOpt= -1 -1 -1 -1 -1 -1 -1 -1 -1 -1 -1 -1 -1 -1 -1 -1 -1 -1 -1 -1
 MicOpt= -1 -1 -1 -1 -1 -1 -1 -1 -1 -1 -1 -1 -1 -1 -1 -1 -1 -1 -1 -1
 MicOpt= -1 -1 -1 -1 -1 -1 -1 -1 -1 -1 -1 -1 -1 -1 -1 -1 -1 -1 -1 -1
 MicOpt= -1 -1 -1 -1 -1 -1 -1 -1 -1 -1 -1 -1 -1 -1 -1 -1 -1 -1 -1 -1
 MicOpt= -1 -1 -1 -1 -1 -1 -1 -1 -1 -1 -1 -1 -1 -1 -1 -1 -1 -1 -1 -1
 NAtoms=    100 NQM=      100 NQMF=       0 NMMI=      0 NMMIF=      0
                NMic=       0 NMicF=      0.
                    Isotopes and Nuclear Properties:
 (Nuclear quadrupole moments (NQMom) in fm**2, nuclear magnetic moments (NMagM)
  in nuclear magnetons)

  Atom         1           2           3           4           5           6           7           8           9          10
 IAtWgt=          12          12          12          12          12           1           1           1           1           1
 AtmWgt=  12.0000000  12.0000000  12.0000000  12.0000000  12.0000000   1.0078250   1.0078250   1.0078250   1.0078250   1.0078250
 NucSpn=           0           0           0           0           0           1           1           1           1           1
 AtZEff=   0.0000000   0.0000000   0.0000000   0.0000000   0.0000000   0.0000000   0.0000000   0.0000000   0.0000000   0.0000000
 NQMom=    0.0000000   0.0000000   0.0000000   0.0000000   0.0000000   0.0000000   0.0000000   0.0000000   0.0000000   0.0000000
 NMagM=    0.0000000   0.0000000   0.0000000   0.0000000   0.0000000   2.7928460   2.7928460   2.7928460   2.7928460   2.7928460
 AtZNuc=   6.0000000   6.0000000   6.0000000   6.0000000   6.0000000   1.0000000   1.0000000   1.0000000   1.0000000   1.0000000

  Atom        11          12          13          14          15          16          17          18          19          20
 IAtWgt=          16          16          16          16          16          12           1           1          16          12
 AtmWgt=  15.9949146  15.9949146  15.9949146  15.9949146  15.9949146  12.0000000   1.0078250   1.0078250  15.9949146  12.0000000
 NucSpn=           0           0           0           0           0           0           1           1           0           0
 AtZEff=   0.0000000   0.0000000   0.0000000   0.0000000   0.0000000   0.0000000   0.0000000   0.0000000   0.0000000   0.0000000
 NQMom=    0.0000000   0.0000000   0.0000000   0.0000000   0.0000000   0.0000000   0.0000000   0.0000000   0.0000000   0.0000000
 NMagM=    0.0000000   0.0000000   0.0000000   0.0000000   0.0000000   0.0000000   2.7928460   2.7928460   0.0000000   0.0000000
 AtZNuc=   8.0000000   8.0000000   8.0000000   8.0000000   8.0000000   6.0000000   1.0000000   1.0000000   8.0000000   6.0000000

  Atom        21          22          23          24          25          26          27          28          29          30
 IAtWgt=           1           1           1          12           1           1           1          12           1           1
 AtmWgt=   1.0078250   1.0078250   1.0078250  12.0000000   1.0078250   1.0078250   1.0078250  12.0000000   1.0078250   1.0078250
 NucSpn=           1           1           1           0           1           1           1           0           1           1
 AtZEff=   0.0000000   0.0000000   0.0000000   0.0000000   0.0000000   0.0000000   0.0000000   0.0000000   0.0000000   0.0000000
 NQMom=    0.0000000   0.0000000   0.0000000   0.0000000   0.0000000   0.0000000   0.0000000   0.0000000   0.0000000   0.0000000
 NMagM=    2.7928460   2.7928460   2.7928460   0.0000000   2.7928460   2.7928460   2.7928460   0.0000000   2.7928460   2.7928460
 AtZNuc=   1.0000000   1.0000000   1.0000000   6.0000000   1.0000000   1.0000000   1.0000000   6.0000000   1.0000000   1.0000000

  Atom        31          32          33          34          35          36          37          38          39          40
 IAtWgt=           1          12          12          12          12          12           1           1           1           1
 AtmWgt=   1.0078250  12.0000000  12.0000000  12.0000000  12.0000000  12.0000000   1.0078250   1.0078250   1.0078250   1.0078250
 NucSpn=           1           0           0           0           0           0           1           1           1           1
 AtZEff=   0.0000000   0.0000000   0.0000000   0.0000000   0.0000000   0.0000000   0.0000000   0.0000000   0.0000000   0.0000000
 NQMom=    0.0000000   0.0000000   0.0000000   0.0000000   0.0000000   0.0000000   0.0000000   0.0000000   0.0000000   0.0000000
 NMagM=    2.7928460   0.0000000   0.0000000   0.0000000   0.0000000   0.0000000   2.7928460   2.7928460   2.7928460   2.7928460
 AtZNuc=   1.0000000   6.0000000   6.0000000   6.0000000   6.0000000   6.0000000   1.0000000   1.0000000   1.0000000   1.0000000

  Atom        41          42          43          44          45          46          47          48          49          50
 IAtWgt=           1          16          16          16          16          16          12           1           1          16
 AtmWgt=   1.0078250  15.9949146  15.9949146  15.9949146  15.9949146  15.9949146  12.0000000   1.0078250   1.0078250  15.9949146
 NucSpn=           1           0           0           0           0           0           0           1           1           0
 AtZEff=   0.0000000   0.0000000   0.0000000   0.0000000   0.0000000   0.0000000   0.0000000   0.0000000   0.0000000   0.0000000
 NQMom=    0.0000000   0.0000000   0.0000000   0.0000000   0.0000000   0.0000000   0.0000000   0.0000000   0.0000000   0.0000000
 NMagM=    2.7928460   0.0000000   0.0000000   0.0000000   0.0000000   0.0000000   0.0000000   2.7928460   2.7928460   0.0000000
 AtZNuc=   1.0000000   8.0000000   8.0000000   8.0000000   8.0000000   8.0000000   6.0000000   1.0000000   1.0000000   8.0000000

  Atom        51          52          53          54          55          56          57          58          59          60
 IAtWgt=          32          16          16          12          12          12          12           1          12           1
 AtmWgt=  31.9720718  15.9949146  15.9949146  12.0000000  12.0000000  12.0000000  12.0000000   1.0078250  12.0000000   1.0078250
 NucSpn=           0           0           0           0           0           0           0           1           0           1
 AtZEff=   0.0000000   0.0000000   0.0000000   0.0000000   0.0000000   0.0000000   0.0000000   0.0000000   0.0000000   0.0000000
 NQMom=    0.0000000   0.0000000   0.0000000   0.0000000   0.0000000   0.0000000   0.0000000   0.0000000   0.0000000   0.0000000
 NMagM=    0.0000000   0.0000000   0.0000000   0.0000000   0.0000000   0.0000000   0.0000000   2.7928460   0.0000000   2.7928460
 AtZNuc=  16.0000000   8.0000000   8.0000000   6.0000000   6.0000000   6.0000000   6.0000000   1.0000000   6.0000000   1.0000000

  Atom        61          62          63          64          65          66          67          68          69          70
 IAtWgt=          12           1          12           1           1           1          12           1           1           1
 AtmWgt=  12.0000000   1.0078250  12.0000000   1.0078250   1.0078250   1.0078250  12.0000000   1.0078250   1.0078250   1.0078250
 NucSpn=           0           1           0           1           1           1           0           1           1           1
 AtZEff=   0.0000000   0.0000000   0.0000000   0.0000000   0.0000000   0.0000000   0.0000000   0.0000000   0.0000000   0.0000000
 NQMom=    0.0000000   0.0000000   0.0000000   0.0000000   0.0000000   0.0000000   0.0000000   0.0000000   0.0000000   0.0000000
 NMagM=    0.0000000   2.7928460   0.0000000   2.7928460   2.7928460   2.7928460   0.0000000   2.7928460   2.7928460   2.7928460
 AtZNuc=   6.0000000   1.0000000   6.0000000   1.0000000   1.0000000   1.0000000   6.0000000   1.0000000   1.0000000   1.0000000

  Atom        71          72          73          74          75          76          77          78          79          80
 IAtWgt=          12           1           1           1          12           1           1           1          12           1
 AtmWgt=  12.0000000   1.0078250   1.0078250   1.0078250  12.0000000   1.0078250   1.0078250   1.0078250  12.0000000   1.0078250
 NucSpn=           0           1           1           1           0           1           1           1           0           1
 AtZEff=   0.0000000   0.0000000   0.0000000   0.0000000   0.0000000   0.0000000   0.0000000   0.0000000   0.0000000   0.0000000
 NQMom=    0.0000000   0.0000000   0.0000000   0.0000000   0.0000000   0.0000000   0.0000000   0.0000000   0.0000000   0.0000000
 NMagM=    0.0000000   2.7928460   2.7928460   2.7928460   0.0000000   2.7928460   2.7928460   2.7928460   0.0000000   2.7928460
 AtZNuc=   6.0000000   1.0000000   1.0000000   1.0000000   6.0000000   1.0000000   1.0000000   1.0000000   6.0000000   1.0000000

  Atom        81          82          83          84          85          86          87          88          89          90
 IAtWgt=           1           1          23          16          12           1           1           1          12           1
 AtmWgt=   1.0078250   1.0078250  22.9897697  15.9949146  12.0000000   1.0078250   1.0078250   1.0078250  12.0000000   1.0078250
 NucSpn=           1           1           3           0           0           1           1           1           0           1
 AtZEff=   0.0000000   0.0000000   0.0000000   0.0000000   0.0000000   0.0000000   0.0000000   0.0000000   0.0000000   0.0000000
 NQMom=    0.0000000   0.0000000  10.4000000   0.0000000   0.0000000   0.0000000   0.0000000   0.0000000   0.0000000   0.0000000
 NMagM=    2.7928460   2.7928460   2.2175200   0.0000000   0.0000000   2.7928460   2.7928460   2.7928460   0.0000000   2.7928460
 AtZNuc=   1.0000000   1.0000000  11.0000000   8.0000000   6.0000000   1.0000000   1.0000000   1.0000000   6.0000000   1.0000000

  Atom        91          92          93          94          95          96          97          98          99         100
 IAtWgt=           1           1          12          19          19          19          12          19          19          19
 AtmWgt=   1.0078250   1.0078250  12.0000000  18.9984033  18.9984033  18.9984033  12.0000000  18.9984033  18.9984033  18.9984033
 NucSpn=           1           1           0           1           1           1           0           1           1           1
 AtZEff=   0.0000000   0.0000000   0.0000000   0.0000000   0.0000000   0.0000000   0.0000000   0.0000000   0.0000000   0.0000000
 NQMom=    0.0000000   0.0000000   0.0000000   0.0000000   0.0000000   0.0000000   0.0000000   0.0000000   0.0000000   0.0000000
 NMagM=    2.7928460   2.7928460   0.0000000   2.6288670   2.6288670   2.6288670   0.0000000   2.6288670   2.6288670   2.6288670
 AtZNuc=   1.0000000   1.0000000   6.0000000   9.0000000   9.0000000   9.0000000   6.0000000   9.0000000   9.0000000   9.0000000
 Leave Link  101 at Wed May  8 08:00:46 2019, MaxMem=  6442450944 cpu:              18.0 elap:               0.7
 (Enter /home/ekwan/sw/g16/l103.exe)

 GradGradGradGradGradGradGradGradGradGradGradGradGradGradGradGradGradGrad
 Berny optimization.
 Initialization pass.
                           ----------------------------
                           !    Initial Parameters    !
                           ! (Angstroms and Degrees)  !
 --------------------------                            --------------------------
 ! Name  Definition              Value          Derivative Info.                !
 --------------------------------------------------------------------------------
 ! R1    R(1,2)                  1.5311         calculate D2E/DX2 analytically  !
 ! R2    R(1,5)                  1.5342         calculate D2E/DX2 analytically  !
 ! R3    R(1,8)                  1.0975         calculate D2E/DX2 analytically  !
 ! R4    R(1,14)                 1.4283         calculate D2E/DX2 analytically  !
 ! R5    R(2,3)                  1.5313         calculate D2E/DX2 analytically  !
 ! R6    R(2,7)                  1.101          calculate D2E/DX2 analytically  !
 ! R7    R(2,13)                 1.4164         calculate D2E/DX2 analytically  !
 ! R8    R(3,6)                  1.0931         calculate D2E/DX2 analytically  !
 ! R9    R(3,11)                 1.418          calculate D2E/DX2 analytically  !
 ! R10   R(3,12)                 1.403          calculate D2E/DX2 analytically  !
 ! R11   R(4,5)                  1.5358         calculate D2E/DX2 analytically  !
 ! R12   R(4,9)                  1.098          calculate D2E/DX2 analytically  !
 ! R13   R(4,11)                 1.4392         calculate D2E/DX2 analytically  !
 ! R14   R(4,16)                 1.541          calculate D2E/DX2 analytically  !
 ! R15   R(5,10)                 1.0987         calculate D2E/DX2 analytically  !
 ! R16   R(5,15)                 1.4245         calculate D2E/DX2 analytically  !
 ! R17   R(11,37)                2.0349         calculate D2E/DX2 analytically  !
 ! R18   R(12,79)                1.4231         calculate D2E/DX2 analytically  !
 ! R19   R(13,20)                1.4218         calculate D2E/DX2 analytically  !
 ! R20   R(14,24)                1.4207         calculate D2E/DX2 analytically  !
 ! R21   R(15,28)                1.419          calculate D2E/DX2 analytically  !
 ! R22   R(16,17)                1.1113         calculate D2E/DX2 analytically  !
 ! R23   R(16,18)                1.112          calculate D2E/DX2 analytically  !
 ! R24   R(16,19)                1.3753         calculate D2E/DX2 analytically  !
 ! R25   R(19,83)                2.1628         calculate D2E/DX2 analytically  !
 ! R26   R(20,21)                1.0979         calculate D2E/DX2 analytically  !
 ! R27   R(20,22)                1.0982         calculate D2E/DX2 analytically  !
 ! R28   R(20,23)                1.0927         calculate D2E/DX2 analytically  !
 ! R29   R(24,25)                1.1008         calculate D2E/DX2 analytically  !
 ! R30   R(24,26)                1.0937         calculate D2E/DX2 analytically  !
 ! R31   R(24,27)                1.0934         calculate D2E/DX2 analytically  !
 ! R32   R(28,29)                1.0951         calculate D2E/DX2 analytically  !
 ! R33   R(28,30)                1.0993         calculate D2E/DX2 analytically  !
 ! R34   R(28,31)                1.0943         calculate D2E/DX2 analytically  !
 ! R35   R(32,33)                1.5294         calculate D2E/DX2 analytically  !
 ! R36   R(32,36)                1.5285         calculate D2E/DX2 analytically  !
 ! R37   R(32,39)                1.0956         calculate D2E/DX2 analytically  !
 ! R38   R(32,45)                1.418          calculate D2E/DX2 analytically  !
 ! R39   R(33,34)                1.5119         calculate D2E/DX2 analytically  !
 ! R40   R(33,38)                1.0994         calculate D2E/DX2 analytically  !
 ! R41   R(33,44)                1.4035         calculate D2E/DX2 analytically  !
 ! R42   R(34,37)                1.0783         calculate D2E/DX2 analytically  !
 ! R43   R(34,42)                1.3205         calculate D2E/DX2 analytically  !
 ! R44   R(34,53)                1.986          calculate D2E/DX2 analytically  !
 ! R45   R(35,36)                1.5328         calculate D2E/DX2 analytically  !
 ! R46   R(35,40)                1.0924         calculate D2E/DX2 analytically  !
 ! R47   R(35,42)                1.4609         calculate D2E/DX2 analytically  !
 ! R48   R(35,47)                1.5114         calculate D2E/DX2 analytically  !
 ! R49   R(36,41)                1.0978         calculate D2E/DX2 analytically  !
 ! R50   R(36,46)                1.4171         calculate D2E/DX2 analytically  !
 ! R51   R(43,51)                1.4753         calculate D2E/DX2 analytically  !
 ! R52   R(44,63)                1.4285         calculate D2E/DX2 analytically  !
 ! R53   R(45,67)                1.4255         calculate D2E/DX2 analytically  !
 ! R54   R(46,71)                1.4245         calculate D2E/DX2 analytically  !
 ! R55   R(47,48)                1.0962         calculate D2E/DX2 analytically  !
 ! R56   R(47,49)                1.0982         calculate D2E/DX2 analytically  !
 ! R57   R(47,50)                1.4244         calculate D2E/DX2 analytically  !
 ! R58   R(50,75)                1.4259         calculate D2E/DX2 analytically  !
 ! R59   R(51,52)                1.4765         calculate D2E/DX2 analytically  !
 ! R60   R(51,53)                1.5328         calculate D2E/DX2 analytically  !
 ! R61   R(51,54)                1.7963         calculate D2E/DX2 analytically  !
 ! R62   R(54,55)                1.3871         calculate D2E/DX2 analytically  !
 ! R63   R(54,56)                1.3932         calculate D2E/DX2 analytically  !
 ! R64   R(55,57)                1.3948         calculate D2E/DX2 analytically  !
 ! R65   R(55,58)                1.0824         calculate D2E/DX2 analytically  !
 ! R66   R(56,59)                1.3938         calculate D2E/DX2 analytically  !
 ! R67   R(56,60)                1.084          calculate D2E/DX2 analytically  !
 ! R68   R(57,61)                1.3922         calculate D2E/DX2 analytically  !
 ! R69   R(57,93)                1.5014         calculate D2E/DX2 analytically  !
 ! R70   R(59,61)                1.3964         calculate D2E/DX2 analytically  !
 ! R71   R(59,97)                1.5024         calculate D2E/DX2 analytically  !
 ! R72   R(61,62)                1.0828         calculate D2E/DX2 analytically  !
 ! R73   R(63,64)                1.0932         calculate D2E/DX2 analytically  !
 ! R74   R(63,65)                1.0973         calculate D2E/DX2 analytically  !
 ! R75   R(63,66)                1.0921         calculate D2E/DX2 analytically  !
 ! R76   R(67,68)                1.0974         calculate D2E/DX2 analytically  !
 ! R77   R(67,69)                1.094          calculate D2E/DX2 analytically  !
 ! R78   R(67,70)                1.0929         calculate D2E/DX2 analytically  !
 ! R79   R(71,72)                1.094          calculate D2E/DX2 analytically  !
 ! R80   R(71,73)                1.0996         calculate D2E/DX2 analytically  !
 ! R81   R(71,74)                1.0924         calculate D2E/DX2 analytically  !
 ! R82   R(75,76)                1.0917         calculate D2E/DX2 analytically  !
 ! R83   R(75,77)                1.0979         calculate D2E/DX2 analytically  !
 ! R84   R(75,78)                1.0969         calculate D2E/DX2 analytically  !
 ! R85   R(79,80)                1.092          calculate D2E/DX2 analytically  !
 ! R86   R(79,81)                1.0963         calculate D2E/DX2 analytically  !
 ! R87   R(79,82)                1.0991         calculate D2E/DX2 analytically  !
 ! R88   R(83,84)                2.2805         calculate D2E/DX2 analytically  !
 ! R89   R(84,85)                1.4289         calculate D2E/DX2 analytically  !
 ! R90   R(84,89)                1.4191         calculate D2E/DX2 analytically  !
 ! R91   R(85,86)                1.0989         calculate D2E/DX2 analytically  !
 ! R92   R(85,87)                1.0932         calculate D2E/DX2 analytically  !
 ! R93   R(85,88)                1.0986         calculate D2E/DX2 analytically  !
 ! R94   R(89,90)                1.0988         calculate D2E/DX2 analytically  !
 ! R95   R(89,91)                1.0924         calculate D2E/DX2 analytically  !
 ! R96   R(89,92)                1.0987         calculate D2E/DX2 analytically  !
 ! R97   R(93,94)                1.3503         calculate D2E/DX2 analytically  !
 ! R98   R(93,95)                1.3481         calculate D2E/DX2 analytically  !
 ! R99   R(93,96)                1.3592         calculate D2E/DX2 analytically  !
 ! R100  R(97,98)                1.3488         calculate D2E/DX2 analytically  !
 ! R101  R(97,99)                1.3588         calculate D2E/DX2 analytically  !
 ! R102  R(97,100)               1.3497         calculate D2E/DX2 analytically  !
 ! A1    A(2,1,5)              110.6552         calculate D2E/DX2 analytically  !
 ! A2    A(2,1,8)              109.2407         calculate D2E/DX2 analytically  !
 ! A3    A(2,1,14)             110.0504         calculate D2E/DX2 analytically  !
 ! A4    A(5,1,8)              109.3026         calculate D2E/DX2 analytically  !
 ! A5    A(5,1,14)             107.3229         calculate D2E/DX2 analytically  !
 ! A6    A(8,1,14)             110.2501         calculate D2E/DX2 analytically  !
 ! A7    A(1,2,3)              110.6022         calculate D2E/DX2 analytically  !
 ! A8    A(1,2,7)              108.273          calculate D2E/DX2 analytically  !
 ! A9    A(1,2,13)             108.5349         calculate D2E/DX2 analytically  !
 ! A10   A(3,2,7)              106.8412         calculate D2E/DX2 analytically  !
 ! A11   A(3,2,13)             112.8885         calculate D2E/DX2 analytically  !
 ! A12   A(7,2,13)             109.5984         calculate D2E/DX2 analytically  !
 ! A13   A(2,3,6)              111.5407         calculate D2E/DX2 analytically  !
 ! A14   A(2,3,11)             108.8966         calculate D2E/DX2 analytically  !
 ! A15   A(2,3,12)             108.4306         calculate D2E/DX2 analytically  !
 ! A16   A(6,3,11)             104.0211         calculate D2E/DX2 analytically  !
 ! A17   A(6,3,12)             111.1235         calculate D2E/DX2 analytically  !
 ! A18   A(11,3,12)            112.8075         calculate D2E/DX2 analytically  !
 ! A19   A(5,4,9)              108.2393         calculate D2E/DX2 analytically  !
 ! A20   A(5,4,11)             110.8275         calculate D2E/DX2 analytically  !
 ! A21   A(5,4,16)             113.0672         calculate D2E/DX2 analytically  !
 ! A22   A(9,4,11)             108.916          calculate D2E/DX2 analytically  !
 ! A23   A(9,4,16)             109.5896         calculate D2E/DX2 analytically  !
 ! A24   A(11,4,16)            106.1317         calculate D2E/DX2 analytically  !
 ! A25   A(1,5,4)              113.3419         calculate D2E/DX2 analytically  !
 ! A26   A(1,5,10)             106.8043         calculate D2E/DX2 analytically  !
 ! A27   A(1,5,15)             113.4154         calculate D2E/DX2 analytically  !
 ! A28   A(4,5,10)             108.6752         calculate D2E/DX2 analytically  !
 ! A29   A(4,5,15)             104.7591         calculate D2E/DX2 analytically  !
 ! A30   A(10,5,15)            109.7791         calculate D2E/DX2 analytically  !
 ! A31   A(3,11,4)             115.0148         calculate D2E/DX2 analytically  !
 ! A32   A(3,11,37)            112.6157         calculate D2E/DX2 analytically  !
 ! A33   A(4,11,37)            100.7306         calculate D2E/DX2 analytically  !
 ! A34   A(3,12,79)            112.963          calculate D2E/DX2 analytically  !
 ! A35   A(2,13,20)            113.6517         calculate D2E/DX2 analytically  !
 ! A36   A(1,14,24)            114.6769         calculate D2E/DX2 analytically  !
 ! A37   A(5,15,28)            117.1537         calculate D2E/DX2 analytically  !
 ! A38   A(4,16,17)            105.7809         calculate D2E/DX2 analytically  !
 ! A39   A(4,16,18)            104.7095         calculate D2E/DX2 analytically  !
 ! A40   A(4,16,19)            114.3242         calculate D2E/DX2 analytically  !
 ! A41   A(17,16,18)           105.5295         calculate D2E/DX2 analytically  !
 ! A42   A(17,16,19)           112.7572         calculate D2E/DX2 analytically  !
 ! A43   A(18,16,19)           112.9372         calculate D2E/DX2 analytically  !
 ! A44   A(16,19,83)           123.6847         calculate D2E/DX2 analytically  !
 ! A45   A(13,20,21)           112.0873         calculate D2E/DX2 analytically  !
 ! A46   A(13,20,22)           111.505          calculate D2E/DX2 analytically  !
 ! A47   A(13,20,23)           106.6462         calculate D2E/DX2 analytically  !
 ! A48   A(21,20,22)           108.1599         calculate D2E/DX2 analytically  !
 ! A49   A(21,20,23)           108.8623         calculate D2E/DX2 analytically  !
 ! A50   A(22,20,23)           109.531          calculate D2E/DX2 analytically  !
 ! A51   A(14,24,25)           111.0707         calculate D2E/DX2 analytically  !
 ! A52   A(14,24,26)           111.5087         calculate D2E/DX2 analytically  !
 ! A53   A(14,24,27)           106.6363         calculate D2E/DX2 analytically  !
 ! A54   A(25,24,26)           109.0799         calculate D2E/DX2 analytically  !
 ! A55   A(25,24,27)           108.7642         calculate D2E/DX2 analytically  !
 ! A56   A(26,24,27)           109.7182         calculate D2E/DX2 analytically  !
 ! A57   A(15,28,29)           112.4217         calculate D2E/DX2 analytically  !
 ! A58   A(15,28,30)           111.7939         calculate D2E/DX2 analytically  !
 ! A59   A(15,28,31)           106.3347         calculate D2E/DX2 analytically  !
 ! A60   A(29,28,30)           107.9485         calculate D2E/DX2 analytically  !
 ! A61   A(29,28,31)           109.096          calculate D2E/DX2 analytically  !
 ! A62   A(30,28,31)           109.1844         calculate D2E/DX2 analytically  !
 ! A63   A(33,32,36)           109.2673         calculate D2E/DX2 analytically  !
 ! A64   A(33,32,39)           109.8665         calculate D2E/DX2 analytically  !
 ! A65   A(33,32,45)           110.4034         calculate D2E/DX2 analytically  !
 ! A66   A(36,32,39)           108.9075         calculate D2E/DX2 analytically  !
 ! A67   A(36,32,45)           107.7233         calculate D2E/DX2 analytically  !
 ! A68   A(39,32,45)           110.6225         calculate D2E/DX2 analytically  !
 ! A69   A(32,33,34)           112.9065         calculate D2E/DX2 analytically  !
 ! A70   A(32,33,38)           108.3365         calculate D2E/DX2 analytically  !
 ! A71   A(32,33,44)           109.4446         calculate D2E/DX2 analytically  !
 ! A72   A(34,33,38)           102.8292         calculate D2E/DX2 analytically  !
 ! A73   A(34,33,44)           112.8362         calculate D2E/DX2 analytically  !
 ! A74   A(38,33,44)           110.2252         calculate D2E/DX2 analytically  !
 ! A75   A(33,34,37)           120.8054         calculate D2E/DX2 analytically  !
 ! A76   A(33,34,42)           119.6331         calculate D2E/DX2 analytically  !
 ! A77   A(33,34,53)           100.6875         calculate D2E/DX2 analytically  !
 ! A78   A(37,34,42)           115.6777         calculate D2E/DX2 analytically  !
 ! A79   A(37,34,53)            93.8501         calculate D2E/DX2 analytically  !
 ! A80   A(42,34,53)            94.9798         calculate D2E/DX2 analytically  !
 ! A81   A(36,35,40)           108.9072         calculate D2E/DX2 analytically  !
 ! A82   A(36,35,42)           112.2251         calculate D2E/DX2 analytically  !
 ! A83   A(36,35,47)           113.8492         calculate D2E/DX2 analytically  !
 ! A84   A(40,35,42)           106.3096         calculate D2E/DX2 analytically  !
 ! A85   A(40,35,47)           108.7494         calculate D2E/DX2 analytically  !
 ! A86   A(42,35,47)           106.4815         calculate D2E/DX2 analytically  !
 ! A87   A(32,36,35)           111.043          calculate D2E/DX2 analytically  !
 ! A88   A(32,36,41)           108.7968         calculate D2E/DX2 analytically  !
 ! A89   A(32,36,46)           111.3786         calculate D2E/DX2 analytically  !
 ! A90   A(35,36,41)           109.7282         calculate D2E/DX2 analytically  !
 ! A91   A(35,36,46)           105.4381         calculate D2E/DX2 analytically  !
 ! A92   A(41,36,46)           110.427          calculate D2E/DX2 analytically  !
 ! A93   A(34,42,35)           118.4303         calculate D2E/DX2 analytically  !
 ! A94   A(33,44,63)           114.8295         calculate D2E/DX2 analytically  !
 ! A95   A(32,45,67)           114.4724         calculate D2E/DX2 analytically  !
 ! A96   A(36,46,71)           114.2946         calculate D2E/DX2 analytically  !
 ! A97   A(35,47,48)           108.0207         calculate D2E/DX2 analytically  !
 ! A98   A(35,47,49)           109.9157         calculate D2E/DX2 analytically  !
 ! A99   A(35,47,50)           109.5372         calculate D2E/DX2 analytically  !
 ! A100  A(48,47,49)           108.9313         calculate D2E/DX2 analytically  !
 ! A101  A(48,47,50)           110.2745         calculate D2E/DX2 analytically  !
 ! A102  A(49,47,50)           110.1289         calculate D2E/DX2 analytically  !
 ! A103  A(47,50,75)           112.3701         calculate D2E/DX2 analytically  !
 ! A104  A(43,51,52)           116.8229         calculate D2E/DX2 analytically  !
 ! A105  A(43,51,53)           112.9361         calculate D2E/DX2 analytically  !
 ! A106  A(43,51,54)           106.8009         calculate D2E/DX2 analytically  !
 ! A107  A(52,51,53)           109.4811         calculate D2E/DX2 analytically  !
 ! A108  A(52,51,54)           106.4127         calculate D2E/DX2 analytically  !
 ! A109  A(53,51,54)           103.2332         calculate D2E/DX2 analytically  !
 ! A110  A(34,53,51)           126.7195         calculate D2E/DX2 analytically  !
 ! A111  A(51,54,55)           119.5008         calculate D2E/DX2 analytically  !
 ! A112  A(51,54,56)           119.2544         calculate D2E/DX2 analytically  !
 ! A113  A(55,54,56)           121.1231         calculate D2E/DX2 analytically  !
 ! A114  A(54,55,57)           119.1816         calculate D2E/DX2 analytically  !
 ! A115  A(54,55,58)           119.471          calculate D2E/DX2 analytically  !
 ! A116  A(57,55,58)           121.3286         calculate D2E/DX2 analytically  !
 ! A117  A(54,56,59)           119.0477         calculate D2E/DX2 analytically  !
 ! A118  A(54,56,60)           120.3742         calculate D2E/DX2 analytically  !
 ! A119  A(59,56,60)           120.5757         calculate D2E/DX2 analytically  !
 ! A120  A(55,57,61)           120.723          calculate D2E/DX2 analytically  !
 ! A121  A(55,57,93)           118.2542         calculate D2E/DX2 analytically  !
 ! A122  A(61,57,93)           120.8295         calculate D2E/DX2 analytically  !
 ! A123  A(56,59,61)           120.6619         calculate D2E/DX2 analytically  !
 ! A124  A(56,59,97)           119.6063         calculate D2E/DX2 analytically  !
 ! A125  A(61,59,97)           119.5555         calculate D2E/DX2 analytically  !
 ! A126  A(57,61,59)           119.252          calculate D2E/DX2 analytically  !
 ! A127  A(57,61,62)           120.3919         calculate D2E/DX2 analytically  !
 ! A128  A(59,61,62)           120.3553         calculate D2E/DX2 analytically  !
 ! A129  A(44,63,64)           111.6155         calculate D2E/DX2 analytically  !
 ! A130  A(44,63,65)           110.6217         calculate D2E/DX2 analytically  !
 ! A131  A(44,63,66)           105.6422         calculate D2E/DX2 analytically  !
 ! A132  A(64,63,65)           109.3783         calculate D2E/DX2 analytically  !
 ! A133  A(64,63,66)           110.1001         calculate D2E/DX2 analytically  !
 ! A134  A(65,63,66)           109.415          calculate D2E/DX2 analytically  !
 ! A135  A(45,67,68)           110.8516         calculate D2E/DX2 analytically  !
 ! A136  A(45,67,69)           111.6198         calculate D2E/DX2 analytically  !
 ! A137  A(45,67,70)           106.3186         calculate D2E/DX2 analytically  !
 ! A138  A(68,67,69)           109.3504         calculate D2E/DX2 analytically  !
 ! A139  A(68,67,70)           109.0197         calculate D2E/DX2 analytically  !
 ! A140  A(69,67,70)           109.608          calculate D2E/DX2 analytically  !
 ! A141  A(46,71,72)           111.1626         calculate D2E/DX2 analytically  !
 ! A142  A(46,71,73)           110.9171         calculate D2E/DX2 analytically  !
 ! A143  A(46,71,74)           106.4461         calculate D2E/DX2 analytically  !
 ! A144  A(72,71,73)           109.3491         calculate D2E/DX2 analytically  !
 ! A145  A(72,71,74)           109.8216         calculate D2E/DX2 analytically  !
 ! A146  A(73,71,74)           109.0874         calculate D2E/DX2 analytically  !
 ! A147  A(50,75,76)           106.9735         calculate D2E/DX2 analytically  !
 ! A148  A(50,75,77)           110.9439         calculate D2E/DX2 analytically  !
 ! A149  A(50,75,78)           110.6098         calculate D2E/DX2 analytically  !
 ! A150  A(76,75,77)           109.6023         calculate D2E/DX2 analytically  !
 ! A151  A(76,75,78)           109.4291         calculate D2E/DX2 analytically  !
 ! A152  A(77,75,78)           109.2457         calculate D2E/DX2 analytically  !
 ! A153  A(12,79,80)           106.8356         calculate D2E/DX2 analytically  !
 ! A154  A(12,79,81)           111.4981         calculate D2E/DX2 analytically  !
 ! A155  A(12,79,82)           110.8504         calculate D2E/DX2 analytically  !
 ! A156  A(80,79,81)           109.4918         calculate D2E/DX2 analytically  !
 ! A157  A(80,79,82)           109.3792         calculate D2E/DX2 analytically  !
 ! A158  A(81,79,82)           108.7505         calculate D2E/DX2 analytically  !
 ! A159  A(19,83,84)           100.7019         calculate D2E/DX2 analytically  !
 ! A160  A(83,84,85)           110.8514         calculate D2E/DX2 analytically  !
 ! A161  A(83,84,89)           136.3525         calculate D2E/DX2 analytically  !
 ! A162  A(85,84,89)           112.796          calculate D2E/DX2 analytically  !
 ! A163  A(84,85,86)           110.4726         calculate D2E/DX2 analytically  !
 ! A164  A(84,85,87)           106.0641         calculate D2E/DX2 analytically  !
 ! A165  A(84,85,88)           110.502          calculate D2E/DX2 analytically  !
 ! A166  A(86,85,87)           110.4761         calculate D2E/DX2 analytically  !
 ! A167  A(86,85,88)           109.0102         calculate D2E/DX2 analytically  !
 ! A168  A(87,85,88)           110.2961         calculate D2E/DX2 analytically  !
 ! A169  A(84,89,90)           110.9389         calculate D2E/DX2 analytically  !
 ! A170  A(84,89,91)           107.4499         calculate D2E/DX2 analytically  !
 ! A171  A(84,89,92)           110.9767         calculate D2E/DX2 analytically  !
 ! A172  A(90,89,91)           109.2518         calculate D2E/DX2 analytically  !
 ! A173  A(90,89,92)           108.893          calculate D2E/DX2 analytically  !
 ! A174  A(91,89,92)           109.2955         calculate D2E/DX2 analytically  !
 ! A175  A(57,93,94)           111.9005         calculate D2E/DX2 analytically  !
 ! A176  A(57,93,95)           112.5999         calculate D2E/DX2 analytically  !
 ! A177  A(57,93,96)           110.6781         calculate D2E/DX2 analytically  !
 ! A178  A(94,93,95)           107.7384         calculate D2E/DX2 analytically  !
 ! A179  A(94,93,96)           106.5049         calculate D2E/DX2 analytically  !
 ! A180  A(95,93,96)           107.1055         calculate D2E/DX2 analytically  !
 ! A181  A(59,97,98)           112.0935         calculate D2E/DX2 analytically  !
 ! A182  A(59,97,99)           111.1661         calculate D2E/DX2 analytically  !
 ! A183  A(59,97,100)          112.0694         calculate D2E/DX2 analytically  !
 ! A184  A(98,97,99)           106.7211         calculate D2E/DX2 analytically  !
 ! A185  A(98,97,100)          107.7665         calculate D2E/DX2 analytically  !
 ! A186  A(99,97,100)          106.7113         calculate D2E/DX2 analytically  !
 ! A187  L(11,37,34,10,-1)     174.8621         calculate D2E/DX2 analytically  !
 ! A188  L(11,37,34,10,-2)     192.5484         calculate D2E/DX2 analytically  !
 ! D1    D(5,1,2,3)            -51.691          calculate D2E/DX2 analytically  !
 ! D2    D(5,1,2,7)             65.0576         calculate D2E/DX2 analytically  !
 ! D3    D(5,1,2,13)          -176.0433         calculate D2E/DX2 analytically  !
 ! D4    D(8,1,2,3)             68.6897         calculate D2E/DX2 analytically  !
 ! D5    D(8,1,2,7)           -174.5617         calculate D2E/DX2 analytically  !
 ! D6    D(8,1,2,13)           -55.6626         calculate D2E/DX2 analytically  !
 ! D7    D(14,1,2,3)          -170.1367         calculate D2E/DX2 analytically  !
 ! D8    D(14,1,2,7)           -53.388          calculate D2E/DX2 analytically  !
 ! D9    D(14,1,2,13)           65.511          calculate D2E/DX2 analytically  !
 ! D10   D(2,1,5,4)             46.3323         calculate D2E/DX2 analytically  !
 ! D11   D(2,1,5,10)           -73.3127         calculate D2E/DX2 analytically  !
 ! D12   D(2,1,5,15)           165.6232         calculate D2E/DX2 analytically  !
 ! D13   D(8,1,5,4)            -74.0114         calculate D2E/DX2 analytically  !
 ! D14   D(8,1,5,10)           166.3435         calculate D2E/DX2 analytically  !
 ! D15   D(8,1,5,15)            45.2795         calculate D2E/DX2 analytically  !
 ! D16   D(14,1,5,4)           166.4241         calculate D2E/DX2 analytically  !
 ! D17   D(14,1,5,10)           46.7791         calculate D2E/DX2 analytically  !
 ! D18   D(14,1,5,15)          -74.285          calculate D2E/DX2 analytically  !
 ! D19   D(2,1,14,24)          -94.4231         calculate D2E/DX2 analytically  !
 ! D20   D(5,1,14,24)          145.1009         calculate D2E/DX2 analytically  !
 ! D21   D(8,1,14,24)           26.1445         calculate D2E/DX2 analytically  !
 ! D22   D(1,2,3,6)            173.267          calculate D2E/DX2 analytically  !
 ! D23   D(1,2,3,11)            59.0352         calculate D2E/DX2 analytically  !
 ! D24   D(1,2,3,12)           -64.0541         calculate D2E/DX2 analytically  !
 ! D25   D(7,2,3,6)             55.6365         calculate D2E/DX2 analytically  !
 ! D26   D(7,2,3,11)           -58.5954         calculate D2E/DX2 analytically  !
 ! D27   D(7,2,3,12)           178.3154         calculate D2E/DX2 analytically  !
 ! D28   D(13,2,3,6)           -64.9077         calculate D2E/DX2 analytically  !
 ! D29   D(13,2,3,11)         -179.1395         calculate D2E/DX2 analytically  !
 ! D30   D(13,2,3,12)           57.7712         calculate D2E/DX2 analytically  !
 ! D31   D(1,2,13,20)         -163.3588         calculate D2E/DX2 analytically  !
 ! D32   D(3,2,13,20)           73.6581         calculate D2E/DX2 analytically  !
 ! D33   D(7,2,13,20)          -45.2979         calculate D2E/DX2 analytically  !
 ! D34   D(2,3,11,4)           -63.0167         calculate D2E/DX2 analytically  !
 ! D35   D(2,3,11,37)           51.6264         calculate D2E/DX2 analytically  !
 ! D36   D(6,3,11,4)           177.9396         calculate D2E/DX2 analytically  !
 ! D37   D(6,3,11,37)          -67.4173         calculate D2E/DX2 analytically  !
 ! D38   D(12,3,11,4)           57.4114         calculate D2E/DX2 analytically  !
 ! D39   D(12,3,11,37)         172.0545         calculate D2E/DX2 analytically  !
 ! D40   D(2,3,12,79)         -172.5784         calculate D2E/DX2 analytically  !
 ! D41   D(6,3,12,79)          -49.6467         calculate D2E/DX2 analytically  !
 ! D42   D(11,3,12,79)          66.7269         calculate D2E/DX2 analytically  !
 ! D43   D(9,4,5,1)             72.1261         calculate D2E/DX2 analytically  !
 ! D44   D(9,4,5,10)          -169.304          calculate D2E/DX2 analytically  !
 ! D45   D(9,4,5,15)           -52.0178         calculate D2E/DX2 analytically  !
 ! D46   D(11,4,5,1)           -47.2511         calculate D2E/DX2 analytically  !
 ! D47   D(11,4,5,10)           71.3188         calculate D2E/DX2 analytically  !
 ! D48   D(11,4,5,15)         -171.395          calculate D2E/DX2 analytically  !
 ! D49   D(16,4,5,1)          -166.2707         calculate D2E/DX2 analytically  !
 ! D50   D(16,4,5,10)          -47.7008         calculate D2E/DX2 analytically  !
 ! D51   D(16,4,5,15)           69.5854         calculate D2E/DX2 analytically  !
 ! D52   D(5,4,11,3)            56.9573         calculate D2E/DX2 analytically  !
 ! D53   D(5,4,11,37)          -64.3973         calculate D2E/DX2 analytically  !
 ! D54   D(9,4,11,3)           -62.0125         calculate D2E/DX2 analytically  !
 ! D55   D(9,4,11,37)          176.633          calculate D2E/DX2 analytically  !
 ! D56   D(16,4,11,3)         -179.9213         calculate D2E/DX2 analytically  !
 ! D57   D(16,4,11,37)          58.7242         calculate D2E/DX2 analytically  !
 ! D58   D(5,4,16,17)          -72.8421         calculate D2E/DX2 analytically  !
 ! D59   D(5,4,16,18)          175.9447         calculate D2E/DX2 analytically  !
 ! D60   D(5,4,16,19)           51.8304         calculate D2E/DX2 analytically  !
 ! D61   D(9,4,16,17)           47.9977         calculate D2E/DX2 analytically  !
 ! D62   D(9,4,16,18)          -63.2155         calculate D2E/DX2 analytically  !
 ! D63   D(9,4,16,19)          172.6702         calculate D2E/DX2 analytically  !
 ! D64   D(11,4,16,17)         165.4581         calculate D2E/DX2 analytically  !
 ! D65   D(11,4,16,18)          54.2449         calculate D2E/DX2 analytically  !
 ! D66   D(11,4,16,19)         -69.8694         calculate D2E/DX2 analytically  !
 ! D67   D(1,5,15,28)           67.3144         calculate D2E/DX2 analytically  !
 ! D68   D(4,5,15,28)         -168.5887         calculate D2E/DX2 analytically  !
 ! D69   D(10,5,15,28)         -52.0612         calculate D2E/DX2 analytically  !
 ! D70   D(3,11,34,33)         133.6882         calculate D2E/DX2 analytically  !
 ! D71   D(3,11,34,42)         -77.1948         calculate D2E/DX2 analytically  !
 ! D72   D(3,11,34,53)          24.3744         calculate D2E/DX2 analytically  !
 ! D73   D(4,11,34,33)        -103.5648         calculate D2E/DX2 analytically  !
 ! D74   D(4,11,34,42)          45.5522         calculate D2E/DX2 analytically  !
 ! D75   D(4,11,34,53)         147.1214         calculate D2E/DX2 analytically  !
 ! D76   D(3,12,79,80)         176.0041         calculate D2E/DX2 analytically  !
 ! D77   D(3,12,79,81)         -64.401          calculate D2E/DX2 analytically  !
 ! D78   D(3,12,79,82)          56.9116         calculate D2E/DX2 analytically  !
 ! D79   D(2,13,20,21)         -69.5202         calculate D2E/DX2 analytically  !
 ! D80   D(2,13,20,22)          51.9068         calculate D2E/DX2 analytically  !
 ! D81   D(2,13,20,23)         171.4351         calculate D2E/DX2 analytically  !
 ! D82   D(1,14,24,25)         -60.1245         calculate D2E/DX2 analytically  !
 ! D83   D(1,14,24,26)          61.7704         calculate D2E/DX2 analytically  !
 ! D84   D(1,14,24,27)        -178.4777         calculate D2E/DX2 analytically  !
 ! D85   D(5,15,28,29)         -77.6786         calculate D2E/DX2 analytically  !
 ! D86   D(5,15,28,30)          43.9227         calculate D2E/DX2 analytically  !
 ! D87   D(5,15,28,31)         162.9991         calculate D2E/DX2 analytically  !
 ! D88   D(4,16,19,83)         -82.2977         calculate D2E/DX2 analytically  !
 ! D89   D(17,16,19,83)         38.5838         calculate D2E/DX2 analytically  !
 ! D90   D(18,16,19,83)        158.1072         calculate D2E/DX2 analytically  !
 ! D91   D(16,19,83,84)        -83.1034         calculate D2E/DX2 analytically  !
 ! D92   D(36,32,33,34)        -46.6089         calculate D2E/DX2 analytically  !
 ! D93   D(36,32,33,38)         66.5942         calculate D2E/DX2 analytically  !
 ! D94   D(36,32,33,44)       -173.1915         calculate D2E/DX2 analytically  !
 ! D95   D(39,32,33,34)         72.8169         calculate D2E/DX2 analytically  !
 ! D96   D(39,32,33,38)       -173.98           calculate D2E/DX2 analytically  !
 ! D97   D(39,32,33,44)        -53.7657         calculate D2E/DX2 analytically  !
 ! D98   D(45,32,33,34)       -164.9091         calculate D2E/DX2 analytically  !
 ! D99   D(45,32,33,38)        -51.706          calculate D2E/DX2 analytically  !
 ! D100  D(45,32,33,44)         68.5083         calculate D2E/DX2 analytically  !
 ! D101  D(33,32,36,35)         54.1119         calculate D2E/DX2 analytically  !
 ! D102  D(33,32,36,41)        -66.7521         calculate D2E/DX2 analytically  !
 ! D103  D(33,32,36,46)        171.2991         calculate D2E/DX2 analytically  !
 ! D104  D(39,32,36,35)        -65.905          calculate D2E/DX2 analytically  !
 ! D105  D(39,32,36,41)        173.2309         calculate D2E/DX2 analytically  !
 ! D106  D(39,32,36,46)         51.2822         calculate D2E/DX2 analytically  !
 ! D107  D(45,32,36,35)        174.0742         calculate D2E/DX2 analytically  !
 ! D108  D(45,32,36,41)         53.2101         calculate D2E/DX2 analytically  !
 ! D109  D(45,32,36,46)        -68.7386         calculate D2E/DX2 analytically  !
 ! D110  D(33,32,45,67)        -95.2075         calculate D2E/DX2 analytically  !
 ! D111  D(36,32,45,67)        145.5517         calculate D2E/DX2 analytically  !
 ! D112  D(39,32,45,67)         26.6212         calculate D2E/DX2 analytically  !
 ! D113  D(32,33,34,37)       -163.0515         calculate D2E/DX2 analytically  !
 ! D114  D(32,33,34,42)         40.0858         calculate D2E/DX2 analytically  !
 ! D115  D(32,33,34,53)        -61.9771         calculate D2E/DX2 analytically  !
 ! D116  D(38,33,34,37)         80.4291         calculate D2E/DX2 analytically  !
 ! D117  D(38,33,34,42)        -76.4336         calculate D2E/DX2 analytically  !
 ! D118  D(38,33,34,53)       -178.4965         calculate D2E/DX2 analytically  !
 ! D119  D(44,33,34,37)        -38.2965         calculate D2E/DX2 analytically  !
 ! D120  D(44,33,34,42)        164.8408         calculate D2E/DX2 analytically  !
 ! D121  D(44,33,34,53)         62.7779         calculate D2E/DX2 analytically  !
 ! D122  D(32,33,44,63)       -157.3072         calculate D2E/DX2 analytically  !
 ! D123  D(34,33,44,63)         76.0703         calculate D2E/DX2 analytically  !
 ! D124  D(38,33,44,63)        -38.2545         calculate D2E/DX2 analytically  !
 ! D125  D(33,34,42,35)        -38.8202         calculate D2E/DX2 analytically  !
 ! D126  D(37,34,42,35)        163.1719         calculate D2E/DX2 analytically  !
 ! D127  D(53,34,42,35)         66.4714         calculate D2E/DX2 analytically  !
 ! D128  D(33,34,53,51)        -80.0183         calculate D2E/DX2 analytically  !
 ! D129  D(37,34,53,51)         42.3286         calculate D2E/DX2 analytically  !
 ! D130  D(42,34,53,51)        158.5472         calculate D2E/DX2 analytically  !
 ! D131  D(40,35,36,32)         65.0909         calculate D2E/DX2 analytically  !
 ! D132  D(40,35,36,41)       -174.5957         calculate D2E/DX2 analytically  !
 ! D133  D(40,35,36,46)        -55.6691         calculate D2E/DX2 analytically  !
 ! D134  D(42,35,36,32)        -52.3364         calculate D2E/DX2 analytically  !
 ! D135  D(42,35,36,41)         67.9771         calculate D2E/DX2 analytically  !
 ! D136  D(42,35,36,46)       -173.0963         calculate D2E/DX2 analytically  !
 ! D137  D(47,35,36,32)       -173.3821         calculate D2E/DX2 analytically  !
 ! D138  D(47,35,36,41)        -53.0687         calculate D2E/DX2 analytically  !
 ! D139  D(47,35,36,46)         65.8579         calculate D2E/DX2 analytically  !
 ! D140  D(36,35,42,34)         44.4798         calculate D2E/DX2 analytically  !
 ! D141  D(40,35,42,34)        -74.4854         calculate D2E/DX2 analytically  !
 ! D142  D(47,35,42,34)        169.6767         calculate D2E/DX2 analytically  !
 ! D143  D(36,35,47,48)        -60.3103         calculate D2E/DX2 analytically  !
 ! D144  D(36,35,47,49)       -179.0439         calculate D2E/DX2 analytically  !
 ! D145  D(36,35,47,50)         59.8284         calculate D2E/DX2 analytically  !
 ! D146  D(40,35,47,48)         61.3042         calculate D2E/DX2 analytically  !
 ! D147  D(40,35,47,49)        -57.4293         calculate D2E/DX2 analytically  !
 ! D148  D(40,35,47,50)       -178.5571         calculate D2E/DX2 analytically  !
 ! D149  D(42,35,47,48)        175.4903         calculate D2E/DX2 analytically  !
 ! D150  D(42,35,47,49)         56.7568         calculate D2E/DX2 analytically  !
 ! D151  D(42,35,47,50)        -64.371          calculate D2E/DX2 analytically  !
 ! D152  D(32,36,46,71)         98.6185         calculate D2E/DX2 analytically  !
 ! D153  D(35,36,46,71)       -140.8413         calculate D2E/DX2 analytically  !
 ! D154  D(41,36,46,71)        -22.3813         calculate D2E/DX2 analytically  !
 ! D155  D(33,44,63,64)        -69.5165         calculate D2E/DX2 analytically  !
 ! D156  D(33,44,63,65)         52.519          calculate D2E/DX2 analytically  !
 ! D157  D(33,44,63,66)        170.8256         calculate D2E/DX2 analytically  !
 ! D158  D(32,45,67,68)        -58.6999         calculate D2E/DX2 analytically  !
 ! D159  D(32,45,67,69)         63.4651         calculate D2E/DX2 analytically  !
 ! D160  D(32,45,67,70)       -177.0519         calculate D2E/DX2 analytically  !
 ! D161  D(36,46,71,72)        -61.5013         calculate D2E/DX2 analytically  !
 ! D162  D(36,46,71,73)         60.39           calculate D2E/DX2 analytically  !
 ! D163  D(36,46,71,74)        178.9343         calculate D2E/DX2 analytically  !
 ! D164  D(35,47,50,75)       -173.3115         calculate D2E/DX2 analytically  !
 ! D165  D(48,47,50,75)        -54.5591         calculate D2E/DX2 analytically  !
 ! D166  D(49,47,50,75)         65.6898         calculate D2E/DX2 analytically  !
 ! D167  D(47,50,75,76)       -179.8471         calculate D2E/DX2 analytically  !
 ! D168  D(47,50,75,77)        -60.3483         calculate D2E/DX2 analytically  !
 ! D169  D(47,50,75,78)         61.0515         calculate D2E/DX2 analytically  !
 ! D170  D(43,51,53,34)        -19.1335         calculate D2E/DX2 analytically  !
 ! D171  D(52,51,53,34)       -151.1554         calculate D2E/DX2 analytically  !
 ! D172  D(54,51,53,34)         95.8232         calculate D2E/DX2 analytically  !
 ! D173  D(43,51,54,55)          4.0476         calculate D2E/DX2 analytically  !
 ! D174  D(43,51,54,56)       -179.9164         calculate D2E/DX2 analytically  !
 ! D175  D(52,51,54,55)        129.5202         calculate D2E/DX2 analytically  !
 ! D176  D(52,51,54,56)        -54.4438         calculate D2E/DX2 analytically  !
 ! D177  D(53,51,54,55)       -115.2396         calculate D2E/DX2 analytically  !
 ! D178  D(53,51,54,56)         60.7964         calculate D2E/DX2 analytically  !
 ! D179  D(51,54,55,57)        174.8001         calculate D2E/DX2 analytically  !
 ! D180  D(51,54,55,58)         -3.6442         calculate D2E/DX2 analytically  !
 ! D181  D(56,54,55,57)         -1.1599         calculate D2E/DX2 analytically  !
 ! D182  D(56,54,55,58)       -179.6041         calculate D2E/DX2 analytically  !
 ! D183  D(51,54,56,59)       -175.3225         calculate D2E/DX2 analytically  !
 ! D184  D(51,54,56,60)          4.1167         calculate D2E/DX2 analytically  !
 ! D185  D(55,54,56,59)          0.6472         calculate D2E/DX2 analytically  !
 ! D186  D(55,54,56,60)       -179.9136         calculate D2E/DX2 analytically  !
 ! D187  D(54,55,57,61)          0.745          calculate D2E/DX2 analytically  !
 ! D188  D(54,55,57,93)       -174.2443         calculate D2E/DX2 analytically  !
 ! D189  D(58,55,57,61)        179.1594         calculate D2E/DX2 analytically  !
 ! D190  D(58,55,57,93)          4.1701         calculate D2E/DX2 analytically  !
 ! D191  D(54,56,59,61)          0.2905         calculate D2E/DX2 analytically  !
 ! D192  D(54,56,59,97)        175.4438         calculate D2E/DX2 analytically  !
 ! D193  D(60,56,59,61)       -179.1476         calculate D2E/DX2 analytically  !
 ! D194  D(60,56,59,97)         -3.9943         calculate D2E/DX2 analytically  !
 ! D195  D(55,57,61,59)          0.1681         calculate D2E/DX2 analytically  !
 ! D196  D(55,57,61,62)       -179.5228         calculate D2E/DX2 analytically  !
 ! D197  D(93,57,61,59)        175.0278         calculate D2E/DX2 analytically  !
 ! D198  D(93,57,61,62)         -4.6631         calculate D2E/DX2 analytically  !
 ! D199  D(55,57,93,94)        -47.5074         calculate D2E/DX2 analytically  !
 ! D200  D(55,57,93,95)       -169.0425         calculate D2E/DX2 analytically  !
 ! D201  D(55,57,93,96)         71.1133         calculate D2E/DX2 analytically  !
 ! D202  D(61,57,93,94)        137.5089         calculate D2E/DX2 analytically  !
 ! D203  D(61,57,93,95)         15.9738         calculate D2E/DX2 analytically  !
 ! D204  D(61,57,93,96)       -103.8705         calculate D2E/DX2 analytically  !
 ! D205  D(56,59,61,57)         -0.6909         calculate D2E/DX2 analytically  !
 ! D206  D(56,59,61,62)        179.0002         calculate D2E/DX2 analytically  !
 ! D207  D(97,59,61,57)       -175.8466         calculate D2E/DX2 analytically  !
 ! D208  D(97,59,61,62)          3.8444         calculate D2E/DX2 analytically  !
 ! D209  D(56,59,97,98)         31.8269         calculate D2E/DX2 analytically  !
 ! D210  D(56,59,97,99)        -87.5235         calculate D2E/DX2 analytically  !
 ! D211  D(56,59,97,100)       153.1548         calculate D2E/DX2 analytically  !
 ! D212  D(61,59,97,98)       -152.9658         calculate D2E/DX2 analytically  !
 ! D213  D(61,59,97,99)         87.6839         calculate D2E/DX2 analytically  !
 ! D214  D(61,59,97,100)       -31.6379         calculate D2E/DX2 analytically  !
 ! D215  D(19,83,84,85)         -8.0934         calculate D2E/DX2 analytically  !
 ! D216  D(19,83,84,89)        171.9262         calculate D2E/DX2 analytically  !
 ! D217  D(83,84,85,86)       -119.7103         calculate D2E/DX2 analytically  !
 ! D218  D(83,84,85,87)          0.0305         calculate D2E/DX2 analytically  !
 ! D219  D(83,84,85,88)        119.5718         calculate D2E/DX2 analytically  !
 ! D220  D(89,84,85,86)         60.275          calculate D2E/DX2 analytically  !
 ! D221  D(89,84,85,87)       -179.9841         calculate D2E/DX2 analytically  !
 ! D222  D(89,84,85,88)        -60.4428         calculate D2E/DX2 analytically  !
 ! D223  D(83,84,89,90)       -119.8153         calculate D2E/DX2 analytically  !
 ! D224  D(83,84,89,91)         -0.4521         calculate D2E/DX2 analytically  !
 ! D225  D(83,84,89,92)        118.9859         calculate D2E/DX2 analytically  !
 ! D226  D(85,84,89,90)         60.2045         calculate D2E/DX2 analytically  !
 ! D227  D(85,84,89,91)        179.5677         calculate D2E/DX2 analytically  !
 ! D228  D(85,84,89,92)        -60.9943         calculate D2E/DX2 analytically  !
 --------------------------------------------------------------------------------
 Trust Radius=3.00D-02 FncErr=1.00D-07 GrdErr=1.00D-06 EigMax=2.50D+02 EigMin=1.00D-04
 Number of steps in this run=    528 maximum allowed number of steps=    600.
 Search for a saddle point of order  1.
 Step   0 in ReCalcFC=30 IGetFC= 4 compute analytic Hessian.
 GradGradGradGradGradGradGradGradGradGradGradGradGradGradGradGradGradGrad

 Leave Link  103 at Wed May  8 08:00:47 2019, MaxMem=  6442450944 cpu:               4.8 elap:               0.2
 (Enter /home/ekwan/sw/g16/l202.exe)
 Stoichiometry    C30H47F6NaO15S
 Framework group  C1[X(C30H47F6NaO15S)]
 Deg. of freedom   294
 Full point group                 C1      NOp   1
 Largest Abelian subgroup         C1      NOp   1
 Largest concise Abelian subgroup C1      NOp   1
                         Standard orientation:                         
 ---------------------------------------------------------------------
 Center     Atomic      Atomic             Coordinates (Angstroms)
 Number     Number       Type             X           Y           Z
 ---------------------------------------------------------------------
      1          6           0        4.175231   -2.107386   -0.865339
      2          6           0        2.831591   -2.831861   -0.983421
      3          6           0        2.329021   -3.263552    0.397169
      4          6           0        3.412472   -1.403161    1.480264
      5          6           0        4.092170   -0.978436    0.170154
      6          1           0        1.318108   -3.676139    0.345325
      7          1           0        2.091212   -2.122820   -1.385039
      8          1           0        4.947224   -2.824765   -0.558803
      9          1           0        4.098469   -2.065915    2.024189
     10          1           0        3.502790   -0.171386   -0.286404
     11          8           0        2.189284   -2.113780    1.215186
     12          8           0        3.230874   -4.199965    0.924667
     13          8           0        2.983198   -3.918562   -1.879049
     14          8           0        4.522264   -1.512224   -2.116464
     15          8           0        5.366034   -0.479715    0.567306
     16          6           0        3.028627   -0.209383    2.375936
     17          1           0        3.984092    0.173961    2.794463
     18          1           0        2.488096   -0.663380    3.235197
     19          8           0        2.298107    0.765684    1.737912
     20          6           0        1.750094   -4.436401   -2.361472
     21          1           0        1.184024   -4.953784   -1.575844
     22          1           0        1.114214   -3.642278   -2.774962
     23          1           0        1.997937   -5.152883   -3.148423
     24          6           0        5.362537   -2.309037   -2.939580
     25          1           0        6.317021   -2.527638   -2.436676
     26          1           0        4.878886   -3.250960   -3.213647
     27          1           0        5.565566   -1.722927   -3.840015
     28          6           0        6.122948    0.215753   -0.410979
     29          1           0        6.607892   -0.460770   -1.122588
     30          1           0        5.502097    0.920241   -0.982515
     31          1           0        6.891226    0.773355    0.133417
     32          6           0       -1.266025    1.964584    0.148420
     33          6           0       -0.427550    0.929415    0.899646
     34          6           0        0.614076    0.269116    0.025164
     35          6           0        0.567636    2.036555   -1.583885
     36          6           0       -0.340949    2.865673   -0.669211
     37          1           0        1.086300   -0.651722    0.328214
     38          1           0        0.180845    1.455261    1.649311
     39          1           0       -1.960649    1.458758   -0.531268
     40          1           0       -0.049407    1.523848   -2.325248
     41          1           0        0.271465    3.461965    0.019605
     42          8           0        1.283187    0.993174   -0.853362
     43          8           0       -0.770627   -2.768347   -0.063199
     44          8           0       -1.277820    0.005252    1.526374
     45          8           0       -1.971929    2.786869    1.062953
     46          8           0       -1.077150    3.711789   -1.535332
     47          6           0        1.616631    2.851601   -2.304814
     48          1           0        1.101752    3.593006   -2.926748
     49          1           0        2.217658    2.199139   -2.952205
     50          8           0        2.452669    3.501565   -1.352179
     51         16           0       -1.300989   -1.935973   -1.159711
     52          8           0       -1.450636   -2.585842   -2.477060
     53          8           0       -0.544392   -0.613230   -1.325238
     54          6           0       -2.945296   -1.409859   -0.663582
     55          6           0       -3.417933   -1.743660    0.597111
     56          6           0       -3.689747   -0.602979   -1.521402
     57          6           0       -4.649205   -1.240508    1.017024
     58          1           0       -2.814471   -2.367094    1.244209
     59          6           0       -4.923337   -0.116304   -1.092238
     60          1           0       -3.309304   -0.350827   -2.504600
     61          6           0       -5.407111   -0.425507    0.180662
     62          1           0       -6.358698   -0.031546    0.515012
     63          6           0       -0.701248   -0.682535    2.637685
     64          1           0        0.076998   -1.381160    2.319192
     65          1           0       -0.278336    0.030662    3.356424
     66          1           0       -1.524198   -1.225879    3.106857
     67          6           0       -3.307465    2.364397    1.327612
     68          1           0       -3.896888    2.330056    0.402519
     69          1           0       -3.331626    1.382580    1.809462
     70          1           0       -3.739136    3.112405    1.997424
     71          6           0       -1.272020    5.032471   -1.038385
     72          1           0       -1.841004    5.022930   -0.104015
     73          1           0       -0.308498    5.535865   -0.873078
     74          1           0       -1.830180    5.572722   -1.806488
     75          6           0        3.368660    4.407782   -1.962909
     76          1           0        3.961923    4.850387   -1.160455
     77          1           0        4.030825    3.883321   -2.664295
     78          1           0        2.829853    5.199550   -2.497657
     79          6           0        2.771499   -4.793006    2.133951
     80          1           0        3.507452   -5.549308    2.414811
     81          1           0        2.683949   -4.051782    2.936994
     82          1           0        1.793390   -5.272548    1.987591
     83         11           0        3.178871    2.318791    0.517272
     84          8           0        3.775249    3.828962    2.118710
     85          6           0        3.257737    3.448037    3.394921
     86          1           0        2.586677    4.225752    3.785246
     87          1           0        2.709767    2.516055    3.233210
     88          1           0        4.076228    3.289624    4.110320
     89          6           0        4.520705    5.035634    2.165551
     90          1           0        5.381327    4.939512    2.841833
     91          1           0        4.878690    5.239026    1.153685
     92          1           0        3.894010    5.872241    2.503963
     93          6           0       -5.080624   -1.505583    2.430425
     94          9           0       -4.919824   -2.802240    2.771341
     95          9           0       -6.370776   -1.180683    2.647860
     96          9           0       -4.333146   -0.781007    3.304290
     97          6           0       -5.689390    0.837174   -1.964759
     98          9           0       -5.476644    0.606993   -3.276627
     99          9           0       -5.319901    2.123306   -1.728543
    100          9           0       -7.019288    0.768842   -1.745013
 ---------------------------------------------------------------------
 Rotational constants (GHZ):           0.0651829           0.0377800           0.0318839
 Leave Link  202 at Wed May  8 08:00:47 2019, MaxMem=  6442450944 cpu:               5.7 elap:               0.2
 (Enter /home/ekwan/sw/g16/l301.exe)
 Standard basis: 6-31G(d) (6D, 7F)
 Ernie: Thresh=  0.10000D-02 Tol=  0.10000D-05 Strict=F.
 There are   897 symmetry adapted cartesian basis functions of A   symmetry.
 There are   897 symmetry adapted basis functions of A   symmetry.
   897 basis functions,  1720 primitive gaussians,   897 cartesian basis functions
   214 alpha electrons      214 beta electrons
       nuclear repulsion energy      9581.1878767508 Hartrees.
 IExCor=  402 DFT=T Ex+Corr=B3LYP ExCW=0 ScaHFX=  0.200000
 ScaDFX=  0.800000  0.720000  1.000000  0.810000 ScalE2=  1.000000  1.000000
 IRadAn=      5 IRanWt=     -1 IRanGd=            0 ICorTp=0 IEmpDi=141
 NAtoms=  100 NActive=  100 NUniq=  100 SFac= 1.00D+00 NAtFMM=   60 NAOKFM=T Big=T
 Integral buffers will be    131072 words long.
 Raffenetti 2 integral format.
 Two-electron integral symmetry is turned on.
 R6Disp:  Grimme-D3(BJ) Dispersion energy=       -0.2328680709 Hartrees.
 Nuclear repulsion after empirical dispersion term =     9580.9550086799 Hartrees.
 Force inversion solution in PCM.
 ------------------------------------------------------------------------------
 Polarizable Continuum Model (PCM)
 =================================
 Model                : PCM.
 Atomic radii         : UFF (Universal Force Field).
 Polarization charges : Total charges.
 Charge compensation  : None.
 Solution method      : Matrix inversion.
 Cavity type          : Scaled VdW (van der Waals Surface) (Alpha=1.100).
 Cavity algorithm     : GePol (No added spheres)
                        Default sphere list used, NSphG=  100.
                        Lebedev-Laikov grids with approx.  5.0 points / Ang**2.
                        Smoothing algorithm: York/Karplus (Gamma=1.0000).
                        Polarization charges: spherical gaussians, with
                                              point-specific exponents (IZeta= 3).
                        Self-potential: point-specific (ISelfS= 7).
                        Self-field    : sphere-specific E.n sum rule (ISelfD= 2).
 1st derivatives      : Analytical E(r).r(x)/FMM algorithm (CHGder, D1EAlg=3).
                        Cavity 1st derivative terms included.
 2nd derivatives      : Analytical E(r).r(xy)/FMM algorithm (CHGder, D2EAlg=3).
                        Cavity 2nd derivative terms included.
 Solvent              : TetraHydroFuran, Eps=   7.425700 Eps(inf)=   1.974025
 ------------------------------------------------------------------------------
 GePol: Number of generator spheres                  =     100
 GePol: Total number of spheres                      =     100
 GePol: Number of exposed spheres                    =     100 (100.00%)
 GePol: Number of points                             =    6284
 GePol: Average weight of points                     =       0.12
 GePol: Minimum weight of points                     =   0.10D-10
 GePol: Maximum weight of points                     =    0.21371
 GePol: Number of points with low weight             =     449
 GePol: Fraction of low-weight points (<1% of avg)   =       7.15%
 GePol: Cavity surface area                          =    781.515 Ang**2
 GePol: Cavity volume                                =    977.836 Ang**3
 Leave Link  301 at Wed May  8 08:00:52 2019, MaxMem=  6442450944 cpu:              64.1 elap:               4.8
 (Enter /home/ekwan/sw/g16/l302.exe)
 NPDir=0 NMtPBC=     1 NCelOv=     1 NCel=       1 NClECP=     1 NCelD=      1
         NCelK=      1 NCelE2=     1 NClLst=     1 CellRange=     0.0.
 One-electron integrals computed using PRISM.
 One-electron integral symmetry used in STVInt
 NBasis=   897 RedAO= T EigKep=  4.06D-04  NBF=   897
 NBsUse=   897 1.00D-06 EigRej= -1.00D+00 NBFU=   897
 Precomputing XC quadrature grid using
 IXCGrd= 4 IRadAn=           5 IRanWt=          -1 IRanGd=           0 AccXCQ= 0.00D+00.
 Generated NRdTot=       0 NPtTot=           0 NUsed=           0 NTot=          32
 NSgBfM=   839   834   834   834   839 MxSgAt=   100 MxSgA2=   100.
 Leave Link  302 at Wed May  8 08:01:11 2019, MaxMem=  6442450944 cpu:             508.4 elap:              18.6
 (Enter /home/ekwan/sw/g16/l303.exe)
 DipDrv:  MaxL=1.
 Leave Link  303 at Wed May  8 08:01:11 2019, MaxMem=  6442450944 cpu:              13.5 elap:               0.6
 (Enter /home/ekwan/sw/g16/l401.exe)
 ExpMin= 2.60D-02 ExpMax= 2.19D+04 ExpMxC= 3.30D+03 IAcc=3 IRadAn=         5 AccDes= 0.00D+00
 Harris functional with IExCor=  402 and IRadAn=       5 diagonalized for initial guess.
 HarFok:  IExCor=  402 AccDes= 0.00D+00 IRadAn=         5 IDoV= 1 UseB2=F ITyADJ=14
 ICtDFT=  3500011 ScaDFX=  1.000000  1.000000  1.000000  1.000000
 FoFCou: FMM=F IPFlag=           0 FMFlag=      100000 FMFlg1=        2001
         NFxFlg=           0 DoJE=T BraDBF=F KetDBF=T FulRan=T
         wScrn=  0.000000 ICntrl=       500 IOpCl=  0 I1Cent=   200000004 NGrid=           0
         NMat0=    1 NMatS0=      1 NMatT0=    0 NMatD0=    1 NMtDS0=    0 NMtDT0=    0
 Petite list used in FoFCou.
 Harris En= -3459.37106254541    
 JPrj=0 DoOrth=F DoCkMO=F.
 Leave Link  401 at Wed May  8 08:01:31 2019, MaxMem=  6442450944 cpu:             608.2 elap:              20.0
 (Enter /home/ekwan/sw/g16/l502.exe)
 Integral symmetry usage will be decided dynamically.
 Closed shell SCF:
 Using DIIS extrapolation, IDIIS=  1040.
 NGot=  6442450944 LenX=  6440803163 LenY=  6439997657
 Requested convergence on RMS density matrix=1.00D-08 within 128 cycles.
 Requested convergence on MAX density matrix=1.00D-06.
 Requested convergence on             energy=1.00D-06.
 No special actions if energy rises.
 Fock matrices will be formed incrementally for  20 cycles.

 Cycle   1  Pass 1  IDiag  1:
 FoFJK:  IHMeth= 1 ICntrl=       0 DoSepK=F KAlg= 0 I1Cent=           0 FoldK=F
 IRaf= 850000000 NMat=       1 IRICut=       1 DoRegI=T DoRafI=F ISym2E= 0 IDoP0=0 IntGTp=1.
 FoFCou: FMM=T IPFlag=           0 FMFlag=      100000 FMFlg1=        2001
         NFxFlg=           0 DoJE=F BraDBF=F KetDBF=F FulRan=T
         wScrn=  0.000000 ICntrl=         0 IOpCl=  0 I1Cent=           0 NGrid=           0
         NMat0=    1 NMatS0=      1 NMatT0=    0 NMatD0=    1 NMtDS0=    0 NMtDT0=    0
 Symmetry not used in FoFCou.
 FMM levels:  10  Number of levels for PrismC:   9
 Inv3:  Mode=1 IEnd=   118465968.
 Iteration    1 A*A^-1 deviation from unit magnitude is 6.66D-15 for   6279.
[...]
 .00038770,0.00012007,-0.00012233,0.00000626,0.00000618,0.00003115,0.00
 002324,0.00003082,-0.00003053,-0.00002581,-0.00000064,0.00001254,-0.00
 003336,0.00003688,-0.00001342,-0.00364651,0.00012436,0.00167651,0.0008
 2971,-0.00033608,-0.00077317,0.00166213,0.00123709,-0.00008954,0.00165
 895,0.00051785,0.00175482,0.00005431,-0.00100184,0.00023486,-0.0026967
 7,-0.00032752,0.00249179,0.00173216,0.00017642,0.00184259,-0.00015956,
 -0.00006935,-0.00003331,-0.00409126,-0.04596017,0.00198721,-0.00060301
 ,-0.00081709,-0.00071773,0.00257859,-0.00123313,-0.00280180,-0.0007846
 0,-0.00078807,-0.00046978,-0.00009482,0.00004055,-0.00012327,-0.000018
 72,0.00000783,-0.00001573,0.00005362,0.00003992,0.00005567,-0.00002056
 ,0.00000668,-0.00009961,0.00164258,0.00036762,0.00142540,0.00020913,-0
 .00058526,0.00045605,-0.00024278,-0.00001734,-0.00054528,-0.00010123,0
 .00001992,-0.00021715,0.00011786,0.00002008,-0.00003112,0.00003376,0.0
 0004162,0.00007428,-0.00008758,-0.00000404,0.00000415,0.00002418,0.000
 07219,-0.00004446,0.00001531,-0.00001566,0.00000146,0.00000156,-0.0000
 0218,-0.00000278,-0.00000433,0.00000496,0.00000539,-0.00000081,0.00000
 661,-0.00000647,-0.00001290,0.00000430,-0.00003428,0.00000694,-0.00000
 741,0.00000427,-0.00000389,0.00000027,0.00000276,0.00000276,0.00000694
 ,0.00000545,-0.00000053,-0.00008772,0.00000310,-0.00001143,0.00002867,
 -0.00000974,0.00000847,-0.00001541,0.00001109,-0.00000004,0.00001197,0
 .00000533,0.00000425,-0.00001641,-0.00001356,-0.00000513,0.00000327,-0
 .00000289,0.00000549,-0.00001822,0.00000075,-0.00000356,0.00000368,-0.
 00000297,0.00000465,-0.00000074,-0.00000029,-0.00000174,0.00000727,0.0
 0000592,0.00116504,0.00019109,-0.00275834,-0.00014898,-0.00053606,0.00
 075396,-0.00055464,0.00002936,0.00067902,0.00010557,0.00036400,0.00121
 292,-0.03081939,-0.23606419,-0.01332783,-0.00442761,-0.02943121,-0.043
 62908,0.07886808,0.33382873,0.00001298,0.00000899,-0.00002432,0.000010
 72,-0.00002810,-0.00001982,0.00004505,-0.00004476,-0.00001258,0.000030
 46,0.00001623,0.00000569,0.00002253,0.00000311,0.,0.00000693,-0.000018
 73,0.00000844,0.00000301,0.00000558,-0.00001163,-0.00000432,0.00000030
 ,0.00000320,-0.00000969,0.00000548,-0.00000089,0.00000268,0.00000075,-
 0.00000811,-0.00004927,0.00003077,0.00000578,-0.00003519,0.00003188,-0
 .00001237,-0.00001074,0.00002363,0.00002559,-0.00001776,-0.00000083,0.
 00003376,-0.00002716,-0.00001063,0.00001326,0.00003739,-0.00006422,0.0
 0003611,-0.00002556,0.00000804,-0.00001658,-0.00000065,0.00000991,-0.0
 0000398,-0.00012866,0.00002119,-0.00005194,-0.00000388,-0.00000596,-0.
 00000086,0.00000299,-0.00000905,0.00000367,0.00000856,0.00000346,-0.00
 001307,-0.00000632,0.00000709,0.00000367,0.00001101,-0.00000962,-0.000
 01300,-0.00000161,0.00000150,0.00000110,0.00000001,0.00000299,-0.00000
 070,-0.00000326,-0.00000103,0.00000389,0.00001256,0.00000988,-0.000016
 29,-0.00000282,0.00000093,0.00000379,0.00000307,-0.00000309,0.00000116
 ,-0.00000249,-0.00000226,0.00000082,0.00033581,-0.00018848,-0.00013246
 ,0.00002710,0.00006728,-0.00002458,0.00028872,0.00017216,0.00002255,-0
 .00001753,-0.00000694,-0.00006336,-0.00000844,0.00013331,-0.00009028,0
 .00000042,-0.00003107,0.00001674,-0.00000081,-0.00001932,0.00000789,0.
 00004298,0.00002150,-0.00002337,0.00000382,0.00000797,-0.00000921,-0.0
 0000663,-0.00001778,0.00001226,-0.00011019,-0.00011208,0.00011205,-0.0
 0035783,0.00023354,0.00005630,-0.00022560,-0.00003330,-0.00008937,-0.0
 0114652,-0.00017524,0.00002122,0.00001265,-0.00010103,0.00008534,0.000
 00628,0.00003291,-0.00001251,-0.00000068,-0.00001204,-0.00000171,-0.00
 002129,-0.00000459,0.00000651,-0.00003483,-0.00002556,0.00003252,0.001
 02261,-0.00035058,-0.00080391,-0.00019245,0.00017406,0.00036313,-0.000
 43923,-0.00018689,0.00012834,-0.00088255,-0.00000540,-0.00111674,-0.00
 062176,0.00043839,0.00031999,0.00176459,0.00085327,-0.00097957,-0.0001
 5882,-0.00063190,0.00036715,0.00004310,-0.00001082,0.00002659,-0.00092
 221,0.01785012,0.00969562,-0.00018073,0.00041322,0.00014399,-0.0001721
 6,-0.00053393,0.00057532,0.00010445,0.00004850,0.00010517,0.00006734,-
 0.00007894,0.00014582,-0.00000956,0.00001005,-0.00001117,-0.00001971,-
 0.00001103,-0.00003167,0.00001280,0.00000425,0.00001700,0.00119795,0.0
 0026026,0.00086680,-0.00098706,0.00014450,-0.00177433,-0.00010730,-0.0
 0002005,-0.00024946,-0.00011254,-0.00005852,-0.00025939,0.00001884,0.0
 0005817,-0.00002062,-0.00000569,0.00002861,0.00000922,-0.00001358,-0.0
 0000812,0.00000259,0.00000669,-0.00001823,0.00000880,0.00002067,0.0000
 2391,-0.00001969,-0.00000218,-0.00000363,0.00000107,-0.00000567,0.0000
 0006,0.00000504,0.00000017,-0.00000554,0.00000242,-0.00000014,-0.00000
 921,0.00001043,-0.00000300,0.00000340,-0.00000188,0.00000226,0.0000015
 5,0.00000135,0.00000156,-0.00000185,-0.00000220,0.00004474,0.00001909,
 -0.00000878,-0.00002041,-0.00001464,0.00000378,0.00001206,0.00000253,-
 0.00000888,-0.00000038,0.00000201,0.00000300,0.00000441,0.00000255,0.0
 0000774,-0.00000528,-0.00000124,-0.00000052,0.00001264,0.00001307,-0.0
 0000198,-0.00000291,-0.00000119,-0.00000211,-0.00000097,-0.00000142,0.
 00000304,-0.00000034,-0.00000088,-0.00000025,-0.00024504,-0.00027105,0
 .00070927,0.00003277,0.00017727,-0.00018439,0.00015855,0.00003277,-0.0
 0017694,0.00002884,0.00001577,-0.00020916,-0.00375159,-0.01126640,-0.0
 7190063,-0.00786032,-0.05947667,-0.03161960,0.01417150,0.05150677,0.08
 338451,0.00003703,0.00001708,-0.00002970,0.00005332,-0.00008180,-0.000
 02198,0.00013308,-0.00010162,0.00002345,0.00008491,0.00003908,0.000028
 06,0.00006970,0.00000231,0.00001528,0.00001701,-0.00005917,0.00002753,
 0.00000226,0.00001898,-0.00003207,-0.00001700,0.00000401,0.00000414,-0
 .00002704,0.00001542,-0.00000644,0.00000475,0.00001115,-0.00001763,-0.
 00012613,0.00005748,-0.00002850,-0.00010070,0.00010128,-0.00008223,-0.
 00005712,0.00006011,0.00002171,-0.00006401,0.00000814,0.00004783,-0.00
 007444,-0.00002749,0.00000885,0.00008263,-0.00016495,0.00010775,-0.000
 06615,0.00001995,-0.00004548,0.00000319,0.00003320,-0.00002460,-0.0002
 9761,0.00002267,-0.00019598,0.00002327,-0.00003679,0.00003186,0.000006
 13,-0.00001771,0.00000037,0.00001310,0.00002196,-0.00003197,-0.0000168
 6,0.00001463,0.00000993,0.00004288,-0.00002783,-0.00002496,-0.00001256
 ,0.00000452,-0.00000451,0.00000262,0.00000212,-0.00000074,-0.00000167,
 0.00000089,0.00000498,0.00003565,0.00001659,-0.00002581,-0.00000446,0.
 00000054,0.00000935,0.00000173,0.00000021,0.00000320,-0.00000978,-0.00
 000712,-0.00000112,0.00021901,0.00018187,0.00026230,0.00000169,0.00006
 776,-0.00010366,0.00081762,0.00054837,0.00048740,0.00003754,0.00008333
 ,-0.00001711,0.00007189,0.00009960,-0.00007483,0.00001545,-0.00010142,
 -0.00000972,-0.00000556,-0.00002359,-0.00001372,0.00003033,0.00002708,
 -0.00005202,0.00003276,0.00000481,-0.00004187,-0.00004665,-0.00004978,
 -0.00000085,-0.00027740,-0.00024990,0.00008185,-0.00122458,0.00070723,
 -0.00024940,-0.00033646,-0.00011685,-0.00027247,-0.00036536,-0.0002242
 5,-0.00018907,-0.00006565,-0.00027019,0.00000425,0.00009262,0.00007183
 ,0.00000536,-0.00000104,-0.00000507,-0.00001556,-0.00002444,-0.0000062
 3,0.00000079,-0.00014535,-0.00010486,0.00000114,0.00306592,-0.00043627
 ,-0.00155287,-0.00063063,0.00047187,0.00079864,-0.00132635,-0.00068810
 ,0.00007248,-0.00159727,0.00140453,0.00108210,-0.00013939,0.00027669,-
 0.00021105,-0.00066382,0.00265961,-0.00722947,0.00013283,0.00129269,-0
 .00068167,0.00007935,-0.00015218,-0.00015808,-0.04308547,0.00285398,0.
 00539244,0.00054552,-0.00070078,0.00000589,-0.00118669,-0.00017625,0.0
 0380862,0.00006704,-0.00014175,-0.00231555,0.00012655,-0.00013844,0.00
 029454,-0.00000675,0.00000869,-0.00000888,-0.00004925,-0.00003139,-0.0
 0006774,0.00002791,0.00001608,0.00004284,0.00049984,0.00018884,0.00042
 970,-0.00001836,0.00012020,0.00011359,-0.00001227,0.00001563,0.0000159
 8,-0.00005818,-0.00011210,-0.00014739,0.00000456,0.00021970,0.00006153
 ,0.00000674,0.00001151,-0.00000610,-0.00004159,-0.00003276,-0.00001678
 ,0.00001186,-0.00000233,0.00000163,0.00006503,0.00006413,-0.00004707,-
 0.00001393,-0.00001310,-0.00000385,-0.00000911,-0.00000280,0.00001354,
 -0.00000091,-0.00000914,0.00001176,-0.00001188,-0.00003163,0.00005808,
 -0.00000728,0.00001084,-0.00000788,0.00000601,-0.00000009,-0.00000310,
 0.00000707,-0.00000237,-0.00000576,0.00009909,0.00005923,0.00003136,-0
 .00002752,-0.00002959,-0.00001825,0.00001105,0.00000276,0.00000056,0.0
 0000039,-0.00000503,0.00000140,0.00000540,0.00001445,0.00002590,-0.000
 01000,-0.00000384,-0.00000387,0.00002025,0.00002786,0.00000158,-0.0000
 0629,-0.00000173,-0.00000470,0.00000071,-0.00000086,0.00000433,0.00000
 098,-0.00000433,-0.00000046,-0.00117741,-0.00033896,0.00195926,0.00015
 906,0.00044661,-0.00059114,0.00065372,-0.00002988,-0.00049373,0.000053
 14,-0.00008956,-0.00077066,-0.26294902,0.01175110,0.00797129,-0.028462
 12,0.00482283,0.04326623,-0.04221046,-0.04247288,-0.00067294,0.3794877
 6,-0.00001738,-0.00001206,0.00001634,-0.00001539,0.00002102,0.00000826
 ,-0.00005944,0.00001383,-0.00001166,-0.00003916,-0.00002027,-0.0000102
 6,-0.00001922,-0.00000997,-0.00000363,-0.00000782,0.00002858,-0.000011
 59,-0.00000431,-0.00000754,0.00001255,0.00000510,0.00000015,-0.0000016
 4,0.00000946,-0.00000279,0.00000174,-0.00000124,-0.00000033,0.00000454
 ,0.00005092,0.00000360,0.00001205,0.00004356,-0.00002360,0.00002506,0.
 00003124,-0.00000841,-0.00000506,0.00002177,0.00000532,-0.00002278,0.0
 0002852,0.00001778,-0.00000689,-0.00001826,0.00003446,-0.00002300,0.00
 001849,-0.00000367,0.00001292,-0.00000021,-0.00000662,0.00000264,0.000
 07752,0.00002557,0.00005244,-0.00001843,0.00000422,-0.00001107,-0.0000
 0183,0.00001119,-0.00000490,-0.00000773,-0.00000920,0.00001443,0.00000
 711,-0.00000569,-0.00000298,-0.00001277,0.00000611,0.00000891,0.000003
 22,-0.00000138,0.00000067,-0.00000098,-0.00000026,0.00000150,0.0000017
 5,0.00000031,-0.00000327,-0.00001041,-0.00001175,0.00001313,0.00000118
 ,0.00000035,-0.00000311,-0.00000236,0.00000186,-0.00000194,0.00000359,
 0.00000238,-0.00000006,0.00010986,-0.00013844,-0.00010024,-0.00002772,
 -0.00011296,0.00009777,-0.00039095,-0.00031634,-0.00023448,0.00003522,
 -0.00011242,0.00004650,0.00005766,-0.00006961,0.00008281,-0.00000728,0
 .00003629,0.00002065,0.00000847,0.00003011,0.00000311,0.00000727,-0.00
 007046,0.00002288,-0.00000477,-0.00000900,0.00001062,0.00000004,0.0000
 1376,-0.00001279,0.00011570,0.00020457,-0.00009293,0.00059836,-0.00021
 585,0.00007065,0.00015700,0.00016477,0.00007916,-0.00024743,0.00011677
 ,0.00003622,-0.00010693,0.00007897,-0.00004532,-0.00000765,-0.00000861
 ,0.00001112,0.00000711,0.00001150,-0.00000756,-0.00000281,0.00000085,0
 .00000309,0.00000760,0.00002458,-0.00000845,-0.00166578,-0.00010733,0.
 00077455,0.00035379,-0.00014347,-0.00041163,0.00068380,0.00047566,-0.0
 0004730,0.00058072,-0.00157338,0.00002735,0.00061418,-0.00031816,-0.00
 022660,0.00025714,0.00002068,0.00321714,-0.00005304,-0.00007840,-0.000
 35179,0.00001152,0.00005794,0.00002320,0.02487593,0.00642652,-0.000458
 61,-0.00001263,0.00039570,-0.00004018,0.00078560,-0.00047518,0.0007070
 5,0.00073543,-0.00045292,0.00047441,-0.00004380,0.00003504,-0.00008083
 ,-0.00000501,0.00000028,-0.00000293,0.00002269,0.00001591,0.00002750,-
 0.00000954,-0.00000122,-0.00003418,0.00034432,0.00001516,0.00027721,0.
 00002206,-0.00009792,0.00015405,-0.00005495,-0.00000720,-0.00013810,-0
 .00001444,0.00002927,-0.00002594,0.00003242,-0.00002816,-0.00001558,0.
 00000905,0.00000829,0.00002128,-0.00002002,0.00000340,0.00000301,0.000
 00440,0.00002290,-0.00001404,-0.00000383,-0.00001401,0.00000731,0.0000
 0214,0.00000091,-0.00000068,0.00000025,0.00000186,-0.00000014,-0.00000
 025,0.00000361,-0.00000345,-0.00000341,0.00000487,-0.00001773,0.000003
 16,-0.00000371,0.00000229,-0.00000195,0.00000006,0.00000116,0.00000022
 ,0.00000262,0.00000249,-0.00001457,-0.00003562,-0.00000137,0.00000071,
 0.00001352,-0.00000154,0.00000083,-0.00000552,0.00000417,-0.00000007,0
 .00000428,0.00000133,0.00000049,-0.00000695,-0.00000766,-0.00000026,0.
 00000154,-0.00000052,-0.00000124,-0.00000991,0.00000031,-0.00000029,0.
 00000149,-0.00000034,0.00000152,-0.00000004,-0.00000076,-0.00000067,0.
 00000289,0.00000199,0.00027770,0.00014171,-0.00108128,-0.00004644,-0.0
 0019402,0.00028618,-0.00019848,-0.00000022,0.00026332,0.00005131,0.000
 08974,0.00040161,0.00655240,-0.07301628,0.00309137,0.00570710,0.011155
 45,-0.00393404,-0.05847617,-0.01885639,0.00094934,0.01832073,0.0768130
 8,0.00001109,0.00000953,-0.00001804,0.00000810,-0.00002093,-0.00001543
 ,0.00004129,-0.00001941,-0.00000374,0.00002494,0.00001378,0.00000445,0
 .00001303,0.00000520,-0.00000055,0.00000618,-0.00002009,0.00000820,0.0
 0000384,0.00000531,-0.00000955,-0.00000316,-0.00000052,0.00000209,-0.0
 0000675,0.00000245,-0.00000064,0.00000164,-0.00000060,-0.00000455,-0.0
 0003652,0.00000899,0.00000119,-0.00003096,0.00001949,-0.00001079,-0.00
 001158,0.00001503,0.00001775,-0.00001275,-0.00000314,0.00002557,-0.000
 01884,-0.00000990,0.00000976,0.00001929,-0.00003261,0.00001768,-0.0000
 1444,0.00000379,-0.00000974,-0.00000088,0.00000484,-0.00000084,-0.0000
 6891,-0.00000329,-0.00003144,-0.00000004,-0.00000320,0.00000092,0.0000
 0210,-0.00000859,0.00000381,0.00000786,0.00000366,-0.00001218,-0.00000
 610,0.00000605,0.00000281,0.00000712,-0.00000617,-0.00000948,-0.000000
 81,0.00000104,0.00000110,0.00000009,0.00000208,-0.00000093,-0.00000266
 ,-0.00000095,0.00000312,0.00000756,0.00000822,-0.00001206,-0.00000173,
 0.00000047,0.00000247,0.00000250,-0.00000256,0.00000106,-0.00000169,-0
 .00000145,0.00000073,0.00001878,0.00001790,0.00000894,0.00002106,0.000
 07006,-0.00004757,0.00026318,0.00019908,0.00010997,-0.00002431,0.00005
 070,-0.00005135,-0.00001831,0.00005048,-0.00005405,0.00000384,-0.00002
 532,-0.00000610,-0.00000225,-0.00001602,-0.00000192,0.00001153,0.00003
 474,-0.00001384,0.00000355,0.00000628,-0.00000737,-0.00000277,-0.00000
 878,0.00000960,-0.00008801,-0.00013073,0.00008422,-0.00044091,0.000220
 74,-0.00002025,-0.00010814,-0.00006893,-0.00005450,-0.00007731,-0.0000
 5733,0.00001844,0.00003107,-0.00004292,0.00004788,0.00000155,0.0000062
 0,-0.00001513,-0.00000298,-0.00000980,0.00000268,-0.00000697,-0.000000
 26,0.00000138,-0.00000824,-0.00001127,0.00002093,0.00112690,-0.0000810
 5,-0.00076184,-0.00022248,0.00014517,0.00038652,-0.00048697,-0.0003026
 0,0.00009693,-0.00111585,0.00072127,0.00037400,-0.00045026,0.00027288,
 0.00005198,-0.00031672,0.00125009,-0.00283819,-0.00033507,-0.00027756,
 0.00088115,-0.00006373,0.00001768,0.00004737,-0.01651955,0.00288523,0.
 01029529,-0.00041640,0.00012190,0.00008991,-0.00075764,0.00021219,-0.0
 0267249,-0.00194749,0.00086626,0.00033532,0.00003340,-0.00002997,0.000
 06110,0.00000057,0.00000182,0.00000077,-0.00001238,-0.00000970,-0.0000
 1804,0.00000831,-0.00000191,0.00001776,0.00005260,0.00005158,-0.000019
 78,0.00002318,0.00005286,-0.00001864,0.00002419,-0.00000444,0.00005190
 ,-0.00000036,-0.00001665,0.00000090,-0.00000042,0.00001335,-0.00000761
 ,-0.00000315,0.00000410,0.00000083,0.00000102,-0.00000140,0.00000050,0
 .00000296,-0.00001139,0.00000368,0.00000693,0.00001003,-0.00000881,-0.
 00000046,-0.00000106,0.00000130,-0.00000256,0.00000017,0.00000156,0.00
 000021,-0.00000322,0.00000103,0.00000138,-0.00000517,0.00000838,-0.000
 00230,0.00000240,-0.00000151,0.00000163,0.00000115,0.00000060,0.000000
 69,-0.00000184,-0.00000179,0.00001945,0.00001791,-0.00000724,-0.000009
 01,-0.00000926,0.00000486,0.00000577,0.00000264,-0.00000689,-0.0000005
 1,0.00000014,0.00000104,0.00000144,0.00000263,0.00000450,-0.00000182,-
 0.00000085,0.00000024,0.00000567,0.00000723,-0.00000156,-0.00000094,-0
 .00000088,-0.00000068,-0.00000103,-0.00000077,0.00000164,-0.00000024,-
 0.00000084,-0.00000061,-0.00005068,-0.00033290,0.00085590,0.00001155,0
 .00022972,-0.00021549,0.00008542,0.00006172,-0.00021737,-0.00005838,-0
 .00004273,-0.00030157,0.01554609,0.00276327,-0.07730021,0.05845365,-0.
 00470401,-0.02791762,-0.00213012,-0.00026799,0.01260635,-0.05001966,-0
 .00386854,0.08613997\\-0.00000054,-0.00000124,0.00000092,-0.00000071,-
 0.00000046,0.00000037,-0.00000159,-0.00000080,-0.00000022,-0.00000127,
 -0.00000148,0.00000088,-0.00000060,-0.00000130,0.00000122,-0.00000169,
 -0.00000031,-0.00000070,-0.00000027,-0.00000024,0.,-0.00000095,-0.0000
 0156,0.00000114,-0.00000184,-0.00000187,0.00000095,-0.00000007,-0.0000
 0078,0.00000126,-0.00000145,-0.00000086,0.00000002,-0.00000229,-0.0000
 0117,0.00000001,-0.00000078,-0.00000038,0.,0.00000030,-0.00000100,0.00
 000133,-0.00000063,-0.00000186,0.00000203,-0.00000123,-0.00000174,0.00
 000094,-0.00000129,-0.00000207,0.00000148,-0.00000181,-0.00000154,0.00
 000057,-0.00000048,-0.00000110,0.00000080,-0.00000092,0.00000012,-0.00
 000074,-0.00000130,0.00000026,-0.00000111,-0.00000025,0.00000060,-0.00
 000080,-0.00000072,0.00000030,-0.00000078,0.00000028,-0.00000110,0.000
 00152,0.00000003,-0.00000167,0.00000185,0.00000008,-0.00000088,0.00000
 100,0.00000100,-0.00000101,0.00000171,0.00000026,-0.00000210,0.0000025
 4,0.00000026,-0.00000209,0.00000252,0.00000107,-0.00000170,0.00000234,
 0.00000020,-0.00000255,0.00000294,0.00000076,0.00000070,-0.00000049,-0
 .00000003,0.00000026,-0.00000045,0.00000019,0.00000033,-0.00000013,0.0
 0000152,0.00000041,0.00000048,0.00000144,0.00000063,0.00000016,-0.0000
 0052,-0.00000014,-0.00000008,-0.00000023,-0.00000017,0.,0.00000076,0.0
 0000129,-0.00000093,0.00000163,0.00000097,-0.00000009,0.00000131,0.000
 00021,0.00000047,0.00000070,-0.00000010,0.00000074,-0.00000127,0.00000
 088,-0.00000169,-0.00000074,0.00000045,-0.00000101,0.00000058,0.000000
 91,-0.00000058,0.00000217,0.00000116,0.00000003,0.00000221,0.00000027,
 0.00000101,0.00000276,0.00000062,0.00000101,0.00000218,0.00000017,0.00
 000116,0.00000209,-0.00000042,0.00000168,-0.00000034,0.00000053,-0.000
 00088,-0.00000003,0.00000151,-0.00000203,0.00000040,0.00000122,-0.0000
 0083,-0.00000031,0.00000169,-0.00000199,-0.00000103,0.00000163,-0.0000
 0245,0.00000056,0.00000215,-0.00000230,-0.00000094,0.00000192,-0.00000
 286,-0.00000162,0.00000118,-0.00000230,0.00000019,0.00000280,-0.000002
 74,0.00000097,0.00000235,-0.00000211,-0.00000035,0.00000245,-0.0000028
 4,-0.00000035,0.00000284,-0.00000334,-0.00000147,-0.00000008,-0.000000
 88,-0.00000173,-0.00000027,-0.00000069,-0.00000161,-0.00000042,-0.0000
 0054,-0.00000202,0.00000019,-0.00000141,0.00000033,0.00000136,-0.00000
 130,0.00000071,0.00000183,-0.00000162,-0.00000032,0.00000124,-0.000001
 58,0.00000031,0.00000137,-0.00000133,0.00000248,0.00000112,0.00000029,
 0.00000205,0.00000111,0.00000002,0.00000262,0.00000068,0.00000086,0.00
 000306,0.00000154,0.00000016,0.00000261,-0.00000049,0.00000232,0.00000
 246,-0.00000109,0.00000267,0.00000275,-0.00000066,0.00000243,0.0000032
 3,-0.00000023,0.00000220,-0.00000300,-0.00000132,-0.00000033,-0.000003
 45,-0.00000173,-0.00000018,-0.00000309,-0.00000155,-0.00000017,-0.0000
 0314,-0.00000091,-0.00000090,0.00000050,-0.00000124,0.00000139,0.00000
 043,-0.00000180,0.00000218,-0.00000020,-0.00000197,0.00000195,-0.00000
 004,-0.00000168,0.00000184,-0.00000046,-0.00000153,0.00000145,-0.00000
 059,-0.00000237,0.00000228,0.00000104,-0.00000205,0.00000296,0.0000006
 5,-0.00000261,0.00000331,0.00000156,-0.00000196,0.00000317,0.00000121,
 -0.00000192,0.00000286,-0.00000163,0.00000192,-0.00000297,-0.00000249,
 0.00000162,-0.00000338,-0.00000184,0.00000229,-0.00000361,-0.00000195,
 0.00000123,-0.00000268,0.00000102,0.00000316,-0.00000307,0.00000170,0.
 00000343,-0.00000263,0.00000164,0.00000298,-0.00000227,0.00000116,0.00
 000366,-0.00000340\\\@


 A COMPLEXITY IS MERELY A DISARRANGEMENT OF SIMPLICITIES.

                                    -- G. O. ABELL IN "EXPLORATION OF THE UNIVERSE"
 Job cpu time:       4 days 14 hours 45 minutes 44.3 seconds.
 Elapsed time:       0 days  3 hours 40 minutes 35.4 seconds.
 File lengths (MBytes):  RWF=   9783 Int=      0 D2E=      0 Chk=    107 Scr=      1
 Normal termination of Gaussian 16 at Wed May  8 15:29:05 2019.
