 Entering Gaussian System, Link 0=g16
 Input=clay_new-glu_gluC6-AAUL-Na3_1Me2O-bisCF3-ts-b3lyp_d3bj-631gd-pcm_thf.gjf
 Output=clay_new-glu_gluC6-AAUL-Na3_1Me2O-bisCF3-ts-b3lyp_d3bj-631gd-pcm_thf.out
 Initial command:
 /home/ekwan/sw/g16/l1.exe "/scratch/users/ekwan/clay_new-glu_gluC6-AAUL-Na3_1Me2O-bisCF3-ts-b3lyp_d3bj-631gd-pcm_thf/Gau-64966.inp" -scrdir="/scratch/users/ekwan/clay_new-glu_gluC6-AAUL-Na3_1Me2O-bisCF3-ts-b3lyp_d3bj-631gd-pcm_thf/"
 Entering Link 1 = /home/ekwan/sw/g16/l1.exe PID=     64968.
  
 Copyright (c) 1988,1990,1992,1993,1995,1998,2003,2009,2016,
            Gaussian, Inc.  All Rights Reserved.
  
 This is part of the Gaussian(R) 16 program.  It is based on
 the Gaussian(R) 09 system (copyright 2009, Gaussian, Inc.),
 the Gaussian(R) 03 system (copyright 2003, Gaussian, Inc.),
 the Gaussian(R) 98 system (copyright 1998, Gaussian, Inc.),
 the Gaussian(R) 94 system (copyright 1995, Gaussian, Inc.),
 the Gaussian 92(TM) system (copyright 1992, Gaussian, Inc.),
 the Gaussian 90(TM) system (copyright 1990, Gaussian, Inc.),
 the Gaussian 88(TM) system (copyright 1988, Gaussian, Inc.),
 the Gaussian 86(TM) system (copyright 1986, Carnegie Mellon
 University), and the Gaussian 82(TM) system (copyright 1983,
 Carnegie Mellon University). Gaussian is a federally registered
 trademark of Gaussian, Inc.
  
 This software contains proprietary and confidential information,
 including trade secrets, belonging to Gaussian, Inc.
  
 This software is provided under written license and may be
 used, copied, transmitted, or stored only in accord with that
 written license.
  
 The following legend is applicable only to US Government
 contracts under FAR:
  
                    RESTRICTED RIGHTS LEGEND
  
 Use, reproduction and disclosure by the US Government is
 subject to restrictions as set forth in subparagraphs (a)
 and (c) of the Commercial Computer Software - Restricted
 Rights clause in FAR 52.227-19.
  
 Gaussian, Inc.
 340 Quinnipiac St., Bldg. 40, Wallingford CT 06492
  
  
 ---------------------------------------------------------------
 Warning -- This program may not be used in any manner that
 competes with the business of Gaussian, Inc. or will provide
 assistance to any competitor of Gaussian, Inc.  The licensee
 of this program is prohibited from giving any competitor of
 Gaussian, Inc. access to this program.  By using this program,
 the user acknowledges that Gaussian, Inc. is engaged in the
 business of creating and licensing software in the field of
 computational chemistry and represents and warrants to the
 licensee that it is not a competitor of Gaussian, Inc. and that
 it will not use this program in any manner prohibited above.
 ---------------------------------------------------------------
  

 Cite this work as:
 Gaussian 16, Revision A.03,
 M. J. Frisch, G. W. Trucks, H. B. Schlegel, G. E. Scuseria, 
 M. A. Robb, J. R. Cheeseman, G. Scalmani, V. Barone, 
 G. A. Petersson, H. Nakatsuji, X. Li, M. Caricato, A. V. Marenich, 
 J. Bloino, B. G. Janesko, R. Gomperts, B. Mennucci, H. P. Hratchian, 
 J. V. Ortiz, A. F. Izmaylov, J. L. Sonnenberg, D. Williams-Young, 
 F. Ding, F. Lipparini, F. Egidi, J. Goings, B. Peng, A. Petrone, 
 T. Henderson, D. Ranasinghe, V. G. Zakrzewski, J. Gao, N. Rega, 
 G. Zheng, W. Liang, M. Hada, M. Ehara, K. Toyota, R. Fukuda, 
 J. Hasegawa, M. Ishida, T. Nakajima, Y. Honda, O. Kitao, H. Nakai, 
 T. Vreven, K. Throssell, J. A. Montgomery, Jr., J. E. Peralta, 
 F. Ogliaro, M. J. Bearpark, J. J. Heyd, E. N. Brothers, K. N. Kudin, 
 V. N. Staroverov, T. A. Keith, R. Kobayashi, J. Normand, 
 K. Raghavachari, A. P. Rendell, J. C. Burant, S. S. Iyengar, 
 J. Tomasi, M. Cossi, J. M. Millam, M. Klene, C. Adamo, R. Cammi, 
 J. W. Ochterski, R. L. Martin, K. Morokuma, O. Farkas, 
 J. B. Foresman, and D. J. Fox, Gaussian, Inc., Wallingford CT, 2016.
 
 ******************************************
 Gaussian 16:  AS64L-G16RevA.03 25-Dec-2016
                30-May-2019 
 ******************************************
 %mem=48GB
 %nprocshared=32
 Will use up to   32 processors via shared memory.
 ----------------------------------------------------------------------
 #p opt=(ts,noeigentest,calcfc,maxstep=5,modredundant,recalc=30) freq=n
 oraman b3lyp 6-31g* pop=none scrf=(solvent=tetrahydrofuran,pcm) empiri
 caldispersion=gd3bj
 ----------------------------------------------------------------------
 1/5=1,8=5,10=4,11=1,18=120,26=3,38=1,71=30/1,3;
 2/9=110,12=2,17=6,18=5,40=1/2;
 3/5=1,6=6,7=1,11=2,25=1,30=1,70=2201,71=2,72=20,74=-5,124=41,140=1/1,2,3;
 4//1;
 5/5=2,38=5,53=20/2;
 8/6=4,10=90,11=11/1;
 11/6=1,8=1,9=11,15=111,16=1/1,2,10;
 10/6=1,13=1/2;
 7/10=1,18=20,25=1/1,2,3,16;
 1/5=1,8=5,10=4,11=1,18=20,26=3,71=30/3(2);
 2/9=110/2;
 99//99;
 2/9=110/2;
 3/5=1,6=6,7=1,11=2,25=1,30=1,70=2205,71=1,72=20,74=-5,124=41/1,2,3;
 4/5=5,16=3,69=1/1;
 5/5=2,38=5,53=20/2;
 7//1,2,3,16;
 1/5=1,8=5,11=1,18=20,26=3,71=30/3(-5);
 2/9=110/2;
 99/9=1/99;
 Leave Link    1 at Thu May 30 18:50:02 2019, MaxMem=  6442450944 cpu:               5.3 elap:               0.2
 (Enter /home/ekwan/sw/g16/l101.exe)
 -----
 title
 -----
 Symbolic Z-matrix:
 Charge =  0 Multiplicity = 1
 C                     5.06796  -1.54406  -0.25967 
 C                     5.74234  -0.61592   0.75328 
 C                     5.20039   0.81862   0.63831 
 C                     3.13804   0.07907  -0.32441 
 C                     3.54521  -1.39099  -0.22632 
 H                     5.52903   1.43584   1.48674 
 H                     5.48479  -0.97146   1.76374 
 H                     5.41678  -1.28045  -1.26674 
 H                     3.45525   0.49243  -1.29171 
 H                     3.14061  -1.76642   0.72006 
 O                     3.79768   0.81454   0.73088 
 O                     5.68032   1.37184  -0.56333 
 O                     7.1444   -0.70459   0.55741 
 O                     5.39964  -2.90364   0.02594 
 O                     2.95809  -2.10222  -1.31837 
 C                     1.61887   0.28287  -0.14597 
 H                     1.20945   0.15279  -1.18798 
 H                     1.50721   1.3767    0.05003 
 O                     1.03083  -0.50722   0.78279 
 C                     7.91282  -0.08011   1.57046 
 H                     7.8406    1.01519   1.52744 
 H                     7.60549  -0.41544   2.57243 
 H                     8.95351  -0.36851   1.40226 
 C                     6.46673  -3.42389  -0.75145 
 H                     6.23295  -3.38226  -1.82587 
 H                     7.40107  -2.88263  -0.56886 
 H                     6.58809  -4.47072  -0.45823 
 C                     2.54478  -3.42399  -0.98825 
 H                     3.39126  -4.03232  -0.65626 
 H                     1.77308  -3.41736  -0.20766 
 H                     2.12013  -3.85611  -1.89958 
 C                    -1.58778  -2.83942   0.52993 
 C                    -0.93319  -1.93658  -0.50204 
 C                    -1.37126  -0.48411  -0.37822 
 C                    -2.45226  -0.82079   1.71877 
 C                    -1.6435   -2.11212   1.87807 
 H                    -0.77593   0.22443  -0.93158 
 H                     0.13488  -1.83808  -0.23632 
 H                    -2.61423  -3.08402   0.22508 
 H                    -3.44682  -1.09181   1.34526 
 H                    -0.62287  -1.8802    2.1959 
 O                    -1.82705   0.02998   0.73485 
 O                    -4.65431   1.10444  -2.10273 
 O                    -1.11336  -2.48343  -1.80243 
 O                    -0.8121   -4.02648   0.63509 
 O                    -2.31936  -2.9168    2.83484 
 C                    -2.6319    0.04844   2.98157 
 H                    -2.67458  -0.63145   3.84633 
 H                    -3.59088   0.56786   2.90905 
 O                    -1.68424   1.06869   3.1604 
 S                    -3.2092    0.8671   -2.24309 
 O                    -2.64514   0.79116  -3.60218 
 O                    -2.8512   -0.44317  -1.45171 
 C                    -2.33142   2.15191  -1.35913 
 C                    -1.07351   2.54451  -1.80892 
 C                    -2.84679   2.59705  -0.14389 
 C                    -0.30409   3.38085  -0.9994 
 H                    -0.69205   2.17318  -2.7523 
 C                    -2.06809   3.4362    0.6468 
 H                    -3.82151   2.26586   0.19078 
 C                    -0.79365   3.82201   0.22907 
 H                    -0.17809   4.44444   0.86731 
 C                    -0.2173   -1.94658  -2.78973 
 H                    -0.56406  -0.96598  -3.13708 
 H                     0.79477  -1.85652  -2.38487 
 H                    -0.22407  -2.64712  -3.62833 
 C                    -1.57726  -5.22195   0.64101 
 H                    -2.30378  -5.23313   1.46211 
 H                    -2.11091  -5.35829  -0.31071 
 H                    -0.87147  -6.04568   0.77125 
 C                    -1.45368  -3.50833   3.79902 
 H                    -0.69966  -4.14167   3.31918 
 H                    -0.94703  -2.74128   4.40036 
 H                    -2.08301  -4.11769   4.45195 
 C                    -0.34664   0.63852   3.42121 
 H                     0.18208   1.52292   3.78961 
 H                    -0.33343  -0.12944   4.21188 
 H                     0.15573   0.26356   2.51611 
 C                     5.31582   2.73751  -0.73009 
 H                     5.80928   3.08489  -1.6406 
 H                     4.2323    2.86115  -0.83005 
 H                     5.66146   3.34148   0.12192 
 Na                   -3.31757  -2.44998  -2.55333 
 O                    -4.82106  -2.99807  -0.90704 
 C                    -5.18432  -4.30937  -0.48788 
 H                    -6.22337  -4.53306  -0.76261 
 H                    -4.51496  -5.00916  -0.99229 
 H                    -5.06759  -4.4135    0.59869 
 C                    -5.64162  -1.99242  -0.31284 
 H                    -5.56226  -2.0321    0.7816 
 H                    -5.28479  -1.02824  -0.67563 
 H                    -6.69211  -2.13356  -0.59883 
 C                     1.0596    3.81784  -1.46552 
 F                     1.89375   4.0409   -0.42617 
 F                     0.99831   4.96662  -2.17696 
 F                     1.63947   2.89234  -2.26001 
 C                    -2.60469   3.9541    1.95434 
 F                    -3.10421   5.20727   1.80893 
 F                    -1.6457    4.02599   2.89646 
 F                    -3.60858   3.18863   2.42988 
 
 Add virtual bond connecting atoms O53        and C34        Dist= 3.46D+00.
 Add virtual bond connecting atoms H37        and H17        Dist= 3.79D+00.
 Add virtual bond connecting atoms H38        and O19        Dist= 3.59D+00.
 Add virtual bond connecting atoms Na83       and O44        Dist= 4.40D+00.
 Add virtual bond connecting atoms Na83       and O53        Dist= 4.41D+00.
 Add virtual bond connecting atoms O84        and H39        Dist= 4.69D+00.
 Add virtual bond connecting atoms H90        and H40        Dist= 4.50D+00.
 The following ModRedundant input section has been read:
 
 ITRead=  0  0  0  0  0  0  0  0  0  0  0  0  0  0  0  0  0  0  0  0
 ITRead=  0  0  0  0  0  0  0  0  0  0  0  0  0  0  0  0  0  0  0  0
 ITRead=  0  0  0  0  0  0  0  0  0  0  0  0  0  0  0  0  0  0  0  0
 ITRead=  0  0  0  0  0  0  0  0  0  0  0  0  0  0  0  0  0  0  0  0
 ITRead=  0  0  0  0  0  0  0  0  0  0  0  0  0  0  0  0  0  0  0  0
 MicOpt= -1 -1 -1 -1 -1 -1 -1 -1 -1 -1 -1 -1 -1 -1 -1 -1 -1 -1 -1 -1
 MicOpt= -1 -1 -1 -1 -1 -1 -1 -1 -1 -1 -1 -1 -1 -1 -1 -1 -1 -1 -1 -1
 MicOpt= -1 -1 -1 -1 -1 -1 -1 -1 -1 -1 -1 -1 -1 -1 -1 -1 -1 -1 -1 -1
 MicOpt= -1 -1 -1 -1 -1 -1 -1 -1 -1 -1 -1 -1 -1 -1 -1 -1 -1 -1 -1 -1
 MicOpt= -1 -1 -1 -1 -1 -1 -1 -1 -1 -1 -1 -1 -1 -1 -1 -1 -1 -1 -1 -1
 NAtoms=    100 NQM=      100 NQMF=       0 NMMI=      0 NMMIF=      0
                NMic=       0 NMicF=      0.
                    Isotopes and Nuclear Properties:
 (Nuclear quadrupole moments (NQMom) in fm**2, nuclear magnetic moments (NMagM)
  in nuclear magnetons)

  Atom         1           2           3           4           5           6           7           8           9          10
 IAtWgt=          12          12          12          12          12           1           1           1           1           1
 AtmWgt=  12.0000000  12.0000000  12.0000000  12.0000000  12.0000000   1.0078250   1.0078250   1.0078250   1.0078250   1.0078250
 NucSpn=           0           0           0           0           0           1           1           1           1           1
 AtZEff=   0.0000000   0.0000000   0.0000000   0.0000000   0.0000000   0.0000000   0.0000000   0.0000000   0.0000000   0.0000000
 NQMom=    0.0000000   0.0000000   0.0000000   0.0000000   0.0000000   0.0000000   0.0000000   0.0000000   0.0000000   0.0000000
 NMagM=    0.0000000   0.0000000   0.0000000   0.0000000   0.0000000   2.7928460   2.7928460   2.7928460   2.7928460   2.7928460
 AtZNuc=   6.0000000   6.0000000   6.0000000   6.0000000   6.0000000   1.0000000   1.0000000   1.0000000   1.0000000   1.0000000

  Atom        11          12          13          14          15          16          17          18          19          20
 IAtWgt=          16          16          16          16          16          12           1           1          16          12
 AtmWgt=  15.9949146  15.9949146  15.9949146  15.9949146  15.9949146  12.0000000   1.0078250   1.0078250  15.9949146  12.0000000
 NucSpn=           0           0           0           0           0           0           1           1           0           0
 AtZEff=   0.0000000   0.0000000   0.0000000   0.0000000   0.0000000   0.0000000   0.0000000   0.0000000   0.0000000   0.0000000
 NQMom=    0.0000000   0.0000000   0.0000000   0.0000000   0.0000000   0.0000000   0.0000000   0.0000000   0.0000000   0.0000000
 NMagM=    0.0000000   0.0000000   0.0000000   0.0000000   0.0000000   0.0000000   2.7928460   2.7928460   0.0000000   0.0000000
 AtZNuc=   8.0000000   8.0000000   8.0000000   8.0000000   8.0000000   6.0000000   1.0000000   1.0000000   8.0000000   6.0000000

  Atom        21          22          23          24          25          26          27          28          29          30
 IAtWgt=           1           1           1          12           1           1           1          12           1           1
 AtmWgt=   1.0078250   1.0078250   1.0078250  12.0000000   1.0078250   1.0078250   1.0078250  12.0000000   1.0078250   1.0078250
 NucSpn=           1           1           1           0           1           1           1           0           1           1
 AtZEff=   0.0000000   0.0000000   0.0000000   0.0000000   0.0000000   0.0000000   0.0000000   0.0000000   0.0000000   0.0000000
 NQMom=    0.0000000   0.0000000   0.0000000   0.0000000   0.0000000   0.0000000   0.0000000   0.0000000   0.0000000   0.0000000
 NMagM=    2.7928460   2.7928460   2.7928460   0.0000000   2.7928460   2.7928460   2.7928460   0.0000000   2.7928460   2.7928460
 AtZNuc=   1.0000000   1.0000000   1.0000000   6.0000000   1.0000000   1.0000000   1.0000000   6.0000000   1.0000000   1.0000000

  Atom        31          32          33          34          35          36          37          38          39          40
 IAtWgt=           1          12          12          12          12          12           1           1           1           1
 AtmWgt=   1.0078250  12.0000000  12.0000000  12.0000000  12.0000000  12.0000000   1.0078250   1.0078250   1.0078250   1.0078250
 NucSpn=           1           0           0           0           0           0           1           1           1           1
 AtZEff=   0.0000000   0.0000000   0.0000000   0.0000000   0.0000000   0.0000000   0.0000000   0.0000000   0.0000000   0.0000000
 NQMom=    0.0000000   0.0000000   0.0000000   0.0000000   0.0000000   0.0000000   0.0000000   0.0000000   0.0000000   0.0000000
 NMagM=    2.7928460   0.0000000   0.0000000   0.0000000   0.0000000   0.0000000   2.7928460   2.7928460   2.7928460   2.7928460
 AtZNuc=   1.0000000   6.0000000   6.0000000   6.0000000   6.0000000   6.0000000   1.0000000   1.0000000   1.0000000   1.0000000

  Atom        41          42          43          44          45          46          47          48          49          50
 IAtWgt=           1          16          16          16          16          16          12           1           1          16
 AtmWgt=   1.0078250  15.9949146  15.9949146  15.9949146  15.9949146  15.9949146  12.0000000   1.0078250   1.0078250  15.9949146
 NucSpn=           1           0           0           0           0           0           0           1           1           0
 AtZEff=   0.0000000   0.0000000   0.0000000   0.0000000   0.0000000   0.0000000   0.0000000   0.0000000   0.0000000   0.0000000
 NQMom=    0.0000000   0.0000000   0.0000000   0.0000000   0.0000000   0.0000000   0.0000000   0.0000000   0.0000000   0.0000000
 NMagM=    2.7928460   0.0000000   0.0000000   0.0000000   0.0000000   0.0000000   0.0000000   2.7928460   2.7928460   0.0000000
 AtZNuc=   1.0000000   8.0000000   8.0000000   8.0000000   8.0000000   8.0000000   6.0000000   1.0000000   1.0000000   8.0000000

  Atom        51          52          53          54          55          56          57          58          59          60
 IAtWgt=          32          16          16          12          12          12          12           1          12           1
 AtmWgt=  31.9720718  15.9949146  15.9949146  12.0000000  12.0000000  12.0000000  12.0000000   1.0078250  12.0000000   1.0078250
 NucSpn=           0           0           0           0           0           0           0           1           0           1
 AtZEff=   0.0000000   0.0000000   0.0000000   0.0000000   0.0000000   0.0000000   0.0000000   0.0000000   0.0000000   0.0000000
 NQMom=    0.0000000   0.0000000   0.0000000   0.0000000   0.0000000   0.0000000   0.0000000   0.0000000   0.0000000   0.0000000
 NMagM=    0.0000000   0.0000000   0.0000000   0.0000000   0.0000000   0.0000000   0.0000000   2.7928460   0.0000000   2.7928460
 AtZNuc=  16.0000000   8.0000000   8.0000000   6.0000000   6.0000000   6.0000000   6.0000000   1.0000000   6.0000000   1.0000000

  Atom        61          62          63          64          65          66          67          68          69          70
 IAtWgt=          12           1          12           1           1           1          12           1           1           1
 AtmWgt=  12.0000000   1.0078250  12.0000000   1.0078250   1.0078250   1.0078250  12.0000000   1.0078250   1.0078250   1.0078250
 NucSpn=           0           1           0           1           1           1           0           1           1           1
 AtZEff=   0.0000000   0.0000000   0.0000000   0.0000000   0.0000000   0.0000000   0.0000000   0.0000000   0.0000000   0.0000000
 NQMom=    0.0000000   0.0000000   0.0000000   0.0000000   0.0000000   0.0000000   0.0000000   0.0000000   0.0000000   0.0000000
 NMagM=    0.0000000   2.7928460   0.0000000   2.7928460   2.7928460   2.7928460   0.0000000   2.7928460   2.7928460   2.7928460
 AtZNuc=   6.0000000   1.0000000   6.0000000   1.0000000   1.0000000   1.0000000   6.0000000   1.0000000   1.0000000   1.0000000

  Atom        71          72          73          74          75          76          77          78          79          80
 IAtWgt=          12           1           1           1          12           1           1           1          12           1
 AtmWgt=  12.0000000   1.0078250   1.0078250   1.0078250  12.0000000   1.0078250   1.0078250   1.0078250  12.0000000   1.0078250
 NucSpn=           0           1           1           1           0           1           1           1           0           1
 AtZEff=   0.0000000   0.0000000   0.0000000   0.0000000   0.0000000   0.0000000   0.0000000   0.0000000   0.0000000   0.0000000
 NQMom=    0.0000000   0.0000000   0.0000000   0.0000000   0.0000000   0.0000000   0.0000000   0.0000000   0.0000000   0.0000000
 NMagM=    0.0000000   2.7928460   2.7928460   2.7928460   0.0000000   2.7928460   2.7928460   2.7928460   0.0000000   2.7928460
 AtZNuc=   6.0000000   1.0000000   1.0000000   1.0000000   6.0000000   1.0000000   1.0000000   1.0000000   6.0000000   1.0000000

  Atom        81          82          83          84          85          86          87          88          89          90
 IAtWgt=           1           1          23          16          12           1           1           1          12           1
 AtmWgt=   1.0078250   1.0078250  22.9897697  15.9949146  12.0000000   1.0078250   1.0078250   1.0078250  12.0000000   1.0078250
 NucSpn=           1           1           3           0           0           1           1           1           0           1
 AtZEff=   0.0000000   0.0000000   0.0000000   0.0000000   0.0000000   0.0000000   0.0000000   0.0000000   0.0000000   0.0000000
 NQMom=    0.0000000   0.0000000  10.4000000   0.0000000   0.0000000   0.0000000   0.0000000   0.0000000   0.0000000   0.0000000
 NMagM=    2.7928460   2.7928460   2.2175200   0.0000000   0.0000000   2.7928460   2.7928460   2.7928460   0.0000000   2.7928460
 AtZNuc=   1.0000000   1.0000000  11.0000000   8.0000000   6.0000000   1.0000000   1.0000000   1.0000000   6.0000000   1.0000000

  Atom        91          92          93          94          95          96          97          98          99         100
 IAtWgt=           1           1          12          19          19          19          12          19          19          19
 AtmWgt=   1.0078250   1.0078250  12.0000000  18.9984033  18.9984033  18.9984033  12.0000000  18.9984033  18.9984033  18.9984033
 NucSpn=           1           1           0           1           1           1           0           1           1           1
 AtZEff=   0.0000000   0.0000000   0.0000000   0.0000000   0.0000000   0.0000000   0.0000000   0.0000000   0.0000000   0.0000000
 NQMom=    0.0000000   0.0000000   0.0000000   0.0000000   0.0000000   0.0000000   0.0000000   0.0000000   0.0000000   0.0000000
 NMagM=    2.7928460   2.7928460   0.0000000   2.6288670   2.6288670   2.6288670   0.0000000   2.6288670   2.6288670   2.6288670
 AtZNuc=   1.0000000   1.0000000   6.0000000   9.0000000   9.0000000   9.0000000   6.0000000   9.0000000   9.0000000   9.0000000
 Leave Link  101 at Thu May 30 18:50:03 2019, MaxMem=  6442450944 cpu:              18.2 elap:               0.7
 (Enter /home/ekwan/sw/g16/l103.exe)

 GradGradGradGradGradGradGradGradGradGradGradGradGradGradGradGradGradGrad
 Berny optimization.
 Initialization pass.
                           ----------------------------
                           !    Initial Parameters    !
                           ! (Angstroms and Degrees)  !
 --------------------------                            --------------------------
 ! Name  Definition              Value          Derivative Info.                !
 --------------------------------------------------------------------------------
 ! R1    R(1,2)                  1.5305         calculate D2E/DX2 analytically  !
 ! R2    R(1,5)                  1.5308         calculate D2E/DX2 analytically  !
 ! R3    R(1,8)                  1.0979         calculate D2E/DX2 analytically  !
 ! R4    R(1,14)                 1.4283         calculate D2E/DX2 analytically  !
 ! R5    R(2,3)                  1.5378         calculate D2E/DX2 analytically  !
 ! R6    R(2,7)                  1.1017         calculate D2E/DX2 analytically  !
 ! R7    R(2,13)                 1.4185         calculate D2E/DX2 analytically  !
 ! R8    R(3,6)                  1.0994         calculate D2E/DX2 analytically  !
 ! R9    R(3,11)                 1.4058         calculate D2E/DX2 analytically  !
 ! R10   R(3,12)                 1.4072         calculate D2E/DX2 analytically  !
 ! R11   R(4,5)                  1.5286         calculate D2E/DX2 analytically  !
 ! R12   R(4,9)                  1.0987         calculate D2E/DX2 analytically  !
 ! R13   R(4,11)                 1.4456         calculate D2E/DX2 analytically  !
 ! R14   R(4,16)                 1.5431         calculate D2E/DX2 analytically  !
 ! R15   R(5,10)                 1.0956         calculate D2E/DX2 analytically  !
 ! R16   R(5,15)                 1.4294         calculate D2E/DX2 analytically  !
 ! R17   R(12,79)                1.4233         calculate D2E/DX2 analytically  !
 ! R18   R(13,20)                1.4166         calculate D2E/DX2 analytically  !
 ! R19   R(14,24)                1.419          calculate D2E/DX2 analytically  !
 ! R20   R(15,28)                1.4237         calculate D2E/DX2 analytically  !
 ! R21   R(16,17)                1.1271         calculate D2E/DX2 analytically  !
 ! R22   R(16,18)                1.1168         calculate D2E/DX2 analytically  !
 ! R23   R(16,19)                1.3537         calculate D2E/DX2 analytically  !
 ! R24   R(17,37)                2.0031         calculate D2E/DX2 analytically  !
 ! R25   R(19,38)                1.9007         calculate D2E/DX2 analytically  !
 ! R26   R(20,21)                1.0985         calculate D2E/DX2 analytically  !
 ! R27   R(20,22)                1.1004         calculate D2E/DX2 analytically  !
 ! R28   R(20,23)                1.0929         calculate D2E/DX2 analytically  !
 ! R29   R(24,25)                1.1004         calculate D2E/DX2 analytically  !
 ! R30   R(24,26)                1.0951         calculate D2E/DX2 analytically  !
 ! R31   R(24,27)                1.0939         calculate D2E/DX2 analytically  !
 ! R32   R(28,29)                1.094          calculate D2E/DX2 analytically  !
 ! R33   R(28,30)                1.0977         calculate D2E/DX2 analytically  !
 ! R34   R(28,31)                1.0943         calculate D2E/DX2 analytically  !
 ! R35   R(32,33)                1.5194         calculate D2E/DX2 analytically  !
 ! R36   R(32,36)                1.5328         calculate D2E/DX2 analytically  !
 ! R37   R(32,39)                1.0983         calculate D2E/DX2 analytically  !
 ! R38   R(32,45)                1.4219         calculate D2E/DX2 analytically  !
 ! R39   R(33,34)                1.5221         calculate D2E/DX2 analytically  !
 ! R40   R(33,38)                1.105          calculate D2E/DX2 analytically  !
 ! R41   R(33,44)                1.4222         calculate D2E/DX2 analytically  !
 ! R42   R(34,37)                1.0783         calculate D2E/DX2 analytically  !
 ! R43   R(34,42)                1.308          calculate D2E/DX2 analytically  !
 ! R44   R(34,53)                1.8287         calculate D2E/DX2 analytically  !
 ! R45   R(35,36)                1.532          calculate D2E/DX2 analytically  !
 ! R46   R(35,40)                1.0964         calculate D2E/DX2 analytically  !
 ! R47   R(35,42)                1.4432         calculate D2E/DX2 analytically  !
 ! R48   R(35,47)                1.5435         calculate D2E/DX2 analytically  !
 ! R49   R(36,41)                1.0938         calculate D2E/DX2 analytically  !
 ! R50   R(36,46)                1.4212         calculate D2E/DX2 analytically  !
 ! R51   R(39,84)                2.4818         calculate D2E/DX2 analytically  !
 ! R52   R(40,90)                2.3826         calculate D2E/DX2 analytically  !
 ! R53   R(43,51)                1.4712         calculate D2E/DX2 analytically  !
 ! R54   R(44,63)                1.4373         calculate D2E/DX2 analytically  !
 ! R55   R(44,83)                2.3288         calculate D2E/DX2 analytically  !
 ! R56   R(45,67)                1.4194         calculate D2E/DX2 analytically  !
 ! R57   R(46,71)                1.4244         calculate D2E/DX2 analytically  !
 ! R58   R(47,48)                1.1009         calculate D2E/DX2 analytically  !
 ! R59   R(47,49)                1.093          calculate D2E/DX2 analytically  !
 ! R60   R(47,50)                1.4039         calculate D2E/DX2 analytically  !
 ! R61   R(50,75)                1.4291         calculate D2E/DX2 analytically  !
 ! R62   R(51,52)                1.4734         calculate D2E/DX2 analytically  !
 ! R63   R(51,53)                1.572          calculate D2E/DX2 analytically  !
 ! R64   R(51,54)                1.7896         calculate D2E/DX2 analytically  !
 ! R65   R(53,83)                2.3363         calculate D2E/DX2 analytically  !
 ! R66   R(54,55)                1.3924         calculate D2E/DX2 analytically  !
 ! R67   R(54,56)                1.393          calculate D2E/DX2 analytically  !
 ! R68   R(55,57)                1.3953         calculate D2E/DX2 analytically  !
 ! R69   R(55,58)                1.0832         calculate D2E/DX2 analytically  !
 ! R70   R(56,59)                1.3913         calculate D2E/DX2 analytically  !
 ! R71   R(56,60)                1.0825         calculate D2E/DX2 analytically  !
 ! R72   R(57,61)                1.3941         calculate D2E/DX2 analytically  !
 ! R73   R(57,93)                1.506          calculate D2E/DX2 analytically  !
 ! R74   R(59,61)                1.3956         calculate D2E/DX2 analytically  !
 ! R75   R(59,97)                1.5053         calculate D2E/DX2 analytically  !
 ! R76   R(61,62)                1.0834         calculate D2E/DX2 analytically  !
 ! R77   R(63,64)                1.0966         calculate D2E/DX2 analytically  !
 ! R78   R(63,65)                1.0938         calculate D2E/DX2 analytically  !
 ! R79   R(63,66)                1.0927         calculate D2E/DX2 analytically  !
 ! R80   R(67,68)                1.0964         calculate D2E/DX2 analytically  !
 ! R81   R(67,69)                1.0996         calculate D2E/DX2 analytically  !
 ! R82   R(67,70)                1.0925         calculate D2E/DX2 analytically  !
 ! R83   R(71,72)                1.0954         calculate D2E/DX2 analytically  !
 ! R84   R(71,73)                1.0985         calculate D2E/DX2 analytically  !
 ! R85   R(71,74)                1.0926         calculate D2E/DX2 analytically  !
 ! R86   R(75,76)                1.0943         calculate D2E/DX2 analytically  !
 ! R87   R(75,77)                1.1023         calculate D2E/DX2 analytically  !
 ! R88   R(75,78)                1.101          calculate D2E/DX2 analytically  !
 ! R89   R(79,80)                1.0923         calculate D2E/DX2 analytically  !
 ! R90   R(79,81)                1.0951         calculate D2E/DX2 analytically  !
 ! R91   R(79,82)                1.1001         calculate D2E/DX2 analytically  !
 ! R92   R(83,84)                2.2959         calculate D2E/DX2 analytically  !
 ! R93   R(84,85)                1.4238         calculate D2E/DX2 analytically  !
 ! R94   R(84,89)                1.4275         calculate D2E/DX2 analytically  !
 ! R95   R(85,86)                1.0978         calculate D2E/DX2 analytically  !
 ! R96   R(85,87)                1.0919         calculate D2E/DX2 analytically  !
 ! R97   R(85,88)                1.0978         calculate D2E/DX2 analytically  !
 ! R98   R(89,90)                1.098          calculate D2E/DX2 analytically  !
 ! R99   R(89,91)                1.0902         calculate D2E/DX2 analytically  !
 ! R100  R(89,92)                1.0978         calculate D2E/DX2 analytically  !
 ! R101  R(93,94)                1.3512         calculate D2E/DX2 analytically  !
 ! R102  R(93,95)                1.3526         calculate D2E/DX2 analytically  !
 ! R103  R(93,96)                1.3506         calculate D2E/DX2 analytically  !
 ! R104  R(97,98)                1.3569         calculate D2E/DX2 analytically  !
 ! R105  R(97,99)                1.3463         calculate D2E/DX2 analytically  !
 ! R106  R(97,100)               1.349          calculate D2E/DX2 analytically  !
 ! A1    A(2,1,5)              111.3007         calculate D2E/DX2 analytically  !
 ! A2    A(2,1,8)              108.754          calculate D2E/DX2 analytically  !
 ! A3    A(2,1,14)             110.035          calculate D2E/DX2 analytically  !
 ! A4    A(5,1,8)              108.1811         calculate D2E/DX2 analytically  !
 ! A5    A(5,1,14)             108.7734         calculate D2E/DX2 analytically  !
 ! A6    A(8,1,14)             109.7674         calculate D2E/DX2 analytically  !
 ! A7    A(1,2,3)              111.1585         calculate D2E/DX2 analytically  !
 ! A8    A(1,2,7)              107.9579         calculate D2E/DX2 analytically  !
 ! A9    A(1,2,13)             107.8328         calculate D2E/DX2 analytically  !
 ! A10   A(3,2,7)              106.6927         calculate D2E/DX2 analytically  !
 ! A11   A(3,2,13)             113.3493         calculate D2E/DX2 analytically  !
 ! A12   A(7,2,13)             109.7277         calculate D2E/DX2 analytically  !
 ! A13   A(2,3,6)              111.1402         calculate D2E/DX2 analytically  !
 ! A14   A(2,3,11)             110.1219         calculate D2E/DX2 analytically  !
 ! A15   A(2,3,12)             108.0821         calculate D2E/DX2 analytically  !
 ! A16   A(6,3,11)             104.4229         calculate D2E/DX2 analytically  !
 ! A17   A(6,3,12)             109.6518         calculate D2E/DX2 analytically  !
 ! A18   A(11,3,12)            113.4329         calculate D2E/DX2 analytically  !
 ! A19   A(5,4,9)              109.9631         calculate D2E/DX2 analytically  !
 ! A20   A(5,4,11)             108.7176         calculate D2E/DX2 analytically  !
 ! A21   A(5,4,16)             112.4475         calculate D2E/DX2 analytically  !
 ! A22   A(9,4,11)             108.6354         calculate D2E/DX2 analytically  !
 ! A23   A(9,4,16)             109.6547         calculate D2E/DX2 analytically  !
 ! A24   A(11,4,16)            107.3149         calculate D2E/DX2 analytically  !
 ! A25   A(1,5,4)              111.0848         calculate D2E/DX2 analytically  !
 ! A26   A(1,5,10)             110.6048         calculate D2E/DX2 analytically  !
 ! A27   A(1,5,15)             110.0106         calculate D2E/DX2 analytically  !
 ! A28   A(4,5,10)             106.6562         calculate D2E/DX2 analytically  !
 ! A29   A(4,5,15)             108.6687         calculate D2E/DX2 analytically  !
 ! A30   A(10,5,15)            109.74           calculate D2E/DX2 analytically  !
 ! A31   A(3,11,4)             114.1253         calculate D2E/DX2 analytically  !
 ! A32   A(3,12,79)            112.9494         calculate D2E/DX2 analytically  !
 ! A33   A(2,13,20)            114.1966         calculate D2E/DX2 analytically  !
 ! A34   A(1,14,24)            114.46           calculate D2E/DX2 analytically  !
 ! A35   A(5,15,28)            113.8313         calculate D2E/DX2 analytically  !
 ! A36   A(4,16,17)            103.6189         calculate D2E/DX2 analytically  !
 ! A37   A(4,16,18)            104.3633         calculate D2E/DX2 analytically  !
 ! A38   A(4,16,19)            115.4606         calculate D2E/DX2 analytically  !
 ! A39   A(17,16,18)           103.8252         calculate D2E/DX2 analytically  !
 ! A40   A(17,16,19)           114.1501         calculate D2E/DX2 analytically  !
 ! A41   A(18,16,19)           114.0652         calculate D2E/DX2 analytically  !
 ! A42   A(16,17,37)           103.7432         calculate D2E/DX2 analytically  !
 ! A43   A(16,19,38)           104.2155         calculate D2E/DX2 analytically  !
 ! A44   A(13,20,21)           112.0786         calculate D2E/DX2 analytically  !
 ! A45   A(13,20,22)           111.4283         calculate D2E/DX2 analytically  !
 ! A46   A(13,20,23)           106.8658         calculate D2E/DX2 analytically  !
 ! A47   A(21,20,22)           108.7317         calculate D2E/DX2 analytically  !
 ! A48   A(21,20,23)           108.6432         calculate D2E/DX2 analytically  !
 ! A49   A(22,20,23)           109.0061         calculate D2E/DX2 analytically  !
 ! A50   A(14,24,25)           111.179          calculate D2E/DX2 analytically  !
 ! A51   A(14,24,26)           111.6557         calculate D2E/DX2 analytically  !
 ! A52   A(14,24,27)           106.704          calculate D2E/DX2 analytically  !
 ! A53   A(25,24,26)           108.9883         calculate D2E/DX2 analytically  !
 ! A54   A(25,24,27)           108.7549         calculate D2E/DX2 analytically  !
 ! A55   A(26,24,27)           109.4902         calculate D2E/DX2 analytically  !
 ! A56   A(15,28,29)           111.2231         calculate D2E/DX2 analytically  !
 ! A57   A(15,28,30)           111.3084         calculate D2E/DX2 analytically  !
 ! A58   A(15,28,31)           106.6273         calculate D2E/DX2 analytically  !
 ! A59   A(29,28,30)           109.3621         calculate D2E/DX2 analytically  !
 ! A60   A(29,28,31)           109.4746         calculate D2E/DX2 analytically  !
 ! A61   A(30,28,31)           108.7709         calculate D2E/DX2 analytically  !
 ! A62   A(33,32,36)           109.3344         calculate D2E/DX2 analytically  !
 ! A63   A(33,32,39)           110.2695         calculate D2E/DX2 analytically  !
 ! A64   A(33,32,45)           108.1358         calculate D2E/DX2 analytically  !
 ! A65   A(36,32,39)           108.4101         calculate D2E/DX2 analytically  !
 ! A66   A(36,32,45)           110.5421         calculate D2E/DX2 analytically  !
 ! A67   A(39,32,45)           110.1463         calculate D2E/DX2 analytically  !
 ! A68   A(32,33,34)           112.8157         calculate D2E/DX2 analytically  !
 ! A69   A(32,33,38)           107.822          calculate D2E/DX2 analytically  !
 ! A70   A(32,33,44)           109.7532         calculate D2E/DX2 analytically  !
 ! A71   A(34,33,38)            99.9947         calculate D2E/DX2 analytically  !
 ! A72   A(34,33,44)           113.8816         calculate D2E/DX2 analytically  !
 ! A73   A(38,33,44)           112.1237         calculate D2E/DX2 analytically  !
 ! A74   A(33,34,37)           115.238          calculate D2E/DX2 analytically  !
 ! A75   A(33,34,42)           122.9935         calculate D2E/DX2 analytically  !
 ! A76   A(33,34,53)           101.9182         calculate D2E/DX2 analytically  !
 ! A77   A(37,34,42)           111.7673         calculate D2E/DX2 analytically  !
 ! A78   A(37,34,53)            97.5186         calculate D2E/DX2 analytically  !
 ! A79   A(42,34,53)           102.0479         calculate D2E/DX2 analytically  !
 ! A80   A(36,35,40)           107.8145         calculate D2E/DX2 analytically  !
 ! A81   A(36,35,42)           109.8214         calculate D2E/DX2 analytically  !
 ! A82   A(36,35,47)           116.8109         calculate D2E/DX2 analytically  !
 ! A83   A(40,35,42)           107.8447         calculate D2E/DX2 analytically  !
 ! A84   A(40,35,47)           108.2002         calculate D2E/DX2 analytically  !
 ! A85   A(42,35,47)           106.0346         calculate D2E/DX2 analytically  !
 ! A86   A(32,36,35)           109.128          calculate D2E/DX2 analytically  !
 ! A87   A(32,36,41)           108.7988         calculate D2E/DX2 analytically  !
 ! A88   A(32,36,46)           109.9225         calculate D2E/DX2 analytically  !
 ! A89   A(35,36,41)           110.125          calculate D2E/DX2 analytically  !
 ! A90   A(35,36,46)           107.23           calculate D2E/DX2 analytically  !
 ! A91   A(41,36,46)           111.603          calculate D2E/DX2 analytically  !
 ! A92   A(17,37,34)           126.1153         calculate D2E/DX2 analytically  !
 ! A93   A(19,38,33)           130.314          calculate D2E/DX2 analytically  !
 ! A94   A(32,39,84)           161.7888         calculate D2E/DX2 analytically  !
 ! A95   A(34,42,35)           119.9615         calculate D2E/DX2 analytically  !
 ! A96   A(33,44,63)           113.9216         calculate D2E/DX2 analytically  !
 ! A97   A(33,44,83)           114.1558         calculate D2E/DX2 analytically  !
 ! A98   A(63,44,83)           111.2973         calculate D2E/DX2 analytically  !
 ! A99   A(32,45,67)           114.1647         calculate D2E/DX2 analytically  !
 ! A100  A(36,46,71)           113.692          calculate D2E/DX2 analytically  !
 ! A101  A(35,47,48)           107.4206         calculate D2E/DX2 analytically  !
 ! A102  A(35,47,49)           108.3874         calculate D2E/DX2 analytically  !
 ! A103  A(35,47,50)           115.7788         calculate D2E/DX2 analytically  !
 ! A104  A(48,47,49)           108.1554         calculate D2E/DX2 analytically  !
 ! A105  A(48,47,50)           112.0205         calculate D2E/DX2 analytically  !
 ! A106  A(49,47,50)           104.7934         calculate D2E/DX2 analytically  !
 ! A107  A(47,50,75)           115.8681         calculate D2E/DX2 analytically  !
 ! A108  A(43,51,52)           118.1867         calculate D2E/DX2 analytically  !
 ! A109  A(43,51,53)           108.0669         calculate D2E/DX2 analytically  !
 ! A110  A(43,51,54)           108.5934         calculate D2E/DX2 analytically  !
 ! A111  A(52,51,53)           109.5245         calculate D2E/DX2 analytically  !
 ! A112  A(52,51,54)           107.7487         calculate D2E/DX2 analytically  !
 ! A113  A(53,51,54)           103.7709         calculate D2E/DX2 analytically  !
 ! A114  A(34,53,51)           119.8982         calculate D2E/DX2 analytically  !
 ! A115  A(34,53,83)           114.7782         calculate D2E/DX2 analytically  !
 ! A116  A(51,53,83)           115.6654         calculate D2E/DX2 analytically  !
 ! A117  A(51,54,55)           119.0767         calculate D2E/DX2 analytically  !
 ! A118  A(51,54,56)           118.6104         calculate D2E/DX2 analytically  !
 ! A119  A(55,54,56)           121.7311         calculate D2E/DX2 analytically  !
 ! A120  A(54,55,57)           118.6703         calculate D2E/DX2 analytically  !
 ! A121  A(54,55,58)           120.1865         calculate D2E/DX2 analytically  !
 ! A122  A(57,55,58)           121.1025         calculate D2E/DX2 analytically  !
 ! A123  A(54,56,59)           118.7791         calculate D2E/DX2 analytically  !
 ! A124  A(54,56,60)           120.3364         calculate D2E/DX2 analytically  !
 ! A125  A(59,56,60)           120.8505         calculate D2E/DX2 analytically  !
 ! A126  A(55,57,61)           120.4843         calculate D2E/DX2 analytically  !
 ! A127  A(55,57,93)           119.5845         calculate D2E/DX2 analytically  !
 ! A128  A(61,57,93)           119.9289         calculate D2E/DX2 analytically  !
 ! A129  A(56,59,61)           120.5142         calculate D2E/DX2 analytically  !
 ! A130  A(56,59,97)           120.1094         calculate D2E/DX2 analytically  !
 ! A131  A(61,59,97)           119.3694         calculate D2E/DX2 analytically  !
 ! A132  A(57,61,59)           119.8006         calculate D2E/DX2 analytically  !
 ! A133  A(57,61,62)           120.0947         calculate D2E/DX2 analytically  !
 ! A134  A(59,61,62)           120.0909         calculate D2E/DX2 analytically  !
 ! A135  A(44,63,64)           110.7597         calculate D2E/DX2 analytically  !
 ! A136  A(44,63,65)           110.6927         calculate D2E/DX2 analytically  !
 ! A137  A(44,63,66)           106.4898         calculate D2E/DX2 analytically  !
 ! A138  A(64,63,65)           109.6463         calculate D2E/DX2 analytically  !
 ! A139  A(64,63,66)           109.1619         calculate D2E/DX2 analytically  !
 ! A140  A(65,63,66)           110.0353         calculate D2E/DX2 analytically  !
 ! A141  A(45,67,68)           111.6486         calculate D2E/DX2 analytically  !
 ! A142  A(45,67,69)           111.25           calculate D2E/DX2 analytically  !
 ! A143  A(45,67,70)           106.6943         calculate D2E/DX2 analytically  !
 ! A144  A(68,67,69)           108.9851         calculate D2E/DX2 analytically  !
 ! A145  A(68,67,70)           109.3355         calculate D2E/DX2 analytically  !
 ! A146  A(69,67,70)           108.8576         calculate D2E/DX2 analytically  !
 ! A147  A(46,71,72)           111.219          calculate D2E/DX2 analytically  !
 ! A148  A(46,71,73)           111.1537         calculate D2E/DX2 analytically  !
 ! A149  A(46,71,74)           106.6229         calculate D2E/DX2 analytically  !
 ! A150  A(72,71,73)           109.0288         calculate D2E/DX2 analytically  !
 ! A151  A(72,71,74)           109.622          calculate D2E/DX2 analytically  !
 ! A152  A(73,71,74)           109.1463         calculate D2E/DX2 analytically  !
 ! A153  A(50,75,76)           105.6886         calculate D2E/DX2 analytically  !
 ! A154  A(50,75,77)           110.6            calculate D2E/DX2 analytically  !
 ! A155  A(50,75,78)           112.3067         calculate D2E/DX2 analytically  !
 ! A156  A(76,75,77)           108.4085         calculate D2E/DX2 analytically  !
 ! A157  A(76,75,78)           109.3628         calculate D2E/DX2 analytically  !
 ! A158  A(77,75,78)           110.2991         calculate D2E/DX2 analytically  !
 ! A159  A(12,79,80)           106.6852         calculate D2E/DX2 analytically  !
 ! A160  A(12,79,81)           111.8647         calculate D2E/DX2 analytically  !
 ! A161  A(12,79,82)           110.8303         calculate D2E/DX2 analytically  !
 ! A162  A(80,79,81)           109.5705         calculate D2E/DX2 analytically  !
 ! A163  A(80,79,82)           109.2106         calculate D2E/DX2 analytically  !
 ! A164  A(81,79,82)           108.637          calculate D2E/DX2 analytically  !
 ! A165  A(44,83,53)            70.8143         calculate D2E/DX2 analytically  !
 ! A166  A(44,83,84)           112.6546         calculate D2E/DX2 analytically  !
 ! A167  A(53,83,84)            89.8665         calculate D2E/DX2 analytically  !
 ! A168  A(39,84,83)            75.7033         calculate D2E/DX2 analytically  !
 ! A169  A(39,84,85)            93.4786         calculate D2E/DX2 analytically  !
 ! A170  A(39,84,89)           110.2221         calculate D2E/DX2 analytically  !
 ! A171  A(83,84,85)           126.7301         calculate D2E/DX2 analytically  !
 ! A172  A(83,84,89)           120.4463         calculate D2E/DX2 analytically  !
 ! A173  A(85,84,89)           112.3105         calculate D2E/DX2 analytically  !
 ! A174  A(84,85,86)           110.8222         calculate D2E/DX2 analytically  !
 ! A175  A(84,85,87)           107.3295         calculate D2E/DX2 analytically  !
 ! A176  A(84,85,88)           110.5867         calculate D2E/DX2 analytically  !
 ! A177  A(86,85,87)           109.5136         calculate D2E/DX2 analytically  !
 ! A178  A(86,85,88)           109.2099         calculate D2E/DX2 analytically  !
 ! A179  A(87,85,88)           109.3461         calculate D2E/DX2 analytically  !
 ! A180  A(84,89,90)           110.3587         calculate D2E/DX2 analytically  !
 ! A181  A(84,89,91)           107.2408         calculate D2E/DX2 analytically  !
 ! A182  A(84,89,92)           110.5501         calculate D2E/DX2 analytically  !
 ! A183  A(90,89,91)           109.876          calculate D2E/DX2 analytically  !
 ! A184  A(90,89,92)           108.9149         calculate D2E/DX2 analytically  !
 ! A185  A(91,89,92)           109.8884         calculate D2E/DX2 analytically  !
 ! A186  A(40,90,89)           106.6008         calculate D2E/DX2 analytically  !
 ! A187  A(57,93,94)           111.6435         calculate D2E/DX2 analytically  !
 ! A188  A(57,93,95)           111.6056         calculate D2E/DX2 analytically  !
 ! A189  A(57,93,96)           111.8406         calculate D2E/DX2 analytically  !
 ! A190  A(94,93,95)           106.9985         calculate D2E/DX2 analytically  !
 ! A191  A(94,93,96)           107.4908         calculate D2E/DX2 analytically  !
 ! A192  A(95,93,96)           106.9806         calculate D2E/DX2 analytically  !
 ! A193  A(59,97,98)           110.849          calculate D2E/DX2 analytically  !
 ! A194  A(59,97,99)           111.8585         calculate D2E/DX2 analytically  !
 ! A195  A(59,97,100)          112.1016         calculate D2E/DX2 analytically  !
 ! A196  A(98,97,99)           106.7334         calculate D2E/DX2 analytically  !
 ! A197  A(98,97,100)          106.731          calculate D2E/DX2 analytically  !
 ! A198  A(99,97,100)          108.2833         calculate D2E/DX2 analytically  !
 ! A199  L(35,40,90,32,-1)     175.2789         calculate D2E/DX2 analytically  !
 ! A200  L(35,40,90,32,-2)     170.1759         calculate D2E/DX2 analytically  !
 ! D1    D(5,1,2,3)            -48.7108         calculate D2E/DX2 analytically  !
 ! D2    D(5,1,2,7)             67.9828         calculate D2E/DX2 analytically  !
 ! D3    D(5,1,2,13)          -173.5269         calculate D2E/DX2 analytically  !
 ! D4    D(8,1,2,3)             70.3711         calculate D2E/DX2 analytically  !
 ! D5    D(8,1,2,7)           -172.9353         calculate D2E/DX2 analytically  !
 ! D6    D(8,1,2,13)           -54.445          calculate D2E/DX2 analytically  !
 ! D7    D(14,1,2,3)          -169.3648         calculate D2E/DX2 analytically  !
 ! D8    D(14,1,2,7)           -52.6712         calculate D2E/DX2 analytically  !
 ! D9    D(14,1,2,13)           65.819          calculate D2E/DX2 analytically  !
 ! D10   D(2,1,5,4)             50.4041         calculate D2E/DX2 analytically  !
 ! D11   D(2,1,5,10)           -67.8348         calculate D2E/DX2 analytically  !
 ! D12   D(2,1,5,15)           170.77           calculate D2E/DX2 analytically  !
 ! D13   D(8,1,5,4)            -69.0194         calculate D2E/DX2 analytically  !
 ! D14   D(8,1,5,10)           172.7417         calculate D2E/DX2 analytically  !
 ! D15   D(8,1,5,15)            51.3464         calculate D2E/DX2 analytically  !
 ! D16   D(14,1,5,4)           171.7971         calculate D2E/DX2 analytically  !
 ! D17   D(14,1,5,10)           53.5582         calculate D2E/DX2 analytically  !
 ! D18   D(14,1,5,15)          -67.8371         calculate D2E/DX2 analytically  !
 ! D19   D(2,1,14,24)          -97.5068         calculate D2E/DX2 analytically  !
 ! D20   D(5,1,14,24)          140.3295         calculate D2E/DX2 analytically  !
 ! D21   D(8,1,14,24)           22.1429         calculate D2E/DX2 analytically  !
 ! D22   D(1,2,3,6)            168.624          calculate D2E/DX2 analytically  !
 ! D23   D(1,2,3,11)            53.4051         calculate D2E/DX2 analytically  !
 ! D24   D(1,2,3,12)           -71.008          calculate D2E/DX2 analytically  !
 ! D25   D(7,2,3,6)             51.1585         calculate D2E/DX2 analytically  !
 ! D26   D(7,2,3,11)           -64.0605         calculate D2E/DX2 analytically  !
 ! D27   D(7,2,3,12)           171.5264         calculate D2E/DX2 analytically  !
 ! D28   D(13,2,3,6)           -69.7246         calculate D2E/DX2 analytically  !
 ! D29   D(13,2,3,11)          175.0565         calculate D2E/DX2 analytically  !
 ! D30   D(13,2,3,12)           50.6434         calculate D2E/DX2 analytically  !
 ! D31   D(1,2,13,20)         -169.641          calculate D2E/DX2 analytically  !
 ! D32   D(3,2,13,20)           66.8642         calculate D2E/DX2 analytically  !
 ! D33   D(7,2,13,20)          -52.2905         calculate D2E/DX2 analytically  !
 ! D34   D(2,3,11,4)           -62.188          calculate D2E/DX2 analytically  !
 ! D35   D(6,3,11,4)           178.4174         calculate D2E/DX2 analytically  !
 ! D36   D(12,3,11,4)           59.0816         calculate D2E/DX2 analytically  !
 ! D37   D(2,3,12,79)         -175.8574         calculate D2E/DX2 analytically  !
 ! D38   D(6,3,12,79)          -54.5621         calculate D2E/DX2 analytically  !
 ! D39   D(11,3,12,79)          61.7353         calculate D2E/DX2 analytically  !
 ! D40   D(9,4,5,1)             63.48           calculate D2E/DX2 analytically  !
 ! D41   D(9,4,5,10)          -175.9199         calculate D2E/DX2 analytically  !
 ! D42   D(9,4,5,15)           -57.6771         calculate D2E/DX2 analytically  !
 ! D43   D(11,4,5,1)           -55.3382         calculate D2E/DX2 analytically  !
 ! D44   D(11,4,5,10)           65.2619         calculate D2E/DX2 analytically  !
 ! D45   D(11,4,5,15)         -176.4953         calculate D2E/DX2 analytically  !
 ! D46   D(16,4,5,1)          -174.0227         calculate D2E/DX2 analytically  !
 ! D47   D(16,4,5,10)          -53.4226         calculate D2E/DX2 analytically  !
 ! D48   D(16,4,5,15)           64.8202         calculate D2E/DX2 analytically  !
 ! D49   D(5,4,11,3)            63.1843         calculate D2E/DX2 analytically  !
 ! D50   D(9,4,11,3)           -56.4647         calculate D2E/DX2 analytically  !
 ! D51   D(16,4,11,3)         -174.9504         calculate D2E/DX2 analytically  !
 ! D52   D(5,4,16,17)          -87.1405         calculate D2E/DX2 analytically  !
 ! D53   D(5,4,16,18)          164.4475         calculate D2E/DX2 analytically  !
 ! D54   D(5,4,16,19)           38.4227         calculate D2E/DX2 analytically  !
 ! D55   D(9,4,16,17)           35.5305         calculate D2E/DX2 analytically  !
 ! D56   D(9,4,16,18)          -72.8814         calculate D2E/DX2 analytically  !
 ! D57   D(9,4,16,19)          161.0937         calculate D2E/DX2 analytically  !
 ! D58   D(11,4,16,17)         153.355          calculate D2E/DX2 analytically  !
 ! D59   D(11,4,16,18)          44.9431         calculate D2E/DX2 analytically  !
 ! D60   D(11,4,16,19)         -81.0818         calculate D2E/DX2 analytically  !
 ! D61   D(1,5,15,28)           94.1859         calculate D2E/DX2 analytically  !
 ! D62   D(4,5,15,28)         -143.9996         calculate D2E/DX2 analytically  !
 ! D63   D(10,5,15,28)         -27.7247         calculate D2E/DX2 analytically  !
 ! D64   D(3,12,79,80)         175.1301         calculate D2E/DX2 analytically  !
 ! D65   D(3,12,79,81)         -65.0635         calculate D2E/DX2 analytically  !
 ! D66   D(3,12,79,82)          56.3423         calculate D2E/DX2 analytically  !
 ! D67   D(2,13,20,21)         -70.9445         calculate D2E/DX2 analytically  !
 ! D68   D(2,13,20,22)          51.1608         calculate D2E/DX2 analytically  !
 ! D69   D(2,13,20,23)         170.1446         calculate D2E/DX2 analytically  !
 ! D70   D(1,14,24,25)         -59.5459         calculate D2E/DX2 analytically  !
 ! D71   D(1,14,24,26)          62.4112         calculate D2E/DX2 analytically  !
 ! D72   D(1,14,24,27)        -177.9881         calculate D2E/DX2 analytically  !
 ! D73   D(5,15,28,29)         -60.55           calculate D2E/DX2 analytically  !
 ! D74   D(5,15,28,30)          61.6739         calculate D2E/DX2 analytically  !
 ! D75   D(5,15,28,31)        -179.8395         calculate D2E/DX2 analytically  !
 ! D76   D(4,16,17,37)         174.2598         calculate D2E/DX2 analytically  !
 ! D77   D(18,16,17,37)        -76.9271         calculate D2E/DX2 analytically  !
 ! D78   D(19,16,17,37)         47.8623         calculate D2E/DX2 analytically  !
 ! D79   D(4,16,19,38)        -103.4801         calculate D2E/DX2 analytically  !
 ! D80   D(17,16,19,38)         16.4729         calculate D2E/DX2 analytically  !
 ! D81   D(18,16,19,38)        135.6197         calculate D2E/DX2 analytically  !
 ! D82   D(16,17,37,34)        -64.4783         calculate D2E/DX2 analytically  !
 ! D83   D(16,19,38,33)       -101.5523         calculate D2E/DX2 analytically  !
 ! D84   D(36,32,33,34)        -40.3197         calculate D2E/DX2 analytically  !
 ! D85   D(36,32,33,38)         69.1328         calculate D2E/DX2 analytically  !
 ! D86   D(36,32,33,44)       -168.471          calculate D2E/DX2 analytically  !
 ! D87   D(39,32,33,34)         78.7823         calculate D2E/DX2 analytically  !
 ! D88   D(39,32,33,38)       -171.7653         calculate D2E/DX2 analytically  !
 ! D89   D(39,32,33,44)        -49.3691         calculate D2E/DX2 analytically  !
 ! D90   D(45,32,33,34)       -160.7328         calculate D2E/DX2 analytically  !
 ! D91   D(45,32,33,38)        -51.2804         calculate D2E/DX2 analytically  !
 ! D92   D(45,32,33,44)         71.1158         calculate D2E/DX2 analytically  !
 ! D93   D(33,32,36,35)         59.495          calculate D2E/DX2 analytically  !
 ! D94   D(33,32,36,41)        -60.6877         calculate D2E/DX2 analytically  !
 ! D95   D(33,32,36,46)        176.8291         calculate D2E/DX2 analytically  !
 ! D96   D(39,32,36,35)        -60.7523         calculate D2E/DX2 analytically  !
 ! D97   D(39,32,36,41)        179.065          calculate D2E/DX2 analytically  !
 ! D98   D(39,32,36,46)         56.5818         calculate D2E/DX2 analytically  !
 ! D99   D(45,32,36,35)        178.4258         calculate D2E/DX2 analytically  !
 ! D100  D(45,32,36,41)         58.2431         calculate D2E/DX2 analytically  !
 ! D101  D(45,32,36,46)        -64.2401         calculate D2E/DX2 analytically  !
 ! D102  D(33,32,39,84)        -19.4733         calculate D2E/DX2 analytically  !
 ! D103  D(36,32,39,84)        100.1898         calculate D2E/DX2 analytically  !
 ! D104  D(45,32,39,84)       -138.7435         calculate D2E/DX2 analytically  !
 ! D105  D(33,32,45,67)       -134.5376         calculate D2E/DX2 analytically  !
 ! D106  D(36,32,45,67)        105.807          calculate D2E/DX2 analytically  !
 ! D107  D(39,32,45,67)        -13.9757         calculate D2E/DX2 analytically  !
 ! D108  D(32,33,34,37)        166.7433         calculate D2E/DX2 analytically  !
 ! D109  D(32,33,34,42)         24.1035         calculate D2E/DX2 analytically  !
 ! D110  D(32,33,34,53)        -88.9368         calculate D2E/DX2 analytically  !
 ! D111  D(38,33,34,37)         52.4571         calculate D2E/DX2 analytically  !
 ! D112  D(38,33,34,42)        -90.1827         calculate D2E/DX2 analytically  !
 ! D113  D(38,33,34,53)        156.777          calculate D2E/DX2 analytically  !
 ! D114  D(44,33,34,37)        -67.2947         calculate D2E/DX2 analytically  !
 ! D115  D(44,33,34,42)        150.0655         calculate D2E/DX2 analytically  !
 ! D116  D(44,33,34,53)         37.0251         calculate D2E/DX2 analytically  !
 ! D117  D(32,33,38,19)        -94.5009         calculate D2E/DX2 analytically  !
 ! D118  D(34,33,38,19)         23.5494         calculate D2E/DX2 analytically  !
 ! D119  D(44,33,38,19)        144.5739         calculate D2E/DX2 analytically  !
 ! D120  D(32,33,44,63)       -162.3964         calculate D2E/DX2 analytically  !
 ! D121  D(32,33,44,83)         68.2269         calculate D2E/DX2 analytically  !
 ! D122  D(34,33,44,63)         70.0442         calculate D2E/DX2 analytically  !
 ! D123  D(34,33,44,83)        -59.3324         calculate D2E/DX2 analytically  !
 ! D124  D(38,33,44,63)        -42.5927         calculate D2E/DX2 analytically  !
 ! D125  D(38,33,44,83)       -171.9693         calculate D2E/DX2 analytically  !
 ! D126  D(33,34,37,17)        -37.322          calculate D2E/DX2 analytically  !
 ! D127  D(42,34,37,17)        109.4455         calculate D2E/DX2 analytically  !
 ! D128  D(53,34,37,17)       -144.3298         calculate D2E/DX2 analytically  !
 ! D129  D(33,34,42,35)        -25.778          calculate D2E/DX2 analytically  !
 ! D130  D(37,34,42,35)       -169.5471         calculate D2E/DX2 analytically  !
 ! D131  D(53,34,42,35)         87.1975         calculate D2E/DX2 analytically  !
 ! D132  D(33,34,53,51)       -147.7029         calculate D2E/DX2 analytically  !
 ! D133  D(33,34,53,83)         -3.0483         calculate D2E/DX2 analytically  !
 ! D134  D(37,34,53,51)        -29.8366         calculate D2E/DX2 analytically  !
 ! D135  D(37,34,53,83)        114.818          calculate D2E/DX2 analytically  !
 ! D136  D(42,34,53,51)         84.4089         calculate D2E/DX2 analytically  !
 ! D137  D(42,34,53,83)       -130.9365         calculate D2E/DX2 analytically  !
 ! D138  D(40,35,36,32)         57.4328         calculate D2E/DX2 analytically  !
 ! D139  D(40,35,36,41)        176.7962         calculate D2E/DX2 analytically  !
 ! D140  D(40,35,36,46)        -61.5906         calculate D2E/DX2 analytically  !
 ! D141  D(42,35,36,32)        -59.8233         calculate D2E/DX2 analytically  !
 ! D142  D(42,35,36,41)         59.5402         calculate D2E/DX2 analytically  !
 ! D143  D(42,35,36,46)       -178.8467         calculate D2E/DX2 analytically  !
 ! D144  D(47,35,36,32)        179.437          calculate D2E/DX2 analytically  !
 ! D145  D(47,35,36,41)        -61.1995         calculate D2E/DX2 analytically  !
 ! D146  D(47,35,36,46)         60.4136         calculate D2E/DX2 analytically  !
 ! D147  D(36,35,90,89)        -96.5467         calculate D2E/DX2 analytically  !
 ! D148  D(42,35,90,89)         21.8366         calculate D2E/DX2 analytically  !
 ! D149  D(47,35,90,89)        139.7111         calculate D2E/DX2 analytically  !
 ! D150  D(36,35,42,34)         42.9977         calculate D2E/DX2 analytically  !
 ! D151  D(40,35,42,34)        -74.2395         calculate D2E/DX2 analytically  !
 ! D152  D(47,35,42,34)        170.0434         calculate D2E/DX2 analytically  !
 ! D153  D(36,35,47,48)        -32.6715         calculate D2E/DX2 analytically  !
 ! D154  D(36,35,47,49)       -149.3156         calculate D2E/DX2 analytically  !
 ! D155  D(36,35,47,50)         93.3391         calculate D2E/DX2 analytically  !
 ! D156  D(40,35,47,48)         89.1314         calculate D2E/DX2 analytically  !
 ! D157  D(40,35,47,49)        -27.5127         calculate D2E/DX2 analytically  !
 ! D158  D(40,35,47,50)       -144.8581         calculate D2E/DX2 analytically  !
 ! D159  D(42,35,47,48)       -155.393          calculate D2E/DX2 analytically  !
 ! D160  D(42,35,47,49)         87.9629         calculate D2E/DX2 analytically  !
 ! D161  D(42,35,47,50)        -29.3825         calculate D2E/DX2 analytically  !
 ! D162  D(32,36,46,71)        106.1376         calculate D2E/DX2 analytically  !
 ! D163  D(35,36,46,71)       -135.3523         calculate D2E/DX2 analytically  !
 ! D164  D(41,36,46,71)        -14.6713         calculate D2E/DX2 analytically  !
 ! D165  D(32,39,84,83)         40.1274         calculate D2E/DX2 analytically  !
 ! D166  D(32,39,84,85)        167.1986         calculate D2E/DX2 analytically  !
 ! D167  D(32,39,84,89)        -77.4796         calculate D2E/DX2 analytically  !
 ! D168  D(33,44,63,64)        -79.3555         calculate D2E/DX2 analytically  !
 ! D169  D(33,44,63,65)         42.4833         calculate D2E/DX2 analytically  !
 ! D170  D(33,44,63,66)        162.0704         calculate D2E/DX2 analytically  !
 ! D171  D(83,44,63,64)         51.4438         calculate D2E/DX2 analytically  !
 ! D172  D(83,44,63,65)        173.2826         calculate D2E/DX2 analytically  !
 ! D173  D(83,44,63,66)        -67.1303         calculate D2E/DX2 analytically  !
 ! D174  D(33,44,83,53)         40.8096         calculate D2E/DX2 analytically  !
 ! D175  D(33,44,83,84)        -40.685          calculate D2E/DX2 analytically  !
 ! D176  D(63,44,83,53)        -89.8684         calculate D2E/DX2 analytically  !
 ! D177  D(63,44,83,84)       -171.363          calculate D2E/DX2 analytically  !
 ! D178  D(32,45,67,68)        -58.0622         calculate D2E/DX2 analytically  !
 ! D179  D(32,45,67,69)         63.9362         calculate D2E/DX2 analytically  !
 ! D180  D(32,45,67,70)       -177.4643         calculate D2E/DX2 analytically  !
 ! D181  D(36,46,71,72)        -58.9473         calculate D2E/DX2 analytically  !
 ! D182  D(36,46,71,73)         62.7386         calculate D2E/DX2 analytically  !
 ! D183  D(36,46,71,74)       -178.4102         calculate D2E/DX2 analytically  !
 ! D184  D(35,47,50,75)        -66.8239         calculate D2E/DX2 analytically  !
 ! D185  D(48,47,50,75)         56.8154         calculate D2E/DX2 analytically  !
 ! D186  D(49,47,50,75)        173.8448         calculate D2E/DX2 analytically  !
 ! D187  D(47,50,75,76)       -165.4243         calculate D2E/DX2 analytically  !
 ! D188  D(47,50,75,77)        -48.2959         calculate D2E/DX2 analytically  !
 ! D189  D(47,50,75,78)         75.4015         calculate D2E/DX2 analytically  !
 ! D190  D(43,51,53,34)       -135.5105         calculate D2E/DX2 analytically  !
 ! D191  D(43,51,53,83)         80.1329         calculate D2E/DX2 analytically  !
 ! D192  D(52,51,53,34)         94.4863         calculate D2E/DX2 analytically  !
 ! D193  D(52,51,53,83)        -49.8702         calculate D2E/DX2 analytically  !
 ! D194  D(54,51,53,34)        -20.3433         calculate D2E/DX2 analytically  !
 ! D195  D(54,51,53,83)       -164.6998         calculate D2E/DX2 analytically  !
 ! D196  D(43,51,54,55)       -150.0557         calculate D2E/DX2 analytically  !
 ! D197  D(43,51,54,56)         38.5354         calculate D2E/DX2 analytically  !
 ! D198  D(52,51,54,55)        -20.9361         calculate D2E/DX2 analytically  !
 ! D199  D(52,51,54,56)        167.655          calculate D2E/DX2 analytically  !
 ! D200  D(53,51,54,55)         95.1514         calculate D2E/DX2 analytically  !
 ! D201  D(53,51,54,56)        -76.2575         calculate D2E/DX2 analytically  !
 ! D202  D(34,53,83,44)        -17.4996         calculate D2E/DX2 analytically  !
 ! D203  D(34,53,83,84)         96.6197         calculate D2E/DX2 analytically  !
 ! D204  D(51,53,83,44)        128.6926         calculate D2E/DX2 analytically  !
 ! D205  D(51,53,83,84)       -117.188          calculate D2E/DX2 analytically  !
 ! D206  D(51,54,55,57)       -169.609          calculate D2E/DX2 analytically  !
 ! D207  D(51,54,55,58)          8.0974         calculate D2E/DX2 analytically  !
 ! D208  D(56,54,55,57)          1.5212         calculate D2E/DX2 analytically  !
 ! D209  D(56,54,55,58)        179.2276         calculate D2E/DX2 analytically  !
 ! D210  D(51,54,56,59)        169.9768         calculate D2E/DX2 analytically  !
 ! D211  D(51,54,56,60)         -7.9224         calculate D2E/DX2 analytically  !
 ! D212  D(55,54,56,59)         -1.1934         calculate D2E/DX2 analytically  !
 ! D213  D(55,54,56,60)       -179.0926         calculate D2E/DX2 analytically  !
 ! D214  D(54,55,57,61)         -0.5696         calculate D2E/DX2 analytically  !
 ! D215  D(54,55,57,93)        179.9846         calculate D2E/DX2 analytically  !
 ! D216  D(58,55,57,61)       -178.2541         calculate D2E/DX2 analytically  !
 ! D217  D(58,55,57,93)          2.3001         calculate D2E/DX2 analytically  !
 ! D218  D(54,56,59,61)         -0.0926         calculate D2E/DX2 analytically  !
 ! D219  D(54,56,59,97)        178.9437         calculate D2E/DX2 analytically  !
 ! D220  D(60,56,59,61)        177.7954         calculate D2E/DX2 analytically  !
 ! D221  D(60,56,59,97)         -3.1682         calculate D2E/DX2 analytically  !
 ! D222  D(55,57,61,59)         -0.6728         calculate D2E/DX2 analytically  !
 ! D223  D(55,57,61,62)        177.973          calculate D2E/DX2 analytically  !
 ! D224  D(93,57,61,59)        178.7711         calculate D2E/DX2 analytically  !
 ! D225  D(93,57,61,62)         -2.5831         calculate D2E/DX2 analytically  !
 ! D226  D(55,57,93,94)       -150.504          calculate D2E/DX2 analytically  !
 ! D227  D(55,57,93,95)         89.7971         calculate D2E/DX2 analytically  !
 ! D228  D(55,57,93,96)        -30.0137         calculate D2E/DX2 analytically  !
 ! D229  D(61,57,93,94)         30.047          calculate D2E/DX2 analytically  !
 ! D230  D(61,57,93,95)        -89.6518         calculate D2E/DX2 analytically  !
 ! D231  D(61,57,93,96)        150.5373         calculate D2E/DX2 analytically  !
 ! D232  D(56,59,61,57)          1.0108         calculate D2E/DX2 analytically  !
 ! D233  D(56,59,61,62)       -177.6351         calculate D2E/DX2 analytically  !
 ! D234  D(97,59,61,57)       -178.0327         calculate D2E/DX2 analytically  !
 ! D235  D(97,59,61,62)          3.3214         calculate D2E/DX2 analytically  !
 ! D236  D(56,59,97,98)        -97.9312         calculate D2E/DX2 analytically  !
 ! D237  D(56,59,97,99)        143.0736         calculate D2E/DX2 analytically  !
 ! D238  D(56,59,97,100)        21.2214         calculate D2E/DX2 analytically  !
 ! D239  D(61,59,97,98)         81.1162         calculate D2E/DX2 analytically  !
 ! D240  D(61,59,97,99)        -37.8789         calculate D2E/DX2 analytically  !
 ! D241  D(61,59,97,100)      -159.7311         calculate D2E/DX2 analytically  !
 ! D242  D(44,83,84,39)          1.1058         calculate D2E/DX2 analytically  !
 ! D243  D(44,83,84,85)        -82.4618         calculate D2E/DX2 analytically  !
 ! D244  D(44,83,84,89)        106.4119         calculate D2E/DX2 analytically  !
 ! D245  D(53,83,84,39)        -67.9732         calculate D2E/DX2 analytically  !
 ! D246  D(53,83,84,85)       -151.5409         calculate D2E/DX2 analytically  !
 ! D247  D(53,83,84,89)         37.3329         calculate D2E/DX2 analytically  !
 ! D248  D(39,84,85,86)        173.6135         calculate D2E/DX2 analytically  !
 ! D249  D(39,84,85,87)        -66.8465         calculate D2E/DX2 analytically  !
 ! D250  D(39,84,85,88)         52.3562         calculate D2E/DX2 analytically  !
 ! D251  D(83,84,85,86)       -111.6539         calculate D2E/DX2 analytically  !
 ! D252  D(83,84,85,87)          7.8861         calculate D2E/DX2 analytically  !
 ! D253  D(83,84,85,88)        127.0888         calculate D2E/DX2 analytically  !
 ! D254  D(89,84,85,86)         60.0814         calculate D2E/DX2 analytically  !
 ! D255  D(89,84,85,87)        179.6214         calculate D2E/DX2 analytically  !
 ! D256  D(89,84,85,88)        -61.1759         calculate D2E/DX2 analytically  !
 ! D257  D(39,84,89,90)        -43.2814         calculate D2E/DX2 analytically  !
 ! D258  D(39,84,89,91)         76.3789         calculate D2E/DX2 analytically  !
 ! D259  D(39,84,89,92)       -163.8366         calculate D2E/DX2 analytically  !
 ! D260  D(83,84,89,90)       -128.1904         calculate D2E/DX2 analytically  !
 ! D261  D(83,84,89,91)         -8.5301         calculate D2E/DX2 analytically  !
 ! D262  D(83,84,89,92)        111.2544         calculate D2E/DX2 analytically  !
 ! D263  D(85,84,89,90)         59.4894         calculate D2E/DX2 analytically  !
 ! D264  D(85,84,89,91)        179.1496         calculate D2E/DX2 analytically  !
 ! D265  D(85,84,89,92)        -61.0659         calculate D2E/DX2 analytically  !
 ! D266  D(84,89,90,40)         74.9521         calculate D2E/DX2 analytically  !
 ! D267  D(91,89,90,40)        -43.1026         calculate D2E/DX2 analytically  !
 ! D268  D(92,89,90,40)       -163.5182         calculate D2E/DX2 analytically  !
 --------------------------------------------------------------------------------
 Trust Radius=5.00D-02 FncErr=1.00D-07 GrdErr=1.00D-06 EigMax=2.50D+02 EigMin=1.00D-04
 Number of steps in this run=    584 maximum allowed number of steps=    600.
 Search for a saddle point of order  1.
 Step   0 in ReCalcFC=30 IGetFC= 4 compute analytic Hessian.
 GradGradGradGradGradGradGradGradGradGradGradGradGradGradGradGradGradGrad

 Leave Link  103 at Thu May 30 18:50:03 2019, MaxMem=  6442450944 cpu:               4.4 elap:               0.2
 (Enter /home/ekwan/sw/g16/l202.exe)
 Stoichiometry    C30H47F6NaO15S
 Framework group  C1[X(C30H47F6NaO15S)]
 Deg. of freedom   294
 Full point group                 C1      NOp   1
 Largest Abelian subgroup         C1      NOp   1
 Largest concise Abelian subgroup C1      NOp   1
                         Standard orientation:                         
 ---------------------------------------------------------------------
 Center     Atomic      Atomic             Coordinates (Angstroms)
 Number     Number       Type             X           Y           Z
 ---------------------------------------------------------------------
      1          6           0        5.067963   -1.544058   -0.259669
      2          6           0        5.742338   -0.615920    0.753284
      3          6           0        5.200388    0.818622    0.638308
      4          6           0        3.138037    0.079068   -0.324409
      5          6           0        3.545210   -1.390988   -0.226318
      6          1           0        5.529026    1.435836    1.486736
      7          1           0        5.484787   -0.971464    1.763736
      8          1           0        5.416777   -1.280446   -1.266741
      9          1           0        3.455249    0.492425   -1.291706
     10          1           0        3.140610   -1.766423    0.720056
     11          8           0        3.797679    0.814539    0.730878
     12          8           0        5.680321    1.371844   -0.563330
     13          8           0        7.144404   -0.704590    0.557412
     14          8           0        5.399642   -2.903644    0.025943
     15          8           0        2.958087   -2.102224   -1.318373
     16          6           0        1.618872    0.282868   -0.145966
     17          1           0        1.209452    0.152791   -1.187977
     18          1           0        1.507210    1.376695    0.050034
     19          8           0        1.030831   -0.507223    0.782788
     20          6           0        7.912822   -0.080113    1.570459
     21          1           0        7.840604    1.015188    1.527444
     22          1           0        7.605488   -0.415441    2.572434
     23          1           0        8.953507   -0.368510    1.402257
     24          6           0        6.466731   -3.423894   -0.751451
     25          1           0        6.232947   -3.382263   -1.825874
     26          1           0        7.401068   -2.882630   -0.568856
     27          1           0        6.588086   -4.470721   -0.458229
     28          6           0        2.544781   -3.423987   -0.988245
     29          1           0        3.391263   -4.032320   -0.656262
     30          1           0        1.773081   -3.417356   -0.207661
     31          1           0        2.120131   -3.856107   -1.899580
     32          6           0       -1.587781   -2.839418    0.529931
     33          6           0       -0.933186   -1.936576   -0.502039
     34          6           0       -1.371260   -0.484107   -0.378215
     35          6           0       -2.452258   -0.820787    1.718770
     36          6           0       -1.643497   -2.112124    1.878071
     37          1           0       -0.775928    0.224426   -0.931581
     38          1           0        0.134881   -1.838076   -0.236320
     39          1           0       -2.614225   -3.084020    0.225076
     40          1           0       -3.446822   -1.091811    1.345260
     41          1           0       -0.622871   -1.880197    2.195904
     42          8           0       -1.827045    0.029978    0.734846
     43          8           0       -4.654310    1.104437   -2.102726
     44          8           0       -1.113363   -2.483432   -1.802425
     45          8           0       -0.812096   -4.026481    0.635089
     46          8           0       -2.319358   -2.916798    2.834840
     47          6           0       -2.631900    0.048439    2.981570
     48          1           0       -2.674584   -0.631446    3.846329
     49          1           0       -3.590876    0.567859    2.909047
     50          8           0       -1.684239    1.068695    3.160396
     51         16           0       -3.209198    0.867098   -2.243088
     52          8           0       -2.645142    0.791164   -3.602178
     53          8           0       -2.851204   -0.443172   -1.451714
     54          6           0       -2.331421    2.151912   -1.359125
     55          6           0       -1.073515    2.544511   -1.808919
     56          6           0       -2.846792    2.597046   -0.143887
     57          6           0       -0.304094    3.380853   -0.999397
     58          1           0       -0.692050    2.173175   -2.752304
     59          6           0       -2.068093    3.436195    0.646800
     60          1           0       -3.821514    2.265860    0.190784
     61          6           0       -0.793648    3.822013    0.229066
     62          1           0       -0.178088    4.444441    0.867311
     63          6           0       -0.217300   -1.946584   -2.789733
     64          1           0       -0.564055   -0.965980   -3.137081
     65          1           0        0.794766   -1.856518   -2.384873
     66          1           0       -0.224073   -2.647119   -3.628334
     67          6           0       -1.577259   -5.221953    0.641005
     68          1           0       -2.303782   -5.233128    1.462105
     69          1           0       -2.110908   -5.358288   -0.310713
     70          1           0       -0.871469   -6.045681    0.771253
     71          6           0       -1.453680   -3.508333    3.799022
     72          1           0       -0.699659   -4.141671    3.319184
     73          1           0       -0.947031   -2.741280    4.400358
     74          1           0       -2.083009   -4.117689    4.451949
     75          6           0       -0.346640    0.638523    3.421212
     76          1           0        0.182081    1.522916    3.789610
     77          1           0       -0.333426   -0.129437    4.211879
     78          1           0        0.155732    0.263555    2.516108
     79          6           0        5.315822    2.737507   -0.730087
     80          1           0        5.809278    3.084886   -1.640596
     81          1           0        4.232297    2.861153   -0.830049
     82          1           0        5.661457    3.341481    0.121915
     83         11           0       -3.317570   -2.449975   -2.553333
     84          8           0       -4.821062   -2.998067   -0.907040
     85          6           0       -5.184321   -4.309371   -0.487875
     86          1           0       -6.223370   -4.533056   -0.762610
     87          1           0       -4.514964   -5.009164   -0.992286
     88          1           0       -5.067586   -4.413497    0.598691
     89          6           0       -5.641618   -1.992422   -0.312839
     90          1           0       -5.562264   -2.032101    0.781598
     91          1           0       -5.284795   -1.028235   -0.675632
     92          1           0       -6.692107   -2.133565   -0.598834
     93          6           0        1.059599    3.817844   -1.465524
     94          9           0        1.893747    4.040896   -0.426174
     95          9           0        0.998312    4.966620   -2.176964
     96          9           0        1.639470    2.892337   -2.260005
     97          6           0       -2.604693    3.954098    1.954343
     98          9           0       -3.104215    5.207274    1.808925
     99          9           0       -1.645698    4.025991    2.896456
    100          9           0       -3.608581    3.188631    2.429876
 ---------------------------------------------------------------------
 Rotational constants (GHZ):           0.0593495           0.0410012           0.0322959
 Leave Link  202 at Thu May 30 18:50:03 2019, MaxMem=  6442450944 cpu:               5.4 elap:               0.2
 (Enter /home/ekwan/sw/g16/l301.exe)
 Standard basis: 6-31G(d) (6D, 7F)
 Ernie: Thresh=  0.10000D-02 Tol=  0.10000D-05 Strict=F.
 There are   897 symmetry adapted cartesian basis functions of A   symmetry.
 There are   897 symmetry adapted basis functions of A   symmetry.
   897 basis functions,  1720 primitive gaussians,   897 cartesian basis functions
   214 alpha electrons      214 beta electrons
       nuclear repulsion energy      9589.3096692572 Hartrees.
 IExCor=  402 DFT=T Ex+Corr=B3LYP ExCW=0 ScaHFX=  0.200000
 ScaDFX=  0.800000  0.720000  1.000000  0.810000 ScalE2=  1.000000  1.000000
 IRadAn=      5 IRanWt=     -1 IRanGd=            0 ICorTp=0 IEmpDi=141
 NAtoms=  100 NActive=  100 NUniq=  100 SFac= 1.00D+00 NAtFMM=   60 NAOKFM=T Big=T
 Integral buffers will be    131072 words long.
 Raffenetti 2 integral format.
 Two-electron integral symmetry is turned on.
 R6Disp:  Grimme-D3(BJ) Dispersion energy=       -0.2338464383 Hartrees.
 Nuclear repulsion after empirical dispersion term =     9589.0758228189 Hartrees.
 Force inversion solution in PCM.
 ------------------------------------------------------------------------------
 Polarizable Continuum Model (PCM)
 =================================
 Model                : PCM.
 Atomic radii         : UFF (Universal Force Field).
 Polarization charges : Total charges.
 Charge compensation  : None.
 Solution method      : Matrix inversion.
[...]
 0002163,-0.00016682,-0.00000729,0.00002978,-0.00015529,0.00008452,0.00
 076911,0.00022847,0.00027661,-0.00011995,-0.00024402,0.00003334,0.0000
 2657,0.00013633,-0.00005327,0.00013141,-0.00386083,0.00009173,0.000807
 87,0.00063695,0.00063194,-0.00009735,-0.00020273,-0.00041680,-0.000114
 56,-0.00035260,-0.00007554,0.00061374,-0.00093946,-0.00017710,-0.00023
 232,-0.00023803,-0.00037190,0.00081132,0.00113762,-0.00075919,0.000361
 30,-0.00022443,0.00016757,0.00000953,0.00005883,0.00001203,-0.00933831
 ,0.00705548,-0.01435789,-0.00011407,0.00050917,0.00017878,-0.00055892,
 -0.00070665,-0.00026488,0.00054742,0.00028723,-0.00025774,-0.00004606,
 0.00000783,0.00003796,-0.00000713,0.00000599,0.00001128,-0.00000155,0.
 00000650,0.00000327,0.00000292,-0.00001333,-0.00001458,0.00004704,0.00
 007028,0.00000663,-0.00000929,-0.00000115,0.00000145,-0.00001184,-0.00
 000817,-0.00000815,0.00000055,-0.00001612,0.00000009,-0.00005947,0.000
 05766,-0.00007438,0.00001272,-0.00001154,0.00000214,0.00000199,0.00001
 065,-0.00000034,-0.00000267,-0.00001491,0.00001385,-0.00077093,-0.0000
 8076,-0.00027048,0.00005999,-0.00017940,0.00000087,0.00015217,-0.00014
 052,0.00010768,0.00005829,-0.00000193,0.00008100,-0.00001769,-0.000020
 81,-0.00000542,0.00000278,0.00000157,-0.00000182,-0.00000161,0.0000018
 1,-0.00000101,0.00000595,0.00000380,0.00000654,0.00003777,0.00009959,0
 .00006613,-0.00002950,-0.00005307,-0.00001094,0.00001504,0.00004528,-0
 .00000753,-0.00000897,-0.00000597,0.00000035,0.00000270,-0.00000521,-0
 .00000007,0.00000016,-0.00000356,0.00000236,0.00000891,0.00002518,0.00
 000694,0.00000870,0.00000698,-0.00000629,0.00001762,-0.00000067,0.0000
 0885,-0.00001186,-0.00001315,-0.00000684,-0.00068684,-0.00039925,0.000
 17281,0.00022174,0.00008335,0.00004955,0.00015250,0.00022829,-0.000145
 19,0.00020949,0.00002826,-0.00011036,-0.00937619,-0.07208219,-0.014214
 39,0.04119582,-0.00983248,0.03621589,0.00808613,0.08014490,-0.00003725
 ,-0.00000150,-0.00001582,-0.00000605,0.00000501,-0.00003098,-0.0000605
 6,-0.00001115,-0.00005543,-0.00010935,-0.00007423,-0.00008089,0.000022
 36,0.00002533,-0.00002588,0.00002835,0.00001711,0.00001829,0.00000255,
 -0.00000532,0.00001089,0.00000053,0.00000016,0.00000583,-0.00000058,0.
 00000439,0.00001757,-0.00001603,0.00000243,0.00000685,0.00013461,0.000
 03981,0.00011094,0.00003375,0.00000051,0.00004675,0.00003001,0.0000058
 4,0.00003675,0.00003546,-0.00001945,0.00001530,0.00004383,-0.00002715,
 0.00003640,-0.00001416,0.00022946,-0.00024940,0.00008680,0.00000988,0.
 00015455,0.00000641,-0.00013874,-0.00007762,0.00005834,-0.00013750,0.0
 0049365,-0.00000997,-0.00001010,-0.00003213,0.00000134,0.00000445,-0.0
 0000040,-0.00000078,-0.00000439,0.00000893,0.00000077,0.00000200,0.000
 00293,-0.00001016,0.00000230,-0.00000033,0.00000123,0.00000012,0.00000
 419,0.00000464,-0.00000002,-0.00000229,0.00000213,-0.00000471,-0.00000
 147,0.00000065,0.00003212,-0.00000148,0.00000930,-0.00001000,-0.000002
 27,-0.00000493,0.00000699,-0.00000994,-0.00000365,0.00000379,0.0000042
 2,0.00002640,0.00011813,-0.00012712,-0.00003352,0.00012393,0.00013477,
 -0.00070336,0.00016302,-0.00094721,0.00035907,0.00032353,-0.00053591,-
 0.00004513,0.00002411,-0.00004150,-0.00010540,0.00013278,0.00007527,-0
 .00002758,-0.00003191,-0.00001285,-0.00000158,0.00000171,0.00001427,-0
 .00002035,0.00001707,0.00010923,0.00001960,-0.00002649,-0.00001167,0.0
 0004745,-0.00033541,0.00075341,-0.00091613,-0.00061207,-0.00032497,0.0
 0006226,-0.00013725,-0.00004351,0.00000114,-0.00014231,0.00006840,0.00
 001168,-0.00007196,0.00019224,-0.00096919,-0.00032504,-0.00026612,0.00
 013859,0.00014847,0.00003112,0.00015127,0.00005029,0.00000092,0.000146
 00,0.00135404,0.00061044,0.00226606,0.00287001,0.00121627,-0.00028670,
 -0.00087748,-0.00125586,0.00017160,-0.00155435,0.00049625,-0.00076023,
 -0.00264188,-0.00085553,0.00001034,-0.00033895,-0.00079760,0.00530338,
 0.00168008,-0.00576897,0.00027137,-0.00074260,-0.00007150,0.00002714,0
 .00008370,0.00002422,-0.03438230,-0.00864386,-0.03575165,-0.00022085,0
 .00059445,0.00020169,-0.00182108,-0.00087335,-0.00053083,0.00051630,0.
 00042207,-0.00179428,-0.00005827,0.00007067,0.00002592,-0.00002668,0.0
 0000094,0.00003067,-0.00000375,0.00000112,0.00000324,0.00000351,-0.000
 02745,-0.00001360,0.00003614,0.00005188,-0.00000085,-0.00001399,-0.000
 00861,0.00000273,-0.00000594,-0.00000379,-0.00000015,0.00000045,-0.000
 01615,-0.00000045,-0.00007367,-0.00000584,-0.00008302,0.00000706,0.000
 00348,0.00000494,0.00002371,0.00000598,0.00001888,0.00000652,-0.000007
 01,0.00001309,0.00024352,-0.00050877,-0.00012651,0.00058052,-0.0000717
 8,0.00042588,-0.00002631,0.00016125,-0.00001734,0.00004099,0.00002050,
 -0.00017041,-0.00005307,-0.00001112,-0.00002707,-0.00000146,0.00000088
 ,0.00000493,-0.00000136,0.00000654,-0.00001290,0.00002187,0.00000806,0
 .00001526,0.00005892,0.00025955,0.00008869,-0.00003492,-0.00010925,0.0
 0002778,0.00001713,0.00008385,-0.00003456,-0.00001096,-0.00001170,0.00
 000335,0.00000258,-0.00001046,-0.00000225,-0.00000156,-0.00000849,0.00
 001441,0.00002052,0.00006352,-0.00003161,0.00000444,-0.00000783,0.0000
 1357,0.00002728,0.00000704,-0.00000546,-0.00001253,-0.00001901,0.00000
 128,-0.00224904,-0.00081574,0.00041315,0.00076526,0.00021302,0.0002165
 3,0.00050730,0.00057967,-0.00038099,0.00066430,-0.00005040,-0.00033276
 ,-0.08835232,-0.01507053,-0.19630504,-0.02917713,0.02471011,-0.0081048
 9,0.15942692,0.00738999,0.23211115,0.00003255,-0.00002563,-0.00000202,
 0.00003250,-0.00001601,0.00001534,0.00008638,-0.00001601,-0.00000621,0
 .00005369,0.00003319,-0.00000327,-0.00003704,-0.00004789,-0.00001179,-
 0.00000573,-0.00000052,-0.00000090,-0.00000256,0.00000195,-0.00000278,
 -0.00000271,0.00000254,0.,0.00000270,-0.00000159,-0.00000131,0.0000131
 3,-0.00000454,0.00000210,-0.00010123,0.00002812,-0.00001728,-0.0000472
 4,0.00003020,0.00000798,-0.00004488,0.00001500,-0.00001049,-0.00004110
 ,0.00005572,0.00000666,-0.00000253,0.00006843,0.00000775,-0.00000894,-
 0.00031700,0.00012894,-0.00004447,0.00001767,-0.00005100,0.00001144,0.
 00016967,0.00003505,0.00005952,0.00025596,-0.00017637,0.00001093,-0.00
 000188,0.00001609,0.00000126,0.00000303,-0.00000340,0.00000154,-0.0000
 0208,-0.00000355,-0.00000604,0.00000115,-0.00000009,0.00002165,-0.0000
 1254,-0.00001853,-0.00000201,-0.00000042,0.00000357,-0.00000384,-0.000
 00079,0.00000307,-0.00000420,0.00000711,0.00000120,-0.00001361,-0.0000
 4993,0.00000629,-0.00000507,0.00000875,-0.00000199,0.00000035,-0.00000
 233,-0.00000012,0.00000457,0.00000468,0.00000434,-0.00003234,-0.000061
 60,0.00012168,0.00005014,-0.00005939,-0.00006688,0.00002778,-0.0000441
 2,0.00049706,-0.00005348,-0.00008460,0.00056700,-0.00001162,0.00000798
 ,-0.00012220,0.00007223,-0.00009127,-0.00005777,-0.00003460,-0.0000301
 9,-0.00003069,0.00000637,0.00001166,-0.00000584,0.00003414,0.00006171,
 0.00001818,0.00000254,-0.00002288,0.00001408,0.00017058,0.00016560,-0.
 00063341,0.00069096,0.00026573,0.00004633,0.00001703,0.00007359,0.0000
 0805,0.00003674,0.00003140,-0.00005575,0.00005509,0.00000540,-0.000072
 01,-0.00167691,0.00025741,-0.00006463,0.00027061,-0.00010020,-0.000034
 79,0.00094908,0.00095243,-0.00012900,-0.00019852,0.00118386,-0.0001424
 8,-0.00147752,-0.00143878,-0.00052947,0.00025494,0.00042340,0.00044649
 ,0.00008573,0.00071330,-0.00019362,0.00042598,0.00083411,0.00058135,-0
 .00015577,0.00001554,0.00032160,-0.00227795,-0.00174718,-0.00216540,-0
 .00161508,0.00005139,-0.00007366,0.00011777,0.00002533,-0.00001771,-0.
 02036476,-0.01896026,0.01686381,0.00138469,0.00094977,0.00110747,0.001
 46219,0.00201738,0.00512396,0.00074011,-0.00012078,-0.00046399,0.00000
 530,-0.00004191,0.00000290,0.00000855,0.00000025,-0.00002029,0.0000046
 6,-0.00000816,-0.00000431,0.00000131,0.00001793,0.00000519,-0.00002024
 ,-0.00001950,-0.00000183,0.00000629,0.00000722,-0.00000558,0.00000106,
 0.00000040,0.00000112,0.00000196,0.00000255,0.,-0.00002077,0.00002303,
 -0.00001672,0.00000737,-0.00000984,-0.00000314,-0.00000897,0.00000319,
 0.00000252,-0.00000071,0.00000722,-0.00000247,-0.00018791,-0.00001554,
 -0.00013627,0.00017164,-0.00000696,0.00010898,0.00000842,0.00004208,-0
 .00001740,0.00003590,-0.00003974,0.00005716,0.00005235,-0.00002076,0.0
 0000106,-0.00000823,0.00000033,0.00000661,-0.00000420,-0.00001387,-0.0
 0000557,0.00000138,0.00000117,-0.00000073,-0.00006833,-0.00011020,-0.0
 0001561,0.00006491,-0.00005702,-0.00005579,0.00000851,0.00000081,0.000
 00778,0.00000090,0.00000356,0.00000212,0.00000246,-0.00000786,-0.00000
 338,-0.00000609,0.00000283,-0.00000496,-0.00003984,0.00005208,0.000060
 44,0.00000069,0.00002727,-0.00002673,-0.00002472,0.00000304,0.00004571
 ,0.00000929,0.00000407,-0.00000551,0.00145085,0.00090066,-0.00041243,-
 0.00041567,-0.00009345,0.00001643,-0.00028055,-0.00043922,0.00031005,-
 0.00072972,0.00014557,0.00048371,-0.17692538,-0.06763365,0.06910639,0.
 01427712,-0.01691164,0.00245799,-0.06149037,-0.03250515,-0.01182187,0.
 24519564,-0.00001344,-0.00000115,-0.00000274,-0.00000864,-0.00000464,0
 .00000071,-0.00003927,-0.00002497,0.00001404,-0.00001032,-0.00001109,-
 0.00002530,-0.00001163,-0.00000087,0.00000193,0.00000882,0.00000424,0.
 00000312,0.00000033,0.00000139,-0.00000217,0.00000372,-0.00000140,-0.0
 0000210,0.00001520,0.00000396,-0.00000606,-0.00000976,0.00000980,-0.00
 000406,0.00004859,0.00002814,0.00000820,0.00001158,0.00003970,-0.00001
 407,0.00001706,0.00000876,0.00000420,0.00001656,-0.00000192,-0.0000037
 2,0.00002889,0.00000606,-0.00000239,-0.00010003,-0.00019780,0.00014354
 ,-0.00000102,0.00002289,-0.00003273,-0.00000100,0.00005979,-0.00000805
 ,0.00026197,0.00007728,-0.00018299,-0.00000498,-0.00000976,-0.00000504
 ,0.00000015,0.00000381,0.00000041,0.00000047,0.00000050,-0.00000013,0.
 00000124,0.00000028,0.00000090,-0.00000872,0.00000233,0.00000761,-0.00
 000001,-0.00000031,-0.00000168,0.00000295,-0.00000004,-0.00000060,0.00
 000036,-0.00000027,-0.00000066,-0.00001350,-0.00000048,0.00001625,0.00
 000436,-0.00000222,-0.00000236,0.00000058,0.00000198,-0.00000868,-0.00
 000158,0.00000124,-0.00000112,-0.00002488,0.00007574,0.00012716,-0.000
 02206,0.00005293,0.00008828,-0.00014763,0.00020137,0.00068531,0.000033
 49,0.00007048,0.00049539,-0.00003430,0.00017535,-0.00026980,-0.0000003
 7,-0.00001186,-0.00005008,-0.00002147,-0.00000895,-0.00002066,0.000005
 60,-0.00000208,-0.00000108,0.00001572,0.00000269,-0.00009193,-0.000019
 49,0.00000338,0.00002614,0.00034460,-0.00019010,-0.00069066,0.00000167
 ,0.00003303,-0.00015085,0.00005109,-0.00005362,-0.00015767,0.00005286,
 -0.00022350,-0.00005961,0.00006634,-0.00021229,0.00007088,-0.00065042,
 0.00095839,0.00034719,0.00033173,-0.00024432,0.00003931,0.00125398,-0.
 00063920,0.00004765,0.00200863,-0.00210444,0.00094898,-0.00015975,-0.0
 0020668,0.00055663,0.00007044,0.00005668,-0.00015229,-0.00014664,0.000
 14876,-0.00035447,0.00031702,0.00079455,0.00061298,0.00055056,0.000218
 19,-0.00008033,-0.00125712,-0.00166731,-0.00283116,0.00008633,-0.00073
 786,-0.00047568,0.00010831,0.00003761,0.00000353,-0.00306416,0.0051804
 1,-0.00016839,0.00171934,0.00057291,-0.00014397,-0.00055081,0.00109495
 ,0.00071302,0.00027998,0.00018353,-0.00017411,-0.00005650,-0.00002307,
 0.00005380,0.00000149,0.00000703,-0.00000074,0.00000099,0.00000509,0.0
 0000142,0.00000493,-0.00000552,-0.00001684,0.00005792,0.00009052,0.000
 00723,-0.00000878,0.00000372,-0.00000047,-0.00001692,-0.00001207,-0.00
 001196,0.00000137,-0.00002073,0.00000020,-0.00009324,0.00010069,-0.000
 11363,0.00002259,-0.00002281,0.00000169,-0.00000501,0.00001605,-0.0000
 0077,-0.00000467,-0.00001831,0.00001902,-0.00117893,-0.00041975,-0.000
 19441,0.00016752,0.00009848,0.00009932,0.00036205,-0.00017368,0.000138
 06,0.00013484,-0.00005703,0.00015478,0.00000471,-0.00003008,-0.0000016
 0,0.00000062,0.00000196,-0.00000055,-0.00000308,-0.00000354,-0.0000018
 6,0.00000457,0.00000384,0.00000525,0.00001407,0.00004396,0.00007515,-0
 .00001034,-0.00008481,-0.00004808,0.00002423,0.00005250,-0.00000113,-0
 .00001132,-0.00000509,0.00000058,0.00000469,-0.00000938,-0.00000094,-0
 .00000205,-0.00000207,-0.00000164,-0.00000858,0.00005008,0.00004534,0.
 00001416,0.00002652,-0.00002578,0.00001117,0.00000067,0.00004042,-0.00
 001263,-0.00001626,-0.00001429,-0.00003208,-0.00024649,0.00007057,0.00
 003064,0.00006334,0.00005098,0.00001568,0.00004389,-0.00002061,-0.0000
 2599,0.00009912,0.00001076,-0.07212928,-0.11802521,0.04231431,-0.03063
 869,-0.06834016,0.02987036,-0.02923716,-0.00085825,-0.00757405,0.13119
 946,0.18409283,-0.00002993,0.00001098,-0.00000551,-0.00001631,0.000011
 36,-0.00002209,-0.00006143,0.00000828,-0.00002723,-0.00007432,-0.00005
 461,-0.00003341,0.00003304,0.00003584,-0.00000683,0.00001367,0.0000073
 5,0.00000833,0.00000240,-0.00000390,0.00000700,0.00000054,-0.00000074,
 0.00000323,-0.00000658,0.00000197,0.00001107,-0.00001106,0.00000011,0.
 00000329,0.00009856,-0.00000162,0.00005787,0.00003682,-0.00002400,0.00
 002157,0.00003169,-0.00000625,0.00002139,0.00003218,-0.00003507,0.0000
 0492,0.00001382,-0.00004653,0.00001394,0.00003187,0.00032905,-0.000199
 89,0.00005529,-0.00000487,0.00010150,-0.00000565,-0.00017259,-0.000054
 04,-0.00006788,-0.00020917,0.00036019,-0.00000869,-0.00000194,-0.00002
 180,0.00000001,-0.00000017,0.00000136,-0.00000120,-0.00000115,0.000005
 91,0.00000290,0.00000031,0.00000122,-0.00001262,0.00000616,0.00000673,
 0.00000149,0.00000031,0.00000071,0.00000331,0.00000030,-0.00000243,0.0
 0000293,-0.00000545,-0.00000115,0.00001026,0.00003865,-0.00000801,0.00
 000552,-0.00000824,0.00000050,-0.00000255,0.00000344,-0.00000224,-0.00
 000350,-0.00000089,0.00000028,0.00003116,0.00006571,-0.00014740,-0.000
 02749,0.00007524,0.00006582,-0.00031527,0.00006882,-0.00077385,0.00019
 098,0.00021473,-0.00063145,-0.00000204,-0.00003946,0.00010390,-0.00007
 732,0.00011105,0.00007458,0.00000678,-0.00000091,0.00001179,-0.0000055
 2,-0.00000366,0.00001005,-0.00002853,-0.00001096,0.00008078,0.00001114
 ,-0.00000489,-0.00001966,-0.00014077,-0.00016095,0.00075974,-0.0006769
 4,-0.00045966,-0.00021113,0.00000804,-0.00008660,0.00001427,-0.0000294
 3,-0.00002296,0.00007245,-0.00003653,0.00001767,0.00010598,0.00016076,
 -0.00061083,-0.00021364,-0.00010738,0.00017921,-0.00000118,-0.00054080
 ,-0.00029074,-0.00000412,-0.00081773,0.00116290,-0.00003160,0.00128840
 ,0.00211499,0.00101973,-0.00017857,-0.00053402,-0.00061523,0.00010444,
 -0.00102017,0.00033443,0.00046213,0.00013301,0.00003276,0.00050710,-0.
 00002609,-0.00053059,0.00067980,0.00036089,-0.00150690,0.00250167,0.00
 032764,-0.00038384,0.00003684,0.00003578,0.00000738,0.03451789,0.02030
 683,-0.01158569,0.00131050,0.00001559,-0.00221780,-0.00142642,-0.00345
 322,-0.00632877,-0.00008864,0.00025650,0.00012765,-0.00001549,0.000056
 11,-0.00000167,-0.00001473,-0.00000272,0.00002293,-0.00000426,0.000003
 75,0.00000290,-0.00000026,-0.00001937,-0.00000459,0.00001092,0.0000099
 7,-0.00000175,-0.00000739,-0.00000823,0.00000383,0.00000114,0.00000111
 ,0.00000256,-0.00000098,-0.00000331,-0.00000032,-0.00000237,-0.0000383
 9,-0.00000379,-0.00000581,0.00001213,0.00000372,0.00001674,-0.00000268
 ,0.00000802,0.00000460,-0.00000217,0.00000244,0.00067534,0.00015157,0.
 00017587,-0.00002635,-0.00005913,-0.00003373,-0.00017258,0.00010777,-0
 .00005908,-0.00008534,0.00004745,-0.00016656,-0.00005452,0.00001183,-0
 .00001332,0.00000372,-0.00000037,-0.00000096,0.00000169,0.00001161,-0.
 00000367,0.00000924,0.00000230,0.00000692,0.00005266,0.00015827,0.0000
 3183,-0.00004033,-0.00001049,0.00004898,-0.00000048,0.00002775,-0.0000
 2087,-0.00000287,-0.00000588,0.00000065,-0.00000114,0.00000018,0.00000
 071,0.00000233,-0.00000487,0.00000977,0.00002975,0.00000173,-0.0000527
 6,-0.00000118,-0.00002072,0.00002471,0.00002068,0.00000500,-0.00003013
 ,-0.00000679,-0.00000708,0.00000673,-0.00198982,-0.00104858,0.00020611
 ,0.00058962,0.00016155,0.00011161,0.00043369,0.00058468,-0.00037123,0.
 00086113,-0.00015891,-0.00050614,0.06301145,0.03621971,-0.11744365,0.0
 0479347,0.02273837,0.00570845,-0.02457763,-0.01380444,0.01703529,-0.08
 090064,-0.06371385,0.11743535\\-0.00000047,-0.00000351,0.00000226,-0.0
 0000025,-0.00000333,0.00000147,0.00000145,-0.00000287,-0.00000009,0.00
 000034,-0.00000237,-0.00000016,-0.00000020,-0.00000274,0.00000178,0.00
 000095,-0.00000236,-0.00000037,-0.00000073,-0.00000207,0.00000178,-0.0
 0000017,-0.00000484,0.00000211,0.00000122,-0.00000356,-0.00000008,-0.0
 0000147,-0.00000163,0.00000177,0.00000080,-0.00000214,-0.00000004,0.00
 000118,-0.00000444,-0.00000027,-0.00000008,-0.00000437,0.00000199,-0.0
 0000156,-0.00000371,0.00000359,-0.00000067,-0.00000315,0.00000215,0.00
 000010,-0.00000172,-0.00000074,0.00000099,-0.00000189,-0.00000041,0.00
 000169,-0.00000101,-0.00000156,0.00000012,0.00000047,-0.00000010,-0.00
 000003,-0.00000401,0.00000165,0.00000078,-0.00000398,0.00000064,-0.000
 00053,-0.00000283,0.00000186,-0.00000018,-0.00000486,0.00000221,-0.000
 00169,-0.00000519,0.00000421,-0.00000136,-0.00000601,0.00000427,-0.000
 00138,-0.00000564,0.00000410,-0.00000251,-0.00000495,0.00000535,-0.000
 00172,-0.00000262,0.00000334,-0.00000211,-0.00000284,0.00000403,-0.000
 00177,-0.00000141,0.00000312,-0.00000162,-0.00000320,0.00000352,-0.000
 00159,0.00000157,0.00000156,-0.00000066,0.00000016,0.00000084,0.000000
 52,0.00000047,-0.00000083,-0.00000058,0.00000330,-0.00000021,-0.000001
 45,0.00000293,0.00000088,0.00000081,-0.00000018,-0.00000121,-0.0000008
 1,-0.00000031,0.00000117,-0.00000188,0.00000221,0.00000155,-0.00000077
 ,0.00000378,-0.00000077,-0.00000177,0.00000258,0.00000091,-0.00000014,
 0.00000232,-0.00000124,0.00000209,0.00000129,-0.00000302,-0.00000110,-
 0.00000111,0.00000099,-0.00000248,0.00000135,0.00000283,-0.00000236,0.
 00000423,0.00000141,-0.00000038,0.00000461,-0.00000148,-0.00000104,0.0
 0000551,-0.00000086,0.00000005,0.00000529,-0.00000216,0.00000004,0.000
 00434,-0.00000214,0.00000051,0.00000040,-0.00000287,0.00000214,-0.0000
 0134,-0.00000222,0.00000073,0.00000037,-0.00000116,0.00000261,0.000000
 35,-0.00000344,0.00000263,-0.00000088,-0.00000319,0.00000202,0.0000017
 2,-0.00000404,0.00000304,-0.00000084,-0.00000397,0.00000283,-0.0000020
 7,-0.00000280,0.00000304,0.00000193,-0.00000422,0.00000199,0.00000278,
 -0.00000379,0.00000348,0.00000076,-0.00000468,0.00000334,0.00000096,-0
 .00000481,0.00000006,-0.00000304,0.00000107,0.00000073,-0.00000249,0.0
 0000017,-0.00000020,-0.00000271,0.00000125,-0.00000042,-0.00000322,0.0
 0000172,-0.00000333,0.00000169,0.00000381,-0.00000355,0.00000300,0.000
 00358,-0.00000311,0.00000109,0.00000375,-0.00000395,0.00000140,0.00000
 472,-0.00000303,0.00000461,0.00000218,-0.00000335,0.00000365,0.0000030
 0,-0.00000268,0.00000479,0.00000164,-0.00000364,0.00000564,0.00000259,
 0.00000015,0.00000349,-0.00000126,0.00000052,0.00000346,-0.00000192,-0
 .00000080,0.00000417,-0.00000067,0.00000013,0.00000244,-0.00000051,0.0
 0000266,-0.00000444,-0.00000167,0.00000305,-0.00000549,-0.00000187,0.0
 0000263,-0.00000364,-0.00000210,0.00000274,-0.00000374,-0.00000216,0.0
 0000055,0.00000055,0.00000240,-0.00000100,0.00000290,0.00000001,-0.000
 00264,0.00000330,0.00000203,-0.00000250,0.00000372,0.00000178,-0.00000
 287,0.00000251,0.00000287,-0.00000279,0.00000416,0.00000198,-0.0000010
 5,0.00000383,-0.00000047,-0.00000111,0.00000468,-0.00000016,-0.0000000
 9,0.00000297,-0.00000129,-0.00000076,0.00000410,-0.00000050,0.00000351
 ,-0.00000196,-0.00000396,0.00000364,-0.00000161,-0.00000389,0.00000459
 ,-0.00000275,-0.00000491,0.00000305,-0.00000310,-0.00000284,0.00000256
 ,0.00000375,-0.00000482,0.00000356,0.00000395,-0.00000638,0.00000269,0
 .00000380,-0.00000477,0.00000203,0.00000483,-0.00000481\\\@


 K N O W I N G  IS A BARRIER WHICH PREVENTS LEARNING

                     -- TEACHING OF THE BENE GESSERIT
 Job cpu time:       4 days 15 hours  1 minutes 52.4 seconds.
 Elapsed time:       0 days  3 hours 41 minutes 46.8 seconds.
 File lengths (MBytes):  RWF=   9736 Int=      0 D2E=      0 Chk=    106 Scr=      1
 Normal termination of Gaussian 16 at Fri May 31 02:20:11 2019.
