 Entering Gaussian System, Link 0=g16
 Input=clay_new-glu_gluC6-CDDL-Na3_1Me2O-bisCF3-ts-b3lyp_d3bj-631gd-pcm_thf.gjf
 Output=clay_new-glu_gluC6-CDDL-Na3_1Me2O-bisCF3-ts-b3lyp_d3bj-631gd-pcm_thf.out
 Initial command:
 /home/ekwan/sw/g16/l1.exe "/scratch/users/ekwan/clay_new-glu_gluC6-CDDL-Na3_1Me2O-bisCF3-ts-b3lyp_d3bj-631gd-pcm_thf/Gau-48590.inp" -scrdir="/scratch/users/ekwan/clay_new-glu_gluC6-CDDL-Na3_1Me2O-bisCF3-ts-b3lyp_d3bj-631gd-pcm_thf/"
 Entering Link 1 = /home/ekwan/sw/g16/l1.exe PID=     48591.
  
 Copyright (c) 1988,1990,1992,1993,1995,1998,2003,2009,2016,
            Gaussian, Inc.  All Rights Reserved.
  
 This is part of the Gaussian(R) 16 program.  It is based on
 the Gaussian(R) 09 system (copyright 2009, Gaussian, Inc.),
 the Gaussian(R) 03 system (copyright 2003, Gaussian, Inc.),
 the Gaussian(R) 98 system (copyright 1998, Gaussian, Inc.),
 the Gaussian(R) 94 system (copyright 1995, Gaussian, Inc.),
 the Gaussian 92(TM) system (copyright 1992, Gaussian, Inc.),
 the Gaussian 90(TM) system (copyright 1990, Gaussian, Inc.),
 the Gaussian 88(TM) system (copyright 1988, Gaussian, Inc.),
 the Gaussian 86(TM) system (copyright 1986, Carnegie Mellon
 University), and the Gaussian 82(TM) system (copyright 1983,
 Carnegie Mellon University). Gaussian is a federally registered
 trademark of Gaussian, Inc.
  
 This software contains proprietary and confidential information,
 including trade secrets, belonging to Gaussian, Inc.
  
 This software is provided under written license and may be
 used, copied, transmitted, or stored only in accord with that
 written license.
  
 The following legend is applicable only to US Government
 contracts under FAR:
  
                    RESTRICTED RIGHTS LEGEND
  
 Use, reproduction and disclosure by the US Government is
 subject to restrictions as set forth in subparagraphs (a)
 and (c) of the Commercial Computer Software - Restricted
 Rights clause in FAR 52.227-19.
  
 Gaussian, Inc.
 340 Quinnipiac St., Bldg. 40, Wallingford CT 06492
  
  
 ---------------------------------------------------------------
 Warning -- This program may not be used in any manner that
 competes with the business of Gaussian, Inc. or will provide
 assistance to any competitor of Gaussian, Inc.  The licensee
 of this program is prohibited from giving any competitor of
 Gaussian, Inc. access to this program.  By using this program,
 the user acknowledges that Gaussian, Inc. is engaged in the
 business of creating and licensing software in the field of
 computational chemistry and represents and warrants to the
 licensee that it is not a competitor of Gaussian, Inc. and that
 it will not use this program in any manner prohibited above.
 ---------------------------------------------------------------
  

 Cite this work as:
 Gaussian 16, Revision A.03,
 M. J. Frisch, G. W. Trucks, H. B. Schlegel, G. E. Scuseria, 
 M. A. Robb, J. R. Cheeseman, G. Scalmani, V. Barone, 
 G. A. Petersson, H. Nakatsuji, X. Li, M. Caricato, A. V. Marenich, 
 J. Bloino, B. G. Janesko, R. Gomperts, B. Mennucci, H. P. Hratchian, 
 J. V. Ortiz, A. F. Izmaylov, J. L. Sonnenberg, D. Williams-Young, 
 F. Ding, F. Lipparini, F. Egidi, J. Goings, B. Peng, A. Petrone, 
 T. Henderson, D. Ranasinghe, V. G. Zakrzewski, J. Gao, N. Rega, 
 G. Zheng, W. Liang, M. Hada, M. Ehara, K. Toyota, R. Fukuda, 
 J. Hasegawa, M. Ishida, T. Nakajima, Y. Honda, O. Kitao, H. Nakai, 
 T. Vreven, K. Throssell, J. A. Montgomery, Jr., J. E. Peralta, 
 F. Ogliaro, M. J. Bearpark, J. J. Heyd, E. N. Brothers, K. N. Kudin, 
 V. N. Staroverov, T. A. Keith, R. Kobayashi, J. Normand, 
 K. Raghavachari, A. P. Rendell, J. C. Burant, S. S. Iyengar, 
 J. Tomasi, M. Cossi, J. M. Millam, M. Klene, C. Adamo, R. Cammi, 
 J. W. Ochterski, R. L. Martin, K. Morokuma, O. Farkas, 
 J. B. Foresman, and D. J. Fox, Gaussian, Inc., Wallingford CT, 2016.
 
 ******************************************
 Gaussian 16:  AS64L-G16RevA.03 25-Dec-2016
                 1-Jun-2019 
 ******************************************
 %mem=48GB
 %nprocshared=32
 Will use up to   32 processors via shared memory.
 ----------------------------------------------------------------------
 #p opt=(ts,noeigentest,calcfc,maxstep=5,modredundant,recalc=30) freq=n
 oraman b3lyp 6-31g* pop=none scrf=(solvent=tetrahydrofuran,pcm) empiri
 caldispersion=gd3bj
 ----------------------------------------------------------------------
 1/5=1,8=5,10=4,11=1,18=120,26=3,38=1,71=30/1,3;
 2/9=110,12=2,17=6,18=5,40=1/2;
 3/5=1,6=6,7=1,11=2,25=1,30=1,70=2201,71=2,72=20,74=-5,124=41,140=1/1,2,3;
 4//1;
 5/5=2,38=5,53=20/2;
 8/6=4,10=90,11=11/1;
 11/6=1,8=1,9=11,15=111,16=1/1,2,10;
 10/6=1,13=1/2;
 7/10=1,18=20,25=1/1,2,3,16;
 1/5=1,8=5,10=4,11=1,18=20,26=3,71=30/3(2);
 2/9=110/2;
 99//99;
 2/9=110/2;
 3/5=1,6=6,7=1,11=2,25=1,30=1,70=2205,71=1,72=20,74=-5,124=41/1,2,3;
 4/5=5,16=3,69=1/1;
 5/5=2,38=5,53=20/2;
 7//1,2,3,16;
 1/5=1,8=5,11=1,18=20,26=3,71=30/3(-5);
 2/9=110/2;
 99/9=1/99;
 Leave Link    1 at Sat Jun  1 07:49:37 2019, MaxMem=  6442450944 cpu:               5.9 elap:               0.3
 (Enter /home/ekwan/sw/g16/l101.exe)
 -----
 title
 -----
 Symbolic Z-matrix:
 Charge =  0 Multiplicity = 1
 C                     3.07039  -2.07143  -0.2455 
 C                     2.89093  -0.93858  -1.26291 
 C                     2.01519  -1.35217  -2.45685 
 C                     1.01673  -3.15753  -1.24368 
 C                     1.75309  -2.79113   0.0447 
 H                     1.68594  -0.46867  -3.01924 
 H                     2.35082  -0.12556  -0.7647 
 H                     3.78268  -2.80027  -0.65814 
 H                     1.64415  -3.83769  -1.83593 
 H                     1.10512  -2.13098   0.6323 
 O                     0.81795  -1.93944  -2.00364 
 O                     2.7687   -2.19982  -3.28864 
 O                     4.18639  -0.49184  -1.63826 
 O                     3.55541  -1.57936   1.00045 
 O                     2.06301  -3.96822   0.78528 
 C                    -0.36521  -3.80863  -1.018 
 H                    -0.11648  -4.85513  -0.69687 
 H                    -0.77156  -3.93752  -2.05842 
 O                    -1.18392  -3.14246  -0.17097 
 C                     4.20894   0.52404  -2.62662 
 H                     3.98617   0.12098  -3.62224 
 H                     3.49461   1.32732  -2.40438 
 H                     5.21717   0.94371  -2.62366 
 C                     4.96199  -1.4189    1.09551 
 H                     5.48711  -2.31793   0.74187 
 H                     5.31537  -0.55703   0.52066 
 H                     5.18346  -1.27135   2.15572 
 C                     1.16814  -4.20093   1.86727 
 H                     1.32022  -3.45699   2.66295 
 H                     0.12648  -4.15381   1.52931 
 H                     1.39967  -5.19544   2.26161 
 C                    -4.08741  -0.13993  -0.01983 
 C                    -2.90627  -0.81037  -0.7224 
 C                    -1.59135  -0.48381  -0.04055 
 C                    -2.71589  -0.87849   2.06059 
 C                    -3.94402  -0.14312   1.52031 
 H                    -0.69299  -0.78401  -0.5674 
 H                    -2.96965  -1.90102  -0.63761 
 H                    -4.10904   0.90737  -0.33559 
 H                    -2.45802  -0.44377   3.02735 
 H                    -4.82342  -0.65203   1.92437 
 O                    -1.50658  -0.66066   1.27479 
 O                    -0.90692   3.45104  -0.81518 
 O                    -2.89703  -0.38941  -2.07092 
 O                    -5.32902  -0.74088  -0.35875 
 O                    -3.92662   1.20996   2.02232 
 C                    -2.93367  -2.39066   2.21884 
 H                    -3.1516   -2.61741   3.27513 
 H                    -2.00629  -2.88372   1.90936 
 O                    -4.01131  -2.81626   1.40294 
 S                    -0.42841   2.05345  -0.90642 
 O                    -0.09412   1.51559  -2.22486 
 O                    -1.52758   1.21983  -0.15834 
 C                     1.02598   1.90745   0.12842 
 C                     2.19355   2.5354   -0.31274 
 C                     1.00218   1.15374   1.29458 
 C                     3.35759   2.37668   0.4308 
 H                     2.20023   3.11442  -1.22803 
 C                     2.18526   1.00289   2.02073 
 H                     0.09896   0.65076   1.61565 
 C                     3.35992   1.61206   1.60052 
 H                     4.27692   1.47353   2.15982 
 C                    -2.31534  -1.33228  -2.97553 
 H                    -1.26346  -1.51997  -2.74855 
 H                    -2.86254  -2.28351  -2.94318 
 H                    -2.41019  -0.89124  -3.97078 
 C                    -5.9342   -0.20357  -1.528 
 H                    -6.05802   0.8865   -1.44215 
 H                    -5.34946  -0.41933  -2.42742 
 H                    -6.91996  -0.66878  -1.60861 
 C                    -5.24841   1.74804   2.12571 
 H                    -5.73073   1.81397   1.14309 
 H                    -5.86285   1.12777   2.78893 
 H                    -5.15648   2.74934   2.55375 
 C                    -3.89589  -4.18531   1.02661 
 H                    -4.74459  -4.39934   0.37074 
 H                    -2.94676  -4.32652   0.49468 
 H                    -3.95249  -4.84528   1.90709 
 C                     2.08882  -2.54027  -4.49113 
 H                     2.78944  -3.11889  -5.09682 
 H                     1.19401  -3.14049  -4.29077 
 H                     1.7917   -1.63588  -5.04195 
 Na                   -2.7081    2.95895   0.84265 
 O                    -4.27867   3.21455  -0.87461 
 C                    -5.23359   4.26735  -0.78629 
 H                    -6.14991   4.00418  -1.33031 
 H                    -5.46938   4.40538   0.27128 
 H                    -4.82869   5.20214  -1.19654 
 C                    -3.89212   2.95023  -2.22626 
 H                    -3.32256   3.79342  -2.63561 
 H                    -3.27876   2.04938  -2.22073 
 H                    -4.78215   2.77507  -2.84398 
 C                     2.14498   0.192     3.28777 
 F                     1.6031    0.91649   4.30056 
 F                     3.36926  -0.19433   3.69121 
 F                     1.378    -0.90867   3.15091 
 C                     4.6496    3.00417  -0.01824 
 F                     4.53086   3.61624  -1.21349 
 F                     5.62839   2.0766   -0.13281 
 F                     5.08645   3.92345   0.87004 
 
 Add virtual bond connecting atoms O53        and C34        Dist= 3.23D+00.
 Add virtual bond connecting atoms H38        and O19        Dist= 4.20D+00.
 Add virtual bond connecting atoms H49        and O19        Dist= 4.26D+00.
 Add virtual bond connecting atoms H64        and O11        Dist= 4.25D+00.
 Add virtual bond connecting atoms H77        and O19        Dist= 4.21D+00.
 Add virtual bond connecting atoms O84        and H39        Dist= 4.49D+00.
 Add virtual bond connecting atoms O84        and Na83       Dist= 4.42D+00.
 Add virtual bond connecting atoms H91        and H39        Dist= 4.45D+00.
 Add virtual bond connecting atoms H91        and O44        Dist= 4.67D+00.
 The following ModRedundant input section has been read:
 
 ITRead=  0  0  0  0  0  0  0  0  0  0  0  0  0  0  0  0  0  0  0  0
 ITRead=  0  0  0  0  0  0  0  0  0  0  0  0  0  0  0  0  0  0  0  0
 ITRead=  0  0  0  0  0  0  0  0  0  0  0  0  0  0  0  0  0  0  0  0
 ITRead=  0  0  0  0  0  0  0  0  0  0  0  0  0  0  0  0  0  0  0  0
 ITRead=  0  0  0  0  0  0  0  0  0  0  0  0  0  0  0  0  0  0  0  0
 MicOpt= -1 -1 -1 -1 -1 -1 -1 -1 -1 -1 -1 -1 -1 -1 -1 -1 -1 -1 -1 -1
 MicOpt= -1 -1 -1 -1 -1 -1 -1 -1 -1 -1 -1 -1 -1 -1 -1 -1 -1 -1 -1 -1
 MicOpt= -1 -1 -1 -1 -1 -1 -1 -1 -1 -1 -1 -1 -1 -1 -1 -1 -1 -1 -1 -1
 MicOpt= -1 -1 -1 -1 -1 -1 -1 -1 -1 -1 -1 -1 -1 -1 -1 -1 -1 -1 -1 -1
 MicOpt= -1 -1 -1 -1 -1 -1 -1 -1 -1 -1 -1 -1 -1 -1 -1 -1 -1 -1 -1 -1
 NAtoms=    100 NQM=      100 NQMF=       0 NMMI=      0 NMMIF=      0
                NMic=       0 NMicF=      0.
                    Isotopes and Nuclear Properties:
 (Nuclear quadrupole moments (NQMom) in fm**2, nuclear magnetic moments (NMagM)
  in nuclear magnetons)

  Atom         1           2           3           4           5           6           7           8           9          10
 IAtWgt=          12          12          12          12          12           1           1           1           1           1
 AtmWgt=  12.0000000  12.0000000  12.0000000  12.0000000  12.0000000   1.0078250   1.0078250   1.0078250   1.0078250   1.0078250
 NucSpn=           0           0           0           0           0           1           1           1           1           1
 AtZEff=   0.0000000   0.0000000   0.0000000   0.0000000   0.0000000   0.0000000   0.0000000   0.0000000   0.0000000   0.0000000
 NQMom=    0.0000000   0.0000000   0.0000000   0.0000000   0.0000000   0.0000000   0.0000000   0.0000000   0.0000000   0.0000000
 NMagM=    0.0000000   0.0000000   0.0000000   0.0000000   0.0000000   2.7928460   2.7928460   2.7928460   2.7928460   2.7928460
 AtZNuc=   6.0000000   6.0000000   6.0000000   6.0000000   6.0000000   1.0000000   1.0000000   1.0000000   1.0000000   1.0000000

  Atom        11          12          13          14          15          16          17          18          19          20
 IAtWgt=          16          16          16          16          16          12           1           1          16          12
 AtmWgt=  15.9949146  15.9949146  15.9949146  15.9949146  15.9949146  12.0000000   1.0078250   1.0078250  15.9949146  12.0000000
 NucSpn=           0           0           0           0           0           0           1           1           0           0
 AtZEff=   0.0000000   0.0000000   0.0000000   0.0000000   0.0000000   0.0000000   0.0000000   0.0000000   0.0000000   0.0000000
 NQMom=    0.0000000   0.0000000   0.0000000   0.0000000   0.0000000   0.0000000   0.0000000   0.0000000   0.0000000   0.0000000
 NMagM=    0.0000000   0.0000000   0.0000000   0.0000000   0.0000000   0.0000000   2.7928460   2.7928460   0.0000000   0.0000000
 AtZNuc=   8.0000000   8.0000000   8.0000000   8.0000000   8.0000000   6.0000000   1.0000000   1.0000000   8.0000000   6.0000000

  Atom        21          22          23          24          25          26          27          28          29          30
 IAtWgt=           1           1           1          12           1           1           1          12           1           1
 AtmWgt=   1.0078250   1.0078250   1.0078250  12.0000000   1.0078250   1.0078250   1.0078250  12.0000000   1.0078250   1.0078250
 NucSpn=           1           1           1           0           1           1           1           0           1           1
 AtZEff=   0.0000000   0.0000000   0.0000000   0.0000000   0.0000000   0.0000000   0.0000000   0.0000000   0.0000000   0.0000000
 NQMom=    0.0000000   0.0000000   0.0000000   0.0000000   0.0000000   0.0000000   0.0000000   0.0000000   0.0000000   0.0000000
 NMagM=    2.7928460   2.7928460   2.7928460   0.0000000   2.7928460   2.7928460   2.7928460   0.0000000   2.7928460   2.7928460
 AtZNuc=   1.0000000   1.0000000   1.0000000   6.0000000   1.0000000   1.0000000   1.0000000   6.0000000   1.0000000   1.0000000

  Atom        31          32          33          34          35          36          37          38          39          40
 IAtWgt=           1          12          12          12          12          12           1           1           1           1
 AtmWgt=   1.0078250  12.0000000  12.0000000  12.0000000  12.0000000  12.0000000   1.0078250   1.0078250   1.0078250   1.0078250
 NucSpn=           1           0           0           0           0           0           1           1           1           1
 AtZEff=   0.0000000   0.0000000   0.0000000   0.0000000   0.0000000   0.0000000   0.0000000   0.0000000   0.0000000   0.0000000
 NQMom=    0.0000000   0.0000000   0.0000000   0.0000000   0.0000000   0.0000000   0.0000000   0.0000000   0.0000000   0.0000000
 NMagM=    2.7928460   0.0000000   0.0000000   0.0000000   0.0000000   0.0000000   2.7928460   2.7928460   2.7928460   2.7928460
 AtZNuc=   1.0000000   6.0000000   6.0000000   6.0000000   6.0000000   6.0000000   1.0000000   1.0000000   1.0000000   1.0000000

  Atom        41          42          43          44          45          46          47          48          49          50
 IAtWgt=           1          16          16          16          16          16          12           1           1          16
 AtmWgt=   1.0078250  15.9949146  15.9949146  15.9949146  15.9949146  15.9949146  12.0000000   1.0078250   1.0078250  15.9949146
 NucSpn=           1           0           0           0           0           0           0           1           1           0
 AtZEff=   0.0000000   0.0000000   0.0000000   0.0000000   0.0000000   0.0000000   0.0000000   0.0000000   0.0000000   0.0000000
 NQMom=    0.0000000   0.0000000   0.0000000   0.0000000   0.0000000   0.0000000   0.0000000   0.0000000   0.0000000   0.0000000
 NMagM=    2.7928460   0.0000000   0.0000000   0.0000000   0.0000000   0.0000000   0.0000000   2.7928460   2.7928460   0.0000000
 AtZNuc=   1.0000000   8.0000000   8.0000000   8.0000000   8.0000000   8.0000000   6.0000000   1.0000000   1.0000000   8.0000000

  Atom        51          52          53          54          55          56          57          58          59          60
 IAtWgt=          32          16          16          12          12          12          12           1          12           1
 AtmWgt=  31.9720718  15.9949146  15.9949146  12.0000000  12.0000000  12.0000000  12.0000000   1.0078250  12.0000000   1.0078250
 NucSpn=           0           0           0           0           0           0           0           1           0           1
 AtZEff=   0.0000000   0.0000000   0.0000000   0.0000000   0.0000000   0.0000000   0.0000000   0.0000000   0.0000000   0.0000000
 NQMom=    0.0000000   0.0000000   0.0000000   0.0000000   0.0000000   0.0000000   0.0000000   0.0000000   0.0000000   0.0000000
 NMagM=    0.0000000   0.0000000   0.0000000   0.0000000   0.0000000   0.0000000   0.0000000   2.7928460   0.0000000   2.7928460
 AtZNuc=  16.0000000   8.0000000   8.0000000   6.0000000   6.0000000   6.0000000   6.0000000   1.0000000   6.0000000   1.0000000

  Atom        61          62          63          64          65          66          67          68          69          70
 IAtWgt=          12           1          12           1           1           1          12           1           1           1
 AtmWgt=  12.0000000   1.0078250  12.0000000   1.0078250   1.0078250   1.0078250  12.0000000   1.0078250   1.0078250   1.0078250
 NucSpn=           0           1           0           1           1           1           0           1           1           1
 AtZEff=   0.0000000   0.0000000   0.0000000   0.0000000   0.0000000   0.0000000   0.0000000   0.0000000   0.0000000   0.0000000
 NQMom=    0.0000000   0.0000000   0.0000000   0.0000000   0.0000000   0.0000000   0.0000000   0.0000000   0.0000000   0.0000000
 NMagM=    0.0000000   2.7928460   0.0000000   2.7928460   2.7928460   2.7928460   0.0000000   2.7928460   2.7928460   2.7928460
 AtZNuc=   6.0000000   1.0000000   6.0000000   1.0000000   1.0000000   1.0000000   6.0000000   1.0000000   1.0000000   1.0000000

  Atom        71          72          73          74          75          76          77          78          79          80
 IAtWgt=          12           1           1           1          12           1           1           1          12           1
 AtmWgt=  12.0000000   1.0078250   1.0078250   1.0078250  12.0000000   1.0078250   1.0078250   1.0078250  12.0000000   1.0078250
 NucSpn=           0           1           1           1           0           1           1           1           0           1
 AtZEff=   0.0000000   0.0000000   0.0000000   0.0000000   0.0000000   0.0000000   0.0000000   0.0000000   0.0000000   0.0000000
 NQMom=    0.0000000   0.0000000   0.0000000   0.0000000   0.0000000   0.0000000   0.0000000   0.0000000   0.0000000   0.0000000
 NMagM=    0.0000000   2.7928460   2.7928460   2.7928460   0.0000000   2.7928460   2.7928460   2.7928460   0.0000000   2.7928460
 AtZNuc=   6.0000000   1.0000000   1.0000000   1.0000000   6.0000000   1.0000000   1.0000000   1.0000000   6.0000000   1.0000000

  Atom        81          82          83          84          85          86          87          88          89          90
 IAtWgt=           1           1          23          16          12           1           1           1          12           1
 AtmWgt=   1.0078250   1.0078250  22.9897697  15.9949146  12.0000000   1.0078250   1.0078250   1.0078250  12.0000000   1.0078250
 NucSpn=           1           1           3           0           0           1           1           1           0           1
 AtZEff=   0.0000000   0.0000000   0.0000000   0.0000000   0.0000000   0.0000000   0.0000000   0.0000000   0.0000000   0.0000000
 NQMom=    0.0000000   0.0000000  10.4000000   0.0000000   0.0000000   0.0000000   0.0000000   0.0000000   0.0000000   0.0000000
 NMagM=    2.7928460   2.7928460   2.2175200   0.0000000   0.0000000   2.7928460   2.7928460   2.7928460   0.0000000   2.7928460
 AtZNuc=   1.0000000   1.0000000  11.0000000   8.0000000   6.0000000   1.0000000   1.0000000   1.0000000   6.0000000   1.0000000

  Atom        91          92          93          94          95          96          97          98          99         100
 IAtWgt=           1           1          12          19          19          19          12          19          19          19
 AtmWgt=   1.0078250   1.0078250  12.0000000  18.9984033  18.9984033  18.9984033  12.0000000  18.9984033  18.9984033  18.9984033
 NucSpn=           1           1           0           1           1           1           0           1           1           1
 AtZEff=   0.0000000   0.0000000   0.0000000   0.0000000   0.0000000   0.0000000   0.0000000   0.0000000   0.0000000   0.0000000
 NQMom=    0.0000000   0.0000000   0.0000000   0.0000000   0.0000000   0.0000000   0.0000000   0.0000000   0.0000000   0.0000000
 NMagM=    2.7928460   2.7928460   0.0000000   2.6288670   2.6288670   2.6288670   0.0000000   2.6288670   2.6288670   2.6288670
 AtZNuc=   1.0000000   1.0000000   6.0000000   9.0000000   9.0000000   9.0000000   6.0000000   9.0000000   9.0000000   9.0000000
 Leave Link  101 at Sat Jun  1 07:49:38 2019, MaxMem=  6442450944 cpu:              14.3 elap:               0.7
 (Enter /home/ekwan/sw/g16/l103.exe)

 GradGradGradGradGradGradGradGradGradGradGradGradGradGradGradGradGradGrad
 Berny optimization.
 Initialization pass.
                           ----------------------------
                           !    Initial Parameters    !
                           ! (Angstroms and Degrees)  !
 --------------------------                            --------------------------
 ! Name  Definition              Value          Derivative Info.                !
 --------------------------------------------------------------------------------
 ! R1    R(1,2)                  1.5332         calculate D2E/DX2 analytically  !
 ! R2    R(1,5)                  1.5289         calculate D2E/DX2 analytically  !
 ! R3    R(1,8)                  1.0995         calculate D2E/DX2 analytically  !
 ! R4    R(1,14)                 1.4247         calculate D2E/DX2 analytically  !
 ! R5    R(2,3)                  1.5374         calculate D2E/DX2 analytically  !
 ! R6    R(2,7)                  1.0959         calculate D2E/DX2 analytically  !
 ! R7    R(2,13)                 1.4208         calculate D2E/DX2 analytically  !
 ! R8    R(3,6)                  1.0978         calculate D2E/DX2 analytically  !
 ! R9    R(3,11)                 1.4084         calculate D2E/DX2 analytically  !
 ! R10   R(3,12)                 1.4065         calculate D2E/DX2 analytically  !
 ! R11   R(4,5)                  1.5285         calculate D2E/DX2 analytically  !
 ! R12   R(4,9)                  1.0987         calculate D2E/DX2 analytically  !
 ! R13   R(4,11)                 1.4494         calculate D2E/DX2 analytically  !
 ! R14   R(4,16)                 1.5442         calculate D2E/DX2 analytically  !
 ! R15   R(5,10)                 1.0959         calculate D2E/DX2 analytically  !
 ! R16   R(5,15)                 1.4248         calculate D2E/DX2 analytically  !
 ! R17   R(11,64)                2.2501         calculate D2E/DX2 analytically  !
 ! R18   R(12,79)                1.4227         calculate D2E/DX2 analytically  !
 ! R19   R(13,20)                1.4175         calculate D2E/DX2 analytically  !
 ! R20   R(14,24)                1.4189         calculate D2E/DX2 analytically  !
 ! R21   R(15,28)                1.4233         calculate D2E/DX2 analytically  !
 ! R22   R(16,17)                1.1226         calculate D2E/DX2 analytically  !
 ! R23   R(16,18)                1.1244         calculate D2E/DX2 analytically  !
 ! R24   R(16,19)                1.3533         calculate D2E/DX2 analytically  !
 ! R25   R(19,38)                2.2244         calculate D2E/DX2 analytically  !
 ! R26   R(19,49)                2.2519         calculate D2E/DX2 analytically  !
 ! R27   R(19,77)                2.2255         calculate D2E/DX2 analytically  !
 ! R28   R(20,21)                1.097          calculate D2E/DX2 analytically  !
 ! R29   R(20,22)                1.0977         calculate D2E/DX2 analytically  !
 ! R30   R(20,23)                1.0921         calculate D2E/DX2 analytically  !
 ! R31   R(24,25)                1.0996         calculate D2E/DX2 analytically  !
 ! R32   R(24,26)                1.0946         calculate D2E/DX2 analytically  !
 ! R33   R(24,27)                1.0931         calculate D2E/DX2 analytically  !
 ! R34   R(28,29)                1.0999         calculate D2E/DX2 analytically  !
 ! R35   R(28,30)                1.0961         calculate D2E/DX2 analytically  !
 ! R36   R(28,31)                1.0946         calculate D2E/DX2 analytically  !
 ! R37   R(32,33)                1.5291         calculate D2E/DX2 analytically  !
 ! R38   R(32,36)                1.5468         calculate D2E/DX2 analytically  !
 ! R39   R(32,39)                1.0941         calculate D2E/DX2 analytically  !
 ! R40   R(32,45)                1.4204         calculate D2E/DX2 analytically  !
 ! R41   R(33,34)                1.5168         calculate D2E/DX2 analytically  !
 ! R42   R(33,38)                1.0958         calculate D2E/DX2 analytically  !
 ! R43   R(33,44)                1.4127         calculate D2E/DX2 analytically  !
 ! R44   R(34,37)                1.0839         calculate D2E/DX2 analytically  !
 ! R45   R(34,42)                1.3299         calculate D2E/DX2 analytically  !
 ! R46   R(34,53)                1.7089         calculate D2E/DX2 analytically  !
 ! R47   R(35,36)                1.53           calculate D2E/DX2 analytically  !
 ! R48   R(35,40)                1.0909         calculate D2E/DX2 analytically  !
 ! R49   R(35,42)                1.4586         calculate D2E/DX2 analytically  !
 ! R50   R(35,47)                1.5359         calculate D2E/DX2 analytically  !
 ! R51   R(36,41)                1.0934         calculate D2E/DX2 analytically  !
 ! R52   R(36,46)                1.4433         calculate D2E/DX2 analytically  !
 ! R53   R(39,84)                2.3754         calculate D2E/DX2 analytically  !
 ! R54   R(39,91)                2.3553         calculate D2E/DX2 analytically  !
 ! R55   R(43,51)                1.48           calculate D2E/DX2 analytically  !
 ! R56   R(44,63)                1.4303         calculate D2E/DX2 analytically  !
 ! R57   R(44,91)                2.473          calculate D2E/DX2 analytically  !
 ! R58   R(45,67)                1.422          calculate D2E/DX2 analytically  !
 ! R59   R(46,71)                1.4309         calculate D2E/DX2 analytically  !
 ! R60   R(47,48)                1.1021         calculate D2E/DX2 analytically  !
 ! R61   R(47,49)                1.0949         calculate D2E/DX2 analytically  !
 ! R62   R(47,50)                1.4171         calculate D2E/DX2 analytically  !
 ! R63   R(50,75)                1.4245         calculate D2E/DX2 analytically  !
 ! R64   R(51,52)                1.4626         calculate D2E/DX2 analytically  !
 ! R65   R(51,53)                1.5693         calculate D2E/DX2 analytically  !
 ! R66   R(51,54)                1.7909         calculate D2E/DX2 analytically  !
 ! R67   R(51,83)                3.0127         calculate D2E/DX2 analytically  !
 ! R68   R(54,55)                1.3972         calculate D2E/DX2 analytically  !
 ! R69   R(54,56)                1.3887         calculate D2E/DX2 analytically  !
 ! R70   R(55,57)                1.3903         calculate D2E/DX2 analytically  !
 ! R71   R(55,58)                1.0831         calculate D2E/DX2 analytically  !
 ! R72   R(56,59)                1.3963         calculate D2E/DX2 analytically  !
 ! R73   R(56,60)                1.0825         calculate D2E/DX2 analytically  !
 ! R74   R(57,61)                1.3975         calculate D2E/DX2 analytically  !
 ! R75   R(57,97)                1.5049         calculate D2E/DX2 analytically  !
 ! R76   R(59,61)                1.3883         calculate D2E/DX2 analytically  !
 ! R77   R(59,93)                1.5048         calculate D2E/DX2 analytically  !
 ! R78   R(61,62)                1.083          calculate D2E/DX2 analytically  !
 ! R79   R(63,64)                1.0923         calculate D2E/DX2 analytically  !
 ! R80   R(63,65)                1.0979         calculate D2E/DX2 analytically  !
 ! R81   R(63,66)                1.0927         calculate D2E/DX2 analytically  !
 ! R82   R(67,68)                1.1004         calculate D2E/DX2 analytically  !
 ! R83   R(67,69)                1.0943         calculate D2E/DX2 analytically  !
 ! R84   R(67,70)                1.093          calculate D2E/DX2 analytically  !
 ! R85   R(71,72)                1.0966         calculate D2E/DX2 analytically  !
 ! R86   R(71,73)                1.0964         calculate D2E/DX2 analytically  !
 ! R87   R(71,74)                1.0928         calculate D2E/DX2 analytically  !
 ! R88   R(75,76)                1.0937         calculate D2E/DX2 analytically  !
 ! R89   R(75,77)                1.0971         calculate D2E/DX2 analytically  !
 ! R90   R(75,78)                1.1018         calculate D2E/DX2 analytically  !
 ! R91   R(79,80)                1.092          calculate D2E/DX2 analytically  !
 ! R92   R(79,81)                1.0959         calculate D2E/DX2 analytically  !
 ! R93   R(79,82)                1.0998         calculate D2E/DX2 analytically  !
 ! R94   R(83,84)                2.3412         calculate D2E/DX2 analytically  !
 ! R95   R(84,85)                1.4241         calculate D2E/DX2 analytically  !
 ! R96   R(84,89)                1.4305         calculate D2E/DX2 analytically  !
 ! R97   R(85,86)                1.0977         calculate D2E/DX2 analytically  !
 ! R98   R(85,87)                1.0923         calculate D2E/DX2 analytically  !
 ! R99   R(85,88)                1.0982         calculate D2E/DX2 analytically  !
 ! R100  R(89,90)                1.0968         calculate D2E/DX2 analytically  !
 ! R101  R(89,91)                1.0898         calculate D2E/DX2 analytically  !
 ! R102  R(89,92)                1.0975         calculate D2E/DX2 analytically  !
 ! R103  R(93,94)                1.358          calculate D2E/DX2 analytically  !
 ! R104  R(93,95)                1.3457         calculate D2E/DX2 analytically  !
 ! R105  R(93,96)                1.3485         calculate D2E/DX2 analytically  !
 ! R106  R(97,98)                1.3481         calculate D2E/DX2 analytically  !
 ! R107  R(97,99)                1.3533         calculate D2E/DX2 analytically  !
 ! R108  R(97,100)               1.3509         calculate D2E/DX2 analytically  !
 ! A1    A(2,1,5)              111.8959         calculate D2E/DX2 analytically  !
 ! A2    A(2,1,8)              108.4565         calculate D2E/DX2 analytically  !
 ! A3    A(2,1,14)             111.407          calculate D2E/DX2 analytically  !
 ! A4    A(5,1,8)              108.504          calculate D2E/DX2 analytically  !
 ! A5    A(5,1,14)             106.8527         calculate D2E/DX2 analytically  !
 ! A6    A(8,1,14)             109.6718         calculate D2E/DX2 analytically  !
 ! A7    A(1,2,3)              112.5358         calculate D2E/DX2 analytically  !
 ! A8    A(1,2,7)              107.7083         calculate D2E/DX2 analytically  !
 ! A9    A(1,2,13)             107.5123         calculate D2E/DX2 analytically  !
 ! A10   A(3,2,7)              105.7776         calculate D2E/DX2 analytically  !
 ! A11   A(3,2,13)             113.5037         calculate D2E/DX2 analytically  !
 ! A12   A(7,2,13)             109.6461         calculate D2E/DX2 analytically  !
 ! A13   A(2,3,6)              110.6202         calculate D2E/DX2 analytically  !
 ! A14   A(2,3,11)             110.2731         calculate D2E/DX2 analytically  !
 ! A15   A(2,3,12)             108.436          calculate D2E/DX2 analytically  !
 ! A16   A(6,3,11)             104.2096         calculate D2E/DX2 analytically  !
 ! A17   A(6,3,12)             110.0431         calculate D2E/DX2 analytically  !
 ! A18   A(11,3,12)            113.2297         calculate D2E/DX2 analytically  !
 ! A19   A(5,4,9)              109.1269         calculate D2E/DX2 analytically  !
 ! A20   A(5,4,11)             107.8521         calculate D2E/DX2 analytically  !
 ! A21   A(5,4,16)             114.1426         calculate D2E/DX2 analytically  !
 ! A22   A(9,4,11)             108.418          calculate D2E/DX2 analytically  !
 ! A23   A(9,4,16)             109.1971         calculate D2E/DX2 analytically  !
 ! A24   A(11,4,16)            107.9534         calculate D2E/DX2 analytically  !
 ! A25   A(1,5,4)              111.5882         calculate D2E/DX2 analytically  !
 ! A26   A(1,5,10)             109.1269         calculate D2E/DX2 analytically  !
 ! A27   A(1,5,15)             107.4661         calculate D2E/DX2 analytically  !
 ! A28   A(4,5,10)             108.1498         calculate D2E/DX2 analytically  !
 ! A29   A(4,5,15)             110.1737         calculate D2E/DX2 analytically  !
 ! A30   A(10,5,15)            110.3393         calculate D2E/DX2 analytically  !
 ! A31   A(3,11,4)             113.7388         calculate D2E/DX2 analytically  !
 ! A32   A(3,11,64)            127.0169         calculate D2E/DX2 analytically  !
 ! A33   A(4,11,64)            117.2004         calculate D2E/DX2 analytically  !
 ! A34   A(3,12,79)            112.8339         calculate D2E/DX2 analytically  !
 ! A35   A(2,13,20)            115.0903         calculate D2E/DX2 analytically  !
 ! A36   A(1,14,24)            115.7934         calculate D2E/DX2 analytically  !
 ! A37   A(5,15,28)            113.1705         calculate D2E/DX2 analytically  !
 ! A38   A(4,16,17)            103.6853         calculate D2E/DX2 analytically  !
 ! A39   A(4,16,18)            103.6818         calculate D2E/DX2 analytically  !
 ! A40   A(4,16,19)            115.1697         calculate D2E/DX2 analytically  !
 ! A41   A(17,16,18)           103.7642         calculate D2E/DX2 analytically  !
 ! A42   A(17,16,19)           114.4487         calculate D2E/DX2 analytically  !
 ! A43   A(18,16,19)           114.6415         calculate D2E/DX2 analytically  !
 ! A44   A(16,19,38)           128.9828         calculate D2E/DX2 analytically  !
 ! A45   A(16,19,49)           148.8351         calculate D2E/DX2 analytically  !
 ! A46   A(16,19,77)           113.8601         calculate D2E/DX2 analytically  !
 ! A47   A(38,19,49)            80.5898         calculate D2E/DX2 analytically  !
 ! A48   A(38,19,77)            73.9646         calculate D2E/DX2 analytically  !
 ! A49   A(49,19,77)            59.7043         calculate D2E/DX2 analytically  !
 ! A50   A(13,20,21)           111.4855         calculate D2E/DX2 analytically  !
 ! A51   A(13,20,22)           111.8967         calculate D2E/DX2 analytically  !
 ! A52   A(13,20,23)           106.7503         calculate D2E/DX2 analytically  !
 ! A53   A(21,20,22)           108.6919         calculate D2E/DX2 analytically  !
 ! A54   A(21,20,23)           109.3378         calculate D2E/DX2 analytically  !
 ! A55   A(22,20,23)           108.6042         calculate D2E/DX2 analytically  !
 ! A56   A(14,24,25)           111.0646         calculate D2E/DX2 analytically  !
 ! A57   A(14,24,26)           111.9564         calculate D2E/DX2 analytically  !
 ! A58   A(14,24,27)           106.3259         calculate D2E/DX2 analytically  !
 ! A59   A(25,24,26)           108.7051         calculate D2E/DX2 analytically  !
 ! A60   A(25,24,27)           108.9985         calculate D2E/DX2 analytically  !
 ! A61   A(26,24,27)           109.7343         calculate D2E/DX2 analytically  !
 ! A62   A(15,28,29)           110.6367         calculate D2E/DX2 analytically  !
 ! A63   A(15,28,30)           110.8593         calculate D2E/DX2 analytically  !
 ! A64   A(15,28,31)           106.8246         calculate D2E/DX2 analytically  !
 ! A65   A(29,28,30)           108.9882         calculate D2E/DX2 analytically  !
 ! A66   A(29,28,31)           108.9463         calculate D2E/DX2 analytically  !
 ! A67   A(30,28,31)           110.5573         calculate D2E/DX2 analytically  !
 ! A68   A(33,32,36)           112.642          calculate D2E/DX2 analytically  !
 ! A69   A(33,32,39)           107.5999         calculate D2E/DX2 analytically  !
 ! A70   A(33,32,45)           112.3375         calculate D2E/DX2 analytically  !
 ! A71   A(36,32,39)           106.9282         calculate D2E/DX2 analytically  !
 ! A72   A(36,32,45)           108.5264         calculate D2E/DX2 analytically  !
 ! A73   A(39,32,45)           108.5932         calculate D2E/DX2 analytically  !
 ! A74   A(32,33,34)           111.6353         calculate D2E/DX2 analytically  !
 ! A75   A(32,33,38)           110.8652         calculate D2E/DX2 analytically  !
 ! A76   A(32,33,44)           108.2392         calculate D2E/DX2 analytically  !
 ! A77   A(34,33,38)           103.2762         calculate D2E/DX2 analytically  !
 ! A78   A(34,33,44)           111.0566         calculate D2E/DX2 analytically  !
 ! A79   A(38,33,44)           111.7663         calculate D2E/DX2 analytically  !
 ! A80   A(33,34,37)           116.1297         calculate D2E/DX2 analytically  !
 ! A81   A(33,34,42)           118.1161         calculate D2E/DX2 analytically  !
 ! A82   A(33,34,53)           102.474          calculate D2E/DX2 analytically  !
 ! A83   A(37,34,42)           113.0237         calculate D2E/DX2 analytically  !
 ! A84   A(37,34,53)           102.2212         calculate D2E/DX2 analytically  !
 ! A85   A(42,34,53)           101.4413         calculate D2E/DX2 analytically  !
 ! A86   A(36,35,40)           108.1279         calculate D2E/DX2 analytically  !
 ! A87   A(36,35,42)           113.7969         calculate D2E/DX2 analytically  !
 ! A88   A(36,35,47)           113.3136         calculate D2E/DX2 analytically  !
 ! A89   A(40,35,42)           102.8226         calculate D2E/DX2 analytically  !
 ! A90   A(40,35,47)           109.5443         calculate D2E/DX2 analytically  !
 ! A91   A(42,35,47)           108.6692         calculate D2E/DX2 analytically  !
 ! A92   A(32,36,35)           115.2772         calculate D2E/DX2 analytically  !
 ! A93   A(32,36,41)           107.1175         calculate D2E/DX2 analytically  !
 ! A94   A(32,36,46)           110.2125         calculate D2E/DX2 analytically  !
 ! A95   A(35,36,41)           106.9406         calculate D2E/DX2 analytically  !
 ! A96   A(35,36,46)           108.5474         calculate D2E/DX2 analytically  !
 ! A97   A(41,36,46)           108.5118         calculate D2E/DX2 analytically  !
 ! A98   A(19,38,33)           121.6885         calculate D2E/DX2 analytically  !
 ! A99   A(32,39,91)           133.4858         calculate D2E/DX2 analytically  !
 ! A100  A(84,39,91)            51.1411         calculate D2E/DX2 analytically  !
 ! A101  A(34,42,35)           119.9916         calculate D2E/DX2 analytically  !
 ! A102  A(33,44,63)           114.2022         calculate D2E/DX2 analytically  !
 ! A103  A(33,44,91)           110.5278         calculate D2E/DX2 analytically  !
 ! A104  A(63,44,91)           132.4199         calculate D2E/DX2 analytically  !
 ! A105  A(32,45,67)           114.1005         calculate D2E/DX2 analytically  !
 ! A106  A(36,46,71)           111.5027         calculate D2E/DX2 analytically  !
 ! A107  A(35,47,48)           109.2286         calculate D2E/DX2 analytically  !
 ! A108  A(35,47,49)           107.105          calculate D2E/DX2 analytically  !
 ! A109  A(35,47,50)           110.1321         calculate D2E/DX2 analytically  !
 ! A110  A(48,47,49)           110.226          calculate D2E/DX2 analytically  !
 ! A111  A(48,47,50)           109.8559         calculate D2E/DX2 analytically  !
 ! A112  A(49,47,50)           110.2493         calculate D2E/DX2 analytically  !
 ! A113  A(19,49,47)           128.4736         calculate D2E/DX2 analytically  !
 ! A114  A(47,50,75)           112.2794         calculate D2E/DX2 analytically  !
 ! A115  A(43,51,52)           118.4705         calculate D2E/DX2 analytically  !
 ! A116  A(43,51,53)           104.2275         calculate D2E/DX2 analytically  !
 ! A117  A(43,51,54)           107.6927         calculate D2E/DX2 analytically  !
 ! A118  A(43,51,83)            55.6495         calculate D2E/DX2 analytically  !
 ! A119  A(52,51,53)           113.2309         calculate D2E/DX2 analytically  !
 ! A120  A(52,51,54)           107.7742         calculate D2E/DX2 analytically  !
 ! A121  A(52,51,83)           143.7851         calculate D2E/DX2 analytically  !
 ! A122  A(53,51,54)           104.4806         calculate D2E/DX2 analytically  !
 ! A123  A(53,51,83)            49.6766         calculate D2E/DX2 analytically  !
 ! A124  A(54,51,83)           107.6705         calculate D2E/DX2 analytically  !
 ! A125  A(34,53,51)           126.0551         calculate D2E/DX2 analytically  !
 ! A126  A(51,54,55)           117.3573         calculate D2E/DX2 analytically  !
 ! A127  A(51,54,56)           121.0336         calculate D2E/DX2 analytically  !
 ! A128  A(55,54,56)           121.5594         calculate D2E/DX2 analytically  !
 ! A129  A(54,55,57)           118.6511         calculate D2E/DX2 analytically  !
 ! A130  A(54,55,58)           120.8138         calculate D2E/DX2 analytically  !
 ! A131  A(57,55,58)           120.5181         calculate D2E/DX2 analytically  !
 ! A132  A(54,56,59)           118.7386         calculate D2E/DX2 analytically  !
 ! A133  A(54,56,60)           121.0324         calculate D2E/DX2 analytically  !
 ! A134  A(59,56,60)           120.1654         calculate D2E/DX2 analytically  !
 ! A135  A(55,57,61)           120.7636         calculate D2E/DX2 analytically  !
 ! A136  A(55,57,97)           120.7725         calculate D2E/DX2 analytically  !
 ! A137  A(61,57,97)           118.4553         calculate D2E/DX2 analytically  !
 ! A138  A(56,59,61)           120.8017         calculate D2E/DX2 analytically  !
 ! A139  A(56,59,93)           118.2554         calculate D2E/DX2 analytically  !
 ! A140  A(61,59,93)           120.9253         calculate D2E/DX2 analytically  !
 ! A141  A(57,61,59)           119.4727         calculate D2E/DX2 analytically  !
 ! A142  A(57,61,62)           120.2432         calculate D2E/DX2 analytically  !
 ! A143  A(59,61,62)           120.2628         calculate D2E/DX2 analytically  !
 ! A144  A(44,63,64)           111.9303         calculate D2E/DX2 analytically  !
 ! A145  A(44,63,65)           110.4771         calculate D2E/DX2 analytically  !
 ! A146  A(44,63,66)           105.9434         calculate D2E/DX2 analytically  !
 ! A147  A(64,63,65)           108.963          calculate D2E/DX2 analytically  !
 ! A148  A(64,63,66)           110.011          calculate D2E/DX2 analytically  !
 ! A149  A(65,63,66)           109.4679         calculate D2E/DX2 analytically  !
 ! A150  A(45,67,68)           110.9793         calculate D2E/DX2 analytically  !
 ! A151  A(45,67,69)           111.9582         calculate D2E/DX2 analytically  !
 ! A152  A(45,67,70)           106.4779         calculate D2E/DX2 analytically  !
 ! A153  A(68,67,69)           108.6365         calculate D2E/DX2 analytically  !
 ! A154  A(68,67,70)           109.0195         calculate D2E/DX2 analytically  !
 ! A155  A(69,67,70)           109.7184         calculate D2E/DX2 analytically  !
 ! A156  A(46,71,72)           111.3566         calculate D2E/DX2 analytically  !
 ! A157  A(46,71,73)           110.4048         calculate D2E/DX2 analytically  !
 ! A158  A(46,71,74)           107.1667         calculate D2E/DX2 analytically  !
 ! A159  A(72,71,73)           109.2416         calculate D2E/DX2 analytically  !
 ! A160  A(72,71,74)           109.4442         calculate D2E/DX2 analytically  !
 ! A161  A(73,71,74)           109.1812         calculate D2E/DX2 analytically  !
 ! A162  A(50,75,76)           106.4758         calculate D2E/DX2 analytically  !
 ! A163  A(50,75,77)           108.7761         calculate D2E/DX2 analytically  !
 ! A164  A(50,75,78)           111.1242         calculate D2E/DX2 analytically  !
 ! A165  A(76,75,77)           110.815          calculate D2E/DX2 analytically  !
 ! A166  A(76,75,78)           108.7914         calculate D2E/DX2 analytically  !
 ! A167  A(77,75,78)           110.7801         calculate D2E/DX2 analytically  !
 ! A168  A(19,77,75)           139.6222         calculate D2E/DX2 analytically  !
 ! A169  A(12,79,80)           106.7979         calculate D2E/DX2 analytically  !
 ! A170  A(12,79,81)           111.513          calculate D2E/DX2 analytically  !
 ! A171  A(12,79,82)           110.8317         calculate D2E/DX2 analytically  !
 ! A172  A(80,79,81)           109.5752         calculate D2E/DX2 analytically  !
 ! A173  A(80,79,82)           109.3441         calculate D2E/DX2 analytically  !
 ! A174  A(81,79,82)           108.744          calculate D2E/DX2 analytically  !
 ! A175  A(51,83,84)            96.5803         calculate D2E/DX2 analytically  !
 ! A176  A(39,84,83)            71.3131         calculate D2E/DX2 analytically  !
 ! A177  A(39,84,85)           138.752          calculate D2E/DX2 analytically  !
 ! A178  A(39,84,89)            90.8962         calculate D2E/DX2 analytically  !
 ! A179  A(83,84,85)           119.0159         calculate D2E/DX2 analytically  !
 ! A180  A(83,84,89)           119.448          calculate D2E/DX2 analytically  !
 ! A181  A(85,84,89)           112.1114         calculate D2E/DX2 analytically  !
 ! A182  A(84,85,86)           110.5962         calculate D2E/DX2 analytically  !
 ! A183  A(84,85,87)           107.3508         calculate D2E/DX2 analytically  !
 ! A184  A(84,85,88)           111.0308         calculate D2E/DX2 analytically  !
 ! A185  A(86,85,87)           109.266          calculate D2E/DX2 analytically  !
 ! A186  A(86,85,88)           109.0691         calculate D2E/DX2 analytically  !
 ! A187  A(87,85,88)           109.4944         calculate D2E/DX2 analytically  !
 ! A188  A(84,89,90)           110.5444         calculate D2E/DX2 analytically  !
 ! A189  A(84,89,91)           107.4591         calculate D2E/DX2 analytically  !
 ! A190  A(84,89,92)           110.0102         calculate D2E/DX2 analytically  !
 ! A191  A(90,89,91)           110.1881         calculate D2E/DX2 analytically  !
 ! A192  A(90,89,92)           109.4974         calculate D2E/DX2 analytically  !
 ! A193  A(91,89,92)           109.1085         calculate D2E/DX2 analytically  !
 ! A194  A(39,91,44)            61.8207         calculate D2E/DX2 analytically  !
 ! A195  A(39,91,89)           101.9146         calculate D2E/DX2 analytically  !
 ! A196  A(44,91,89)           154.4643         calculate D2E/DX2 analytically  !
 ! A197  A(59,93,94)           110.5568         calculate D2E/DX2 analytically  !
 ! A198  A(59,93,95)           112.5054         calculate D2E/DX2 analytically  !
 ! A199  A(59,93,96)           111.6903         calculate D2E/DX2 analytically  !
 ! A200  A(94,93,95)           107.0132         calculate D2E/DX2 analytically  !
 ! A201  A(94,93,96)           106.5099         calculate D2E/DX2 analytically  !
 ! A202  A(95,93,96)           108.2733         calculate D2E/DX2 analytically  !
 ! A203  A(57,97,98)           112.2253         calculate D2E/DX2 analytically  !
 ! A204  A(57,97,99)           111.1248         calculate D2E/DX2 analytically  !
 ! A205  A(57,97,100)          111.4187         calculate D2E/DX2 analytically  !
 ! A206  A(98,97,99)           107.4472         calculate D2E/DX2 analytically  !
 ! A207  A(98,97,100)          107.6088         calculate D2E/DX2 analytically  !
 ! A208  A(99,97,100)          106.7498         calculate D2E/DX2 analytically  !
 ! A209  L(32,39,84,91,-1)     184.6269         calculate D2E/DX2 analytically  !
 ! A210  L(11,64,63,34,-1)     173.4744         calculate D2E/DX2 analytically  !
 ! A211  L(32,39,84,91,-2)     179.0589         calculate D2E/DX2 analytically  !
 ! A212  L(11,64,63,34,-2)     183.5898         calculate D2E/DX2 analytically  !
 ! D1    D(5,1,2,3)            -44.3371         calculate D2E/DX2 analytically  !
 ! D2    D(5,1,2,7)             71.8637         calculate D2E/DX2 analytically  !
 ! D3    D(5,1,2,13)          -170.0478         calculate D2E/DX2 analytically  !
 ! D4    D(8,1,2,3)             75.315          calculate D2E/DX2 analytically  !
 ! D5    D(8,1,2,7)           -168.4842         calculate D2E/DX2 analytically  !
 ! D6    D(8,1,2,13)           -50.3957         calculate D2E/DX2 analytically  !
 ! D7    D(14,1,2,3)          -163.8862         calculate D2E/DX2 analytically  !
 ! D8    D(14,1,2,7)           -47.6854         calculate D2E/DX2 analytically  !
 ! D9    D(14,1,2,13)           70.4031         calculate D2E/DX2 analytically  !
 ! D10   D(2,1,5,4)             48.1331         calculate D2E/DX2 analytically  !
 ! D11   D(2,1,5,10)           -71.3262         calculate D2E/DX2 analytically  !
 ! D12   D(2,1,5,15)           169.0178         calculate D2E/DX2 analytically  !
 ! D13   D(8,1,5,4)            -71.4911         calculate D2E/DX2 analytically  !
 ! D14   D(8,1,5,10)           169.0496         calculate D2E/DX2 analytically  !
 ! D15   D(8,1,5,15)            49.3937         calculate D2E/DX2 analytically  !
 ! D16   D(14,1,5,4)           170.3257         calculate D2E/DX2 analytically  !
 ! D17   D(14,1,5,10)           50.8664         calculate D2E/DX2 analytically  !
 ! D18   D(14,1,5,15)          -68.7896         calculate D2E/DX2 analytically  !
 ! D19   D(2,1,14,24)          -84.3945         calculate D2E/DX2 analytically  !
 ! D20   D(5,1,14,24)          153.1065         calculate D2E/DX2 analytically  !
 ! D21   D(8,1,14,24)           35.6897         calculate D2E/DX2 analytically  !
 ! D22   D(1,2,3,6)            164.9175         calculate D2E/DX2 analytically  !
 ! D23   D(1,2,3,11)            50.1724         calculate D2E/DX2 analytically  !
 ! D24   D(1,2,3,12)           -74.3233         calculate D2E/DX2 analytically  !
 ! D25   D(7,2,3,6)             47.5656         calculate D2E/DX2 analytically  !
 ! D26   D(7,2,3,11)           -67.1794         calculate D2E/DX2 analytically  !
 ! D27   D(7,2,3,12)           168.3248         calculate D2E/DX2 analytically  !
 ! D28   D(13,2,3,6)           -72.6899         calculate D2E/DX2 analytically  !
 ! D29   D(13,2,3,11)          172.565          calculate D2E/DX2 analytically  !
 ! D30   D(13,2,3,12)           48.0693         calculate D2E/DX2 analytically  !
 ! D31   D(1,2,13,20)          177.3572         calculate D2E/DX2 analytically  !
 ! D32   D(3,2,13,20)           52.2248         calculate D2E/DX2 analytically  !
 ! D33   D(7,2,13,20)          -65.8149         calculate D2E/DX2 analytically  !
 ! D34   D(2,3,11,4)           -62.3326         calculate D2E/DX2 analytically  !
 ! D35   D(2,3,11,64)          134.531          calculate D2E/DX2 analytically  !
 ! D36   D(6,3,11,4)           178.9291         calculate D2E/DX2 analytically  !
 ! D37   D(6,3,11,64)           15.7927         calculate D2E/DX2 analytically  !
 ! D38   D(12,3,11,4)           59.3635         calculate D2E/DX2 analytically  !
 ! D39   D(12,3,11,64)        -103.7729         calculate D2E/DX2 analytically  !
 ! D40   D(2,3,12,79)         -174.476          calculate D2E/DX2 analytically  !
 ! D41   D(6,3,12,79)          -53.3601         calculate D2E/DX2 analytically  !
 ! D42   D(11,3,12,79)          62.8034         calculate D2E/DX2 analytically  !
 ! D43   D(9,4,5,1)             61.1796         calculate D2E/DX2 analytically  !
 ! D44   D(9,4,5,10)          -178.7845         calculate D2E/DX2 analytically  !
 ! D45   D(9,4,5,15)           -58.1123         calculate D2E/DX2 analytically  !
 ! D46   D(11,4,5,1)           -56.4026         calculate D2E/DX2 analytically  !
 ! D47   D(11,4,5,10)           63.6334         calculate D2E/DX2 analytically  !
 ! D48   D(11,4,5,15)         -175.6945         calculate D2E/DX2 analytically  !
 ! D49   D(16,4,5,1)          -176.3518         calculate D2E/DX2 analytically  !
 ! D50   D(16,4,5,10)          -56.3159         calculate D2E/DX2 analytically  !
 ! D51   D(16,4,5,15)           64.3563         calculate D2E/DX2 analytically  !
 ! D52   D(5,4,11,3)            65.4773         calculate D2E/DX2 analytically  !
 ! D53   D(5,4,11,64)         -129.6182         calculate D2E/DX2 analytically  !
 ! D54   D(9,4,11,3)           -52.5617         calculate D2E/DX2 analytically  !
 ! D55   D(9,4,11,64)          112.3429         calculate D2E/DX2 analytically  !
 ! D56   D(16,4,11,3)         -170.7397         calculate D2E/DX2 analytically  !
 ! D57   D(16,4,11,64)          -5.8351         calculate D2E/DX2 analytically  !
 ! D58   D(5,4,16,17)          -75.555          calculate D2E/DX2 analytically  !
 ! D59   D(5,4,16,18)          176.3069         calculate D2E/DX2 analytically  !
 ! D60   D(5,4,16,19)           50.2541         calculate D2E/DX2 analytically  !
 ! D61   D(9,4,16,17)           46.8752         calculate D2E/DX2 analytically  !
 ! D62   D(9,4,16,18)          -61.2629         calculate D2E/DX2 analytically  !
 ! D63   D(9,4,16,19)          172.6844         calculate D2E/DX2 analytically  !
 ! D64   D(11,4,16,17)         164.5527         calculate D2E/DX2 analytically  !
 ! D65   D(11,4,16,18)          56.4146         calculate D2E/DX2 analytically  !
 ! D66   D(11,4,16,19)         -69.6382         calculate D2E/DX2 analytically  !
 ! D67   D(1,5,15,28)          137.3407         calculate D2E/DX2 analytically  !
 ! D68   D(4,5,15,28)         -100.8879         calculate D2E/DX2 analytically  !
 ! D69   D(10,5,15,28)          18.4608         calculate D2E/DX2 analytically  !
 ! D70   D(3,11,63,44)         -95.8093         calculate D2E/DX2 analytically  !
 ! D71   D(3,11,63,65)         144.6487         calculate D2E/DX2 analytically  !
 ! D72   D(3,11,63,66)          22.5143         calculate D2E/DX2 analytically  !
 ! D73   D(4,11,63,44)          99.4445         calculate D2E/DX2 analytically  !
 ! D74   D(4,11,63,65)         -20.0975         calculate D2E/DX2 analytically  !
 ! D75   D(4,11,63,66)        -142.2319         calculate D2E/DX2 analytically  !
 ! D76   D(3,12,79,80)         174.9811         calculate D2E/DX2 analytically  !
 ! D77   D(3,12,79,81)         -65.3375         calculate D2E/DX2 analytically  !
 ! D78   D(3,12,79,82)          55.9641         calculate D2E/DX2 analytically  !
 ! D79   D(2,13,20,21)         -75.1319         calculate D2E/DX2 analytically  !
 ! D80   D(2,13,20,22)          46.8328         calculate D2E/DX2 analytically  !
 ! D81   D(2,13,20,23)         165.5208         calculate D2E/DX2 analytically  !
 ! D82   D(1,14,24,25)         -48.4334         calculate D2E/DX2 analytically  !
 ! D83   D(1,14,24,26)          73.2894         calculate D2E/DX2 analytically  !
 ! D84   D(1,14,24,27)        -166.8794         calculate D2E/DX2 analytically  !
 ! D85   D(5,15,28,29)         -70.2039         calculate D2E/DX2 analytically  !
 ! D86   D(5,15,28,30)          50.832          calculate D2E/DX2 analytically  !
 ! D87   D(5,15,28,31)         171.3495         calculate D2E/DX2 analytically  !
 ! D88   D(4,16,19,38)         105.2382         calculate D2E/DX2 analytically  !
 ! D89   D(4,16,19,49)         -96.0613         calculate D2E/DX2 analytically  !
 ! D90   D(4,16,19,77)        -166.516          calculate D2E/DX2 analytically  !
 ! D91   D(17,16,19,38)       -134.7085         calculate D2E/DX2 analytically  !
 ! D92   D(17,16,19,49)         23.992          calculate D2E/DX2 analytically  !
 ! D93   D(17,16,19,77)        -46.4627         calculate D2E/DX2 analytically  !
 ! D94   D(18,16,19,38)        -14.9662         calculate D2E/DX2 analytically  !
 ! D95   D(18,16,19,49)        143.7343         calculate D2E/DX2 analytically  !
 ! D96   D(18,16,19,77)         73.2797         calculate D2E/DX2 analytically  !
 ! D97   D(16,19,38,33)        -96.603          calculate D2E/DX2 analytically  !
 ! D98   D(49,19,38,33)         94.3815         calculate D2E/DX2 analytically  !
 ! D99   D(77,19,38,33)        155.4076         calculate D2E/DX2 analytically  !
 ! D100  D(16,19,49,47)       -159.1289         calculate D2E/DX2 analytically  !
 ! D101  D(38,19,49,47)          4.2397         calculate D2E/DX2 analytically  !
 ! D102  D(77,19,49,47)        -72.613          calculate D2E/DX2 analytically  !
 ! D103  D(16,19,77,75)       -169.2144         calculate D2E/DX2 analytically  !
 ! D104  D(38,19,77,75)        -43.1568         calculate D2E/DX2 analytically  !
 ! D105  D(49,19,77,75)         45.1752         calculate D2E/DX2 analytically  !
 ! D106  D(36,32,33,34)        -38.7073         calculate D2E/DX2 analytically  !
 ! D107  D(36,32,33,38)         75.8482         calculate D2E/DX2 analytically  !
 ! D108  D(36,32,33,44)       -161.233          calculate D2E/DX2 analytically  !
 ! D109  D(39,32,33,34)         78.8928         calculate D2E/DX2 analytically  !
 ! D110  D(39,32,33,38)       -166.5516         calculate D2E/DX2 analytically  !
 ! D111  D(39,32,33,44)        -43.6329         calculate D2E/DX2 analytically  !
 ! D112  D(45,32,33,34)       -161.6362         calculate D2E/DX2 analytically  !
 ! D113  D(45,32,33,38)        -47.0806         calculate D2E/DX2 analytically  !
 ! D114  D(45,32,33,44)         75.8382         calculate D2E/DX2 analytically  !
 ! D115  D(33,32,36,35)         -3.6232         calculate D2E/DX2 analytically  !
 ! D116  D(33,32,36,41)       -122.4784         calculate D2E/DX2 analytically  !
 ! D117  D(33,32,36,46)        119.6556         calculate D2E/DX2 analytically  !
 ! D118  D(39,32,36,35)       -121.6193         calculate D2E/DX2 analytically  !
 ! D119  D(39,32,36,41)        119.5256         calculate D2E/DX2 analytically  !
 ! D120  D(39,32,36,46)          1.6595         calculate D2E/DX2 analytically  !
 ! D121  D(45,32,36,35)        121.4125         calculate D2E/DX2 analytically  !
 ! D122  D(45,32,36,41)          2.5573         calculate D2E/DX2 analytically  !
 ! D123  D(45,32,36,46)       -115.3088         calculate D2E/DX2 analytically  !
 ! D124  D(33,32,39,91)         23.2252         calculate D2E/DX2 analytically  !
 ! D125  D(36,32,39,91)        144.4715         calculate D2E/DX2 analytically  !
 ! D126  D(45,32,39,91)        -98.6044         calculate D2E/DX2 analytically  !
 ! D127  D(33,32,45,67)        -87.3808         calculate D2E/DX2 analytically  !
 ! D128  D(36,32,45,67)        147.4044         calculate D2E/DX2 analytically  !
 ! D129  D(39,32,45,67)         31.509          calculate D2E/DX2 analytically  !
 ! D130  D(33,32,84,83)        -82.5565         calculate D2E/DX2 analytically  !
 ! D131  D(33,32,84,85)        164.7597         calculate D2E/DX2 analytically  !
 ! D132  D(33,32,84,89)         37.8768         calculate D2E/DX2 analytically  !
 ! D133  D(36,32,84,83)         39.0458         calculate D2E/DX2 analytically  !
 ! D134  D(36,32,84,85)        -73.638          calculate D2E/DX2 analytically  !
 ! D135  D(36,32,84,89)        159.479          calculate D2E/DX2 analytically  !
 ! D136  D(45,32,84,83)        154.3424         calculate D2E/DX2 analytically  !
 ! D137  D(45,32,84,85)         41.6586         calculate D2E/DX2 analytically  !
 ! D138  D(45,32,84,89)        -85.2243         calculate D2E/DX2 analytically  !
 ! D139  D(32,33,34,37)       -170.3092         calculate D2E/DX2 analytically  !
 ! D140  D(32,33,34,42)         50.5764         calculate D2E/DX2 analytically  !
 ! D141  D(32,33,34,53)        -59.8218         calculate D2E/DX2 analytically  !
 ! D142  D(38,33,34,37)         70.5293         calculate D2E/DX2 analytically  !
 ! D143  D(38,33,34,42)        -68.5852         calculate D2E/DX2 analytically  !
 ! D144  D(38,33,34,53)       -178.9833         calculate D2E/DX2 analytically  !
 ! D145  D(44,33,34,37)        -49.4117         calculate D2E/DX2 analytically  !
 ! D146  D(44,33,34,42)        171.4739         calculate D2E/DX2 analytically  !
 ! D147  D(44,33,34,53)         61.0757         calculate D2E/DX2 analytically  !
 ! D148  D(32,33,38,19)       -136.9815         calculate D2E/DX2 analytically  !
 ! D149  D(34,33,38,19)        -17.289          calculate D2E/DX2 analytically  !
 ! D150  D(44,33,38,19)        102.1639         calculate D2E/DX2 analytically  !
 ! D151  D(32,33,44,63)       -152.0837         calculate D2E/DX2 analytically  !
 ! D152  D(32,33,44,91)         44.58           calculate D2E/DX2 analytically  !
 ! D153  D(34,33,44,63)         85.0384         calculate D2E/DX2 analytically  !
 ! D154  D(34,33,44,91)        -78.298          calculate D2E/DX2 analytically  !
 ! D155  D(38,33,44,63)        -29.7138         calculate D2E/DX2 analytically  !
 ! D156  D(38,33,44,91)        166.9499         calculate D2E/DX2 analytically  !
 ! D157  D(33,34,42,35)        -13.0002         calculate D2E/DX2 analytically  !
 ! D158  D(37,34,42,35)       -153.3189         calculate D2E/DX2 analytically  !
 ! D159  D(53,34,42,35)         97.9771         calculate D2E/DX2 analytically  !
 ! D160  D(33,34,53,51)       -118.7896         calculate D2E/DX2 analytically  !
 ! D161  D(37,34,53,51)          1.836          calculate D2E/DX2 analytically  !
 ! D162  D(42,34,53,51)        118.7165         calculate D2E/DX2 analytically  !
 ! D163  D(40,35,36,32)        153.729          calculate D2E/DX2 analytically  !
 ! D164  D(40,35,36,41)        -87.3177         calculate D2E/DX2 analytically  !
 ! D165  D(40,35,36,46)         29.5725         calculate D2E/DX2 analytically  !
 ! D166  D(42,35,36,32)         40.1759         calculate D2E/DX2 analytically  !
 ! D167  D(42,35,36,41)        159.1293         calculate D2E/DX2 analytically  !
 ! D168  D(42,35,36,46)        -83.9805         calculate D2E/DX2 analytically  !
 ! D169  D(47,35,36,32)        -84.6436         calculate D2E/DX2 analytically  !
 ! D170  D(47,35,36,41)         34.3097         calculate D2E/DX2 analytically  !
 ! D171  D(47,35,36,46)        151.1999         calculate D2E/DX2 analytically  !
 ! D172  D(36,35,42,34)        -32.8116         calculate D2E/DX2 analytically  !
 ! D173  D(40,35,42,34)       -149.4989         calculate D2E/DX2 analytically  !
 ! D174  D(47,35,42,34)         94.4577         calculate D2E/DX2 analytically  !
 ! D175  D(36,35,47,48)        -99.8447         calculate D2E/DX2 analytically  !
 ! D176  D(36,35,47,49)        140.7862         calculate D2E/DX2 analytically  !
 ! D177  D(36,35,47,50)         20.8855         calculate D2E/DX2 analytically  !
 ! D178  D(40,35,47,48)         20.9857         calculate D2E/DX2 analytically  !
 ! D179  D(40,35,47,49)        -98.3833         calculate D2E/DX2 analytically  !
 ! D180  D(40,35,47,50)        141.7159         calculate D2E/DX2 analytically  !
 ! D181  D(42,35,47,48)        132.6105         calculate D2E/DX2 analytically  !
 ! D182  D(42,35,47,49)         13.2414         calculate D2E/DX2 analytically  !
 ! D183  D(42,35,47,50)       -106.6593         calculate D2E/DX2 analytically  !
 ! D184  D(32,36,46,71)         80.6991         calculate D2E/DX2 analytically  !
 ! D185  D(35,36,46,71)       -152.1815         calculate D2E/DX2 analytically  !
 ! D186  D(41,36,46,71)        -36.3038         calculate D2E/DX2 analytically  !
 ! D187  D(91,39,84,83)       -105.9353         calculate D2E/DX2 analytically  !
 ! D188  D(91,39,84,85)        141.0525         calculate D2E/DX2 analytically  !
 ! D189  D(91,39,84,89)         14.9796         calculate D2E/DX2 analytically  !
 ! D190  D(32,39,91,44)         -0.1563         calculate D2E/DX2 analytically  !
 ! D191  D(32,39,91,89)        158.7742         calculate D2E/DX2 analytically  !
 ! D192  D(84,39,91,44)       -179.2153         calculate D2E/DX2 analytically  !
 ! D193  D(84,39,91,89)        -20.2847         calculate D2E/DX2 analytically  !
 ! D194  D(33,44,63,64)        -62.0656         calculate D2E/DX2 analytically  !
 ! D195  D(33,44,63,65)         59.5543         calculate D2E/DX2 analytically  !
 ! D196  D(33,44,63,66)        178.0225         calculate D2E/DX2 analytically  !
 ! D197  D(91,44,63,64)         96.6023         calculate D2E/DX2 analytically  !
 ! D198  D(91,44,63,65)       -141.7778         calculate D2E/DX2 analytically  !
 ! D199  D(91,44,63,66)        -23.3096         calculate D2E/DX2 analytically  !
 ! D200  D(33,44,91,39)        -25.4808         calculate D2E/DX2 analytically  !
 ! D201  D(33,44,91,89)        -80.1668         calculate D2E/DX2 analytically  !
 ! D202  D(63,44,91,39)        175.2695         calculate D2E/DX2 analytically  !
 ! D203  D(63,44,91,89)        120.5835         calculate D2E/DX2 analytically  !
 ! D204  D(32,45,67,68)        -55.2714         calculate D2E/DX2 analytically  !
 ! D205  D(32,45,67,69)         66.3039         calculate D2E/DX2 analytically  !
 ! D206  D(32,45,67,70)       -173.787          calculate D2E/DX2 analytically  !
 ! D207  D(36,46,71,72)        -62.9478         calculate D2E/DX2 analytically  !
 ! D208  D(36,46,71,73)         58.5857         calculate D2E/DX2 analytically  !
 ! D209  D(36,46,71,74)        177.3896         calculate D2E/DX2 analytically  !
 ! D210  D(35,47,49,19)        -73.1554         calculate D2E/DX2 analytically  !
 ! D211  D(48,47,49,19)        168.1196         calculate D2E/DX2 analytically  !
 ! D212  D(50,47,49,19)         46.6703         calculate D2E/DX2 analytically  !
 ! D213  D(35,47,50,75)        153.4213         calculate D2E/DX2 analytically  !
 ! D214  D(48,47,50,75)        -86.2259         calculate D2E/DX2 analytically  !
 ! D215  D(49,47,50,75)         35.4431         calculate D2E/DX2 analytically  !
 ! D216  D(47,50,75,76)       -177.6354         calculate D2E/DX2 analytically  !
 ! D217  D(47,50,75,77)        -58.1672         calculate D2E/DX2 analytically  !
 ! D218  D(47,50,75,78)         64.0455         calculate D2E/DX2 analytically  !
 ! D219  D(43,51,53,34)        174.7879         calculate D2E/DX2 analytically  !
 ! D220  D(52,51,53,34)         44.6961         calculate D2E/DX2 analytically  !
 ! D221  D(54,51,53,34)        -72.3014         calculate D2E/DX2 analytically  !
 ! D222  D(83,51,53,34)       -173.3712         calculate D2E/DX2 analytically  !
 ! D223  D(43,51,54,55)        -71.0758         calculate D2E/DX2 analytically  !
 ! D224  D(43,51,54,56)        111.4491         calculate D2E/DX2 analytically  !
 ! D225  D(52,51,54,55)         57.806          calculate D2E/DX2 analytically  !
 ! D226  D(52,51,54,56)       -119.6691         calculate D2E/DX2 analytically  !
 ! D227  D(53,51,54,55)        178.5089         calculate D2E/DX2 analytically  !
 ! D228  D(53,51,54,56)          1.0338         calculate D2E/DX2 analytically  !
 ! D229  D(83,51,54,55)       -129.7455         calculate D2E/DX2 analytically  !
 ! D230  D(83,51,54,56)         52.7794         calculate D2E/DX2 analytically  !
 ! D231  D(43,51,83,84)         75.1568         calculate D2E/DX2 analytically  !
 ! D232  D(52,51,83,84)        -17.365          calculate D2E/DX2 analytically  !
 ! D233  D(53,51,83,84)        -90.9025         calculate D2E/DX2 analytically  !
 ! D234  D(54,51,83,84)        174.8638         calculate D2E/DX2 analytically  !
 ! D235  D(51,54,55,57)       -176.4211         calculate D2E/DX2 analytically  !
 ! D236  D(51,54,55,58)          2.0854         calculate D2E/DX2 analytically  !
 ! D237  D(56,54,55,57)          1.0399         calculate D2E/DX2 analytically  !
 ! D238  D(56,54,55,58)        179.5464         calculate D2E/DX2 analytically  !
 ! D239  D(51,54,56,59)        175.9921         calculate D2E/DX2 analytically  !
 ! D240  D(51,54,56,60)         -1.1107         calculate D2E/DX2 analytically  !
 ! D241  D(55,54,56,59)         -1.3761         calculate D2E/DX2 analytically  !
 ! D242  D(55,54,56,60)       -178.4789         calculate D2E/DX2 analytically  !
 ! D243  D(54,55,57,61)         -0.404          calculate D2E/DX2 analytically  !
 ! D244  D(54,55,57,97)        178.5121         calculate D2E/DX2 analytically  !
 ! D245  D(58,55,57,61)       -178.9151         calculate D2E/DX2 analytically  !
 ! D246  D(58,55,57,97)          0.001          calculate D2E/DX2 analytically  !
 ! D247  D(54,56,59,61)          1.0876         calculate D2E/DX2 analytically  !
 ! D248  D(54,56,59,93)        179.5785         calculate D2E/DX2 analytically  !
 ! D249  D(60,56,59,61)        178.2163         calculate D2E/DX2 analytically  !
 ! D250  D(60,56,59,93)         -3.2927         calculate D2E/DX2 analytically  !
 ! D251  D(55,57,61,59)          0.1365         calculate D2E/DX2 analytically  !
 ! D252  D(55,57,61,62)        178.4643         calculate D2E/DX2 analytically  !
 ! D253  D(97,57,61,59)       -178.8042         calculate D2E/DX2 analytically  !
 ! D254  D(97,57,61,62)         -0.4765         calculate D2E/DX2 analytically  !
 ! D255  D(55,57,97,98)         -4.1748         calculate D2E/DX2 analytically  !
 ! D256  D(55,57,97,99)       -124.5126         calculate D2E/DX2 analytically  !
 ! D257  D(55,57,97,100)       116.5773         calculate D2E/DX2 analytically  !
 ! D258  D(61,57,97,98)        174.7658         calculate D2E/DX2 analytically  !
 ! D259  D(61,57,97,99)         54.428          calculate D2E/DX2 analytically  !
 ! D260  D(61,57,97,100)       -64.482          calculate D2E/DX2 analytically  !
 ! D261  D(56,59,61,57)         -0.4825         calculate D2E/DX2 analytically  !
 ! D262  D(56,59,61,62)       -178.8099         calculate D2E/DX2 analytically  !
 ! D263  D(93,59,61,57)       -178.9329         calculate D2E/DX2 analytically  !
 ! D264  D(93,59,61,62)          2.7396         calculate D2E/DX2 analytically  !
 ! D265  D(56,59,93,94)        -77.8133         calculate D2E/DX2 analytically  !
 ! D266  D(56,59,93,95)        162.6073         calculate D2E/DX2 analytically  !
 ! D267  D(56,59,93,96)         40.598          calculate D2E/DX2 analytically  !
 ! D268  D(61,59,93,94)        100.6756         calculate D2E/DX2 analytically  !
 ! D269  D(61,59,93,95)        -18.9037         calculate D2E/DX2 analytically  !
 ! D270  D(61,59,93,96)       -140.913          calculate D2E/DX2 analytically  !
 ! D271  D(50,75,77,19)         -0.3821         calculate D2E/DX2 analytically  !
 ! D272  D(76,75,77,19)        116.343          calculate D2E/DX2 analytically  !
 ! D273  D(78,75,77,19)       -122.8031         calculate D2E/DX2 analytically  !
 ! D274  D(51,83,84,39)         79.1268         calculate D2E/DX2 analytically  !
 ! D275  D(51,83,84,85)       -144.8171         calculate D2E/DX2 analytically  !
 ! D276  D(51,83,84,89)         -0.9696         calculate D2E/DX2 analytically  !
 ! D277  D(39,84,85,86)        -58.1938         calculate D2E/DX2 analytically  !
 ! D278  D(39,84,85,87)         60.9302         calculate D2E/DX2 analytically  !
 ! D279  D(39,84,85,88)       -179.4197         calculate D2E/DX2 analytically  !
 ! D280  D(83,84,85,86)       -152.6            calculate D2E/DX2 analytically  !
 ! D281  D(83,84,85,87)        -33.476          calculate D2E/DX2 analytically  !
 ! D282  D(83,84,85,88)         86.1741         calculate D2E/DX2 analytically  !
 ! D283  D(89,84,85,86)         61.0761         calculate D2E/DX2 analytically  !
 ! D284  D(89,84,85,87)       -179.7998         calculate D2E/DX2 analytically  !
 ! D285  D(89,84,85,88)        -60.1497         calculate D2E/DX2 analytically  !
 ! D286  D(39,84,89,90)       -147.4068         calculate D2E/DX2 analytically  !
 ! D287  D(39,84,89,91)        -27.1278         calculate D2E/DX2 analytically  !
 ! D288  D(39,84,89,92)         91.5414         calculate D2E/DX2 analytically  !
 ! D289  D(83,84,89,90)        -78.4545         calculate D2E/DX2 analytically  !
 ! D290  D(83,84,89,91)         41.8245         calculate D2E/DX2 analytically  !
 ! D291  D(83,84,89,92)        160.4937         calculate D2E/DX2 analytically  !
 ! D292  D(85,84,89,90)         67.7077         calculate D2E/DX2 analytically  !
 ! D293  D(85,84,89,91)       -172.0133         calculate D2E/DX2 analytically  !
 ! D294  D(85,84,89,92)        -53.3441         calculate D2E/DX2 analytically  !
 ! D295  D(84,89,91,39)         28.0302         calculate D2E/DX2 analytically  !
 ! D296  D(84,89,91,44)         75.3473         calculate D2E/DX2 analytically  !
 ! D297  D(90,89,91,39)        148.5348         calculate D2E/DX2 analytically  !
 ! D298  D(90,89,91,44)       -164.1482         calculate D2E/DX2 analytically  !
 ! D299  D(92,89,91,39)        -91.2179         calculate D2E/DX2 analytically  !
 ! D300  D(92,89,91,44)        -43.9009         calculate D2E/DX2 analytically  !
 --------------------------------------------------------------------------------
 Trust Radius=5.00D-02 FncErr=1.00D-07 GrdErr=1.00D-06 EigMax=2.50D+02 EigMin=1.00D-04
 Number of steps in this run=    600 maximum allowed number of steps=    600.
 Search for a saddle point of order  1.
 Step   0 in ReCalcFC=30 IGetFC= 4 compute analytic Hessian.
 GradGradGradGradGradGradGradGradGradGradGradGradGradGradGradGradGradGrad

 Leave Link  103 at Sat Jun  1 07:49:39 2019, MaxMem=  6442450944 cpu:              12.3 elap:               0.7
 (Enter /home/ekwan/sw/g16/l202.exe)
 Stoichiometry    C30H47F6NaO15S
 Framework group  C1[X(C30H47F6NaO15S)]
 Deg. of freedom   294
 Full point group                 C1      NOp   1
 Largest Abelian subgroup         C1      NOp   1
 Largest concise Abelian subgroup C1      NOp   1
                         Standard orientation:                         
 ---------------------------------------------------------------------
 Center     Atomic      Atomic             Coordinates (Angstroms)
 Number     Number       Type             X           Y           Z
 ---------------------------------------------------------------------
      1          6           0       -3.070395    2.071425   -0.245495
      2          6           0       -2.890933    0.938583   -1.262913
      3          6           0       -2.015188    1.352169   -2.456852
      4          6           0       -1.016726    3.157533   -1.243675
      5          6           0       -1.753089    2.791130    0.044700
      6          1           0       -1.685943    0.468670   -3.019237
      7          1           0       -2.350824    0.125563   -0.764701
      8          1           0       -3.782680    2.800271   -0.658136
      9          1           0       -1.644150    3.837693   -1.835933
     10          1           0       -1.105117    2.130981    0.632302
     11          8           0       -0.817953    1.939442   -2.003638
     12          8           0       -2.768697    2.199816   -3.288643
     13          8           0       -4.186385    0.491843   -1.638264
     14          8           0       -3.555405    1.579361    1.000448
     15          8           0       -2.063007    3.968216    0.785275
     16          6           0        0.365205    3.808633   -1.018000
     17          1           0        0.116478    4.855129   -0.696865
     18          1           0        0.771561    3.937521   -2.058417
     19          8           0        1.183919    3.142460   -0.170966
     20          6           0       -4.208939   -0.524041   -2.626616
     21          1           0       -3.986165   -0.120980   -3.622237
     22          1           0       -3.494612   -1.327320   -2.404383
     23          1           0       -5.217170   -0.943707   -2.623663
     24          6           0       -4.961986    1.418904    1.095509
     25          1           0       -5.487112    2.317932    0.741871
     26          1           0       -5.315372    0.557028    0.520664
     27          1           0       -5.183463    1.271345    2.155722
     28          6           0       -1.168141    4.200933    1.867272
     29          1           0       -1.320219    3.456987    2.662952
     30          1           0       -0.126475    4.153807    1.529305
     31          1           0       -1.399669    5.195444    2.261607
     32          6           0        4.087411    0.139928   -0.019829
     33          6           0        2.906271    0.810368   -0.722399
     34          6           0        1.591349    0.483813   -0.040547
     35          6           0        2.715893    0.878490    2.060588
     36          6           0        3.944015    0.143115    1.520312
     37          1           0        0.692991    0.784011   -0.567399
     38          1           0        2.969649    1.901023   -0.637608
     39          1           0        4.109041   -0.907368   -0.335592
     40          1           0        2.458019    0.443766    3.027348
     41          1           0        4.823424    0.652034    1.924365
     42          8           0        1.506579    0.660656    1.274787
     43          8           0        0.906918   -3.451041   -0.815178
     44          8           0        2.897033    0.389411   -2.070921
     45          8           0        5.329016    0.740884   -0.358752
     46          8           0        3.926618   -1.209959    2.022316
     47          6           0        2.933669    2.390663    2.218837
     48          1           0        3.151600    2.617412    3.275131
     49          1           0        2.006292    2.883721    1.909355
     50          8           0        4.011311    2.816259    1.402937
     51         16           0        0.428410   -2.053453   -0.906417
     52          8           0        0.094116   -1.515589   -2.224857
     53          8           0        1.527583   -1.219831   -0.158339
     54          6           0       -1.025979   -1.907451    0.128418
     55          6           0       -2.193553   -2.535404   -0.312737
     56          6           0       -1.002183   -1.153737    1.294575
     57          6           0       -3.357593   -2.376677    0.430796
     58          1           0       -2.200232   -3.114415   -1.228028
     59          6           0       -2.185256   -1.002887    2.020728
     60          1           0       -0.098958   -0.650762    1.615646
     61          6           0       -3.359924   -1.612056    1.600516
     62          1           0       -4.276922   -1.473527    2.159815
     63          6           0        2.315341    1.332277   -2.975532
     64          1           0        1.263462    1.519965   -2.748546
     65          1           0        2.862535    2.283513   -2.943183
     66          1           0        2.410191    0.891242   -3.970784
     67          6           0        5.934195    0.203573   -1.528002
     68          1           0        6.058015   -0.886497   -1.442146
     69          1           0        5.349463    0.419326   -2.427422
[...]
 .00000306,-0.00000194,0.00000146,0.00000307,0.00000639,0.00000029,-0.0
 0001396,-0.00000866,0.00001375,0.00000573,-0.00003111,-0.00028892,-0.0
 0005517,-0.00002412,0.00011632,0.00003965,0.00013210,0.00021020,-0.000
 02403,-0.00017286,-0.00045964,0.00033595,0.00117261,0.00061479,-0.0004
 0966,-0.00038810,0.00008888,-0.00046941,0.00378948,0.00504462,0.000167
 03,-0.00048623,-0.00005712,-0.00014259,0.00068324,0.00091060,-0.000399
 80,-0.00002575,-0.00000495,-0.00008367,-0.00059297,-0.00033357,0.00198
 019,-0.00036666,-0.00019784,-0.00092810,0.00002472,-0.00002076,-0.0000
 1313,0.00001453,-0.00000963,0.00000981,-0.00000223,0.00000393,-0.00000
 007,-0.00000644,0.00000282,-0.00000414,0.00000431,-0.00000852,0.000002
 61,-0.00000130,0.00000367,0.00000062,0.00000049,-0.00000029,0.00000114
 ,0.00000008,0.00000037,-0.00000035,0.00000249,-0.00000562,-0.00000121,
 -0.00000050,-0.00000100,0.00000040,0.00000053,0.00000162,-0.00000126,-
 0.00000228,0.00000375,0.00000196,0.00000391,-0.00001196,-0.00000290,-0
 .00000296,0.00000057,-0.00000048,0.00001012,0.00001045,-0.00000249,-0.
 00000170,0.00000072,0.00000205,0.00010157,0.00003357,0.00019083,0.0000
 0019,-0.00001324,-0.00002780,-0.00003245,-0.00001490,-0.00002217,-0.00
 001543,0.00001743,-0.00002428,-0.00001636,-0.00003346,-0.00000982,0.00
 000955,0.00001818,0.00000168,-0.00000627,-0.00000782,0.00000154,0.0000
 0312,0.00000283,0.00000240,-0.00000107,-0.00000153,0.00000057,-0.00000
 082,0.00000404,-0.00000375,-0.00000721,-0.00001322,-0.00000075,0.00000
 021,0.00000559,-0.00000306,-0.00000192,-0.00000482,-0.00000016,0.00000
 486,0.00000111,0.00000135,0.00040952,-0.00023401,-0.00010913,-0.000077
 14,0.00007677,0.00003866,-0.00018631,0.00009489,0.00000738,-0.00002716
 ,0.00010207,0.00000661,0.08530580,-0.13521525,-0.01286417,0.03568876,-
 0.03393491,0.02915926,-0.15223350,0.22188005,-0.00016711,-0.00002788,-
 0.00018050,0.00064808,0.00013849,-0.00024116,0.00009214,0.00008073,-0.
 00001294,-0.00002436,0.00005682,-0.00003463,0.00007609,-0.00000574,-0.
 00000322,0.00004118,-0.00001578,0.00001218,-0.00007879,0.00000346,-0.0
 0000289,-0.00000203,0.00002486,0.00001309,0.00000119,0.00000406,0.0000
 0647,-0.00002078,-0.00000849,0.00000948,-0.00013961,-0.00011007,0.0000
 4344,-0.00010294,-0.00009199,0.00000108,-0.00055730,-0.00042013,0.0000
 2932,0.00006236,0.00010351,0.00015675,-0.00002793,-0.00002490,0.000061
 89,0.00005533,-0.00002695,-0.00004061,-0.00001457,0.00000426,0.0000072
 4,-0.00000144,0.00000364,0.00001429,-0.00004256,0.00005691,0.00003646,
 0.00088264,0.00008375,-0.00118844,-0.00039179,-0.00038967,0.00007670,0
 .00037592,0.00005391,0.00013382,-0.00124473,-0.00019771,-0.00004975,-0
 .00009655,0.00007490,0.00007705,0.00002369,0.00007239,-0.00001929,0.00
 009296,0.00039544,-0.00018859,0.00000756,-0.00007008,0.00005379,0.0000
 1553,-0.00001552,-0.00003783,-0.00000032,0.00000197,0.00001223,-0.0000
 0284,0.00000170,0.00000285,-0.00000339,0.00000099,0.00000602,-0.000030
 40,-0.00001250,0.00000274,-0.00002043,0.00002395,-0.00004577,-0.000039
 22,-0.00029592,0.00002798,-0.00005752,-0.00001363,0.00005084,-0.000001
 29,-0.00000180,-0.00000189,0.00001939,-0.00000907,-0.00002512,0.000015
 87,-0.00000635,0.00001214,-0.00000402,0.00000630,-0.00000236,0.0000015
 2,-0.00000069,-0.00000213,0.00000572,-0.00000275,-0.00000144,0.0000799
 8,0.00007887,-0.00004429,0.00021866,-0.00018540,0.00011991,0.00000505,
 0.00002465,0.00005578,0.00003553,0.00000750,0.00001787,0.00002836,-0.0
 0000365,-0.00000445,-0.00000506,-0.00001362,-0.00000944,0.00000295,0.0
 0000629,-0.00000176,0.00000249,-0.00000384,-0.00000107,0.00001180,0.00
 002654,0.00000857,-0.00070727,0.00028403,-0.00067225,0.00009137,0.0000
 3118,0.00037923,0.00041735,0.00021981,0.00001997,0.00105929,0.00023884
 ,0.00054274,0.00109500,0.00067051,-0.00246335,0.00042024,-0.00002761,0
 .00030939,0.01209133,-0.00671368,0.00978190,0.00030367,0.00004330,0.00
 014954,-0.00036697,-0.00082058,0.00014105,-0.00004225,-0.00000800,0.00
 006307,-0.00007563,0.00026067,-0.00059994,0.00037508,-0.00005400,0.000
 43349,0.00001479,-0.00002622,-0.00003655,0.00000611,0.00000009,-0.0000
 0027,-0.00000135,0.00000600,0.00000322,0.00000039,0.00000042,0.0000070
 8,-0.00000911,0.00000688,-0.00002044,-0.00000038,-0.00000207,0.0000016
 8,-0.00000168,-0.00000106,0.00000268,0.00000381,0.00000030,0.00000207,
 -0.00002310,0.00000953,0.00000146,0.00000286,-0.00000058,0.00000278,0.
 00000428,0.00000068,-0.00000192,-0.00000019,-0.00000092,-0.00000034,0.
 00000050,-0.00001917,-0.00000540,0.00000233,0.00000256,0.00000179,-0.0
 0000184,0.00000077,-0.00000041,-0.00000052,0.00000339,-0.00000097,0.00
 003135,0.00003476,0.00006205,0.00000166,-0.00000245,-0.00000666,-0.000
 01526,-0.00001065,-0.00000872,0.00000174,0.00000131,-0.00000333,-0.000
 06390,0.00003165,0.00001278,0.00001838,-0.00000987,0.00001771,-0.00001
 325,0.00001436,0.00000142,0.00000445,-0.00000110,0.00000168,-0.0000001
 9,-0.00000097,-0.00000017,-0.00000019,-0.00000359,-0.00000048,-0.00000
 067,0.00000584,-0.00001570,-0.00000123,-0.00000109,-0.00000162,-0.0000
 0426,-0.00000524,-0.00000868,0.00000820,-0.00000266,0.00000162,-0.0001
 4965,-0.00037564,0.00042992,0.00006626,0.00002109,-0.00020248,-0.00001
 474,0.00009300,-0.00012366,0.00007685,0.00016237,-0.00006591,0.0189242
 6,-0.00972409,-0.07485013,-0.03358665,0.03737002,-0.00449432,-0.017759
 30,0.01906868,0.07886653,0.00003174,0.00014464,-0.00002260,-0.00046908
 ,0.00028434,0.00030487,0.00009849,0.00013513,0.00023039,-0.00000642,0.
 00009386,0.00000662,-0.00004461,0.00018002,0.00000390,-0.00000229,-0.0
 0001204,0.00001477,0.00008905,-0.00002835,0.00002713,0.00003940,-0.000
 08044,-0.00000490,0.00001252,-0.00002842,-0.00002541,0.00007203,0.0000
 2032,-0.00003895,-0.00000766,-0.00015852,-0.00006784,-0.00000242,-0.00
 016739,-0.00024849,0.00031082,-0.00011050,-0.00011820,0.00036885,-0.00
 029991,-0.00002654,-0.00000360,-0.00017453,0.00008152,-0.00002785,0.00
 009712,0.00008815,0.00001953,-0.00006185,-0.00000195,-0.00001818,-0.00
 001654,-0.00004642,-0.00000468,-0.00019942,-0.00003025,-0.00043061,0.0
 0019442,0.00002858,0.00008496,-0.00008793,-0.00009341,0.00016071,-0.00
 003518,0.00009376,0.00007414,-0.00001425,-0.00011468,-0.00042620,-0.00
 005838,-0.00000823,0.00005027,-0.00005354,-0.00003397,0.00000562,-0.00
 006169,0.00002137,-0.00001553,0.00003903,-0.00000073,0.00004485,0.0000
 4395,-0.00003519,-0.00001462,0.00000663,-0.00000743,-0.00000600,-0.000
 00122,-0.00000428,-0.00000118,-0.00003056,0.00001203,0.00013026,0.0000
 3440,-0.00002278,0.00008037,-0.00006039,0.00014691,0.00016074,0.000887
 25,-0.00013119,0.00025535,0.00005458,-0.00025361,-0.00000255,-0.000031
 68,-0.00001037,-0.00003515,0.00001522,0.00007179,-0.00004011,0.0000176
 6,-0.00003900,0.00001044,-0.00001780,0.00000736,-0.00000849,0.00000339
 ,0.00002058,-0.00002582,0.00001523,0.00000691,-0.00036962,-0.00029277,
 0.00022074,-0.00080760,0.00067452,-0.00032570,-0.00006514,-0.00006902,
 -0.00013707,-0.00014523,-0.00002171,-0.00004914,-0.00010422,0.00004766
 ,0.00004678,0.00001174,0.00004711,0.00001567,-0.00001898,-0.00002647,0
 .00002074,-0.00000234,0.00001500,-0.00002064,-0.00004454,-0.00009123,-
 0.00000551,0.00250220,-0.00042197,0.00179647,-0.00047487,-0.00005416,-
 0.00082637,-0.00113536,-0.00074464,-0.00005484,-0.00176813,0.00095465,
 0.00127433,0.00037221,-0.00266107,0.00246002,-0.00112841,-0.00048498,-
 0.00023380,-0.01456382,-0.03097946,-0.02308294,0.00045709,-0.00069684,
 -0.00057672,-0.00040255,0.00075457,0.00074634,0.00033063,-0.00000583,-
 0.00013294,-0.00154500,0.00090523,-0.00138651,-0.00002708,-0.00106144,
 -0.00006058,-0.00000408,0.00007565,0.00008933,-0.00000108,-0.00000359,
 0.00000719,-0.00000936,-0.00002322,-0.00000712,-0.00000088,0.00000208,
 -0.00001834,0.00003838,-0.00002860,0.00006376,0.00000187,0.00000972,-0
 .00000690,0.00000662,0.00000695,-0.00000411,-0.00001606,-0.00000226,-0
 .00000734,0.00009000,-0.00004078,-0.00001685,-0.00000813,0.00000281,-0
 .00000654,-0.00001745,-0.00000364,0.00000730,-0.00000217,0.00001088,0.
 00000141,0.00000058,0.00006270,0.00000965,-0.00000916,-0.00000837,-0.0
 0000636,0.00002055,0.00001450,-0.00000543,-0.00000250,-0.00001525,0.00
 001173,0.00006219,0.00002328,0.00010078,0.00000155,-0.00001564,-0.0000
 2807,-0.00001485,-0.00000288,-0.00000786,-0.00001396,0.00000464,-0.000
 01111,0.00024050,-0.00013637,-0.00011358,-0.00009046,0.00005842,-0.000
 01236,0.00006310,-0.00006589,-0.00001218,-0.00001625,0.00000757,-0.000
 00639,-0.00000370,0.00000393,0.00000824,-0.00000165,0.00001309,-0.0000
 0293,0.00002444,-0.00002408,0.00001211,0.00000506,-0.00000666,0.000009
 35,0.00001867,0.00002382,0.00002809,-0.00002933,0.00000758,-0.00000056
 ,-0.00017039,0.00099913,-0.00201746,-0.00015227,-0.00000478,0.00082004
 ,0.00030262,-0.00031041,0.00052488,-0.00016538,-0.00050133,0.00044421,
 -0.10577002,-0.05841641,-0.04374753,0.00694951,-0.00164897,-0.02002097
 ,0.01445396,0.02795441,0.01809307,0.10264147,0.00002884,0.00024692,0.0
 0010762,0.00008794,0.00041262,0.00002895,0.00018176,0.00019424,0.00028
 477,-0.00003879,0.00012025,0.00002153,0.00003104,0.00019734,-0.0000428
 5,0.00000993,-0.00002068,0.00000197,0.00004374,-0.00000874,0.00004208,
 0.00004420,-0.00007092,-0.00001545,0.00001283,-0.00002575,-0.00002300,
 0.00006134,0.00001262,-0.00002735,-0.00014166,-0.00023964,-0.00006830,
 -0.00008500,-0.00022857,-0.00030544,-0.00021047,-0.00049173,-0.0004133
 6,-0.00003316,-0.00041768,-0.00004785,-0.00005940,-0.00021783,0.000141
 32,0.00003681,0.00008310,0.00004333,0.00000714,-0.00005890,0.00000439,
 -0.00003054,-0.00001829,-0.00004301,-0.00006946,-0.00015459,0.00000182
 ,0.00011940,0.00016071,0.00017371,-0.00008395,-0.00019040,-0.00013061,
 0.00018457,-0.00003396,0.00015258,-0.00021287,0.00006426,0.00035591,0.
 00012543,0.00039821,-0.00035630,0.00001123,-0.00018486,0.00003022,-0.0
 0014571,0.00013599,0.00009489,-0.00002605,-0.00002216,0.00006206,0.000
 07693,0.00004252,-0.00008465,-0.00001260,0.00000706,0.00000130,-0.0000
 1213,-0.00000369,-0.00000062,-0.00000414,-0.00003333,0.00002067,0.0001
 1789,0.00002659,-0.00002518,0.00007222,-0.00005181,0.00012455,0.000144
 29,0.00074947,-0.00016176,0.00022576,0.00004182,-0.00022751,-0.0000000
 4,-0.00004756,-0.00001983,-0.00001868,-0.00000079,0.00005354,-0.000029
 34,0.00001145,-0.00003281,0.00000877,-0.00001585,0.00000637,-0.0000086
 3,0.00000068,0.00002227,-0.00002199,0.00001482,0.00000698,-0.00031433,
 -0.00023133,0.00022831,-0.00076437,0.00074925,-0.00026513,-0.00006994,
 -0.00004878,-0.00010431,-0.00013115,-0.00001419,-0.00003956,-0.0000887
 0,0.00006183,0.00005194,0.00000928,0.00003504,0.00001009,-0.00001734,-
 0.00002237,0.00002033,0.00000132,0.00001311,-0.00002505,-0.00004086,-0
 .00006756,0.00000264,0.00228523,-0.00058336,0.00162695,-0.00044406,0.0
 0000301,-0.00073221,-0.00110155,-0.00062918,-0.00000068,-0.00202997,0.
 00050816,0.00028294,-0.00059593,-0.00367805,0.00279205,-0.00083470,-0.
 00021337,-0.00034760,-0.02052644,-0.01480117,-0.02147225,0.00029962,-0
 .00037544,-0.00030609,0.00007496,0.00026185,0.00024958,0.00023031,0.00
 003510,-0.00006537,-0.00061152,0.00153374,-0.00062671,0.00014308,-0.00
 052923,-0.00011287,0.00000938,0.00005476,0.00006920,0.00000540,-0.0000
 0645,0.00000990,-0.00000971,-0.00001852,-0.00000603,-0.00000280,0.0000
 0300,-0.00001676,0.00003580,-0.00002987,0.00005496,0.00000108,0.000010
 79,-0.00000571,0.00000594,0.00000619,-0.00000214,-0.00001381,-0.000001
 88,-0.00000646,0.00007801,-0.00004067,-0.00001692,-0.00000630,0.000001
 84,-0.00000454,-0.00001486,-0.00000174,0.00000543,-0.00000395,0.000012
 94,0.00000255,0.00000270,0.00004527,0.00000535,-0.00000877,-0.00000648
 ,-0.00000553,0.00002248,0.00001791,-0.00000609,-0.00000306,-0.00001243
 ,0.00001116,0.00010202,0.00004082,0.00017064,0.00000188,-0.00001817,-0
 .00003535,-0.00002877,-0.00001086,-0.00001582,-0.00001760,0.00001086,-
 0.00001966,0.00018150,-0.00015513,-0.00013029,-0.00007809,0.00006910,-
 0.00000158,0.00005272,-0.00006710,-0.00001124,-0.00001200,0.00001010,-
 0.00000368,-0.00000486,0.00000204,0.00000883,-0.00000280,0.00001486,-0
 .00000673,0.00001913,-0.00003291,0.00000304,0.00000486,-0.00000400,0.0
 0000678,0.00001565,0.00002028,0.00002396,-0.00002330,0.00000808,0.0000
 0164,0.00003145,0.00069223,-0.00182033,-0.00018986,0.00005982,0.000750
 03,0.00019504,-0.00022867,0.00045731,-0.00017141,-0.00042109,0.0004086
 0,-0.05786903,-0.16456593,-0.07428587,0.00129448,0.01890822,-0.0074965
 2,0.01482687,-0.05654301,-0.04015254,0.06571418,0.21978580,-0.00005366
 ,0.00011549,-0.00001073,0.00033111,0.00025387,-0.00007908,0.00013454,0
 .00015060,0.00010644,-0.00003249,0.00008720,-0.00000877,0.00005034,0.0
 0009504,-0.00003241,0.00002474,-0.00001664,0.00001069,-0.00000223,-0.0
 0001340,0.00000898,0.00002040,-0.00002268,-0.00000167,0.00000676,-0.00
 001035,-0.00000723,0.00001837,-0.00000026,-0.00000776,-0.00013108,-0.0
 0017080,0.00000196,-0.00007770,-0.00014797,-0.00013248,-0.00028030,-0.
 00058846,-0.00006942,-0.00004140,-0.00016592,0.00005529,-0.00004289,-0
 .00011938,0.00010675,0.00004641,0.00002496,-0.00000570,-0.00000374,-0.
 00002702,0.00000620,-0.00001501,-0.00000638,-0.00001028,-0.00005520,-0
 .00004613,0.00002623,-0.00012733,0.00041958,-0.00008165,-0.00002935,-0
 .00025038,-0.00008879,0.00049260,0.00006948,0.00010974,-0.00027207,0.0
 0015513,0.00024941,0.00010518,0.00024724,-0.00023507,0.00000290,-0.000
 09272,0.00003020,-0.00008488,0.00005505,0.00001282,-0.00001065,-0.0000
 4417,0.00006586,0.00004732,0.00001160,-0.00006682,-0.00000673,0.000005
 67,0.00000859,-0.00000780,0.00000019,0.00000102,-0.00000393,-0.0000162
 9,0.00001328,0.00004066,0.00000796,-0.00001247,0.00002449,-0.00001011,
 0.00002355,0.00005575,0.00023640,-0.00007990,0.00008010,0.00001259,-0.
 00008889,-0.00000166,-0.00002585,-0.00001378,0.00000043,-0.00000770,0.
 00001018,-0.00000572,0.00000204,-0.00000923,0.00000306,-0.00000464,0.0
 0000163,-0.00000371,-0.00000012,0.00001137,-0.00000802,0.00000613,0.00
 000285,-0.00010851,-0.00007158,0.00010904,-0.00024376,0.00020695,0.000
 00921,-0.00003489,-0.00001550,-0.00001002,-0.00004258,-0.00000497,-0.0
 0000441,-0.00002576,0.00002868,0.00002917,-0.00000105,0.00000897,-0.00
 000340,-0.00000745,-0.00000796,0.00001053,0.00000214,0.00000409,-0.000
 01360,-0.00001120,-0.00001753,0.00001010,0.00081051,-0.00022296,0.0001
 6399,-0.00019663,0.00001989,-0.00013395,-0.00036176,-0.00018971,0.0000
 7694,0.00018232,0.00032638,-0.00005744,-0.00057365,-0.00001909,0.00038
 934,0.00026091,-0.00036853,0.00043639,-0.00388295,-0.00747368,0.004142
 30,0.00067990,-0.00019221,-0.00000616,-0.00115757,-0.00015745,0.001039
 25,0.00010917,-0.00006460,-0.00000837,-0.00060530,0.00096481,-0.001300
 53,0.00039560,-0.00088492,0.00005834,0.00001414,0.00001329,0.00000878,
 0.00000482,-0.00000085,0.00000298,-0.00000675,-0.00000670,-0.00000026,
 0.00000071,0.00000174,-0.00000147,0.00001181,-0.00000876,0.00001170,0.
 00000082,0.00000345,-0.00000214,0.00000180,0.00000305,0.00000138,-0.00
 000482,-0.00000111,-0.00000177,0.00002385,-0.00001399,-0.00000947,-0.0
 0000044,0.00000094,0.00000038,-0.00000507,-0.00000101,0.00000182,-0.00
 000215,0.00000662,0.00000047,0.00000141,0.00001108,-0.00000189,-0.0000
 0232,-0.00000143,-0.00000148,0.00000982,0.00000965,-0.00000370,-0.0000
 0205,-0.00000446,0.00000559,0.00005722,0.00004167,0.00009367,0.0000024
 3,-0.00000922,-0.00001900,-0.00002029,-0.00001115,-0.00000910,-0.00000
 575,0.00000151,-0.00000819,0.00004467,-0.00005475,-0.00007360,-0.00003
 488,0.00002802,0.00002039,0.00002246,-0.00002469,-0.00000703,-0.000004
 04,0.00000438,-0.00000135,-0.00000311,0.00000072,0.00000569,-0.0000019
 4,0.00000403,-0.00000368,0.00001569,-0.00001016,-0.00001702,0.00000166
 ,-0.00000608,0.00000391,0.00000612,0.00000918,0.00000609,-0.00000785,0
 .00000195,0.00000261,-0.00021922,0.00011174,-0.00072774,-0.00005097,0.
 00006522,0.00034653,0.00012162,-0.00005029,0.00018503,-0.00003349,-0.0
 0012547,0.00017835,-0.04478918,-0.07663527,-0.13497553,-0.02655586,-0.
 02161934,-0.07193879,0.00967370,-0.03490783,-0.00656354,0.06636031,0.1
 4113643,0.20873375\\0.00000053,0.00000118,0.00000553,0.00000161,0.0000
 0067,0.00000485,0.00000341,-0.00000026,0.00000389,0.00000234,0.,0.0000
 0325,0.00000042,0.00000086,0.00000421,0.00000379,-0.00000063,0.0000029
 1,0.00000072,0.00000063,0.00000365,0.00000141,0.00000111,0.00000692,0.
 00000321,-0.00000006,0.00000449,-0.00000043,0.00000088,0.00000290,0.00
 000298,-0.00000050,0.00000249,0.00000472,-0.00000044,0.00000524,0.0000
 0195,0.00000092,0.00000632,-0.00000145,0.00000189,0.00000607,-0.000000
 25,0.00000126,0.00000518,0.00000215,-0.00000051,0.00000164,0.00000201,
 -0.00000003,0.00000258,0.00000359,-0.00000097,0.00000125,0.00000067,-0
 .00000008,0.00000051,0.00000295,0.00000027,0.00000594,0.00000445,-0.00
 000019,0.00000578,0.00000237,0.00000028,0.00000454,0.00000283,0.000000
 69,0.00000708,-0.00000153,0.00000242,0.00000784,-0.00000069,0.00000242
 ,0.00000901,-0.00000098,0.00000227,0.00000795,-0.00000296,0.00000298,0
 .00000810,-0.00000157,0.00000162,0.00000413,-0.00000281,0.00000191,0.0
 0000377,-0.00000135,0.00000084,0.00000256,-0.00000183,0.00000178,0.000
 00480,-0.00000047,-0.00000100,-0.00000501,0.00000091,-0.00000105,-0.00
 000312,-0.00000013,-0.00000008,-0.00000152,-0.00000303,0.00000037,-0.0
 0000281,-0.00000246,-0.00000030,-0.00000483,0.00000048,-0.00000040,-0.
 00000015,0.00000110,-0.00000104,-0.00000270,-0.00000026,-0.00000129,-0
 .00000560,-0.00000442,0.00000091,-0.00000275,-0.00000286,-0.00000041,-
 0.00000584,-0.00000210,0.00000033,-0.00000146,-0.00000062,-0.00000050,
 -0.00000251,0.00000243,-0.00000160,-0.00000360,0.00000028,-0.00000169,
 -0.00000662,-0.00000402,-0.00000027,-0.00000557,-0.00000268,0.00000043
 ,-0.00000244,-0.00000405,0.00000080,-0.00000265,-0.00000209,0.00000055
 ,-0.00000095,-0.00000151,-0.00000033,-0.00000360,0.00000037,-0.0000003
 6,-0.00000131,0.00000210,-0.00000089,-0.00000029,-0.00000067,-0.000000
 19,-0.00000197,-0.00000120,0.00000072,0.00000102,-0.00000108,0.0000006
 9,0.00000222,-0.00000254,0.00000127,0.00000108,-0.00000189,0.00000162,
 0.00000378,0.00000024,0.00000039,0.00000194,-0.00000375,0.00000193,0.0
 0000285,-0.00000288,0.00000112,0.00000025,-0.00000314,0.00000207,0.000
 00428,-0.00000380,0.00000270,0.00000556,0.00000401,-0.00000189,-0.0000
 0211,0.00000373,-0.00000133,-0.00000055,0.00000433,-0.00000209,-0.0000
 0242,0.00000524,-0.00000241,-0.00000242,0.00000174,-0.00000246,-0.0000
 0753,0.00000121,-0.00000238,-0.00000829,0.00000303,-0.00000265,-0.0000
 0667,0.00000195,-0.00000278,-0.00000870,-0.00000357,-0.00000058,-0.000
 00780,-0.00000261,-0.00000107,-0.00000823,-0.00000463,-0.00000032,-0.0
 0000812,-0.00000452,0.00000002,-0.00000812,-0.00000049,-0.00000054,-0.
 00000290,0.00000048,-0.00000113,-0.00000396,0.00000045,-0.00000053,-0.
 00000148,-0.00000146,-0.00000012,-0.00000265,0.00000654,-0.00000121,0.
 00000452,0.00000752,-0.00000128,0.00000572,0.00000647,-0.00000141,0.00
 000356,0.00000696,-0.00000158,0.00000364,-0.00000231,0.00000009,-0.000
 00387,-0.00000040,-0.00000192,-0.00000700,-0.00000087,-0.00000181,-0.0
 0000903,0.00000007,-0.00000245,-0.00000989,-0.00000227,-0.00000151,-0.
 00000933,-0.00000051,-0.00000190,-0.00000867,0.00000163,-0.00000207,-0
 .00000644,0.00000188,-0.00000211,-0.00000596,0.00000187,-0.00000179,-0
 .00000486,0.00000254,-0.00000263,-0.00000747,-0.00000500,0.00000249,0.
 00000316,-0.00000663,0.00000287,0.00000222,-0.00000533,0.00000304,0.00
 000515,-0.00000440,0.00000236,0.00000271,-0.00000142,0.00000179,0.0000
 0520,0.00000003,0.00000116,0.00000485,-0.00000087,0.00000197,0.0000071
 1,-0.00000288,0.00000239,0.00000555\\\@


 I DON'T PRETEND TO UNDERSTAND THE UNIVERSE --
 IT'S A GREAT DEAL BIGGER THAN I AM.
       -- ATTR. TO WILLIAM ALLINGHAM (1828-89)
 Job cpu time:       5 days  0 hours 50 minutes 16.4 seconds.
 Elapsed time:       0 days  5 hours  4 minutes 28.2 seconds.
 File lengths (MBytes):  RWF=   9656 Int=      0 D2E=      0 Chk=    104 Scr=      1
 Normal termination of Gaussian 16 at Sat Jun  1 18:16:44 2019.
