 Entering Gaussian System, Link 0=g16
 Input=clay_new-glu_gluC6-BCUR-Na3_1Me2O-bisCF3-ts-b3lyp_d3bj-631gd-pcm_thf.gjf
 Output=clay_new-glu_gluC6-BCUR-Na3_1Me2O-bisCF3-ts-b3lyp_d3bj-631gd-pcm_thf.out
 Initial command:
 /home/ekwan/sw/g16/l1.exe "/scratch/users/ekwan/clay_new-glu_gluC6-BCUR-Na3_1Me2O-bisCF3-ts-b3lyp_d3bj-631gd-pcm_thf/Gau-36171.inp" -scrdir="/scratch/users/ekwan/clay_new-glu_gluC6-BCUR-Na3_1Me2O-bisCF3-ts-b3lyp_d3bj-631gd-pcm_thf/"
 Entering Link 1 = /home/ekwan/sw/g16/l1.exe PID=     36172.
  
 Copyright (c) 1988,1990,1992,1993,1995,1998,2003,2009,2016,
            Gaussian, Inc.  All Rights Reserved.
  
 This is part of the Gaussian(R) 16 program.  It is based on
 the Gaussian(R) 09 system (copyright 2009, Gaussian, Inc.),
 the Gaussian(R) 03 system (copyright 2003, Gaussian, Inc.),
 the Gaussian(R) 98 system (copyright 1998, Gaussian, Inc.),
 the Gaussian(R) 94 system (copyright 1995, Gaussian, Inc.),
 the Gaussian 92(TM) system (copyright 1992, Gaussian, Inc.),
 the Gaussian 90(TM) system (copyright 1990, Gaussian, Inc.),
 the Gaussian 88(TM) system (copyright 1988, Gaussian, Inc.),
 the Gaussian 86(TM) system (copyright 1986, Carnegie Mellon
 University), and the Gaussian 82(TM) system (copyright 1983,
 Carnegie Mellon University). Gaussian is a federally registered
 trademark of Gaussian, Inc.
  
 This software contains proprietary and confidential information,
 including trade secrets, belonging to Gaussian, Inc.
  
 This software is provided under written license and may be
 used, copied, transmitted, or stored only in accord with that
 written license.
  
 The following legend is applicable only to US Government
 contracts under FAR:
  
                    RESTRICTED RIGHTS LEGEND
  
 Use, reproduction and disclosure by the US Government is
 subject to restrictions as set forth in subparagraphs (a)
 and (c) of the Commercial Computer Software - Restricted
 Rights clause in FAR 52.227-19.
  
 Gaussian, Inc.
 340 Quinnipiac St., Bldg. 40, Wallingford CT 06492
  
  
 ---------------------------------------------------------------
 Warning -- This program may not be used in any manner that
 competes with the business of Gaussian, Inc. or will provide
 assistance to any competitor of Gaussian, Inc.  The licensee
 of this program is prohibited from giving any competitor of
 Gaussian, Inc. access to this program.  By using this program,
 the user acknowledges that Gaussian, Inc. is engaged in the
 business of creating and licensing software in the field of
 computational chemistry and represents and warrants to the
 licensee that it is not a competitor of Gaussian, Inc. and that
 it will not use this program in any manner prohibited above.
 ---------------------------------------------------------------
  

 Cite this work as:
 Gaussian 16, Revision A.03,
 M. J. Frisch, G. W. Trucks, H. B. Schlegel, G. E. Scuseria, 
 M. A. Robb, J. R. Cheeseman, G. Scalmani, V. Barone, 
 G. A. Petersson, H. Nakatsuji, X. Li, M. Caricato, A. V. Marenich, 
 J. Bloino, B. G. Janesko, R. Gomperts, B. Mennucci, H. P. Hratchian, 
 J. V. Ortiz, A. F. Izmaylov, J. L. Sonnenberg, D. Williams-Young, 
 F. Ding, F. Lipparini, F. Egidi, J. Goings, B. Peng, A. Petrone, 
 T. Henderson, D. Ranasinghe, V. G. Zakrzewski, J. Gao, N. Rega, 
 G. Zheng, W. Liang, M. Hada, M. Ehara, K. Toyota, R. Fukuda, 
 J. Hasegawa, M. Ishida, T. Nakajima, Y. Honda, O. Kitao, H. Nakai, 
 T. Vreven, K. Throssell, J. A. Montgomery, Jr., J. E. Peralta, 
 F. Ogliaro, M. J. Bearpark, J. J. Heyd, E. N. Brothers, K. N. Kudin, 
 V. N. Staroverov, T. A. Keith, R. Kobayashi, J. Normand, 
 K. Raghavachari, A. P. Rendell, J. C. Burant, S. S. Iyengar, 
 J. Tomasi, M. Cossi, J. M. Millam, M. Klene, C. Adamo, R. Cammi, 
 J. W. Ochterski, R. L. Martin, K. Morokuma, O. Farkas, 
 J. B. Foresman, and D. J. Fox, Gaussian, Inc., Wallingford CT, 2016.
 
 ******************************************
 Gaussian 16:  AS64L-G16RevA.03 25-Dec-2016
                30-May-2019 
 ******************************************
 %mem=48GB
 %nprocshared=32
 Will use up to   32 processors via shared memory.
 ----------------------------------------------------------------------
 #p opt=(ts,noeigentest,calcfc,maxstep=5,modredundant,recalc=30) freq=n
 oraman b3lyp 6-31g* pop=none scrf=(solvent=tetrahydrofuran,pcm) empiri
 caldispersion=gd3bj
 ----------------------------------------------------------------------
 1/5=1,8=5,10=4,11=1,18=120,26=3,38=1,71=30/1,3;
 2/9=110,12=2,17=6,18=5,40=1/2;
 3/5=1,6=6,7=1,11=2,25=1,30=1,70=2201,71=2,72=20,74=-5,124=41,140=1/1,2,3;
 4//1;
 5/5=2,38=5,53=20/2;
 8/6=4,10=90,11=11/1;
 11/6=1,8=1,9=11,15=111,16=1/1,2,10;
 10/6=1,13=1/2;
 7/10=1,18=20,25=1/1,2,3,16;
 1/5=1,8=5,10=4,11=1,18=20,26=3,71=30/3(2);
 2/9=110/2;
 99//99;
 2/9=110/2;
 3/5=1,6=6,7=1,11=2,25=1,30=1,70=2205,71=1,72=20,74=-5,124=41/1,2,3;
 4/5=5,16=3,69=1/1;
 5/5=2,38=5,53=20/2;
 7//1,2,3,16;
 1/5=1,8=5,11=1,18=20,26=3,71=30/3(-5);
 2/9=110/2;
 99/9=1/99;
 Leave Link    1 at Thu May 30 18:50:06 2019, MaxMem=  6442450944 cpu:               5.7 elap:               0.2
 (Enter /home/ekwan/sw/g16/l101.exe)
 -----
 title
 -----
 Symbolic Z-matrix:
 Charge =  0 Multiplicity = 1
 C                     0.7019   -3.48461   0.82617 
 C                    -0.36345  -2.66121   0.09671 
 C                    -1.23377  -1.92651   1.11932 
 C                     0.55555  -1.7831    2.70911 
 C                     1.48268  -2.56995   1.77322 
 H                    -1.93153  -1.26016   0.60976 
 H                     0.14461  -1.89482  -0.5035 
 H                     0.20064  -4.2767    1.39726 
 H                     0.04344  -2.48614   3.3815 
 H                     2.04572  -1.85499   1.16997 
 O                    -0.44639  -1.0835    1.92649 
 O                    -1.95078  -2.88286   1.86235 
 O                    -1.22241  -3.42564  -0.73533 
 O                     1.56696  -4.07503  -0.1477 
 O                     2.38618  -3.35727   2.55235 
 C                     1.30099  -0.71358   3.53239 
 H                     1.84298  -1.29292   4.32454 
 H                     0.48813  -0.17995   4.09312 
 O                     2.09136   0.10163   2.78965 
 C                    -0.74307  -3.62538  -2.05803 
 H                    -0.38871  -2.68022  -2.49701 
 H                     0.07772  -4.34779  -2.08954 
 H                    -1.58969  -3.99197  -2.64336 
 C                     2.00194  -5.38248   0.19546 
 H                     2.56507  -5.38199   1.13418 
 H                     1.14918  -6.07144   0.2889 
 H                     2.64527  -5.72795  -0.61869 
 C                     3.67514  -2.7538    2.66044 
 H                     4.23703  -2.8692    1.72329 
 H                     3.58412  -1.68384   2.88106 
 H                     4.2054   -3.27273   3.46504 
 C                     3.45561   2.30615  -0.33906 
 C                     2.40638   1.92836   0.7023 
 C                     1.46092   0.8443    0.21744 
 C                     2.9977    0.0852   -1.45359 
 C                     4.07062   1.02159  -0.89741 
 H                     0.69278   0.51936   0.90847 
 H                     2.90237   1.44885   1.55328 
 H                     3.00942   2.86834  -1.17272 
 H                     2.51452   0.54758  -2.31726 
 H                     4.60714   0.51007  -0.09174 
 O                     1.94682  -0.16582  -0.47651 
 O                     0.25076   0.32152  -2.89737 
 O                     1.70096   3.08288   1.1484 
 O                     4.50869   3.05745   0.23936 
 O                     4.94027   1.32016  -1.97689 
 C                     3.52828  -1.2689   -1.87264 
 H                     4.10301  -1.14274  -2.80162 
 H                     2.67651  -1.93241  -2.07912 
 O                     4.34252  -1.80204  -0.84834 
 S                    -0.38023   1.38158  -2.10435 
 O                    -0.77036   2.62732  -2.79631 
 O                     0.4886    1.84409  -0.8908 
 C                    -1.84973   0.69209  -1.35386 
 C                    -2.45129  -0.41527  -1.94758 
 C                    -2.40204   1.31555  -0.23949 
 C                    -3.64098  -0.89925  -1.40952 
 H                    -1.99031  -0.89395  -2.80117 
 C                    -3.59521   0.81793   0.28209 
 H                    -1.91906   2.1735    0.21172 
 C                    -4.22488  -0.27992  -0.30314 
 H                    -5.1481   -0.66544   0.11354 
 C                     1.04586   2.91565   2.43103 
 H                    -0.03381   2.79477   2.27595 
 H                     1.44219   2.01599   2.92451 
 H                     1.23019   3.82544   3.00933 
 C                     4.32844   4.46532   0.20049 
 H                     4.14306   4.80954  -0.82844 
 H                     3.50053   4.7859    0.84247 
 H                     5.25954   4.91055   0.55911 
 C                     6.31807   1.12743  -1.67395 
 H                     6.64132   1.79725  -0.8691 
 H                     6.51203   0.08654  -1.38377 
 H                     6.8735    1.35823  -2.58634 
 C                     4.76202  -3.12312  -1.14602 
 H                     5.37489  -3.46175  -0.3078 
 H                     3.89713  -3.78831  -1.2547 
 H                     5.36198  -3.15322  -2.06823 
 C                    -2.86074  -2.3028    2.78798 
 H                    -3.43441  -3.12498   3.22118 
 H                    -2.33661  -1.76236   3.5846 
 H                    -3.54852  -1.60624   2.2898 
 Na                    0.37526   4.11217  -0.50274 
 O                    -1.80726   4.51029   0.12081 
 C                    -2.16863   5.07185   1.3829 
 H                    -3.04177   4.55539   1.79666 
 H                    -1.31621   4.93652   2.0515 
 H                    -2.39106   6.14183   1.28196 
 C                    -2.85089   4.63411  -0.84869 
 H                    -3.06954   5.69129  -1.04647 
 H                    -2.4976    4.14755  -1.75887 
 H                    -3.76072   4.13681  -0.4929 
 C                    -4.29373  -2.13304  -1.97516 
 F                    -3.71274  -2.5315   -3.12602 
 F                    -5.60308  -1.91253  -2.23462 
 F                    -4.23339  -3.16258  -1.10903 
 C                    -4.2082    1.50041   1.47411 
 F                    -4.9857    0.66293   2.18897 
 F                    -4.98632   2.5479    1.10238 
 F                    -3.26302   1.9958    2.30274 
 
 Add virtual bond connecting atoms O53        and C34        Dist= 3.37D+00.
 Add virtual bond connecting atoms H38        and O19        Dist= 3.78D+00.
 Add virtual bond connecting atoms H65        and O19        Dist= 3.83D+00.
 The following ModRedundant input section has been read:
 
 ITRead=  0  0  0  0  0  0  0  0  0  0  0  0  0  0  0  0  0  0  0  0
 ITRead=  0  0  0  0  0  0  0  0  0  0  0  0  0  0  0  0  0  0  0  0
 ITRead=  0  0  0  0  0  0  0  0  0  0  0  0  0  0  0  0  0  0  0  0
 ITRead=  0  0  0  0  0  0  0  0  0  0  0  0  0  0  0  0  0  0  0  0
 ITRead=  0  0  0  0  0  0  0  0  0  0  0  0  0  0  0  0  0  0  0  0
 MicOpt= -1 -1 -1 -1 -1 -1 -1 -1 -1 -1 -1 -1 -1 -1 -1 -1 -1 -1 -1 -1
 MicOpt= -1 -1 -1 -1 -1 -1 -1 -1 -1 -1 -1 -1 -1 -1 -1 -1 -1 -1 -1 -1
 MicOpt= -1 -1 -1 -1 -1 -1 -1 -1 -1 -1 -1 -1 -1 -1 -1 -1 -1 -1 -1 -1
 MicOpt= -1 -1 -1 -1 -1 -1 -1 -1 -1 -1 -1 -1 -1 -1 -1 -1 -1 -1 -1 -1
 MicOpt= -1 -1 -1 -1 -1 -1 -1 -1 -1 -1 -1 -1 -1 -1 -1 -1 -1 -1 -1 -1
 NAtoms=    100 NQM=      100 NQMF=       0 NMMI=      0 NMMIF=      0
                NMic=       0 NMicF=      0.
                    Isotopes and Nuclear Properties:
 (Nuclear quadrupole moments (NQMom) in fm**2, nuclear magnetic moments (NMagM)
  in nuclear magnetons)

  Atom         1           2           3           4           5           6           7           8           9          10
 IAtWgt=          12          12          12          12          12           1           1           1           1           1
 AtmWgt=  12.0000000  12.0000000  12.0000000  12.0000000  12.0000000   1.0078250   1.0078250   1.0078250   1.0078250   1.0078250
 NucSpn=           0           0           0           0           0           1           1           1           1           1
 AtZEff=   0.0000000   0.0000000   0.0000000   0.0000000   0.0000000   0.0000000   0.0000000   0.0000000   0.0000000   0.0000000
 NQMom=    0.0000000   0.0000000   0.0000000   0.0000000   0.0000000   0.0000000   0.0000000   0.0000000   0.0000000   0.0000000
 NMagM=    0.0000000   0.0000000   0.0000000   0.0000000   0.0000000   2.7928460   2.7928460   2.7928460   2.7928460   2.7928460
 AtZNuc=   6.0000000   6.0000000   6.0000000   6.0000000   6.0000000   1.0000000   1.0000000   1.0000000   1.0000000   1.0000000

  Atom        11          12          13          14          15          16          17          18          19          20
 IAtWgt=          16          16          16          16          16          12           1           1          16          12
 AtmWgt=  15.9949146  15.9949146  15.9949146  15.9949146  15.9949146  12.0000000   1.0078250   1.0078250  15.9949146  12.0000000
 NucSpn=           0           0           0           0           0           0           1           1           0           0
 AtZEff=   0.0000000   0.0000000   0.0000000   0.0000000   0.0000000   0.0000000   0.0000000   0.0000000   0.0000000   0.0000000
 NQMom=    0.0000000   0.0000000   0.0000000   0.0000000   0.0000000   0.0000000   0.0000000   0.0000000   0.0000000   0.0000000
 NMagM=    0.0000000   0.0000000   0.0000000   0.0000000   0.0000000   0.0000000   2.7928460   2.7928460   0.0000000   0.0000000
 AtZNuc=   8.0000000   8.0000000   8.0000000   8.0000000   8.0000000   6.0000000   1.0000000   1.0000000   8.0000000   6.0000000

  Atom        21          22          23          24          25          26          27          28          29          30
 IAtWgt=           1           1           1          12           1           1           1          12           1           1
 AtmWgt=   1.0078250   1.0078250   1.0078250  12.0000000   1.0078250   1.0078250   1.0078250  12.0000000   1.0078250   1.0078250
 NucSpn=           1           1           1           0           1           1           1           0           1           1
 AtZEff=   0.0000000   0.0000000   0.0000000   0.0000000   0.0000000   0.0000000   0.0000000   0.0000000   0.0000000   0.0000000
 NQMom=    0.0000000   0.0000000   0.0000000   0.0000000   0.0000000   0.0000000   0.0000000   0.0000000   0.0000000   0.0000000
 NMagM=    2.7928460   2.7928460   2.7928460   0.0000000   2.7928460   2.7928460   2.7928460   0.0000000   2.7928460   2.7928460
 AtZNuc=   1.0000000   1.0000000   1.0000000   6.0000000   1.0000000   1.0000000   1.0000000   6.0000000   1.0000000   1.0000000

  Atom        31          32          33          34          35          36          37          38          39          40
 IAtWgt=           1          12          12          12          12          12           1           1           1           1
 AtmWgt=   1.0078250  12.0000000  12.0000000  12.0000000  12.0000000  12.0000000   1.0078250   1.0078250   1.0078250   1.0078250
 NucSpn=           1           0           0           0           0           0           1           1           1           1
 AtZEff=   0.0000000   0.0000000   0.0000000   0.0000000   0.0000000   0.0000000   0.0000000   0.0000000   0.0000000   0.0000000
 NQMom=    0.0000000   0.0000000   0.0000000   0.0000000   0.0000000   0.0000000   0.0000000   0.0000000   0.0000000   0.0000000
 NMagM=    2.7928460   0.0000000   0.0000000   0.0000000   0.0000000   0.0000000   2.7928460   2.7928460   2.7928460   2.7928460
 AtZNuc=   1.0000000   6.0000000   6.0000000   6.0000000   6.0000000   6.0000000   1.0000000   1.0000000   1.0000000   1.0000000

  Atom        41          42          43          44          45          46          47          48          49          50
 IAtWgt=           1          16          16          16          16          16          12           1           1          16
 AtmWgt=   1.0078250  15.9949146  15.9949146  15.9949146  15.9949146  15.9949146  12.0000000   1.0078250   1.0078250  15.9949146
 NucSpn=           1           0           0           0           0           0           0           1           1           0
 AtZEff=   0.0000000   0.0000000   0.0000000   0.0000000   0.0000000   0.0000000   0.0000000   0.0000000   0.0000000   0.0000000
 NQMom=    0.0000000   0.0000000   0.0000000   0.0000000   0.0000000   0.0000000   0.0000000   0.0000000   0.0000000   0.0000000
 NMagM=    2.7928460   0.0000000   0.0000000   0.0000000   0.0000000   0.0000000   0.0000000   2.7928460   2.7928460   0.0000000
 AtZNuc=   1.0000000   8.0000000   8.0000000   8.0000000   8.0000000   8.0000000   6.0000000   1.0000000   1.0000000   8.0000000

  Atom        51          52          53          54          55          56          57          58          59          60
 IAtWgt=          32          16          16          12          12          12          12           1          12           1
 AtmWgt=  31.9720718  15.9949146  15.9949146  12.0000000  12.0000000  12.0000000  12.0000000   1.0078250  12.0000000   1.0078250
 NucSpn=           0           0           0           0           0           0           0           1           0           1
 AtZEff=   0.0000000   0.0000000   0.0000000   0.0000000   0.0000000   0.0000000   0.0000000   0.0000000   0.0000000   0.0000000
 NQMom=    0.0000000   0.0000000   0.0000000   0.0000000   0.0000000   0.0000000   0.0000000   0.0000000   0.0000000   0.0000000
 NMagM=    0.0000000   0.0000000   0.0000000   0.0000000   0.0000000   0.0000000   0.0000000   2.7928460   0.0000000   2.7928460
 AtZNuc=  16.0000000   8.0000000   8.0000000   6.0000000   6.0000000   6.0000000   6.0000000   1.0000000   6.0000000   1.0000000

  Atom        61          62          63          64          65          66          67          68          69          70
 IAtWgt=          12           1          12           1           1           1          12           1           1           1
 AtmWgt=  12.0000000   1.0078250  12.0000000   1.0078250   1.0078250   1.0078250  12.0000000   1.0078250   1.0078250   1.0078250
 NucSpn=           0           1           0           1           1           1           0           1           1           1
 AtZEff=   0.0000000   0.0000000   0.0000000   0.0000000   0.0000000   0.0000000   0.0000000   0.0000000   0.0000000   0.0000000
 NQMom=    0.0000000   0.0000000   0.0000000   0.0000000   0.0000000   0.0000000   0.0000000   0.0000000   0.0000000   0.0000000
 NMagM=    0.0000000   2.7928460   0.0000000   2.7928460   2.7928460   2.7928460   0.0000000   2.7928460   2.7928460   2.7928460
 AtZNuc=   6.0000000   1.0000000   6.0000000   1.0000000   1.0000000   1.0000000   6.0000000   1.0000000   1.0000000   1.0000000

  Atom        71          72          73          74          75          76          77          78          79          80
 IAtWgt=          12           1           1           1          12           1           1           1          12           1
 AtmWgt=  12.0000000   1.0078250   1.0078250   1.0078250  12.0000000   1.0078250   1.0078250   1.0078250  12.0000000   1.0078250
 NucSpn=           0           1           1           1           0           1           1           1           0           1
 AtZEff=   0.0000000   0.0000000   0.0000000   0.0000000   0.0000000   0.0000000   0.0000000   0.0000000   0.0000000   0.0000000
 NQMom=    0.0000000   0.0000000   0.0000000   0.0000000   0.0000000   0.0000000   0.0000000   0.0000000   0.0000000   0.0000000
 NMagM=    0.0000000   2.7928460   2.7928460   2.7928460   0.0000000   2.7928460   2.7928460   2.7928460   0.0000000   2.7928460
 AtZNuc=   6.0000000   1.0000000   1.0000000   1.0000000   6.0000000   1.0000000   1.0000000   1.0000000   6.0000000   1.0000000

  Atom        81          82          83          84          85          86          87          88          89          90
 IAtWgt=           1           1          23          16          12           1           1           1          12           1
 AtmWgt=   1.0078250   1.0078250  22.9897697  15.9949146  12.0000000   1.0078250   1.0078250   1.0078250  12.0000000   1.0078250
 NucSpn=           1           1           3           0           0           1           1           1           0           1
 AtZEff=   0.0000000   0.0000000   0.0000000   0.0000000   0.0000000   0.0000000   0.0000000   0.0000000   0.0000000   0.0000000
 NQMom=    0.0000000   0.0000000  10.4000000   0.0000000   0.0000000   0.0000000   0.0000000   0.0000000   0.0000000   0.0000000
 NMagM=    2.7928460   2.7928460   2.2175200   0.0000000   0.0000000   2.7928460   2.7928460   2.7928460   0.0000000   2.7928460
 AtZNuc=   1.0000000   1.0000000  11.0000000   8.0000000   6.0000000   1.0000000   1.0000000   1.0000000   6.0000000   1.0000000

  Atom        91          92          93          94          95          96          97          98          99         100
 IAtWgt=           1           1          12          19          19          19          12          19          19          19
 AtmWgt=   1.0078250   1.0078250  12.0000000  18.9984033  18.9984033  18.9984033  12.0000000  18.9984033  18.9984033  18.9984033
 NucSpn=           1           1           0           1           1           1           0           1           1           1
 AtZEff=   0.0000000   0.0000000   0.0000000   0.0000000   0.0000000   0.0000000   0.0000000   0.0000000   0.0000000   0.0000000
 NQMom=    0.0000000   0.0000000   0.0000000   0.0000000   0.0000000   0.0000000   0.0000000   0.0000000   0.0000000   0.0000000
 NMagM=    2.7928460   2.7928460   0.0000000   2.6288670   2.6288670   2.6288670   0.0000000   2.6288670   2.6288670   2.6288670
 AtZNuc=   1.0000000   1.0000000   6.0000000   9.0000000   9.0000000   9.0000000   6.0000000   9.0000000   9.0000000   9.0000000
 Leave Link  101 at Thu May 30 18:50:06 2019, MaxMem=  6442450944 cpu:              18.0 elap:               0.7
 (Enter /home/ekwan/sw/g16/l103.exe)

 GradGradGradGradGradGradGradGradGradGradGradGradGradGradGradGradGradGrad
 Berny optimization.
 Initialization pass.
                           ----------------------------
                           !    Initial Parameters    !
                           ! (Angstroms and Degrees)  !
 --------------------------                            --------------------------
 ! Name  Definition              Value          Derivative Info.                !
 --------------------------------------------------------------------------------
 ! R1    R(1,2)                  1.5314         calculate D2E/DX2 analytically  !
 ! R2    R(1,5)                  1.5307         calculate D2E/DX2 analytically  !
 ! R3    R(1,8)                  1.0976         calculate D2E/DX2 analytically  !
 ! R4    R(1,14)                 1.4302         calculate D2E/DX2 analytically  !
 ! R5    R(2,3)                  1.5307         calculate D2E/DX2 analytically  !
 ! R6    R(2,7)                  1.0981         calculate D2E/DX2 analytically  !
 ! R7    R(2,13)                 1.4193         calculate D2E/DX2 analytically  !
 ! R8    R(3,6)                  1.0911         calculate D2E/DX2 analytically  !
 ! R9    R(3,11)                 1.4079         calculate D2E/DX2 analytically  !
 ! R10   R(3,12)                 1.4074         calculate D2E/DX2 analytically  !
 ! R11   R(4,5)                  1.5345         calculate D2E/DX2 analytically  !
 ! R12   R(4,9)                  1.0994         calculate D2E/DX2 analytically  !
 ! R13   R(4,11)                 1.4511         calculate D2E/DX2 analytically  !
 ! R14   R(4,16)                 1.5419         calculate D2E/DX2 analytically  !
 ! R15   R(5,10)                 1.0918         calculate D2E/DX2 analytically  !
 ! R16   R(5,15)                 1.4294         calculate D2E/DX2 analytically  !
 ! R17   R(12,79)                1.4217         calculate D2E/DX2 analytically  !
 ! R18   R(13,20)                1.421          calculate D2E/DX2 analytically  !
 ! R19   R(14,24)                1.42           calculate D2E/DX2 analytically  !
 ! R20   R(15,28)                1.4273         calculate D2E/DX2 analytically  !
 ! R21   R(16,17)                1.1211         calculate D2E/DX2 analytically  !
 ! R22   R(16,18)                1.1225         calculate D2E/DX2 analytically  !
 ! R23   R(16,19)                1.3568         calculate D2E/DX2 analytically  !
 ! R24   R(19,38)                2.0003         calculate D2E/DX2 analytically  !
 ! R25   R(19,65)                2.0259         calculate D2E/DX2 analytically  !
 ! R26   R(20,21)                1.1007         calculate D2E/DX2 analytically  !
 ! R27   R(20,22)                1.0939         calculate D2E/DX2 analytically  !
 ! R28   R(20,23)                1.0926         calculate D2E/DX2 analytically  !
 ! R29   R(24,25)                1.0947         calculate D2E/DX2 analytically  !
 ! R30   R(24,26)                1.1003         calculate D2E/DX2 analytically  !
 ! R31   R(24,27)                1.0936         calculate D2E/DX2 analytically  !
 ! R32   R(28,29)                1.0988         calculate D2E/DX2 analytically  !
 ! R33   R(28,30)                1.0963         calculate D2E/DX2 analytically  !
 ! R34   R(28,31)                1.0945         calculate D2E/DX2 analytically  !
 ! R35   R(32,33)                1.5258         calculate D2E/DX2 analytically  !
 ! R36   R(32,36)                1.5297         calculate D2E/DX2 analytically  !
 ! R37   R(32,39)                1.1001         calculate D2E/DX2 analytically  !
 ! R38   R(32,45)                1.417          calculate D2E/DX2 analytically  !
 ! R39   R(33,34)                1.518          calculate D2E/DX2 analytically  !
 ! R40   R(33,38)                1.0955         calculate D2E/DX2 analytically  !
 ! R41   R(33,44)                1.4246         calculate D2E/DX2 analytically  !
 ! R42   R(34,37)                1.0831         calculate D2E/DX2 analytically  !
 ! R43   R(34,42)                1.3183         calculate D2E/DX2 analytically  !
 ! R44   R(34,53)                1.7813         calculate D2E/DX2 analytically  !
 ! R45   R(35,36)                1.5288         calculate D2E/DX2 analytically  !
 ! R46   R(35,40)                1.0923         calculate D2E/DX2 analytically  !
 ! R47   R(35,42)                1.4567         calculate D2E/DX2 analytically  !
 ! R48   R(35,47)                1.5135         calculate D2E/DX2 analytically  !
 ! R49   R(36,41)                1.0948         calculate D2E/DX2 analytically  !
 ! R50   R(36,46)                1.418          calculate D2E/DX2 analytically  !
 ! R51   R(43,51)                1.4665         calculate D2E/DX2 analytically  !
 ! R52   R(44,63)                1.4499         calculate D2E/DX2 analytically  !
 ! R53   R(45,67)                1.4199         calculate D2E/DX2 analytically  !
 ! R54   R(46,71)                1.4238         calculate D2E/DX2 analytically  !
 ! R55   R(47,48)                1.0997         calculate D2E/DX2 analytically  !
 ! R56   R(47,49)                1.0993         calculate D2E/DX2 analytically  !
 ! R57   R(47,50)                1.4129         calculate D2E/DX2 analytically  !
 ! R58   R(50,75)                1.4177         calculate D2E/DX2 analytically  !
 ! R59   R(51,52)                1.4775         calculate D2E/DX2 analytically  !
 ! R60   R(51,53)                1.5625         calculate D2E/DX2 analytically  !
 ! R61   R(51,54)                1.7883         calculate D2E/DX2 analytically  !
 ! R62   R(53,83)                2.3038         calculate D2E/DX2 analytically  !
 ! R63   R(54,55)                1.3931         calculate D2E/DX2 analytically  !
 ! R64   R(54,56)                1.3912         calculate D2E/DX2 analytically  !
 ! R65   R(55,57)                1.3925         calculate D2E/DX2 analytically  !
 ! R66   R(55,58)                1.0818         calculate D2E/DX2 analytically  !
 ! R67   R(56,59)                1.394          calculate D2E/DX2 analytically  !
 ! R68   R(56,60)                1.083          calculate D2E/DX2 analytically  !
 ! R69   R(57,61)                1.3959         calculate D2E/DX2 analytically  !
 ! R70   R(57,93)                1.5061         calculate D2E/DX2 analytically  !
 ! R71   R(59,61)                1.3944         calculate D2E/DX2 analytically  !
 ! R72   R(59,97)                1.5041         calculate D2E/DX2 analytically  !
 ! R73   R(61,62)                1.0838         calculate D2E/DX2 analytically  !
 ! R74   R(63,64)                1.0974         calculate D2E/DX2 analytically  !
 ! R75   R(63,65)                1.1            calculate D2E/DX2 analytically  !
 ! R76   R(63,66)                1.0937         calculate D2E/DX2 analytically  !
 ! R77   R(67,68)                1.1007         calculate D2E/DX2 analytically  !
 ! R78   R(67,69)                1.0956         calculate D2E/DX2 analytically  !
 ! R79   R(67,70)                1.0926         calculate D2E/DX2 analytically  !
 ! R80   R(71,72)                1.0959         calculate D2E/DX2 analytically  !
 ! R81   R(71,73)                1.0979         calculate D2E/DX2 analytically  !
 ! R82   R(71,74)                1.0928         calculate D2E/DX2 analytically  !
 ! R83   R(75,76)                1.0922         calculate D2E/DX2 analytically  !
 ! R84   R(75,77)                1.0965         calculate D2E/DX2 analytically  !
 ! R85   R(75,78)                1.1006         calculate D2E/DX2 analytically  !
 ! R86   R(79,80)                1.0921         calculate D2E/DX2 analytically  !
 ! R87   R(79,81)                1.0961         calculate D2E/DX2 analytically  !
 ! R88   R(79,82)                1.0984         calculate D2E/DX2 analytically  !
 ! R89   R(83,84)                2.3045         calculate D2E/DX2 analytically  !
 ! R90   R(84,85)                1.4279         calculate D2E/DX2 analytically  !
 ! R91   R(84,89)                1.4298         calculate D2E/DX2 analytically  !
 ! R92   R(85,86)                1.0956         calculate D2E/DX2 analytically  !
 ! R93   R(85,87)                1.0918         calculate D2E/DX2 analytically  !
 ! R94   R(85,88)                1.0975         calculate D2E/DX2 analytically  !
 ! R95   R(89,90)                1.0975         calculate D2E/DX2 analytically  !
 ! R96   R(89,91)                1.0909         calculate D2E/DX2 analytically  !
 ! R97   R(89,92)                1.0962         calculate D2E/DX2 analytically  !
 ! R98   R(93,94)                1.3494         calculate D2E/DX2 analytically  !
 ! R99   R(93,95)                1.3529         calculate D2E/DX2 analytically  !
 ! R100  R(93,96)                1.3468         calculate D2E/DX2 analytically  !
 ! R101  R(97,98)                1.3479         calculate D2E/DX2 analytically  !
 ! R102  R(97,99)                1.3568         calculate D2E/DX2 analytically  !
 ! R103  R(97,100)               1.3511         calculate D2E/DX2 analytically  !
 ! A1    A(2,1,5)              109.164          calculate D2E/DX2 analytically  !
 ! A2    A(2,1,8)              108.5515         calculate D2E/DX2 analytically  !
 ! A3    A(2,1,14)             108.5669         calculate D2E/DX2 analytically  !
 ! A4    A(5,1,8)              110.0129         calculate D2E/DX2 analytically  !
 ! A5    A(5,1,14)             111.0668         calculate D2E/DX2 analytically  !
 ! A6    A(8,1,14)             109.4267         calculate D2E/DX2 analytically  !
 ! A7    A(1,2,3)              109.5973         calculate D2E/DX2 analytically  !
 ! A8    A(1,2,7)              108.2864         calculate D2E/DX2 analytically  !
 ! A9    A(1,2,13)             114.247          calculate D2E/DX2 analytically  !
 ! A10   A(3,2,7)              107.0533         calculate D2E/DX2 analytically  !
 ! A11   A(3,2,13)             107.8218         calculate D2E/DX2 analytically  !
 ! A12   A(7,2,13)             109.6021         calculate D2E/DX2 analytically  !
 ! A13   A(2,3,6)              110.1658         calculate D2E/DX2 analytically  !
 ! A14   A(2,3,11)             110.6362         calculate D2E/DX2 analytically  !
 ! A15   A(2,3,12)             108.4347         calculate D2E/DX2 analytically  !
 ! A16   A(6,3,11)             105.0529         calculate D2E/DX2 analytically  !
 ! A17   A(6,3,12)             109.6176         calculate D2E/DX2 analytically  !
 ! A18   A(11,3,12)            112.8991         calculate D2E/DX2 analytically  !
 ! A19   A(5,4,9)              109.06           calculate D2E/DX2 analytically  !
 ! A20   A(5,4,11)             109.6001         calculate D2E/DX2 analytically  !
 ! A21   A(5,4,16)             112.9079         calculate D2E/DX2 analytically  !
 ! A22   A(9,4,11)             108.4528         calculate D2E/DX2 analytically  !
 ! A23   A(9,4,16)             110.012          calculate D2E/DX2 analytically  !
 ! A24   A(11,4,16)            106.7001         calculate D2E/DX2 analytically  !
 ! A25   A(1,5,4)              112.0594         calculate D2E/DX2 analytically  !
 ! A26   A(1,5,10)             108.2092         calculate D2E/DX2 analytically  !
 ! A27   A(1,5,15)             109.3001         calculate D2E/DX2 analytically  !
 ! A28   A(4,5,10)             108.2266         calculate D2E/DX2 analytically  !
 ! A29   A(4,5,15)             109.3842         calculate D2E/DX2 analytically  !
 ! A30   A(10,5,15)            109.6258         calculate D2E/DX2 analytically  !
 ! A31   A(3,11,4)             113.9957         calculate D2E/DX2 analytically  !
 ! A32   A(3,12,79)            113.1138         calculate D2E/DX2 analytically  !
 ! A33   A(2,13,20)            114.6603         calculate D2E/DX2 analytically  !
 ! A34   A(1,14,24)            113.6308         calculate D2E/DX2 analytically  !
 ! A35   A(5,15,28)            112.2843         calculate D2E/DX2 analytically  !
 ! A36   A(4,16,17)            104.629          calculate D2E/DX2 analytically  !
 ! A37   A(4,16,18)            104.2645         calculate D2E/DX2 analytically  !
 ! A38   A(4,16,19)            113.9602         calculate D2E/DX2 analytically  !
 ! A39   A(17,16,18)           104.0511         calculate D2E/DX2 analytically  !
 ! A40   A(17,16,19)           114.5609         calculate D2E/DX2 analytically  !
 ! A41   A(18,16,19)           114.1844         calculate D2E/DX2 analytically  !
 ! A42   A(16,19,65)           110.1599         calculate D2E/DX2 analytically  !
 ! A43   A(38,19,65)            62.2671         calculate D2E/DX2 analytically  !
 ! A44   A(13,20,21)           111.0465         calculate D2E/DX2 analytically  !
 ! A45   A(13,20,22)           111.8857         calculate D2E/DX2 analytically  !
 ! A46   A(13,20,23)           106.5258         calculate D2E/DX2 analytically  !
 ! A47   A(21,20,22)           108.3021         calculate D2E/DX2 analytically  !
 ! A48   A(21,20,23)           108.8994         calculate D2E/DX2 analytically  !
 ! A49   A(22,20,23)           110.1456         calculate D2E/DX2 analytically  !
 ! A50   A(14,24,25)           111.3707         calculate D2E/DX2 analytically  !
 ! A51   A(14,24,26)           111.0788         calculate D2E/DX2 analytically  !
 ! A52   A(14,24,27)           106.9263         calculate D2E/DX2 analytically  !
 ! A53   A(25,24,26)           109.0363         calculate D2E/DX2 analytically  !
 ! A54   A(25,24,27)           109.6277         calculate D2E/DX2 analytically  !
 ! A55   A(26,24,27)           108.7437         calculate D2E/DX2 analytically  !
 ! A56   A(15,28,29)           110.6596         calculate D2E/DX2 analytically  !
 ! A57   A(15,28,30)           110.6663         calculate D2E/DX2 analytically  !
 ! A58   A(15,28,31)           107.0217         calculate D2E/DX2 analytically  !
 ! A59   A(29,28,30)           108.4581         calculate D2E/DX2 analytically  !
 ! A60   A(29,28,31)           109.236          calculate D2E/DX2 analytically  !
 ! A61   A(30,28,31)           110.7959         calculate D2E/DX2 analytically  !
 ! A62   A(33,32,36)           108.5218         calculate D2E/DX2 analytically  !
 ! A63   A(33,32,39)           111.3973         calculate D2E/DX2 analytically  !
 ! A64   A(33,32,45)           111.3296         calculate D2E/DX2 analytically  !
 ! A65   A(36,32,39)           108.3978         calculate D2E/DX2 analytically  !
 ! A66   A(36,32,45)           107.1832         calculate D2E/DX2 analytically  !
 ! A67   A(39,32,45)           109.865          calculate D2E/DX2 analytically  !
 ! A68   A(32,33,34)           112.7768         calculate D2E/DX2 analytically  !
 ! A69   A(32,33,38)           109.099          calculate D2E/DX2 analytically  !
 ! A70   A(32,33,44)           110.706          calculate D2E/DX2 analytically  !
 ! A71   A(34,33,38)           102.5634         calculate D2E/DX2 analytically  !
 ! A72   A(34,33,44)           111.7383         calculate D2E/DX2 analytically  !
 ! A73   A(38,33,44)           109.613          calculate D2E/DX2 analytically  !
 ! A74   A(33,34,37)           116.8841         calculate D2E/DX2 analytically  !
 ! A75   A(33,34,42)           119.0627         calculate D2E/DX2 analytically  !
 ! A76   A(33,34,53)            97.9241         calculate D2E/DX2 analytically  !
 ! A77   A(37,34,42)           111.5529         calculate D2E/DX2 analytically  !
 ! A78   A(37,34,53)           100.2652         calculate D2E/DX2 analytically  !
 ! A79   A(42,34,53)           107.6819         calculate D2E/DX2 analytically  !
 ! A80   A(36,35,40)           109.8039         calculate D2E/DX2 analytically  !
 ! A81   A(36,35,42)           111.5801         calculate D2E/DX2 analytically  !
 ! A82   A(36,35,47)           113.7455         calculate D2E/DX2 analytically  !
 ! A83   A(40,35,42)           106.5093         calculate D2E/DX2 analytically  !
 ! A84   A(40,35,47)           108.3534         calculate D2E/DX2 analytically  !
 ! A85   A(42,35,47)           106.5253         calculate D2E/DX2 analytically  !
 ! A86   A(32,36,35)           111.405          calculate D2E/DX2 analytically  !
 ! A87   A(32,36,41)           108.7087         calculate D2E/DX2 analytically  !
 ! A88   A(32,36,46)           110.3414         calculate D2E/DX2 analytically  !
 ! A89   A(35,36,41)           108.9941         calculate D2E/DX2 analytically  !
 ! A90   A(35,36,46)           106.405          calculate D2E/DX2 analytically  !
 ! A91   A(41,36,46)           110.9805         calculate D2E/DX2 analytically  !
 ! A92   A(19,38,33)           126.2538         calculate D2E/DX2 analytically  !
 ! A93   A(34,42,35)           119.1386         calculate D2E/DX2 analytically  !
 ! A94   A(33,44,63)           114.0331         calculate D2E/DX2 analytically  !
 ! A95   A(32,45,67)           114.8466         calculate D2E/DX2 analytically  !
 ! A96   A(36,46,71)           113.7657         calculate D2E/DX2 analytically  !
 ! A97   A(35,47,48)           108.3292         calculate D2E/DX2 analytically  !
 ! A98   A(35,47,49)           108.6865         calculate D2E/DX2 analytically  !
 ! A99   A(35,47,50)           109.8094         calculate D2E/DX2 analytically  !
 ! A100  A(48,47,49)           108.393          calculate D2E/DX2 analytically  !
 ! A101  A(48,47,50)           110.7644         calculate D2E/DX2 analytically  !
 ! A102  A(49,47,50)           110.7904         calculate D2E/DX2 analytically  !
 ! A103  A(47,50,75)           111.7104         calculate D2E/DX2 analytically  !
 ! A104  A(43,51,52)           118.0225         calculate D2E/DX2 analytically  !
 ! A105  A(43,51,53)           113.2461         calculate D2E/DX2 analytically  !
 ! A106  A(43,51,54)           107.5651         calculate D2E/DX2 analytically  !
 ! A107  A(52,51,53)           105.1291         calculate D2E/DX2 analytically  !
 ! A108  A(52,51,54)           107.7377         calculate D2E/DX2 analytically  !
 ! A109  A(53,51,54)           104.1881         calculate D2E/DX2 analytically  !
 ! A110  A(34,53,51)           128.3574         calculate D2E/DX2 analytically  !
 ! A111  A(34,53,83)           118.3337         calculate D2E/DX2 analytically  !
 ! A112  A(51,53,83)           113.2581         calculate D2E/DX2 analytically  !
 ! A113  A(51,54,55)           118.8465         calculate D2E/DX2 analytically  !
 ! A114  A(51,54,56)           119.3128         calculate D2E/DX2 analytically  !
 ! A115  A(55,54,56)           121.7474         calculate D2E/DX2 analytically  !
 ! A116  A(54,55,57)           118.7197         calculate D2E/DX2 analytically  !
 ! A117  A(54,55,58)           120.2666         calculate D2E/DX2 analytically  !
 ! A118  A(57,55,58)           121.0079         calculate D2E/DX2 analytically  !
 ! A119  A(54,56,59)           118.6535         calculate D2E/DX2 analytically  !
 ! A120  A(54,56,60)           120.7754         calculate D2E/DX2 analytically  !
 ! A121  A(59,56,60)           120.5703         calculate D2E/DX2 analytically  !
 ! A122  A(55,57,61)           120.6248         calculate D2E/DX2 analytically  !
 ! A123  A(55,57,93)           120.6562         calculate D2E/DX2 analytically  !
 ! A124  A(61,57,93)           118.6747         calculate D2E/DX2 analytically  !
 ! A125  A(56,59,61)           120.6994         calculate D2E/DX2 analytically  !
 ! A126  A(56,59,97)           118.9053         calculate D2E/DX2 analytically  !
 ! A127  A(61,59,97)           120.3861         calculate D2E/DX2 analytically  !
 ! A128  A(57,61,59)           119.5434         calculate D2E/DX2 analytically  !
 ! A129  A(57,61,62)           120.2133         calculate D2E/DX2 analytically  !
 ! A130  A(59,61,62)           120.2248         calculate D2E/DX2 analytically  !
 ! A131  A(44,63,64)           109.4027         calculate D2E/DX2 analytically  !
 ! A132  A(44,63,65)           109.1721         calculate D2E/DX2 analytically  !
 ! A133  A(44,63,66)           107.1977         calculate D2E/DX2 analytically  !
 ! A134  A(64,63,65)           109.1337         calculate D2E/DX2 analytically  !
 ! A135  A(64,63,66)           109.3997         calculate D2E/DX2 analytically  !
 ! A136  A(65,63,66)           112.4837         calculate D2E/DX2 analytically  !
 ! A137  A(19,65,63)           149.1402         calculate D2E/DX2 analytically  !
 ! A138  A(45,67,68)           110.9187         calculate D2E/DX2 analytically  !
 ! A139  A(45,67,69)           111.7164         calculate D2E/DX2 analytically  !
 ! A140  A(45,67,70)           106.671          calculate D2E/DX2 analytically  !
 ! A141  A(68,67,69)           109.2068         calculate D2E/DX2 analytically  !
 ! A142  A(68,67,70)           108.8394         calculate D2E/DX2 analytically  !
 ! A143  A(69,67,70)           109.4151         calculate D2E/DX2 analytically  !
 ! A144  A(46,71,72)           111.0366         calculate D2E/DX2 analytically  !
 ! A145  A(46,71,73)           110.8264         calculate D2E/DX2 analytically  !
 ! A146  A(46,71,74)           106.5947         calculate D2E/DX2 analytically  !
 ! A147  A(72,71,73)           109.4679         calculate D2E/DX2 analytically  !
 ! A148  A(72,71,74)           109.5226         calculate D2E/DX2 analytically  !
 ! A149  A(73,71,74)           109.337          calculate D2E/DX2 analytically  !
 ! A150  A(50,75,76)           107.0863         calculate D2E/DX2 analytically  !
 ! A151  A(50,75,77)           110.6536         calculate D2E/DX2 analytically  !
 ! A152  A(50,75,78)           111.268          calculate D2E/DX2 analytically  !
 ! A153  A(76,75,77)           109.3043         calculate D2E/DX2 analytically  !
 ! A154  A(76,75,78)           109.1903         calculate D2E/DX2 analytically  !
 ! A155  A(77,75,78)           109.2884         calculate D2E/DX2 analytically  !
 ! A156  A(12,79,80)           106.6961         calculate D2E/DX2 analytically  !
 ! A157  A(12,79,81)           111.6103         calculate D2E/DX2 analytically  !
 ! A158  A(12,79,82)           111.36           calculate D2E/DX2 analytically  !
 ! A159  A(80,79,81)           109.5171         calculate D2E/DX2 analytically  !
 ! A160  A(80,79,82)           109.1728         calculate D2E/DX2 analytically  !
 ! A161  A(81,79,82)           108.4445         calculate D2E/DX2 analytically  !
 ! A162  A(53,83,84)           105.2033         calculate D2E/DX2 analytically  !
 ! A163  A(83,84,85)           123.1472         calculate D2E/DX2 analytically  !
 ! A164  A(83,84,89)           121.5177         calculate D2E/DX2 analytically  !
 ! A165  A(85,84,89)           112.3672         calculate D2E/DX2 analytically  !
 ! A166  A(84,85,86)           110.494          calculate D2E/DX2 analytically  !
 ! A167  A(84,85,87)           107.1546         calculate D2E/DX2 analytically  !
 ! A168  A(84,85,88)           110.6966         calculate D2E/DX2 analytically  !
 ! A169  A(86,85,87)           109.4225         calculate D2E/DX2 analytically  !
 ! A170  A(86,85,88)           109.4383         calculate D2E/DX2 analytically  !
 ! A171  A(87,85,88)           109.5979         calculate D2E/DX2 analytically  !
 ! A172  A(84,89,90)           110.5492         calculate D2E/DX2 analytically  !
 ! A173  A(84,89,91)           106.9013         calculate D2E/DX2 analytically  !
 ! A174  A(84,89,92)           110.2698         calculate D2E/DX2 analytically  !
 ! A175  A(90,89,91)           110.1083         calculate D2E/DX2 analytically  !
 ! A176  A(90,89,92)           109.2758         calculate D2E/DX2 analytically  !
 ! A177  A(91,89,92)           109.7108         calculate D2E/DX2 analytically  !
 ! A178  A(57,93,94)           112.0625         calculate D2E/DX2 analytically  !
 ! A179  A(57,93,95)           110.9752         calculate D2E/DX2 analytically  !
 ! A180  A(57,93,96)           111.4258         calculate D2E/DX2 analytically  !
 ! A181  A(94,93,95)           107.5334         calculate D2E/DX2 analytically  !
 ! A182  A(94,93,96)           107.6665         calculate D2E/DX2 analytically  !
 ! A183  A(95,93,96)           106.9357         calculate D2E/DX2 analytically  !
 ! A184  A(59,97,98)           111.9289         calculate D2E/DX2 analytically  !
 ! A185  A(59,97,99)           111.524          calculate D2E/DX2 analytically  !
 ! A186  A(59,97,100)          111.55           calculate D2E/DX2 analytically  !
 ! A187  A(98,97,99)           107.1079         calculate D2E/DX2 analytically  !
 ! A188  A(98,97,100)          107.8227         calculate D2E/DX2 analytically  !
 ! A189  A(99,97,100)          106.6281         calculate D2E/DX2 analytically  !
 ! A190  L(16,19,38,65,-1)     172.427          calculate D2E/DX2 analytically  !
 ! A191  L(16,19,38,65,-2)     189.7881         calculate D2E/DX2 analytically  !
 ! D1    D(5,1,2,3)            -54.2246         calculate D2E/DX2 analytically  !
 ! D2    D(5,1,2,7)             62.2308         calculate D2E/DX2 analytically  !
 ! D3    D(5,1,2,13)          -175.3335         calculate D2E/DX2 analytically  !
 ! D4    D(8,1,2,3)             65.6959         calculate D2E/DX2 analytically  !
 ! D5    D(8,1,2,7)           -177.8487         calculate D2E/DX2 analytically  !
 ! D6    D(8,1,2,13)           -55.413          calculate D2E/DX2 analytically  !
 ! D7    D(14,1,2,3)          -175.4344         calculate D2E/DX2 analytically  !
 ! D8    D(14,1,2,7)           -58.979          calculate D2E/DX2 analytically  !
 ! D9    D(14,1,2,13)           63.4566         calculate D2E/DX2 analytically  !
 ! D10   D(2,1,5,4)             52.8386         calculate D2E/DX2 analytically  !
 ! D11   D(2,1,5,10)           -66.4085         calculate D2E/DX2 analytically  !
 ! D12   D(2,1,5,15)           174.2616         calculate D2E/DX2 analytically  !
 ! D13   D(8,1,5,4)            -66.1771         calculate D2E/DX2 analytically  !
 ! D14   D(8,1,5,10)           174.5758         calculate D2E/DX2 analytically  !
 ! D15   D(8,1,5,15)            55.2459         calculate D2E/DX2 analytically  !
 ! D16   D(14,1,5,4)           172.5155         calculate D2E/DX2 analytically  !
 ! D17   D(14,1,5,10)           53.2683         calculate D2E/DX2 analytically  !
 ! D18   D(14,1,5,15)          -66.0615         calculate D2E/DX2 analytically  !
 ! D19   D(2,1,14,24)         -143.2284         calculate D2E/DX2 analytically  !
 ! D20   D(5,1,14,24)           96.7394         calculate D2E/DX2 analytically  !
 ! D21   D(8,1,14,24)          -24.9113         calculate D2E/DX2 analytically  !
 ! D22   D(1,2,3,6)            174.388          calculate D2E/DX2 analytically  !
 ! D23   D(1,2,3,11)            58.6698         calculate D2E/DX2 analytically  !
 ! D24   D(1,2,3,12)           -65.6498         calculate D2E/DX2 analytically  !
 ! D25   D(7,2,3,6)             57.1564         calculate D2E/DX2 analytically  !
 ! D26   D(7,2,3,11)           -58.5618         calculate D2E/DX2 analytically  !
 ! D27   D(7,2,3,12)           177.1185         calculate D2E/DX2 analytically  !
 ! D28   D(13,2,3,6)           -60.6974         calculate D2E/DX2 analytically  !
 ! D29   D(13,2,3,11)         -176.4156         calculate D2E/DX2 analytically  !
 ! D30   D(13,2,3,12)           59.2647         calculate D2E/DX2 analytically  !
 ! D31   D(1,2,13,20)          -87.3573         calculate D2E/DX2 analytically  !
 ! D32   D(3,2,13,20)          150.5562         calculate D2E/DX2 analytically  !
 ! D33   D(7,2,13,20)           34.3578         calculate D2E/DX2 analytically  !
 ! D34   D(2,3,11,4)           -61.5723         calculate D2E/DX2 analytically  !
 ! D35   D(6,3,11,4)           179.563          calculate D2E/DX2 analytically  !
 ! D36   D(12,3,11,4)           60.1557         calculate D2E/DX2 analytically  !
 ! D37   D(2,3,12,79)         -176.1629         calculate D2E/DX2 analytically  !
 ! D38   D(6,3,12,79)          -55.859          calculate D2E/DX2 analytically  !
 ! D39   D(11,3,12,79)          60.8755         calculate D2E/DX2 analytically  !
 ! D40   D(9,4,5,1)             65.45           calculate D2E/DX2 analytically  !
 ! D41   D(9,4,5,10)          -175.313          calculate D2E/DX2 analytically  !
 ! D42   D(9,4,5,15)           -55.9246         calculate D2E/DX2 analytically  !
 ! D43   D(11,4,5,1)           -53.1379         calculate D2E/DX2 analytically  !
 ! D44   D(11,4,5,10)           66.0991         calculate D2E/DX2 analytically  !
 ! D45   D(11,4,5,15)         -174.5125         calculate D2E/DX2 analytically  !
 ! D46   D(16,4,5,1)          -171.9298         calculate D2E/DX2 analytically  !
 ! D47   D(16,4,5,10)          -52.6928         calculate D2E/DX2 analytically  !
 ! D48   D(16,4,5,15)           66.6956         calculate D2E/DX2 analytically  !
 ! D49   D(5,4,11,3)            58.066          calculate D2E/DX2 analytically  !
 ! D50   D(9,4,11,3)           -60.8973         calculate D2E/DX2 analytically  !
 ! D51   D(16,4,11,3)         -179.3714         calculate D2E/DX2 analytically  !
 ! D52   D(5,4,16,17)          -75.4152         calculate D2E/DX2 analytically  !
 ! D53   D(5,4,16,18)          175.6031         calculate D2E/DX2 analytically  !
 ! D54   D(5,4,16,19)           50.465          calculate D2E/DX2 analytically  !
 ! D55   D(9,4,16,17)           46.6717         calculate D2E/DX2 analytically  !
 ! D56   D(9,4,16,18)          -62.3099         calculate D2E/DX2 analytically  !
 ! D57   D(9,4,16,19)          172.5519         calculate D2E/DX2 analytically  !
 ! D58   D(11,4,16,17)         164.1211         calculate D2E/DX2 analytically  !
 ! D59   D(11,4,16,18)          55.1394         calculate D2E/DX2 analytically  !
 ! D60   D(11,4,16,19)         -69.9987         calculate D2E/DX2 analytically  !
 ! D61   D(1,5,15,28)          136.6241         calculate D2E/DX2 analytically  !
 ! D62   D(4,5,15,28)         -100.3472         calculate D2E/DX2 analytically  !
 ! D63   D(10,5,15,28)          18.1741         calculate D2E/DX2 analytically  !
 ! D64   D(3,12,79,80)         173.7928         calculate D2E/DX2 analytically  !
 ! D65   D(3,12,79,81)         -66.6047         calculate D2E/DX2 analytically  !
 ! D66   D(3,12,79,82)          54.7498         calculate D2E/DX2 analytically  !
 ! D67   D(2,13,20,21)         -47.4693         calculate D2E/DX2 analytically  !
 ! D68   D(2,13,20,22)          73.6741         calculate D2E/DX2 analytically  !
 ! D69   D(2,13,20,23)        -165.9057         calculate D2E/DX2 analytically  !
 ! D70   D(1,14,24,25)         -60.5839         calculate D2E/DX2 analytically  !
 ! D71   D(1,14,24,26)          61.1647         calculate D2E/DX2 analytically  !
 ! D72   D(1,14,24,27)         179.6721         calculate D2E/DX2 analytically  !
 ! D73   D(5,15,28,29)         -75.444          calculate D2E/DX2 analytically  !
 ! D74   D(5,15,28,30)          44.8123         calculate D2E/DX2 analytically  !
 ! D75   D(5,15,28,31)         165.6306         calculate D2E/DX2 analytically  !
 ! D76   D(4,16,19,65)         117.5009         calculate D2E/DX2 analytically  !
 ! D77   D(17,16,19,65)       -122.0373         calculate D2E/DX2 analytically  !
 ! D78   D(18,16,19,65)         -2.1787         calculate D2E/DX2 analytically  !
 ! D79   D(4,16,38,33)          48.7513         calculate D2E/DX2 analytically  !
 ! D80   D(17,16,38,33)        172.6003         calculate D2E/DX2 analytically  !
 ! D81   D(18,16,38,33)        -66.0966         calculate D2E/DX2 analytically  !
 ! D82   D(65,19,38,33)        -71.0505         calculate D2E/DX2 analytically  !
 ! D83   D(16,19,65,63)       -118.7034         calculate D2E/DX2 analytically  !
 ! D84   D(38,19,65,63)         51.5085         calculate D2E/DX2 analytically  !
 ! D85   D(36,32,33,34)        -47.6583         calculate D2E/DX2 analytically  !
 ! D86   D(36,32,33,38)         65.6107         calculate D2E/DX2 analytically  !
 ! D87   D(36,32,33,44)       -173.6835         calculate D2E/DX2 analytically  !
 ! D88   D(39,32,33,34)         71.6013         calculate D2E/DX2 analytically  !
 ! D89   D(39,32,33,38)       -175.1297         calculate D2E/DX2 analytically  !
 ! D90   D(39,32,33,44)        -54.4239         calculate D2E/DX2 analytically  !
 ! D91   D(45,32,33,34)       -165.3876         calculate D2E/DX2 analytically  !
 ! D92   D(45,32,33,38)        -52.1186         calculate D2E/DX2 analytically  !
 ! D93   D(45,32,33,44)         68.5872         calculate D2E/DX2 analytically  !
 ! D94   D(33,32,36,35)         55.3525         calculate D2E/DX2 analytically  !
 ! D95   D(33,32,36,41)        -64.7691         calculate D2E/DX2 analytically  !
 ! D96   D(33,32,36,46)        173.3122         calculate D2E/DX2 analytically  !
 ! D97   D(39,32,36,35)        -65.7733         calculate D2E/DX2 analytically  !
 ! D98   D(39,32,36,41)        174.1052         calculate D2E/DX2 analytically  !
 ! D99   D(39,32,36,46)         52.1865         calculate D2E/DX2 analytically  !
 ! D100  D(45,32,36,35)        175.6919         calculate D2E/DX2 analytically  !
 ! D101  D(45,32,36,41)         55.5703         calculate D2E/DX2 analytically  !
 ! D102  D(45,32,36,46)        -66.3484         calculate D2E/DX2 analytically  !
 ! D103  D(33,32,45,67)        -91.6306         calculate D2E/DX2 analytically  !
 ! D104  D(36,32,45,67)        149.8338         calculate D2E/DX2 analytically  !
 ! D105  D(39,32,45,67)         32.2539         calculate D2E/DX2 analytically  !
 ! D106  D(32,33,34,37)        179.5402         calculate D2E/DX2 analytically  !
 ! D107  D(32,33,34,42)         40.6934         calculate D2E/DX2 analytically  !
 ! D108  D(32,33,34,53)        -74.6592         calculate D2E/DX2 analytically  !
 ! D109  D(38,33,34,37)         62.3366         calculate D2E/DX2 analytically  !
 ! D110  D(38,33,34,42)        -76.5102         calculate D2E/DX2 analytically  !
 ! D111  D(38,33,34,53)        168.1373         calculate D2E/DX2 analytically  !
 ! D112  D(44,33,34,37)        -54.9916         calculate D2E/DX2 analytically  !
 ! D113  D(44,33,34,42)        166.1616         calculate D2E/DX2 analytically  !
 ! D114  D(44,33,34,53)         50.8091         calculate D2E/DX2 analytically  !
 ! D115  D(32,33,38,19)       -152.1745         calculate D2E/DX2 analytically  !
 ! D116  D(34,33,38,19)        -32.3787         calculate D2E/DX2 analytically  !
 ! D117  D(44,33,38,19)         86.453          calculate D2E/DX2 analytically  !
 ! D118  D(32,33,44,63)       -159.2716         calculate D2E/DX2 analytically  !
 ! D119  D(34,33,44,63)         74.1249         calculate D2E/DX2 analytically  !
 ! D120  D(38,33,44,63)        -38.8717         calculate D2E/DX2 analytically  !
 ! D121  D(33,34,42,35)        -38.8388         calculate D2E/DX2 analytically  !
 ! D122  D(37,34,42,35)       -179.7092         calculate D2E/DX2 analytically  !
 ! D123  D(53,34,42,35)         71.203          calculate D2E/DX2 analytically  !
 ! D124  D(33,34,53,51)        158.0269         calculate D2E/DX2 analytically  !
 ! D125  D(33,34,53,83)        -24.7564         calculate D2E/DX2 analytically  !
 ! D126  D(37,34,53,51)        -82.6863         calculate D2E/DX2 analytically  !
 ! D127  D(37,34,53,83)         94.5304         calculate D2E/DX2 analytically  !
 ! D128  D(42,34,53,51)         34.0305         calculate D2E/DX2 analytically  !
 ! D129  D(42,34,53,83)       -148.7528         calculate D2E/DX2 analytically  !
 ! D130  D(40,35,36,32)         65.133          calculate D2E/DX2 analytically  !
 ! D131  D(40,35,36,41)       -174.914          calculate D2E/DX2 analytically  !
 ! D132  D(40,35,36,46)        -55.1732         calculate D2E/DX2 analytically  !
 ! D133  D(42,35,36,32)        -52.7217         calculate D2E/DX2 analytically  !
 ! D134  D(42,35,36,41)         67.2313         calculate D2E/DX2 analytically  !
 ! D135  D(42,35,36,46)       -173.0278         calculate D2E/DX2 analytically  !
 ! D136  D(47,35,36,32)       -173.2636         calculate D2E/DX2 analytically  !
 ! D137  D(47,35,36,41)        -53.3106         calculate D2E/DX2 analytically  !
 ! D138  D(47,35,36,46)         66.4302         calculate D2E/DX2 analytically  !
 ! D139  D(36,35,42,34)         44.3083         calculate D2E/DX2 analytically  !
 ! D140  D(40,35,42,34)        -75.5092         calculate D2E/DX2 analytically  !
 ! D141  D(47,35,42,34)        168.9914         calculate D2E/DX2 analytically  !
 ! D142  D(36,35,47,48)        -72.8402         calculate D2E/DX2 analytically  !
 ! D143  D(36,35,47,49)        169.5828         calculate D2E/DX2 analytically  !
 ! D144  D(36,35,47,50)         48.2439         calculate D2E/DX2 analytically  !
 ! D145  D(40,35,47,48)         49.566          calculate D2E/DX2 analytically  !
 ! D146  D(40,35,47,49)        -68.0111         calculate D2E/DX2 analytically  !
 ! D147  D(40,35,47,50)        170.6501         calculate D2E/DX2 analytically  !
 ! D148  D(42,35,47,48)        163.8166         calculate D2E/DX2 analytically  !
 ! D149  D(42,35,47,49)         46.2396         calculate D2E/DX2 analytically  !
 ! D150  D(42,35,47,50)        -75.0993         calculate D2E/DX2 analytically  !
 ! D151  D(32,36,46,71)        109.3951         calculate D2E/DX2 analytically  !
 ! D152  D(35,36,46,71)       -129.6143         calculate D2E/DX2 analytically  !
 ! D153  D(41,36,46,71)        -11.172          calculate D2E/DX2 analytically  !
 ! D154  D(33,44,63,64)       -104.6827         calculate D2E/DX2 analytically  !
 ! D155  D(33,44,63,65)         14.6826         calculate D2E/DX2 analytically  !
 ! D156  D(33,44,63,66)        136.7853         calculate D2E/DX2 analytically  !
 ! D157  D(32,45,67,68)        -54.6048         calculate D2E/DX2 analytically  !
 ! D158  D(32,45,67,69)         67.4909         calculate D2E/DX2 analytically  !
 ! D159  D(32,45,67,70)       -172.9861         calculate D2E/DX2 analytically  !
 ! D160  D(36,46,71,72)        -62.5202         calculate D2E/DX2 analytically  !
 ! D161  D(36,46,71,73)         59.3729         calculate D2E/DX2 analytically  !
 ! D162  D(36,46,71,74)        178.2564         calculate D2E/DX2 analytically  !
 ! D163  D(35,47,50,75)        174.6049         calculate D2E/DX2 analytically  !
 ! D164  D(48,47,50,75)        -65.788          calculate D2E/DX2 analytically  !
 ! D165  D(49,47,50,75)         54.5373         calculate D2E/DX2 analytically  !
 ! D166  D(47,50,75,76)       -179.552          calculate D2E/DX2 analytically  !
 ! D167  D(47,50,75,77)        -60.5088         calculate D2E/DX2 analytically  !
 ! D168  D(47,50,75,78)         61.1953         calculate D2E/DX2 analytically  !
 ! D169  D(43,51,53,34)        -40.3552         calculate D2E/DX2 analytically  !
 ! D170  D(43,51,53,83)        142.3113         calculate D2E/DX2 analytically  !
 ! D171  D(52,51,53,34)       -170.5827         calculate D2E/DX2 analytically  !
 ! D172  D(52,51,53,83)         12.0838         calculate D2E/DX2 analytically  !
 ! D173  D(54,51,53,34)         76.221          calculate D2E/DX2 analytically  !
 ! D174  D(54,51,53,83)       -101.1125         calculate D2E/DX2 analytically  !
 ! D175  D(43,51,54,55)        -23.6656         calculate D2E/DX2 analytically  !
 ! D176  D(43,51,54,56)        159.786          calculate D2E/DX2 analytically  !
 ! D177  D(52,51,54,55)        104.5517         calculate D2E/DX2 analytically  !
 ! D178  D(52,51,54,56)        -71.9967         calculate D2E/DX2 analytically  !
 ! D179  D(53,51,54,55)       -144.1323         calculate D2E/DX2 analytically  !
 ! D180  D(53,51,54,56)         39.3193         calculate D2E/DX2 analytically  !
 ! D181  D(34,53,83,84)       -112.212          calculate D2E/DX2 analytically  !
 ! D182  D(51,53,83,84)         65.4126         calculate D2E/DX2 analytically  !
 ! D183  D(51,54,55,57)       -176.0712         calculate D2E/DX2 analytically  !
 ! D184  D(51,54,55,58)          4.8            calculate D2E/DX2 analytically  !
 ! D185  D(56,54,55,57)          0.3894         calculate D2E/DX2 analytically  !
 ! D186  D(56,54,55,58)       -178.7393         calculate D2E/DX2 analytically  !
 ! D187  D(51,54,56,59)        175.8952         calculate D2E/DX2 analytically  !
 ! D188  D(51,54,56,60)         -3.7768         calculate D2E/DX2 analytically  !
 ! D189  D(55,54,56,59)         -0.5494         calculate D2E/DX2 analytically  !
 ! D190  D(55,54,56,60)        179.7786         calculate D2E/DX2 analytically  !
 ! D191  D(54,55,57,61)          0.5091         calculate D2E/DX2 analytically  !
 ! D192  D(54,55,57,93)       -177.0389         calculate D2E/DX2 analytically  !
 ! D193  D(58,55,57,61)        179.6311         calculate D2E/DX2 analytically  !
 ! D194  D(58,55,57,93)          2.0831         calculate D2E/DX2 analytically  !
 ! D195  D(54,56,59,61)         -0.1864         calculate D2E/DX2 analytically  !
 ! D196  D(54,56,59,97)       -179.0861         calculate D2E/DX2 analytically  !
 ! D197  D(60,56,59,61)        179.4863         calculate D2E/DX2 analytically  !
 ! D198  D(60,56,59,97)          0.5866         calculate D2E/DX2 analytically  !
 ! D199  D(55,57,61,59)         -1.2266         calculate D2E/DX2 analytically  !
 ! D200  D(55,57,61,62)       -179.6681         calculate D2E/DX2 analytically  !
 ! D201  D(93,57,61,59)        176.3692         calculate D2E/DX2 analytically  !
 ! D202  D(93,57,61,62)         -2.0722         calculate D2E/DX2 analytically  !
 ! D203  D(55,57,93,94)         -9.5127         calculate D2E/DX2 analytically  !
 ! D204  D(55,57,93,95)       -129.7452         calculate D2E/DX2 analytically  !
 ! D205  D(55,57,93,96)        111.205          calculate D2E/DX2 analytically  !
 ! D206  D(61,57,93,94)        172.8922         calculate D2E/DX2 analytically  !
 ! D207  D(61,57,93,95)         52.6597         calculate D2E/DX2 analytically  !
 ! D208  D(61,57,93,96)        -66.3901         calculate D2E/DX2 analytically  !
 ! D209  D(56,59,61,57)          1.0626         calculate D2E/DX2 analytically  !
 ! D210  D(56,59,61,62)        179.5038         calculate D2E/DX2 analytically  !
 ! D211  D(97,59,61,57)        179.946          calculate D2E/DX2 analytically  !
 ! D212  D(97,59,61,62)         -1.6128         calculate D2E/DX2 analytically  !
 ! D213  D(56,59,97,98)       -154.57           calculate D2E/DX2 analytically  !
 ! D214  D(56,59,97,99)         85.4523         calculate D2E/DX2 analytically  !
 ! D215  D(56,59,97,100)       -33.6573         calculate D2E/DX2 analytically  !
 ! D216  D(61,59,97,98)         26.5268         calculate D2E/DX2 analytically  !
 ! D217  D(61,59,97,99)        -93.451          calculate D2E/DX2 analytically  !
 ! D218  D(61,59,97,100)       147.4394         calculate D2E/DX2 analytically  !
 ! D219  D(44,63,65,19)        -38.9868         calculate D2E/DX2 analytically  !
 ! D220  D(64,63,65,19)         80.545          calculate D2E/DX2 analytically  !
 ! D221  D(66,63,65,19)       -157.8478         calculate D2E/DX2 analytically  !
 ! D222  D(53,83,84,85)        120.0941         calculate D2E/DX2 analytically  !
 ! D223  D(53,83,84,89)        -80.8976         calculate D2E/DX2 analytically  !
 ! D224  D(83,84,85,86)       -138.1378         calculate D2E/DX2 analytically  !
 ! D225  D(83,84,85,87)        -19.0007         calculate D2E/DX2 analytically  !
 ! D226  D(83,84,85,88)        100.463          calculate D2E/DX2 analytically  !
 ! D227  D(89,84,85,86)         61.145          calculate D2E/DX2 analytically  !
 ! D228  D(89,84,85,87)       -179.7179         calculate D2E/DX2 analytically  !
 ! D229  D(89,84,85,88)        -60.2542         calculate D2E/DX2 analytically  !
 ! D230  D(83,84,89,90)        -98.8512         calculate D2E/DX2 analytically  !
 ! D231  D(83,84,89,91)         20.9923         calculate D2E/DX2 analytically  !
 ! D232  D(83,84,89,92)        140.2005         calculate D2E/DX2 analytically  !
 ! D233  D(85,84,89,90)         62.2233         calculate D2E/DX2 analytically  !
 ! D234  D(85,84,89,91)       -177.9332         calculate D2E/DX2 analytically  !
 ! D235  D(85,84,89,92)        -58.725          calculate D2E/DX2 analytically  !
 --------------------------------------------------------------------------------
 Trust Radius=5.00D-02 FncErr=1.00D-07 GrdErr=1.00D-06 EigMax=2.50D+02 EigMin=1.00D-04
 Number of steps in this run=    539 maximum allowed number of steps=    600.
 Search for a saddle point of order  1.
 Step   0 in ReCalcFC=30 IGetFC= 4 compute analytic Hessian.
 GradGradGradGradGradGradGradGradGradGradGradGradGradGradGradGradGradGrad

 Leave Link  103 at Thu May 30 18:50:07 2019, MaxMem=  6442450944 cpu:               4.1 elap:               0.2
 (Enter /home/ekwan/sw/g16/l202.exe)
 Stoichiometry    C30H47F6NaO15S
 Framework group  C1[X(C30H47F6NaO15S)]
 Deg. of freedom   294
 Full point group                 C1      NOp   1
 Largest Abelian subgroup         C1      NOp   1
 Largest concise Abelian subgroup C1      NOp   1
                         Standard orientation:                         
 ---------------------------------------------------------------------
 Center     Atomic      Atomic             Coordinates (Angstroms)
 Number     Number       Type             X           Y           Z
 ---------------------------------------------------------------------
      1          6           0        0.701898   -3.484609    0.826170
      2          6           0       -0.363452   -2.661205    0.096713
      3          6           0       -1.233770   -1.926512    1.119317
      4          6           0        0.555554   -1.783101    2.709106
      5          6           0        1.482678   -2.569951    1.773219
      6          1           0       -1.931531   -1.260163    0.609759
      7          1           0        0.144611   -1.894822   -0.503500
      8          1           0        0.200643   -4.276700    1.397260
      9          1           0        0.043444   -2.486139    3.381498
     10          1           0        2.045723   -1.854992    1.169975
     11          8           0       -0.446391   -1.083500    1.926486
     12          8           0       -1.950776   -2.882857    1.862351
     13          8           0       -1.222409   -3.425642   -0.735332
     14          8           0        1.566955   -4.075028   -0.147696
     15          8           0        2.386181   -3.357270    2.552347
     16          6           0        1.300988   -0.713582    3.532389
     17          1           0        1.842975   -1.292917    4.324544
     18          1           0        0.488134   -0.179953    4.093117
     19          8           0        2.091363    0.101628    2.789648
     20          6           0       -0.743068   -3.625379   -2.058031
     21          1           0       -0.388708   -2.680217   -2.497012
     22          1           0        0.077723   -4.347790   -2.089538
     23          1           0       -1.589685   -3.991971   -2.643362
     24          6           0        2.001935   -5.382484    0.195464
     25          1           0        2.565071   -5.381991    1.134182
     26          1           0        1.149177   -6.071443    0.288900
     27          1           0        2.645269   -5.727952   -0.618688
     28          6           0        3.675136   -2.753800    2.660436
     29          1           0        4.237027   -2.869196    1.723290
     30          1           0        3.584124   -1.683843    2.881061
     31          1           0        4.205404   -3.272733    3.465040
     32          6           0        3.455611    2.306147   -0.339057
     33          6           0        2.406375    1.928364    0.702297
     34          6           0        1.460915    0.844296    0.217444
     35          6           0        2.997695    0.085195   -1.453591
     36          6           0        4.070623    1.021586   -0.897408
     37          1           0        0.692783    0.519363    0.908466
     38          1           0        2.902367    1.448849    1.553283
     39          1           0        3.009417    2.868341   -1.172715
     40          1           0        2.514517    0.547581   -2.317256
     41          1           0        4.607142    0.510071   -0.091741
     42          8           0        1.946817   -0.165823   -0.476508
     43          8           0        0.250759    0.321524   -2.897365
     44          8           0        1.700957    3.082876    1.148399
     45          8           0        4.508693    3.057453    0.239358
     46          8           0        4.940267    1.320164   -1.976885
     47          6           0        3.528278   -1.268898   -1.872635
     48          1           0        4.103011   -1.142736   -2.801622
     49          1           0        2.676509   -1.932407   -2.079125
     50          8           0        4.342523   -1.802040   -0.848335
     51         16           0       -0.380234    1.381583   -2.104348
     52          8           0       -0.770359    2.627324   -2.796314
     53          8           0        0.488603    1.844090   -0.890804
     54          6           0       -1.849730    0.692086   -1.353858
     55          6           0       -2.451292   -0.415267   -1.947581
     56          6           0       -2.402035    1.315547   -0.239488
     57          6           0       -3.640981   -0.899246   -1.409523
     58          1           0       -1.990310   -0.893952   -2.801174
     59          6           0       -3.595208    0.817931    0.282092
     60          1           0       -1.919059    2.173496    0.211723
     61          6           0       -4.224881   -0.279922   -0.303137
     62          1           0       -5.148102   -0.665442    0.113535
     63          6           0        1.045864    2.915647    2.431027
     64          1           0       -0.033805    2.794769    2.275953
     65          1           0        1.442185    2.015993    2.924506
     66          1           0        1.230190    3.825439    3.009332
     67          6           0        4.328444    4.465324    0.200489
     68          1           0        4.143061    4.809538   -0.828444
     69          1           0        3.500532    4.785899    0.842468
     70          1           0        5.259539    4.910549    0.559106
     71          6           0        6.318071    1.127430   -1.673947
     72          1           0        6.641323    1.797252   -0.869101
     73          1           0        6.512028    0.086538   -1.383770
     74          1           0        6.873495    1.358228   -2.586344
     75          6           0        4.762023   -3.123117   -1.146015
     76          1           0        5.374888   -3.461749   -0.307796
     77          1           0        3.897134   -3.788307   -1.254700
     78          1           0        5.361979   -3.153220   -2.068227
     79          6           0       -2.860742   -2.302796    2.787980
     80          1           0       -3.434412   -3.124984    3.221183
     81          1           0       -2.336608   -1.762355    3.584599
     82          1           0       -3.548518   -1.606237    2.289799
     83         11           0        0.375262    4.112171   -0.502738
     84          8           0       -1.807256    4.510285    0.120805
     85          6           0       -2.168627    5.071854    1.382900
     86          1           0       -3.041775    4.555385    1.796659
     87          1           0       -1.316212    4.936522    2.051500
     88          1           0       -2.391064    6.141827    1.281955
     89          6           0       -2.850891    4.634106   -0.848692
     90          1           0       -3.069538    5.691292   -1.046473
     91          1           0       -2.497596    4.147555   -1.758866
     92          1           0       -3.760721    4.136812   -0.492897
     93          6           0       -4.293726   -2.133038   -1.975157
     94          9           0       -3.712739   -2.531500   -3.126015
     95          9           0       -5.603082   -1.912531   -2.234623
     96          9           0       -4.233386   -3.162581   -1.109027
     97          6           0       -4.208198    1.500405    1.474114
     98          9           0       -4.985699    0.662927    2.188972
     99          9           0       -4.986322    2.547903    1.102381
    100          9           0       -3.263023    1.995799    2.302744
 ---------------------------------------------------------------------
 Rotational constants (GHZ):           0.0621904           0.0492585           0.0379206
 Leave Link  202 at Thu May 30 18:50:07 2019, MaxMem=  6442450944 cpu:               4.8 elap:               0.2
 (Enter /home/ekwan/sw/g16/l301.exe)
 Standard basis: 6-31G(d) (6D, 7F)
 Ernie: Thresh=  0.10000D-02 Tol=  0.10000D-05 Strict=F.
 There are   897 symmetry adapted cartesian basis functions of A   symmetry.
 There are   897 symmetry adapted basis functions of A   symmetry.
   897 basis functions,  1720 primitive gaussians,   897 cartesian basis functions
   214 alpha electrons      214 beta electrons
       nuclear repulsion energy      9924.0455322178 Hartrees.
 IExCor=  402 DFT=T Ex+Corr=B3LYP ExCW=0 ScaHFX=  0.200000
 ScaDFX=  0.800000  0.720000  1.000000  0.810000 ScalE2=  1.000000  1.000000
 IRadAn=      5 IRanWt=     -1 IRanGd=            0 ICorTp=0 IEmpDi=141
 NAtoms=  100 NActive=  100 NUniq=  100 SFac= 1.00D+00 NAtFMM=   60 NAOKFM=T Big=T
 Integral buffers will be    131072 words long.
 Raffenetti 2 integral format.
 Two-electron integral symmetry is turned on.
 R6Disp:  Grimme-D3(BJ) Dispersion energy=       -0.2420115400 Hartrees.
 Nuclear repulsion after empirical dispersion term =     9923.8035206778 Hartrees.
 Force inversion solution in PCM.
 ------------------------------------------------------------------------------
 Polarizable Continuum Model (PCM)
 =================================
 Model                : PCM.
 Atomic radii         : UFF (Universal Force Field).
 Polarization charges : Total charges.
 Charge compensation  : None.
 Solution method      : Matrix inversion.
 Cavity type          : Scaled VdW (van der Waals Surface) (Alpha=1.100).
 Cavity algorithm     : GePol (No added spheres)
                        Default sphere list used, NSphG=  100.
                        Lebedev-Laikov grids with approx.  5.0 points / Ang**2.
                        Smoothing algorithm: York/Karplus (Gamma=1.0000).
                        Polarization charges: spherical gaussians, with
                                              point-specific exponents (IZeta= 3).
                        Self-potential: point-specific (ISelfS= 7).
                        Self-field    : sphere-specific E.n sum rule (ISelfD= 2).
 1st derivatives      : Analytical E(r).r(x)/FMM algorithm (CHGder, D1EAlg=3).
                        Cavity 1st derivative terms included.
 2nd derivatives      : Analytical E(r).r(xy)/FMM algorithm (CHGder, D2EAlg=3).
                        Cavity 2nd derivative terms included.
 Solvent              : TetraHydroFuran, Eps=   7.425700 Eps(inf)=   1.974025
 ------------------------------------------------------------------------------
 GePol: Number of generator spheres                  =     100
 GePol: Total number of spheres                      =     100
 GePol: Number of exposed spheres                    =     100 (100.00%)
 GePol: Number of points                             =    5889
 GePol: Average weight of points                     =       0.12
 GePol: Minimum weight of points                     =   0.43D-11
 GePol: Maximum weight of points                     =    0.21593
 GePol: Number of points with low weight             =     439
 GePol: Fraction of low-weight points (<1% of avg)   =       7.45%
 GePol: Cavity surface area                          =    716.974 Ang**2
 GePol: Cavity volume                                =    962.554 Ang**3
 Leave Link  301 at Thu May 30 18:50:07 2019, MaxMem=  6442450944 cpu:               7.3 elap:               0.3
 (Enter /home/ekwan/sw/g16/l302.exe)
 NPDir=0 NMtPBC=     1 NCelOv=     1 NCel=       1 NClECP=     1 NCelD=      1
         NCelK=      1 NCelE2=     1 NClLst=     1 CellRange=     0.0.
 One-electron integrals computed using PRISM.
 One-electron integral symmetry used in STVInt
 NBasis=   897 RedAO= T EigKep=  3.85D-04  NBF=   897
 NBsUse=   897 1.00D-06 EigRej= -1.00D+00 NBFU=   897
 Precomputing XC quadrature grid using
 IXCGrd= 4 IRadAn=           5 IRanWt=          -1 IRanGd=           0 AccXCQ= 0.00D+00.
 Generated NRdTot=       0 NPtTot=           0 NUsed=           0 NTot=          32
 NSgBfM=   834   826   826   832   834 MxSgAt=   100 MxSgA2=   100.
 Leave Link  302 at Thu May 30 18:50:24 2019, MaxMem=  6442450944 cpu:             489.9 elap:              16.4
 (Enter /home/ekwan/sw/g16/l303.exe)
 DipDrv:  MaxL=1.
 Leave Link  303 at Thu May 30 18:50:24 2019, MaxMem=  6442450944 cpu:              15.1 elap:               0.6
 (Enter /home/ekwan/sw/g16/l401.exe)
 ExpMin= 2.60D-02 ExpMax= 2.19D+04 ExpMxC= 3.30D+03 IAcc=3 IRadAn=         5 AccDes= 0.00D+00
 Harris functional with IExCor=  402 and IRadAn=       5 diagonalized for initial guess.
 HarFok:  IExCor=  402 AccDes= 0.00D+00 IRadAn=         5 IDoV= 1 UseB2=F ITyADJ=14
 ICtDFT=  3500011 ScaDFX=  1.000000  1.000000  1.000000  1.000000
 FoFCou: FMM=F IPFlag=           0 FMFlag=      100000 FMFlg1=        2001
         NFxFlg=           0 DoJE=T BraDBF=F KetDBF=T FulRan=T
         wScrn=  0.000000 ICntrl=       500 IOpCl=  0 I1Cent=   200000004 NGrid=           0
         NMat0=    1 NMatS0=      1 NMatT0=    0 NMatD0=    1 NMtDS0=    0 NMtDT0=    0
 Petite list used in FoFCou.
 Harris En= -3459.36930199853    
 JPrj=0 DoOrth=F DoCkMO=F.
 Leave Link  401 at Thu May 30 18:50:45 2019, MaxMem=  6442450944 cpu:             619.3 elap:              20.7
 (Enter /home/ekwan/sw/g16/l502.exe)
 Integral symmetry usage will be decided dynamically.
 Closed shell SCF:
 Using DIIS extrapolation, IDIIS=  1040.
 NGot=  6442450944 LenX=  6440803163 LenY=  6439997657
 Requested convergence on RMS density matrix=1.00D-08 within 128 cycles.
[...]
 3437,-0.00000120,0.00001922,-0.00001015,-0.00000713,0.00000489,0.00001
 720,0.00001197,0.00006580,-0.00005393,-0.00001033,-0.00254775,-0.00208
 505,0.00095471,0.00033710,0.00119030,-0.00048285,0.00107329,0.00045767
 ,0.00042573,0.00020939,0.00026380,-0.00238147,0.00091436,-0.00005607,-
 0.00042571,-0.00165476,-0.00277467,-0.00031199,-0.00062635,0.00049862,
 -0.00124297,0.00008129,-0.00007877,0.00018663,0.02695927,-0.02351986,0
 .00093211,0.00080029,-0.00083518,0.00059991,0.00191825,0.00118280,-0.0
 0060541,0.00037143,-0.00036365,0.00083643,-0.00005890,0.00000203,-0.00
 005380,-0.00000234,-0.00007124,-0.00000022,-0.00001786,-0.00005198,-0.
 00000195,0.00004064,0.00003129,0.00002962,0.00001640,-0.00008870,0.000
 00769,-0.00000399,0.00000801,-0.00001078,-0.00000880,0.00000248,0.0000
 0269,0.00000547,0.00001200,0.00000137,-0.00006146,0.00000649,-0.000013
 28,0.00000768,0.00000108,0.00000765,0.00000252,-0.00000190,0.00000331,
 0.00001123,-0.00000032,-0.00000477,-0.00002974,0.00003405,0.00001422,0
 .00000388,-0.00000565,0.00000468,-0.00000269,0.00000091,0.00000291,0.0
 0000824,-0.00000278,-0.00001147,-0.00051225,0.00044010,-0.00033117,0.0
 0004000,-0.00013064,0.00008298,0.00004178,-0.00001455,0.00005998,0.000
 03847,0.00016466,0.00026629,0.00022271,-0.00038195,-0.00011241,-0.0012
 1238,0.00045409,-0.00024483,0.00103830,0.00059304,-0.00114829,0.000113
 33,-0.00023000,0.00101348,-0.00029873,-0.00019436,0.00004231,-0.000187
 78,-0.00018407,0.00010901,0.00275757,0.00070407,0.00037583,-0.00050276
 ,-0.00033816,0.00024388,-0.00035861,-0.00030467,0.00021446,-0.00138389
 ,-0.00024523,-0.00018402,0.00127435,0.00170667,0.00074382,-0.00011076,
 -0.00058768,-0.00054819,-0.00064961,-0.00028972,-0.00028102,-0.0002456
 4,-0.00062991,-0.00000176,0.08255551,-0.17913841,0.01934382,0.00483231
 ,-0.05814155,0.03808938,-0.12978243,0.24842029,-0.00003556,0.00001003,
 -0.00002401,-0.00001974,-0.00000011,-0.00006445,-0.00006501,0.00027112
 ,-0.00048838,-0.00000005,0.00004152,-0.00003252,-0.00000299,-0.0000111
 6,-0.00002538,0.00000828,0.00001907,0.00000255,-0.00005301,0.00002054,
 0.00002062,0.00001001,-0.00001596,0.00000919,-0.00000299,-0.00001896,0
 .00001163,-0.00000821,0.00000074,-0.00000033,0.00002596,-0.00001472,0.
 00019625,-0.00026815,-0.00000430,0.00033189,0.00010985,-0.00009584,0.0
 0008704,0.00002888,-0.00003007,0.00003263,0.00001957,0.00000059,0.0000
 3215,0.00013877,-0.00002300,-0.00010879,-0.00001272,0.00000674,0.00002
 482,-0.00006347,0.00002400,0.00005452,-0.00006507,-0.00002649,0.000143
 00,0.00001282,0.00007330,-0.00000385,-0.00004905,-0.00001471,0.0000235
 0,0.00000526,-0.00003210,0.00000760,-0.00000779,0.00002195,0.00000533,
 -0.00000511,0.00002970,-0.00001110,0.00000424,-0.00000510,0.00000424,-
 0.00000184,-0.00000366,-0.00000018,0.00000067,-0.00000330,-0.00000009,
 -0.00000516,-0.00000582,-0.00000539,-0.00000157,0.00000293,0.00000246,
 0.00000366,-0.00000037,0.00000067,0.00000443,-0.00000109,0.00000235,-0
 .00003491,0.00000064,-0.00001908,0.00003350,-0.00011372,0.00000146,-0.
 00036180,0.00029407,-0.00038258,-0.00006452,0.00001170,0.00000822,-0.0
 0002614,-0.00001623,0.00000257,0.00002885,-0.00002070,-0.00004143,0.00
 001495,0.00003347,-0.00001279,-0.00000275,-0.00001264,0.00001232,-0.00
 001939,-0.00000509,0.00000495,0.00000791,0.00000158,0.00000220,0.00012
 154,-0.00008812,0.00002404,0.00042447,-0.00001036,-0.00018235,-0.00006
 467,0.00003468,0.00016199,0.00002982,0.00002535,0.00002364,0.00003669,
 0.00000452,0.00000082,-0.00002412,0.00002290,-0.00001165,0.00000408,-0
 .00000362,0.00000124,0.00000239,0.00000711,0.00000254,0.00002745,-0.00
 002951,0.00001612,-0.00138020,-0.00058156,0.00018735,0.00033135,0.0002
 6280,-0.00013890,0.00063884,0.00012641,0.00040624,-0.00048607,0.000293
 40,-0.00056425,0.00025662,-0.00036549,-0.00043962,-0.00049993,-0.00103
 490,0.00018766,-0.00020137,0.00059545,-0.00090020,0.00000673,-0.000028
 22,0.00011172,0.01336888,-0.01756958,0.00845814,0.00018556,-0.00014289
 ,0.00004612,0.00128182,0.00071103,0.00027612,0.00006058,-0.00041572,0.
 00009516,0.00013920,0.00002450,-0.00011429,-0.00001935,0.00002491,-0.0
 0004332,0.00002117,-0.00001536,0.00000163,-0.00001886,0.00000306,0.000
 00406,0.00000388,-0.00001552,-0.00001271,-0.00000216,0.00000242,0.0000
 0520,-0.00000515,0.00000551,-0.00000196,0.00000326,0.00000373,0.000001
 03,-0.00002598,0.00000455,-0.00000753,0.00000366,0.00000199,0.00000289
 ,0.00000165,-0.00000292,0.00000095,0.00000231,-0.00000015,-0.00000019,
 -0.00000824,0.00001606,0.00000225,0.00000416,-0.00000371,0.00000255,-0
 .00000019,-0.00000096,-0.00000248,0.00000051,-0.00000237,-0.00000180,0
 .00030683,-0.00022814,0.00000321,-0.00002934,0.00004506,0.00000302,0.0
 0001976,-0.00000789,0.00003957,0.00000255,-0.00015356,-0.00025304,-0.0
 0013637,-0.00004737,-0.00011675,0.00055793,0.00020358,0.00075554,0.000
 27574,-0.00023743,-0.00053335,-0.00024457,0.00014022,-0.00008141,0.000
 04455,0.00004344,0.00005653,-0.00009035,0.00001272,0.00007721,-0.00155
 130,-0.00008614,-0.00030979,0.00035441,0.00024293,-0.00012454,0.000158
 07,0.00005554,0.00000122,0.00131734,0.00031671,-0.00068850,0.00051720,
 0.00098274,0.00017597,-0.00005489,-0.00028633,-0.00017185,-0.00025704,
 -0.00017755,-0.00008846,-0.00011358,-0.00036441,0.00006347,-0.01336837
 ,0.01878701,-0.07546508,-0.00661143,0.04454357,-0.01018890,0.04995066,
 -0.06757129,0.09472872,-0.00000722,-0.00005335,-0.00003017,-0.00000918
 ,-0.00001756,-0.00006732,-0.00030501,-0.00035038,-0.00020861,0.0000980
 0,-0.00006214,0.00012343,0.00005111,-0.00003143,-0.00002576,-0.0000117
 9,-0.00001147,-0.00004633,0.00000094,0.00000179,-0.00000413,0.00000091
 ,0.00001181,0.00000150,-0.00000859,0.00002227,-0.00002700,0.00000360,-
 0.00000867,-0.00000685,-0.00005164,0.00029373,0.00011923,0.00025333,0.
 00007764,-0.00003651,0.00004356,0.00004904,0.00009664,-0.00002028,0.00
 006753,0.00004393,-0.00006146,0.00005651,0.00000630,0.00019424,-0.0001
 4552,-0.00007149,-0.00005648,0.00006406,-0.00001948,-0.00010564,0.0000
 3547,0.00009687,-0.00016559,0.00009816,0.00005134,0.00001202,0.0000035
 9,-0.00004002,-0.00000928,-0.00000335,0.00000393,-0.00000444,-0.000003
 30,0.00000560,0.00000161,0.00000975,0.00001320,0.00000278,-0.00003696,
 0.00000647,0.00000240,-0.00000090,-0.00000326,0.00000457,0.00000814,-0
 .00000272,-0.00000427,0.00000550,0.00000255,0.00002881,-0.00000227,-0.
 00000868,-0.00000937,0.00000213,0.00000739,0.00002803,-0.00001590,0.00
 001117,-0.00000671,0.00000654,-0.00000493,0.00004064,0.00006406,-0.000
 02738,0.00009309,-0.00015752,-0.00003189,0.00004434,-0.00001481,-0.000
 22636,0.00005758,0.00000242,-0.00007046,0.00002536,-0.00002280,-0.0000
 2077,0.00005431,-0.00006588,-0.00005728,0.00001177,0.00002279,-0.00000
 868,0.00000492,-0.00000827,0.00000848,-0.00000876,-0.00000674,0.000007
 70,0.00000272,-0.00000218,-0.00000042,-0.00009127,0.00008108,0.0001505
 8,0.00009000,0.00007659,0.00005827,-0.00023739,0.00003133,0.00027273,-
 0.00004186,-0.00003928,0.00001651,-0.00006058,0.00000360,0.00003992,0.
 00000191,-0.00001552,-0.00000463,-0.00000871,0.00000529,0.00000438,0.0
 0000029,0.00000175,-0.00000355,-0.00001492,0.00002908,0.00001987,-0.00
 026302,-0.00029125,-0.00052980,0.00008419,0.00002901,0.00008448,0.0000
 7706,0.00007852,0.00032063,0.00133430,-0.00021819,-0.00051326,0.000374
 81,0.00055095,0.00013629,-0.00244762,-0.00123157,0.00305465,-0.0005634
 1,0.00019141,0.00043853,0.00005811,0.00013216,-0.00000535,0.00307001,-
 0.00207683,-0.00327586,0.00089414,0.00155563,0.00033481,0.00082464,-0.
 00046705,-0.00084757,0.00020753,0.00044812,0.00039832,0.00061829,0.000
 12765,-0.00013433,-0.00015382,0.00006602,-0.00011789,0.00005324,-0.000
 04648,0.00002644,-0.00007785,-0.00003995,-0.00001463,0.00001241,0.0000
 2296,-0.00002897,0.00000287,-0.00000530,0.00001151,-0.00000093,0.00001
 165,0.00000455,-0.00000689,-0.00000364,0.00000029,0.00003042,-0.000005
 26,0.00000456,-0.00000013,0.00000094,-0.00000249,-0.00000251,0.0000015
 0,-0.00000275,-0.00000697,-0.00000068,0.00000349,0.00000893,-0.0000235
 4,-0.00000977,0.00000025,0.00000095,-0.00000067,0.00000203,0.00000258,
 -0.00000022,-0.00000374,0.00000186,0.00000565,-0.00028900,0.00013935,-
 0.00023095,0.00002678,0.00003122,0.00003078,0.00007856,-0.00008903,0.0
 0014558,-0.00012331,0.00010779,0.00012285,0.00015812,0.00016035,-0.000
 23006,0.00018317,-0.00033160,0.00061944,0.00100674,0.00003787,-0.00023
 928,-0.00097653,0.00050391,-0.00014680,0.00012127,0.00017071,0.0000318
 0,-0.00028463,-0.00018891,0.00023974,-0.00084557,0.00003538,-0.0004726
 3,0.00013540,0.00000104,0.00001149,0.00005689,0.00002755,0.00002790,0.
 00004008,-0.00015144,0.00012265,-0.00011731,0.00013585,0.00001111,0.00
 004445,-0.00010395,-0.00012296,0.00007178,-0.00002300,-0.00002044,0.00
 004319,-0.00002203,0.00000342,-0.14074884,-0.04650998,-0.07841487,-0.0
 4510480,-0.04387172,-0.00935644,-0.04747047,0.01375872,-0.04454875,0.2
 3001527,-0.00007916,0.00003934,-0.00001415,-0.00002182,0.00002957,-0.0
 0001369,-0.00035232,0.00015097,-0.00030810,-0.00011410,0.00009487,-0.0
 0009754,-0.00004408,0.00000142,-0.00002324,0.00006400,-0.00003068,0.00
 000506,-0.00004701,0.00001362,0.00000108,0.00000924,-0.00000458,0.0000
 0533,0.00000380,-0.00001020,0.00000807,-0.00000185,-0.00000568,-0.0000
 0060,0.00026858,-0.00001758,0.00022295,0.00017845,-0.00015242,0.000101
 06,0.00015004,-0.00013246,0.00001591,0.00008280,-0.00007544,0.00000709
 ,0.00009659,-0.00001394,0.00004646,0.00001327,-0.00010142,-0.00004368,
 0.00000988,0.00001783,0.00002275,-0.00002775,0.00001076,0.00002933,0.0
 0000662,0.00013156,0.00006948,-0.00001772,0.00007522,0.00006494,-0.000
 04659,-0.00000652,0.00001628,0.00001619,-0.00003741,-0.00000038,-0.000
 01169,0.00002629,0.00000124,-0.00001625,0.00005578,-0.00001742,0.00000
 442,-0.00000869,0.00000872,-0.00000075,-0.00000503,0.00000275,0.000006
 18,-0.00000996,-0.00000394,-0.00004883,-0.00002371,-0.00000462,0.00000
 689,0.00000381,-0.00000206,0.00000495,0.00000151,0.00000049,0.00001059
 ,-0.00000090,0.00000508,-0.00003235,0.00001072,-0.00000589,0.00008653,
 -0.00020821,-0.00005168,-0.00030542,0.00019183,-0.00031682,-0.00006945
 ,0.00000669,0.00001941,-0.00002499,-0.00003346,-0.00000258,0.00000641,
 -0.00006115,-0.00002462,0.00000657,0.00002937,-0.00000062,0.00000203,-
 0.00000924,0.00000633,-0.00001962,-0.00000534,0.00000198,0.00000558,0.
 00000227,0.00000184,0.00011606,-0.00002259,0.00002857,0.00048041,0.000
 12366,-0.00025857,-0.00017407,0.00011095,0.00023338,0.00002365,0.00005
 030,0.00002120,0.00002429,0.00001644,0.00000552,-0.00002252,0.00001017
 ,-0.00000510,0.00000545,-0.00000274,-0.00000131,0.00000295,0.00001095,
 0.00000471,0.00002879,-0.00001302,0.00000615,-0.00145682,-0.00110723,0
 .00032249,0.00026047,0.00055794,-0.00020897,0.00063600,0.00028849,0.00
 040820,0.00076709,-0.00022820,0.00014399,-0.00019495,-0.00032301,-0.00
 041113,-0.00122577,-0.00126138,0.00051881,0.00052945,-0.00148460,-0.00
 010852,-0.00000717,0.00010040,0.00001005,-0.01777576,-0.00487437,-0.02
 274410,0.00067339,0.00031337,-0.00081740,0.00225916,0.00152093,-0.0026
 8976,-0.00017789,0.00066165,0.00022976,0.00037128,0.00010285,-0.000146
 40,-0.00000679,-0.00007810,-0.00002141,-0.00001396,-0.00008955,0.00000
 830,-0.00002540,0.00000061,0.00000949,0.00001880,-0.00003763,-0.000016
 71,-0.00000036,0.00000144,0.00000230,-0.00000623,0.00000957,0.00000424
 ,-0.00000137,0.00000479,0.00000111,-0.00001626,0.00000048,-0.00000504,
 0.00000439,0.00000139,0.00000286,-0.00000024,-0.00000022,0.00000013,0.
 00000184,-0.00000060,-0.00000037,-0.00001162,0.00000570,0.00000193,0.0
 0000237,-0.00000255,0.00000240,-0.00000032,0.00000210,0.00000133,0.000
 00226,-0.00000054,-0.00000306,-0.00029201,0.00024182,-0.00019094,0.000
 02768,-0.00005272,0.00003261,0.00002555,0.00001311,0.00003409,0.000048
 01,0.00013269,0.00010451,0.00022941,-0.00010418,-0.00026392,-0.0002812
 0,0.00000296,0.00092662,0.00244807,-0.00010966,-0.00103501,-0.00173675
 ,-0.00054696,0.00070718,-0.00006975,0.00010838,0.00005960,-0.00063484,
 -0.00037476,0.00038915,-0.00016467,0.00024921,-0.00053171,0.00002918,-
 0.00007038,0.00006610,-0.00000861,-0.00006415,0.00011650,-0.00000999,0
 .00001582,-0.00011030,0.00110656,0.00109228,0.00048913,-0.00009252,-0.
 00042097,-0.00047846,-0.00038085,-0.00019232,-0.00017375,-0.00019228,-
 0.00044016,0.00004870,-0.04296472,-0.10174055,-0.05388497,-0.04441442,
 -0.02256318,-0.00872853,0.02516538,0.01431279,0.02153867,0.07731431,0.
 11620374,-0.00007942,0.00001365,-0.00004381,-0.00003952,0.00001269,-0.
 00010409,-0.00039989,0.00023461,-0.00076879,-0.00002041,0.00007015,-0.
 00003972,-0.00000442,-0.00002259,-0.00005224,0.00005935,-0.00005120,-0
 .00005447,-0.00007699,0.00003544,0.00001935,0.00001533,-0.00001545,0.0
 0001247,-0.00000576,-0.00002334,0.00000671,-0.00001033,-0.00000364,-0.
 00000271,0.00014690,0.00009975,0.00040652,-0.00005595,-0.00008206,0.00
 041854,0.00022571,-0.00015771,0.00014071,0.00006696,-0.00004710,0.0000
 5765,0.00004614,0.00001403,0.00006462,0.00028798,-0.00011889,-0.000218
 22,-0.00003461,0.00003918,0.00003985,-0.00014213,0.00005504,0.00012829
 ,-0.00014554,0.00002891,0.00025712,-0.00000064,0.00011403,0.00001806,-
 0.00007757,-0.00001717,0.00003218,0.00001620,-0.00005369,0.00000946,-0
 .00001490,0.00004706,0.00001360,-0.00001339,0.00004843,-0.00001924,0.0
 0000809,-0.00001072,0.00000815,-0.00000078,-0.00000370,0.00000030,0.00
 000237,-0.00000665,-0.00000106,-0.00001755,-0.00001815,-0.00001135,-0.
 00000209,0.00000621,0.00000484,0.00001467,-0.00000488,0.00000490,0.000
 00810,0.00000012,0.00000345,-0.00005039,0.00001768,-0.00003291,0.00009
 999,-0.00027511,-0.00002328,-0.00063757,0.00050646,-0.00073814,-0.0001
 0470,0.00001956,0.00000416,-0.00003985,-0.00004106,-0.00000273,0.00006
 083,-0.00006909,-0.00008789,0.00002795,0.00006585,-0.00002134,-0.00000
 332,-0.00002341,0.00002167,-0.00003741,-0.00000953,0.00000912,0.000013
 93,0.00000269,0.00000339,0.00019589,-0.00011976,0.00008215,0.00082366,
 0.00004304,-0.00043638,-0.00021281,0.00009329,0.00037522,0.00003970,0.
 00004760,0.00004325,0.00004377,0.00001432,0.00001205,-0.00003992,0.000
 03135,-0.00001711,0.00000590,-0.00000499,0.00000197,0.00000447,0.00001
 422,0.00000432,0.00004372,-0.00003642,0.00002780,-0.00262529,-0.001389
 04,0.00059360,0.00055028,0.00073182,-0.00033568,0.00125387,0.00034231,
 0.00078943,0.00028330,-0.00059902,0.00017601,0.00000066,-0.00038087,-0
 .00060891,-0.00108636,-0.00077056,-0.00067668,-0.00068023,-0.00260186,
 -0.00045746,-0.00003525,0.00004974,0.00001039,-0.02932752,-0.02392866,
 -0.02567674,0.00028446,-0.00051139,-0.00211780,0.00528541,0.00114990,-
 0.00565255,-0.00026131,0.00035436,0.00009734,0.00044566,0.00009477,-0.
 00023535,0.00001175,0.00007154,-0.00018131,0.00005070,-0.00005903,0.00
 001049,-0.00005597,-0.00000425,0.00000440,0.00001656,-0.00003236,-0.00
 002870,-0.00000260,0.00000288,0.00000951,-0.00000965,0.00001350,0.0000
 0028,0.00000192,0.00000616,0.00000158,-0.00003273,0.00000458,-0.000010
 73,0.00000662,0.00000334,0.00000433,0.00000140,-0.00000329,0.00000054,
 0.00000236,-0.00000069,0.00000046,-0.00001297,0.00001644,0.00000141,0.
 00000652,-0.00000577,0.00000395,0.00000022,0.00000023,-0.00000271,0.00
 000068,-0.00000285,-0.00000202,-0.00003067,-0.00004709,-0.00031471,0.0
 0000346,0.00002707,0.00005277,0.00010920,-0.00008953,0.00017482,-0.000
 04084,-0.00007359,-0.00009024,-0.00006621,-0.00013867,-0.00026349,0.00
 014279,0.00041263,0.00055610,0.00058255,-0.00034076,-0.00065323,-0.000
 60542,0.00085281,-0.00048299,0.00011078,0.00008714,0.00004810,-0.00013
 193,-0.00008935,0.00022354,-0.00053691,-0.00005323,-0.00023644,0.00010
 347,0.00007408,0.00001774,0.00003758,-0.00003429,0.00009421,0.00009113
 ,-0.00015257,0.00003908,0.00171493,0.00193385,0.00050610,-0.00012704,-
 0.00077626,-0.00079969,-0.00061425,-0.00034230,-0.00024351,-0.00029507
 ,-0.00080600,0.00015066,-0.07059817,-0.05283509,-0.16491768,0.00239467
 ,0.00048861,0.02201192,-0.03926874,0.01226793,-0.01528486,0.13296246,0
 .06662362,0.19413829\\-0.00000055,0.00000023,-0.00000169,-0.00000138,-
 0.00000031,-0.00000034,0.00000109,-0.00000009,0.00000207,0.00000292,-0
 .00000118,-0.00000072,0.00000130,-0.00000150,-0.00000297,-0.00000030,0
 .00000112,0.00000273,-0.00000182,0.00000084,-0.00000056,0.00000029,-0.
 00000071,-0.00000208,0.00000373,-0.00000173,-0.00000066,0.00000050,-0.
 00000112,-0.00000307,0.00000265,-0.00000115,0.00000056,0.00000110,0.00
 000061,0.00000191,-0.00000209,0.00000245,0.00000096,-0.00000189,-0.000
 00037,-0.00000380,0.00000252,-0.00000161,-0.00000391,0.00000543,-0.000
 00208,-0.00000144,0.00000560,-0.00000259,-0.00000231,0.00000528,-0.000
 00194,-0.00000014,0.00000433,-0.00000046,-0.00000172,-0.00000404,0.000
 00148,-0.00000039,-0.00000521,0.00000128,0.,-0.00000474,0.00000156,-0.
 00000181,-0.00000514,0.00000259,0.00000135,-0.00000139,-0.00000070,-0.
 00000506,-0.00000070,-0.00000106,-0.00000595,-0.00000228,-0.00000039,-
 0.00000431,-0.00000350,-0.00000026,-0.00000605,0.00000200,-0.00000313,
 -0.00000594,0.00000155,-0.00000225,-0.00000734,0.00000258,-0.00000292,
 -0.00000508,0.00000368,-0.00000321,-0.00000714,-0.00000016,-0.00000094
 ,-0.00000267,0.00000077,0.00000106,-0.00000111,0.00000327,-0.00000130,
 0.00000073,-0.00000178,0.00000049,-0.00000287,-0.00000121,-0.00000090,
 -0.00000488,0.00000120,-0.00000214,0.00000050,0.00000264,-0.00000240,-
 0.00000329,-0.00000173,-0.00000024,-0.00000169,-0.00000356,0.00000078,
 -0.00000244,-0.00000044,-0.00000124,-0.00000527,-0.00000168,0.00000101
 ,-0.00000449,-0.00000410,0.00000184,0.00000149,0.00000124,-0.00000261,
 -0.00000041,0.00000189,-0.00000187,-0.00000421,-0.00000191,0.00000009,
 -0.00000520,-0.00000333,-0.00000038,-0.00000530,-0.00000507,0.00000024
 ,-0.00000577,-0.00000377,0.00000047,-0.00000378,-0.00000191,-0.0000008
 8,-0.00000625,0.00000302,-0.00000183,-0.00000219,-0.00000489,0.0000049
 7,0.00000359,-0.00000630,0.00000220,0.00000606,-0.00000295,0.00000246,
 0.00000357,-0.00000393,0.00000225,0.00000368,-0.00000029,0.00000017,0.
 00000519,-0.00000244,0.00000270,0.00000546,-0.00000458,0.00000244,0.00
 000334,0.00000035,0.00000167,0.00000612,0.00000082,-0.00000002,0.00000
 604,-0.00000002,0.00000190,0.00000762,-0.00000031,0.00000228,0.0000079
 0,0.00000570,0.00000034,-0.00000046,0.00000571,-0.00000229,0.00000416,
 0.00000199,-0.00000364,-0.00000004,0.00000617,-0.00000214,0.00000115,0
 .00000116,-0.00000159,-0.00000319,0.00000022,-0.00000097,-0.00000246,0
 .00000290,-0.00000174,-0.00000162,0.00000258,-0.00000184,-0.00000396,-
 0.00000296,-0.00000219,-0.00000787,-0.00000088,-0.00000148,-0.00000769
 ,-0.00000221,-0.00000092,-0.00000861,-0.00000331,-0.00000068,-0.000008
 80,-0.00000273,-0.00000049,-0.00000873,-0.00000210,-0.00000145,-0.0000
 0884,-0.00000324,-0.00000022,-0.00000689,-0.00000469,-0.00000054,-0.00
 000824,0.00000353,0.00000018,0.00000367,0.00000317,-0.00000043,0.00000
 426,0.00000409,-0.00000092,0.00000294,0.00000235,0.00000034,0.00000502
 ,0.00000124,0.00000170,0.00000004,0.00000115,0.00000032,0.00000680,0.0
 0000374,0.00000195,0.00000704,0.00000425,0.00000013,0.00000756,0.00000
 371,-0.00000041,0.00000562,0.00000370,0.00000033,0.00000736,-0.0000000
 2,0.00000402,0.00000848,0.00000079,0.00000184,0.00000803,-0.00000091,0
 .00000176,0.00000547,0.00000090,0.00000222,0.00000858,-0.00000416,0.00
 000262,0.00000543,-0.00000630,0.00000379,0.00000495,-0.00000390,0.0000
 0377,0.00000810,-0.00000372,0.00000151,0.00000560,0.00000191,0.0000006
 2,0.00000788,0.00000376,0.00000093,0.00000882,0.00000208,0.00000124,0.
 00000949,0.00000396,0.00000062,0.00000640\\\@


 KEEP CLOSE TO NATURES HEART, YOURSELF;
 AND BREAK CLEAR AWAY, ONCE IN A WHILE, AND
 CLIMB A MOUNTAIN OR SPEND A WEEK IN THE
 WOODS.  WASH YOUR SPIRIT CLEAN...
                                         -- JOHN MUIR
 Job cpu time:       5 days  3 hours 38 minutes 32.2 seconds.
 Elapsed time:       0 days  4 hours  3 minutes 45.4 seconds.
 File lengths (MBytes):  RWF=   9718 Int=      0 D2E=      0 Chk=     85 Scr=      1
 Normal termination of Gaussian 16 at Fri May 31 02:57:20 2019.
