 Entering Gaussian System, Link 0=g16
 Input=clay_new-glu_gluC6-DCUL-Na3_1Me2O-bisCF3-ts-b3lyp_d3bj-631gd-pcm_thf.gjf
 Output=clay_new-glu_gluC6-DCUL-Na3_1Me2O-bisCF3-ts-b3lyp_d3bj-631gd-pcm_thf.out
 Initial command:
 /home/ekwan/sw/g16/l1.exe "/scratch/users/ekwan/clay_new-glu_gluC6-DCUL-Na3_1Me2O-bisCF3-ts-b3lyp_d3bj-631gd-pcm_thf/Gau-10794.inp" -scrdir="/scratch/users/ekwan/clay_new-glu_gluC6-DCUL-Na3_1Me2O-bisCF3-ts-b3lyp_d3bj-631gd-pcm_thf/"
 Entering Link 1 = /home/ekwan/sw/g16/l1.exe PID=     10795.
  
 Copyright (c) 1988,1990,1992,1993,1995,1998,2003,2009,2016,
            Gaussian, Inc.  All Rights Reserved.
  
 This is part of the Gaussian(R) 16 program.  It is based on
 the Gaussian(R) 09 system (copyright 2009, Gaussian, Inc.),
 the Gaussian(R) 03 system (copyright 2003, Gaussian, Inc.),
 the Gaussian(R) 98 system (copyright 1998, Gaussian, Inc.),
 the Gaussian(R) 94 system (copyright 1995, Gaussian, Inc.),
 the Gaussian 92(TM) system (copyright 1992, Gaussian, Inc.),
 the Gaussian 90(TM) system (copyright 1990, Gaussian, Inc.),
 the Gaussian 88(TM) system (copyright 1988, Gaussian, Inc.),
 the Gaussian 86(TM) system (copyright 1986, Carnegie Mellon
 University), and the Gaussian 82(TM) system (copyright 1983,
 Carnegie Mellon University). Gaussian is a federally registered
 trademark of Gaussian, Inc.
  
 This software contains proprietary and confidential information,
 including trade secrets, belonging to Gaussian, Inc.
  
 This software is provided under written license and may be
 used, copied, transmitted, or stored only in accord with that
 written license.
  
 The following legend is applicable only to US Government
 contracts under FAR:
  
                    RESTRICTED RIGHTS LEGEND
  
 Use, reproduction and disclosure by the US Government is
 subject to restrictions as set forth in subparagraphs (a)
 and (c) of the Commercial Computer Software - Restricted
 Rights clause in FAR 52.227-19.
  
 Gaussian, Inc.
 340 Quinnipiac St., Bldg. 40, Wallingford CT 06492
  
  
 ---------------------------------------------------------------
 Warning -- This program may not be used in any manner that
 competes with the business of Gaussian, Inc. or will provide
 assistance to any competitor of Gaussian, Inc.  The licensee
 of this program is prohibited from giving any competitor of
 Gaussian, Inc. access to this program.  By using this program,
 the user acknowledges that Gaussian, Inc. is engaged in the
 business of creating and licensing software in the field of
 computational chemistry and represents and warrants to the
 licensee that it is not a competitor of Gaussian, Inc. and that
 it will not use this program in any manner prohibited above.
 ---------------------------------------------------------------
  

 Cite this work as:
 Gaussian 16, Revision A.03,
 M. J. Frisch, G. W. Trucks, H. B. Schlegel, G. E. Scuseria, 
 M. A. Robb, J. R. Cheeseman, G. Scalmani, V. Barone, 
 G. A. Petersson, H. Nakatsuji, X. Li, M. Caricato, A. V. Marenich, 
 J. Bloino, B. G. Janesko, R. Gomperts, B. Mennucci, H. P. Hratchian, 
 J. V. Ortiz, A. F. Izmaylov, J. L. Sonnenberg, D. Williams-Young, 
 F. Ding, F. Lipparini, F. Egidi, J. Goings, B. Peng, A. Petrone, 
 T. Henderson, D. Ranasinghe, V. G. Zakrzewski, J. Gao, N. Rega, 
 G. Zheng, W. Liang, M. Hada, M. Ehara, K. Toyota, R. Fukuda, 
 J. Hasegawa, M. Ishida, T. Nakajima, Y. Honda, O. Kitao, H. Nakai, 
 T. Vreven, K. Throssell, J. A. Montgomery, Jr., J. E. Peralta, 
 F. Ogliaro, M. J. Bearpark, J. J. Heyd, E. N. Brothers, K. N. Kudin, 
 V. N. Staroverov, T. A. Keith, R. Kobayashi, J. Normand, 
 K. Raghavachari, A. P. Rendell, J. C. Burant, S. S. Iyengar, 
 J. Tomasi, M. Cossi, J. M. Millam, M. Klene, C. Adamo, R. Cammi, 
 J. W. Ochterski, R. L. Martin, K. Morokuma, O. Farkas, 
 J. B. Foresman, and D. J. Fox, Gaussian, Inc., Wallingford CT, 2016.
 
 ******************************************
 Gaussian 16:  AS64L-G16RevA.03 25-Dec-2016
                21-May-2019 
 ******************************************
 %mem=48GB
 %nprocshared=32
 Will use up to   32 processors via shared memory.
 ----------------------------------------------------------------------
 #p opt=(ts,noeigentest,calcfc,maxstep=3,modredundant,recalc=30) freq=n
 oraman b3lyp 6-31g* pop=none scrf=(solvent=tetrahydrofuran,pcm) empiri
 caldispersion=gd3bj
 ----------------------------------------------------------------------
 1/5=1,8=3,10=4,11=1,18=120,26=3,38=1,71=30/1,3;
 2/9=110,12=2,17=6,18=5,40=1/2;
 3/5=1,6=6,7=1,11=2,25=1,30=1,70=2201,71=2,72=20,74=-5,124=41,140=1/1,2,3;
 4//1;
 5/5=2,38=5,53=20/2;
 8/6=4,10=90,11=11/1;
 11/6=1,8=1,9=11,15=111,16=1/1,2,10;
 10/6=1,13=1/2;
 7/10=1,18=20,25=1/1,2,3,16;
 1/5=1,8=3,10=4,11=1,18=20,26=3,71=30/3(2);
 2/9=110/2;
 99//99;
 2/9=110/2;
 3/5=1,6=6,7=1,11=2,25=1,30=1,70=2205,71=1,72=20,74=-5,124=41/1,2,3;
 4/5=5,16=3,69=1/1;
 5/5=2,38=5,53=20/2;
 7//1,2,3,16;
 1/5=1,8=3,11=1,18=20,26=3,71=30/3(-5);
 2/9=110/2;
 99/9=1/99;
 Leave Link    1 at Tue May 21 17:00:54 2019, MaxMem=  6442450944 cpu:               4.4 elap:               0.2
 (Enter /home/ekwan/sw/g16/l101.exe)
 -----
 title
 -----
 Symbolic Z-matrix:
 Charge =  0 Multiplicity = 1
 C                     5.46639  -0.52568   1.05766 
 C                     4.88838  -0.95079  -0.29176 
 C                     3.82368  -2.02736  -0.08772 
 C                     3.21991  -1.19029   2.08323 
 C                     4.33848  -0.14414   2.01768 
 H                     3.34511  -2.27123  -1.04497 
 H                     4.37746  -0.09089  -0.74809 
 H                     6.03853  -1.3671    1.46883 
 H                     3.61171  -2.10329   2.55104 
 H                     3.90149   0.79157   1.65776 
 O                     2.78813  -1.52322   0.73496 
 O                     4.43114  -3.17768   0.43377 
 O                     5.88267  -1.44564  -1.17466 
 O                     6.33201   0.58779   0.83225 
 O                     4.8883    0.04791   3.32189 
 C                     1.98579  -0.69536   2.87608 
 H                     2.28527  -0.81712   3.94732 
 H                     1.21771  -1.49254   2.71116 
 O                     1.55761   0.56124   2.56494 
 C                     6.33269  -0.48682  -2.12147 
 H                     5.50088  -0.12326  -2.74451 
 H                     6.80849   0.36859  -1.63019 
 H                     7.05958  -0.99365  -2.76206 
 C                     7.48937   0.59983   1.65454 
 H                     7.22762   0.64088   2.71692 
 H                     8.11259  -0.28905   1.47551 
 H                     8.0608    1.49164   1.38168 
 C                     4.42412   1.23503   3.95848 
 H                     4.87698   2.12664   3.49738 
 H                     3.33313   1.31351   3.88972 
 H                     4.7418    1.17997   5.00404 
 C                     1.00785   0.67486  -1.91531 
 C                     1.05872   0.99059  -0.43059 
 C                    -0.01956   0.32048   0.38184 
 C                    -0.16945  -1.50905  -1.24717 
 C                     0.91113  -0.83855  -2.10543 
 H                     0.10754   0.49238   1.46119 
 H                     1.95763   0.52311  -0.01399 
 H                     0.14467   1.15136  -2.39049 
 H                    -1.12179  -1.40939  -1.76776 
 H                     1.88539  -1.26106  -1.8469 
 O                    -0.36771  -0.91114   0.07988 
 O                    -2.18484   0.72281  -2.09587 
 O                     1.08847   2.39104  -0.18523 
 O                     2.21966   1.09261  -2.53925 
 O                     0.59294  -1.14306  -3.45551 
 C                     0.16818  -2.96417  -0.87425 
 H                    -0.71706  -3.42816  -0.41392 
 H                     0.96632  -2.92225  -0.13012 
 O                     0.65133  -3.74279  -1.94586 
 S                    -2.59492   1.40595  -0.85879 
 O                    -3.07899   2.79761  -0.97741 
 O                    -1.46283   1.40122   0.21163 
 C                    -3.88862   0.42256  -0.10789 
 C                    -3.55522  -0.81724   0.4314 
 C                    -5.20463   0.87078  -0.15485 
 C                    -4.57413  -1.63204   0.91841 
 H                    -2.52242  -1.1428    0.47156 
 C                    -6.20968   0.04427   0.34988 
 H                    -5.4371    1.83866  -0.58207 
 C                    -5.90243  -1.20803   0.88152 
 H                    -6.69058  -1.85059   1.25422 
 C                     2.26475   2.81369   0.5352 
 H                     2.33405   2.23852   1.46426 
 H                     3.15547   2.66373  -0.08608 
 H                     2.13359   3.8797    0.72834 
 C                     2.14753   2.36448  -3.17057 
 H                     1.35988   2.38022  -3.93683 
 H                     1.95873   3.16426  -2.44665 
 H                     3.11534   2.52967  -3.64999 
 C                     1.70237  -1.60383  -4.22084 
 H                     2.49351  -0.84772  -4.26293 
 H                     2.10156  -2.53524  -3.80083 
 H                     1.32466  -1.7949   -5.22831 
 C                    -0.35654  -4.13813  -2.86951 
 H                     0.11209  -4.8384   -3.56477 
 H                    -1.18514  -4.64304  -2.35237 
 H                    -0.74335  -3.27999  -3.43008 
 C                     3.54532  -4.29041   0.50951 
 H                     4.15693  -5.16447   0.74272 
 H                     2.79399  -4.15198   1.29612 
 H                     3.02898  -4.44838  -0.44788 
 Na                   -0.83235   3.62574   0.33849 
 O                     0.29065   5.58192   0.03647 
 C                     0.68001   6.47899   1.07225 
 H                     0.40652   7.51056   0.81616 
 H                     0.1514    6.17591   1.97841 
 H                     1.76298   6.42624   1.24661 
 C                     0.92935   5.869    -1.2039 
 H                     2.01903   5.76791  -1.11372 
 H                     0.55795   5.14764  -1.93431 
 H                     0.68726   6.88571  -1.53898 
 C                    -4.21121  -2.96364   1.52083 
 F                    -5.25403  -3.81804   1.51756 
 F                    -3.80202  -2.83307   2.80144 
 F                    -3.19843  -3.55147   0.84235 
 C                    -7.63477   0.53031   0.3626 
 F                    -7.88042   1.38336  -0.65365 
 F                    -7.92015   1.18773   1.50975 
 F                    -8.51133  -0.49087   0.26367 
 
 Add virtual bond connecting atoms O53        and C34        Dist= 3.42D+00.
 Add virtual bond connecting atoms H37        and O19        Dist= 3.45D+00.
 Add virtual bond connecting atoms H41        and H6         Dist= 3.68D+00.
 Add virtual bond connecting atoms Na83       and O44        Dist= 4.43D+00.
 Add virtual bond connecting atoms Na83       and O53        Dist= 4.38D+00.
 The following ModRedundant input section has been read:
 
 ITRead=  0  0  0  0  0  0  0  0  0  0  0  0  0  0  0  0  0  0  0  0
 ITRead=  0  0  0  0  0  0  0  0  0  0  0  0  0  0  0  0  0  0  0  0
 ITRead=  0  0  0  0  0  0  0  0  0  0  0  0  0  0  0  0  0  0  0  0
 ITRead=  0  0  0  0  0  0  0  0  0  0  0  0  0  0  0  0  0  0  0  0
 ITRead=  0  0  0  0  0  0  0  0  0  0  0  0  0  0  0  0  0  0  0  0
 MicOpt= -1 -1 -1 -1 -1 -1 -1 -1 -1 -1 -1 -1 -1 -1 -1 -1 -1 -1 -1 -1
 MicOpt= -1 -1 -1 -1 -1 -1 -1 -1 -1 -1 -1 -1 -1 -1 -1 -1 -1 -1 -1 -1
 MicOpt= -1 -1 -1 -1 -1 -1 -1 -1 -1 -1 -1 -1 -1 -1 -1 -1 -1 -1 -1 -1
 MicOpt= -1 -1 -1 -1 -1 -1 -1 -1 -1 -1 -1 -1 -1 -1 -1 -1 -1 -1 -1 -1
 MicOpt= -1 -1 -1 -1 -1 -1 -1 -1 -1 -1 -1 -1 -1 -1 -1 -1 -1 -1 -1 -1
 NAtoms=    100 NQM=      100 NQMF=       0 NMMI=      0 NMMIF=      0
                NMic=       0 NMicF=      0.
                    Isotopes and Nuclear Properties:
 (Nuclear quadrupole moments (NQMom) in fm**2, nuclear magnetic moments (NMagM)
  in nuclear magnetons)

  Atom         1           2           3           4           5           6           7           8           9          10
 IAtWgt=          12          12          12          12          12           1           1           1           1           1
 AtmWgt=  12.0000000  12.0000000  12.0000000  12.0000000  12.0000000   1.0078250   1.0078250   1.0078250   1.0078250   1.0078250
 NucSpn=           0           0           0           0           0           1           1           1           1           1
 AtZEff=   0.0000000   0.0000000   0.0000000   0.0000000   0.0000000   0.0000000   0.0000000   0.0000000   0.0000000   0.0000000
 NQMom=    0.0000000   0.0000000   0.0000000   0.0000000   0.0000000   0.0000000   0.0000000   0.0000000   0.0000000   0.0000000
 NMagM=    0.0000000   0.0000000   0.0000000   0.0000000   0.0000000   2.7928460   2.7928460   2.7928460   2.7928460   2.7928460
 AtZNuc=   6.0000000   6.0000000   6.0000000   6.0000000   6.0000000   1.0000000   1.0000000   1.0000000   1.0000000   1.0000000

  Atom        11          12          13          14          15          16          17          18          19          20
 IAtWgt=          16          16          16          16          16          12           1           1          16          12
 AtmWgt=  15.9949146  15.9949146  15.9949146  15.9949146  15.9949146  12.0000000   1.0078250   1.0078250  15.9949146  12.0000000
 NucSpn=           0           0           0           0           0           0           1           1           0           0
 AtZEff=   0.0000000   0.0000000   0.0000000   0.0000000   0.0000000   0.0000000   0.0000000   0.0000000   0.0000000   0.0000000
 NQMom=    0.0000000   0.0000000   0.0000000   0.0000000   0.0000000   0.0000000   0.0000000   0.0000000   0.0000000   0.0000000
 NMagM=    0.0000000   0.0000000   0.0000000   0.0000000   0.0000000   0.0000000   2.7928460   2.7928460   0.0000000   0.0000000
 AtZNuc=   8.0000000   8.0000000   8.0000000   8.0000000   8.0000000   6.0000000   1.0000000   1.0000000   8.0000000   6.0000000

  Atom        21          22          23          24          25          26          27          28          29          30
 IAtWgt=           1           1           1          12           1           1           1          12           1           1
 AtmWgt=   1.0078250   1.0078250   1.0078250  12.0000000   1.0078250   1.0078250   1.0078250  12.0000000   1.0078250   1.0078250
 NucSpn=           1           1           1           0           1           1           1           0           1           1
 AtZEff=   0.0000000   0.0000000   0.0000000   0.0000000   0.0000000   0.0000000   0.0000000   0.0000000   0.0000000   0.0000000
 NQMom=    0.0000000   0.0000000   0.0000000   0.0000000   0.0000000   0.0000000   0.0000000   0.0000000   0.0000000   0.0000000
 NMagM=    2.7928460   2.7928460   2.7928460   0.0000000   2.7928460   2.7928460   2.7928460   0.0000000   2.7928460   2.7928460
 AtZNuc=   1.0000000   1.0000000   1.0000000   6.0000000   1.0000000   1.0000000   1.0000000   6.0000000   1.0000000   1.0000000

  Atom        31          32          33          34          35          36          37          38          39          40
 IAtWgt=           1          12          12          12          12          12           1           1           1           1
 AtmWgt=   1.0078250  12.0000000  12.0000000  12.0000000  12.0000000  12.0000000   1.0078250   1.0078250   1.0078250   1.0078250
 NucSpn=           1           0           0           0           0           0           1           1           1           1
 AtZEff=   0.0000000   0.0000000   0.0000000   0.0000000   0.0000000   0.0000000   0.0000000   0.0000000   0.0000000   0.0000000
 NQMom=    0.0000000   0.0000000   0.0000000   0.0000000   0.0000000   0.0000000   0.0000000   0.0000000   0.0000000   0.0000000
 NMagM=    2.7928460   0.0000000   0.0000000   0.0000000   0.0000000   0.0000000   2.7928460   2.7928460   2.7928460   2.7928460
 AtZNuc=   1.0000000   6.0000000   6.0000000   6.0000000   6.0000000   6.0000000   1.0000000   1.0000000   1.0000000   1.0000000

  Atom        41          42          43          44          45          46          47          48          49          50
 IAtWgt=           1          16          16          16          16          16          12           1           1          16
 AtmWgt=   1.0078250  15.9949146  15.9949146  15.9949146  15.9949146  15.9949146  12.0000000   1.0078250   1.0078250  15.9949146
 NucSpn=           1           0           0           0           0           0           0           1           1           0
 AtZEff=   0.0000000   0.0000000   0.0000000   0.0000000   0.0000000   0.0000000   0.0000000   0.0000000   0.0000000   0.0000000
 NQMom=    0.0000000   0.0000000   0.0000000   0.0000000   0.0000000   0.0000000   0.0000000   0.0000000   0.0000000   0.0000000
 NMagM=    2.7928460   0.0000000   0.0000000   0.0000000   0.0000000   0.0000000   0.0000000   2.7928460   2.7928460   0.0000000
 AtZNuc=   1.0000000   8.0000000   8.0000000   8.0000000   8.0000000   8.0000000   6.0000000   1.0000000   1.0000000   8.0000000

  Atom        51          52          53          54          55          56          57          58          59          60
 IAtWgt=          32          16          16          12          12          12          12           1          12           1
 AtmWgt=  31.9720718  15.9949146  15.9949146  12.0000000  12.0000000  12.0000000  12.0000000   1.0078250  12.0000000   1.0078250
 NucSpn=           0           0           0           0           0           0           0           1           0           1
 AtZEff=   0.0000000   0.0000000   0.0000000   0.0000000   0.0000000   0.0000000   0.0000000   0.0000000   0.0000000   0.0000000
 NQMom=    0.0000000   0.0000000   0.0000000   0.0000000   0.0000000   0.0000000   0.0000000   0.0000000   0.0000000   0.0000000
 NMagM=    0.0000000   0.0000000   0.0000000   0.0000000   0.0000000   0.0000000   0.0000000   2.7928460   0.0000000   2.7928460
 AtZNuc=  16.0000000   8.0000000   8.0000000   6.0000000   6.0000000   6.0000000   6.0000000   1.0000000   6.0000000   1.0000000

  Atom        61          62          63          64          65          66          67          68          69          70
 IAtWgt=          12           1          12           1           1           1          12           1           1           1
 AtmWgt=  12.0000000   1.0078250  12.0000000   1.0078250   1.0078250   1.0078250  12.0000000   1.0078250   1.0078250   1.0078250
 NucSpn=           0           1           0           1           1           1           0           1           1           1
 AtZEff=   0.0000000   0.0000000   0.0000000   0.0000000   0.0000000   0.0000000   0.0000000   0.0000000   0.0000000   0.0000000
 NQMom=    0.0000000   0.0000000   0.0000000   0.0000000   0.0000000   0.0000000   0.0000000   0.0000000   0.0000000   0.0000000
 NMagM=    0.0000000   2.7928460   0.0000000   2.7928460   2.7928460   2.7928460   0.0000000   2.7928460   2.7928460   2.7928460
 AtZNuc=   6.0000000   1.0000000   6.0000000   1.0000000   1.0000000   1.0000000   6.0000000   1.0000000   1.0000000   1.0000000

  Atom        71          72          73          74          75          76          77          78          79          80
 IAtWgt=          12           1           1           1          12           1           1           1          12           1
 AtmWgt=  12.0000000   1.0078250   1.0078250   1.0078250  12.0000000   1.0078250   1.0078250   1.0078250  12.0000000   1.0078250
 NucSpn=           0           1           1           1           0           1           1           1           0           1
 AtZEff=   0.0000000   0.0000000   0.0000000   0.0000000   0.0000000   0.0000000   0.0000000   0.0000000   0.0000000   0.0000000
 NQMom=    0.0000000   0.0000000   0.0000000   0.0000000   0.0000000   0.0000000   0.0000000   0.0000000   0.0000000   0.0000000
 NMagM=    0.0000000   2.7928460   2.7928460   2.7928460   0.0000000   2.7928460   2.7928460   2.7928460   0.0000000   2.7928460
 AtZNuc=   6.0000000   1.0000000   1.0000000   1.0000000   6.0000000   1.0000000   1.0000000   1.0000000   6.0000000   1.0000000

  Atom        81          82          83          84          85          86          87          88          89          90
 IAtWgt=           1           1          23          16          12           1           1           1          12           1
 AtmWgt=   1.0078250   1.0078250  22.9897697  15.9949146  12.0000000   1.0078250   1.0078250   1.0078250  12.0000000   1.0078250
 NucSpn=           1           1           3           0           0           1           1           1           0           1
 AtZEff=   0.0000000   0.0000000   0.0000000   0.0000000   0.0000000   0.0000000   0.0000000   0.0000000   0.0000000   0.0000000
 NQMom=    0.0000000   0.0000000  10.4000000   0.0000000   0.0000000   0.0000000   0.0000000   0.0000000   0.0000000   0.0000000
 NMagM=    2.7928460   2.7928460   2.2175200   0.0000000   0.0000000   2.7928460   2.7928460   2.7928460   0.0000000   2.7928460
 AtZNuc=   1.0000000   1.0000000  11.0000000   8.0000000   6.0000000   1.0000000   1.0000000   1.0000000   6.0000000   1.0000000

  Atom        91          92          93          94          95          96          97          98          99         100
 IAtWgt=           1           1          12          19          19          19          12          19          19          19
 AtmWgt=   1.0078250   1.0078250  12.0000000  18.9984033  18.9984033  18.9984033  12.0000000  18.9984033  18.9984033  18.9984033
 NucSpn=           1           1           0           1           1           1           0           1           1           1
 AtZEff=   0.0000000   0.0000000   0.0000000   0.0000000   0.0000000   0.0000000   0.0000000   0.0000000   0.0000000   0.0000000
 NQMom=    0.0000000   0.0000000   0.0000000   0.0000000   0.0000000   0.0000000   0.0000000   0.0000000   0.0000000   0.0000000
 NMagM=    2.7928460   2.7928460   0.0000000   2.6288670   2.6288670   2.6288670   0.0000000   2.6288670   2.6288670   2.6288670
 AtZNuc=   1.0000000   1.0000000   6.0000000   9.0000000   9.0000000   9.0000000   6.0000000   9.0000000   9.0000000   9.0000000
 Leave Link  101 at Tue May 21 17:00:55 2019, MaxMem=  6442450944 cpu:              17.2 elap:               0.7
 (Enter /home/ekwan/sw/g16/l103.exe)

 GradGradGradGradGradGradGradGradGradGradGradGradGradGradGradGradGradGrad
 Berny optimization.
 Initialization pass.
                           ----------------------------
                           !    Initial Parameters    !
                           ! (Angstroms and Degrees)  !
 --------------------------                            --------------------------
 ! Name  Definition              Value          Derivative Info.                !
 --------------------------------------------------------------------------------
 ! R1    R(1,2)                  1.5283         calculate D2E/DX2 analytically  !
 ! R2    R(1,5)                  1.5295         calculate D2E/DX2 analytically  !
 ! R3    R(1,8)                  1.0974         calculate D2E/DX2 analytically  !
 ! R4    R(1,14)                 1.4283         calculate D2E/DX2 analytically  !
 ! R5    R(2,3)                  1.5278         calculate D2E/DX2 analytically  !
 ! R6    R(2,7)                  1.0994         calculate D2E/DX2 analytically  !
 ! R7    R(2,13)                 1.4188         calculate D2E/DX2 analytically  !
 ! R8    R(3,6)                  1.0976         calculate D2E/DX2 analytically  !
 ! R9    R(3,11)                 1.4154         calculate D2E/DX2 analytically  !
 ! R10   R(3,12)                 1.4015         calculate D2E/DX2 analytically  !
 ! R11   R(4,5)                  1.5329         calculate D2E/DX2 analytically  !
 ! R12   R(4,9)                  1.0982         calculate D2E/DX2 analytically  !
 ! R13   R(4,11)                 1.4543         calculate D2E/DX2 analytically  !
 ! R14   R(4,16)                 1.5481         calculate D2E/DX2 analytically  !
 ! R15   R(5,10)                 1.0936         calculate D2E/DX2 analytically  !
 ! R16   R(5,15)                 1.4283         calculate D2E/DX2 analytically  !
 ! R17   R(6,41)                 1.9479         calculate D2E/DX2 analytically  !
 ! R18   R(12,79)                1.4243         calculate D2E/DX2 analytically  !
 ! R19   R(13,20)                1.4207         calculate D2E/DX2 analytically  !
 ! R20   R(14,24)                1.4198         calculate D2E/DX2 analytically  !
 ! R21   R(15,28)                1.4248         calculate D2E/DX2 analytically  !
 ! R22   R(16,17)                1.119          calculate D2E/DX2 analytically  !
 ! R23   R(16,18)                1.1192         calculate D2E/DX2 analytically  !
 ! R24   R(16,19)                1.3635         calculate D2E/DX2 analytically  !
 ! R25   R(19,37)                1.8236         calculate D2E/DX2 analytically  !
 ! R26   R(20,21)                1.101          calculate D2E/DX2 analytically  !
 ! R27   R(20,22)                1.0952         calculate D2E/DX2 analytically  !
 ! R28   R(20,23)                1.0934         calculate D2E/DX2 analytically  !
 ! R29   R(24,25)                1.0949         calculate D2E/DX2 analytically  !
 ! R30   R(24,26)                1.1003         calculate D2E/DX2 analytically  !
 ! R31   R(24,27)                1.0938         calculate D2E/DX2 analytically  !
 ! R32   R(28,29)                1.1012         calculate D2E/DX2 analytically  !
 ! R33   R(28,30)                1.096          calculate D2E/DX2 analytically  !
 ! R34   R(28,31)                1.0941         calculate D2E/DX2 analytically  !
 ! R35   R(32,33)                1.5188         calculate D2E/DX2 analytically  !
 ! R36   R(32,36)                1.5284         calculate D2E/DX2 analytically  !
 ! R37   R(32,39)                1.0945         calculate D2E/DX2 analytically  !
 ! R38   R(32,45)                1.4256         calculate D2E/DX2 analytically  !
 ! R39   R(33,34)                1.5072         calculate D2E/DX2 analytically  !
 ! R40   R(33,38)                1.0955         calculate D2E/DX2 analytically  !
 ! R41   R(33,44)                1.4221         calculate D2E/DX2 analytically  !
 ! R42   R(34,37)                1.1003         calculate D2E/DX2 analytically  !
 ! R43   R(34,42)                1.315          calculate D2E/DX2 analytically  !
 ! R44   R(34,53)                1.8111         calculate D2E/DX2 analytically  !
 ! R45   R(35,36)                1.5342         calculate D2E/DX2 analytically  !
 ! R46   R(35,40)                1.0899         calculate D2E/DX2 analytically  !
 ! R47   R(35,42)                1.469          calculate D2E/DX2 analytically  !
 ! R48   R(35,47)                1.5396         calculate D2E/DX2 analytically  !
 ! R49   R(36,41)                1.0929         calculate D2E/DX2 analytically  !
 ! R50   R(36,46)                1.4201         calculate D2E/DX2 analytically  !
 ! R51   R(43,51)                1.4715         calculate D2E/DX2 analytically  !
 ! R52   R(44,63)                1.4427         calculate D2E/DX2 analytically  !
 ! R53   R(44,83)                2.3427         calculate D2E/DX2 analytically  !
 ! R54   R(45,67)                1.4218         calculate D2E/DX2 analytically  !
 ! R55   R(46,71)                1.4244         calculate D2E/DX2 analytically  !
 ! R56   R(47,48)                1.1004         calculate D2E/DX2 analytically  !
 ! R57   R(47,49)                1.092          calculate D2E/DX2 analytically  !
 ! R58   R(47,50)                1.41           calculate D2E/DX2 analytically  !
 ! R59   R(50,75)                1.4231         calculate D2E/DX2 analytically  !
 ! R60   R(51,52)                1.4782         calculate D2E/DX2 analytically  !
 ! R61   R(51,53)                1.558          calculate D2E/DX2 analytically  !
 ! R62   R(51,54)                1.7901         calculate D2E/DX2 analytically  !
 ! R63   R(53,83)                2.3156         calculate D2E/DX2 analytically  !
 ! R64   R(54,55)                1.3925         calculate D2E/DX2 analytically  !
 ! R65   R(54,56)                1.391          calculate D2E/DX2 analytically  !
 ! R66   R(55,57)                1.3926         calculate D2E/DX2 analytically  !
 ! R67   R(55,58)                1.0836         calculate D2E/DX2 analytically  !
 ! R68   R(56,59)                1.3957         calculate D2E/DX2 analytically  !
 ! R69   R(56,60)                1.0832         calculate D2E/DX2 analytically  !
 ! R70   R(57,61)                1.3948         calculate D2E/DX2 analytically  !
 ! R71   R(57,93)                1.5059         calculate D2E/DX2 analytically  !
 ! R72   R(59,61)                1.3947         calculate D2E/DX2 analytically  !
 ! R73   R(59,97)                1.5057         calculate D2E/DX2 analytically  !
 ! R74   R(61,62)                1.083          calculate D2E/DX2 analytically  !
 ! R75   R(63,64)                1.0949         calculate D2E/DX2 analytically  !
 ! R76   R(63,65)                1.0963         calculate D2E/DX2 analytically  !
 ! R77   R(63,66)                1.0913         calculate D2E/DX2 analytically  !
 ! R78   R(67,68)                1.099          calculate D2E/DX2 analytically  !
 ! R79   R(67,69)                1.0952         calculate D2E/DX2 analytically  !
 ! R80   R(67,70)                1.0926         calculate D2E/DX2 analytically  !
 ! R81   R(71,72)                1.0952         calculate D2E/DX2 analytically  !
 ! R82   R(71,73)                1.0969         calculate D2E/DX2 analytically  !
 ! R83   R(71,74)                1.0928         calculate D2E/DX2 analytically  !
 ! R84   R(75,76)                1.0924         calculate D2E/DX2 analytically  !
 ! R85   R(75,77)                1.0995         calculate D2E/DX2 analytically  !
 ! R86   R(75,78)                1.0956         calculate D2E/DX2 analytically  !
 ! R87   R(79,80)                1.092          calculate D2E/DX2 analytically  !
 ! R88   R(79,81)                1.0965         calculate D2E/DX2 analytically  !
 ! R89   R(79,82)                1.0992         calculate D2E/DX2 analytically  !
 ! R90   R(83,84)                2.2757         calculate D2E/DX2 analytically  !
 ! R91   R(84,85)                1.4245         calculate D2E/DX2 analytically  !
 ! R92   R(84,89)                1.4244         calculate D2E/DX2 analytically  !
 ! R93   R(85,86)                1.0975         calculate D2E/DX2 analytically  !
 ! R94   R(85,87)                1.092          calculate D2E/DX2 analytically  !
 ! R95   R(85,88)                1.0982         calculate D2E/DX2 analytically  !
 ! R96   R(89,90)                1.0981         calculate D2E/DX2 analytically  !
 ! R97   R(89,91)                1.0917         calculate D2E/DX2 analytically  !
 ! R98   R(89,92)                1.0975         calculate D2E/DX2 analytically  !
 ! R99   R(93,94)                1.3481         calculate D2E/DX2 analytically  !
 ! R100  R(93,95)                1.3507         calculate D2E/DX2 analytically  !
 ! R101  R(93,96)                1.3534         calculate D2E/DX2 analytically  !
 ! R102  R(97,98)                1.3494         calculate D2E/DX2 analytically  !
 ! R103  R(97,99)                1.3526         calculate D2E/DX2 analytically  !
 ! R104  R(97,100)               1.3494         calculate D2E/DX2 analytically  !
 ! A1    A(2,1,5)              110.1626         calculate D2E/DX2 analytically  !
 ! A2    A(2,1,8)              108.3436         calculate D2E/DX2 analytically  !
 ! A3    A(2,1,14)             107.8616         calculate D2E/DX2 analytically  !
 ! A4    A(5,1,8)              109.91           calculate D2E/DX2 analytically  !
 ! A5    A(5,1,14)             110.5799         calculate D2E/DX2 analytically  !
 ! A6    A(8,1,14)             109.9312         calculate D2E/DX2 analytically  !
 ! A7    A(1,2,3)              109.9771         calculate D2E/DX2 analytically  !
 ! A8    A(1,2,7)              108.9464         calculate D2E/DX2 analytically  !
 ! A9    A(1,2,13)             112.4215         calculate D2E/DX2 analytically  !
 ! A10   A(3,2,7)              106.4218         calculate D2E/DX2 analytically  !
 ! A11   A(3,2,13)             109.0083         calculate D2E/DX2 analytically  !
 ! A12   A(7,2,13)             109.8885         calculate D2E/DX2 analytically  !
 ! A13   A(2,3,6)              110.1164         calculate D2E/DX2 analytically  !
 ! A14   A(2,3,11)             109.6639         calculate D2E/DX2 analytically  !
 ! A15   A(2,3,12)             109.026          calculate D2E/DX2 analytically  !
 ! A16   A(6,3,11)             105.4883         calculate D2E/DX2 analytically  !
 ! A17   A(6,3,12)             109.337          calculate D2E/DX2 analytically  !
 ! A18   A(11,3,12)            113.1528         calculate D2E/DX2 analytically  !
 ! A19   A(5,4,9)              108.9816         calculate D2E/DX2 analytically  !
 ! A20   A(5,4,11)             109.4648         calculate D2E/DX2 analytically  !
 ! A21   A(5,4,16)             112.6698         calculate D2E/DX2 analytically  !
 ! A22   A(9,4,11)             108.0908         calculate D2E/DX2 analytically  !
 ! A23   A(9,4,16)             109.3926         calculate D2E/DX2 analytically  !
 ! A24   A(11,4,16)            108.1376         calculate D2E/DX2 analytically  !
 ! A25   A(1,5,4)              113.2472         calculate D2E/DX2 analytically  !
 ! A26   A(1,5,10)             107.5491         calculate D2E/DX2 analytically  !
 ! A27   A(1,5,15)             108.8322         calculate D2E/DX2 analytically  !
 ! A28   A(4,5,10)             107.842          calculate D2E/DX2 analytically  !
 ! A29   A(4,5,15)             109.4872         calculate D2E/DX2 analytically  !
 ! A30   A(10,5,15)            109.8328         calculate D2E/DX2 analytically  !
 ! A31   A(3,6,41)             124.7879         calculate D2E/DX2 analytically  !
 ! A32   A(3,11,4)             113.7767         calculate D2E/DX2 analytically  !
 ! A33   A(3,12,79)            113.0449         calculate D2E/DX2 analytically  !
 ! A34   A(2,13,20)            113.6604         calculate D2E/DX2 analytically  !
 ! A35   A(1,14,24)            114.1578         calculate D2E/DX2 analytically  !
 ! A36   A(5,15,28)            113.2403         calculate D2E/DX2 analytically  !
 ! A37   A(4,16,17)            104.014          calculate D2E/DX2 analytically  !
 ! A38   A(4,16,18)            104.1169         calculate D2E/DX2 analytically  !
 ! A39   A(4,16,19)            115.3466         calculate D2E/DX2 analytically  !
 ! A40   A(17,16,18)           104.3143         calculate D2E/DX2 analytically  !
 ! A41   A(17,16,19)           113.7526         calculate D2E/DX2 analytically  !
 ! A42   A(18,16,19)           114.0345         calculate D2E/DX2 analytically  !
 ! A43   A(16,19,37)           110.6712         calculate D2E/DX2 analytically  !
 ! A44   A(13,20,21)           111.1416         calculate D2E/DX2 analytically  !
 ! A45   A(13,20,22)           111.4567         calculate D2E/DX2 analytically  !
 ! A46   A(13,20,23)           106.7495         calculate D2E/DX2 analytically  !
 ! A47   A(21,20,22)           108.9137         calculate D2E/DX2 analytically  !
 ! A48   A(21,20,23)           108.891          calculate D2E/DX2 analytically  !
 ! A49   A(22,20,23)           109.6348         calculate D2E/DX2 analytically  !
 ! A50   A(14,24,25)           111.555          calculate D2E/DX2 analytically  !
 ! A51   A(14,24,26)           111.1402         calculate D2E/DX2 analytically  !
 ! A52   A(14,24,27)           106.7571         calculate D2E/DX2 analytically  !
 ! A53   A(25,24,26)           108.8796         calculate D2E/DX2 analytically  !
 ! A54   A(25,24,27)           109.6564         calculate D2E/DX2 analytically  !
 ! A55   A(26,24,27)           108.7955         calculate D2E/DX2 analytically  !
 ! A56   A(15,28,29)           110.7048         calculate D2E/DX2 analytically  !
 ! A57   A(15,28,30)           110.8513         calculate D2E/DX2 analytically  !
 ! A58   A(15,28,31)           106.884          calculate D2E/DX2 analytically  !
 ! A59   A(29,28,30)           108.9729         calculate D2E/DX2 analytically  !
 ! A60   A(29,28,31)           108.7525         calculate D2E/DX2 analytically  !
 ! A61   A(30,28,31)           110.6452         calculate D2E/DX2 analytically  !
 ! A62   A(33,32,36)           109.243          calculate D2E/DX2 analytically  !
 ! A63   A(33,32,39)           111.1203         calculate D2E/DX2 analytically  !
 ! A64   A(33,32,45)           109.7839         calculate D2E/DX2 analytically  !
 ! A65   A(36,32,39)           109.0979         calculate D2E/DX2 analytically  !
 ! A66   A(36,32,45)           106.8293         calculate D2E/DX2 analytically  !
 ! A67   A(39,32,45)           110.6582         calculate D2E/DX2 analytically  !
 ! A68   A(32,33,34)           114.2395         calculate D2E/DX2 analytically  !
 ! A69   A(32,33,38)           108.0908         calculate D2E/DX2 analytically  !
 ! A70   A(32,33,44)           111.9678         calculate D2E/DX2 analytically  !
 ! A71   A(34,33,38)           101.0885         calculate D2E/DX2 analytically  !
 ! A72   A(34,33,44)           111.0875         calculate D2E/DX2 analytically  !
 ! A73   A(38,33,44)           109.7216         calculate D2E/DX2 analytically  !
 ! A74   A(33,34,37)           112.1264         calculate D2E/DX2 analytically  !
 ! A75   A(33,34,42)           118.8173         calculate D2E/DX2 analytically  !
 ! A76   A(33,34,53)           104.7231         calculate D2E/DX2 analytically  !
 ! A77   A(37,34,42)           113.7125         calculate D2E/DX2 analytically  !
 ! A78   A(37,34,53)            95.2229         calculate D2E/DX2 analytically  !
 ! A79   A(42,34,53)           109.0463         calculate D2E/DX2 analytically  !
 ! A80   A(36,35,40)           107.9538         calculate D2E/DX2 analytically  !
 ! A81   A(36,35,42)           114.9955         calculate D2E/DX2 analytically  !
 ! A82   A(36,35,47)           113.209          calculate D2E/DX2 analytically  !
 ! A83   A(40,35,42)           106.0429         calculate D2E/DX2 analytically  !
 ! A84   A(40,35,47)           113.1868         calculate D2E/DX2 analytically  !
 ! A85   A(42,35,47)           101.272          calculate D2E/DX2 analytically  !
 ! A86   A(32,36,35)           114.0627         calculate D2E/DX2 analytically  !
 ! A87   A(32,36,41)           107.2746         calculate D2E/DX2 analytically  !
 ! A88   A(32,36,46)           110.1678         calculate D2E/DX2 analytically  !
 ! A89   A(35,36,41)           109.0606         calculate D2E/DX2 analytically  !
 ! A90   A(35,36,46)           106.2787         calculate D2E/DX2 analytically  !
 ! A91   A(41,36,46)           109.9814         calculate D2E/DX2 analytically  !
 ! A92   A(19,37,34)           133.7457         calculate D2E/DX2 analytically  !
 ! A93   A(6,41,36)            164.9855         calculate D2E/DX2 analytically  !
 ! A94   A(34,42,35)           123.5676         calculate D2E/DX2 analytically  !
 ! A95   A(33,44,63)           113.0618         calculate D2E/DX2 analytically  !
 ! A96   A(33,44,83)           122.713          calculate D2E/DX2 analytically  !
 ! A97   A(63,44,83)           113.733          calculate D2E/DX2 analytically  !
 ! A98   A(32,45,67)           114.4164         calculate D2E/DX2 analytically  !
 ! A99   A(36,46,71)           113.9323         calculate D2E/DX2 analytically  !
 ! A100  A(35,47,48)           108.8704         calculate D2E/DX2 analytically  !
 ! A101  A(35,47,49)           106.8011         calculate D2E/DX2 analytically  !
 ! A102  A(35,47,50)           114.3919         calculate D2E/DX2 analytically  !
 ! A103  A(48,47,49)           108.6085         calculate D2E/DX2 analytically  !
 ! A104  A(48,47,50)           111.147          calculate D2E/DX2 analytically  !
 ! A105  A(49,47,50)           106.7768         calculate D2E/DX2 analytically  !
 ! A106  A(47,50,75)           113.8291         calculate D2E/DX2 analytically  !
 ! A107  A(43,51,52)           117.4429         calculate D2E/DX2 analytically  !
 ! A108  A(43,51,53)           111.9435         calculate D2E/DX2 analytically  !
 ! A109  A(43,51,54)           107.3983         calculate D2E/DX2 analytically  !
 ! A110  A(52,51,53)           107.2141         calculate D2E/DX2 analytically  !
 ! A111  A(52,51,54)           108.3113         calculate D2E/DX2 analytically  !
 ! A112  A(53,51,54)           103.6071         calculate D2E/DX2 analytically  !
 ! A113  A(34,53,51)           130.1985         calculate D2E/DX2 analytically  !
 ! A114  A(34,53,83)           110.5566         calculate D2E/DX2 analytically  !
 ! A115  A(51,53,83)           103.448          calculate D2E/DX2 analytically  !
 ! A116  A(51,54,55)           118.5891         calculate D2E/DX2 analytically  !
 ! A117  A(51,54,56)           119.5073         calculate D2E/DX2 analytically  !
 ! A118  A(55,54,56)           121.7667         calculate D2E/DX2 analytically  !
 ! A119  A(54,55,57)           118.7638         calculate D2E/DX2 analytically  !
 ! A120  A(54,55,58)           120.6649         calculate D2E/DX2 analytically  !
 ! A121  A(57,55,58)           120.5713         calculate D2E/DX2 analytically  !
 ! A122  A(54,56,59)           118.5707         calculate D2E/DX2 analytically  !
 ! A123  A(54,56,60)           120.2825         calculate D2E/DX2 analytically  !
 ! A124  A(59,56,60)           121.1453         calculate D2E/DX2 analytically  !
 ! A125  A(55,57,61)           120.6419         calculate D2E/DX2 analytically  !
 ! A126  A(55,57,93)           118.7474         calculate D2E/DX2 analytically  !
 ! A127  A(61,57,93)           120.589          calculate D2E/DX2 analytically  !
 ! A128  A(56,59,61)           120.7246         calculate D2E/DX2 analytically  !
 ! A129  A(56,59,97)           119.5668         calculate D2E/DX2 analytically  !
 ! A130  A(61,59,97)           119.6759         calculate D2E/DX2 analytically  !
 ! A131  A(57,61,59)           119.5252         calculate D2E/DX2 analytically  !
 ! A132  A(57,61,62)           120.2359         calculate D2E/DX2 analytically  !
 ! A133  A(59,61,62)           120.2362         calculate D2E/DX2 analytically  !
 ! A134  A(44,63,64)           108.7507         calculate D2E/DX2 analytically  !
 ! A135  A(44,63,65)           109.8395         calculate D2E/DX2 analytically  !
 ! A136  A(44,63,66)           106.0556         calculate D2E/DX2 analytically  !
 ! A137  A(64,63,65)           110.9529         calculate D2E/DX2 analytically  !
 ! A138  A(64,63,66)           111.7513         calculate D2E/DX2 analytically  !
 ! A139  A(65,63,66)           109.364          calculate D2E/DX2 analytically  !
 ! A140  A(45,67,68)           111.0246         calculate D2E/DX2 analytically  !
 ! A141  A(45,67,69)           111.625          calculate D2E/DX2 analytically  !
 ! A142  A(45,67,70)           106.5681         calculate D2E/DX2 analytically  !
 ! A143  A(68,67,69)           109.0786         calculate D2E/DX2 analytically  !
 ! A144  A(68,67,70)           109.0707         calculate D2E/DX2 analytically  !
 ! A145  A(69,67,70)           109.411          calculate D2E/DX2 analytically  !
 ! A146  A(46,71,72)           111.0988         calculate D2E/DX2 analytically  !
 ! A147  A(46,71,73)           110.6338         calculate D2E/DX2 analytically  !
 ! A148  A(46,71,74)           106.4216         calculate D2E/DX2 analytically  !
 ! A149  A(72,71,73)           109.7579         calculate D2E/DX2 analytically  !
 ! A150  A(72,71,74)           109.5706         calculate D2E/DX2 analytically  !
 ! A151  A(73,71,74)           109.2885         calculate D2E/DX2 analytically  !
 ! A152  A(50,75,76)           106.699          calculate D2E/DX2 analytically  !
 ! A153  A(50,75,77)           110.8555         calculate D2E/DX2 analytically  !
 ! A154  A(50,75,78)           111.3801         calculate D2E/DX2 analytically  !
 ! A155  A(76,75,77)           109.1627         calculate D2E/DX2 analytically  !
 ! A156  A(76,75,78)           109.1427         calculate D2E/DX2 analytically  !
 ! A157  A(77,75,78)           109.5283         calculate D2E/DX2 analytically  !
 ! A158  A(12,79,80)           106.76           calculate D2E/DX2 analytically  !
 ! A159  A(12,79,81)           111.4488         calculate D2E/DX2 analytically  !
 ! A160  A(12,79,82)           110.9851         calculate D2E/DX2 analytically  !
 ! A161  A(80,79,81)           109.3661         calculate D2E/DX2 analytically  !
 ! A162  A(80,79,82)           109.5163         calculate D2E/DX2 analytically  !
 ! A163  A(81,79,82)           108.7296         calculate D2E/DX2 analytically  !
 ! A164  A(44,83,53)            72.824          calculate D2E/DX2 analytically  !
 ! A165  A(44,83,84)            91.0754         calculate D2E/DX2 analytically  !
 ! A166  A(53,83,84)           162.3359         calculate D2E/DX2 analytically  !
 ! A167  A(83,84,85)           125.4293         calculate D2E/DX2 analytically  !
 ! A168  A(83,84,89)           120.6697         calculate D2E/DX2 analytically  !
 ! A169  A(85,84,89)           112.5628         calculate D2E/DX2 analytically  !
 ! A170  A(84,85,86)           110.7403         calculate D2E/DX2 analytically  !
 ! A171  A(84,85,87)           107.2347         calculate D2E/DX2 analytically  !
 ! A172  A(84,85,88)           110.7778         calculate D2E/DX2 analytically  !
 ! A173  A(86,85,87)           109.5048         calculate D2E/DX2 analytically  !
 ! A174  A(86,85,88)           109.1432         calculate D2E/DX2 analytically  !
 ! A175  A(87,85,88)           109.4082         calculate D2E/DX2 analytically  !
 ! A176  A(84,89,90)           110.7883         calculate D2E/DX2 analytically  !
 ! A177  A(84,89,91)           107.2713         calculate D2E/DX2 analytically  !
 ! A178  A(84,89,92)           110.7112         calculate D2E/DX2 analytically  !
 ! A179  A(90,89,91)           109.3734         calculate D2E/DX2 analytically  !
 ! A180  A(90,89,92)           109.2233         calculate D2E/DX2 analytically  !
 ! A181  A(91,89,92)           109.4383         calculate D2E/DX2 analytically  !
 ! A182  A(57,93,94)           111.9016         calculate D2E/DX2 analytically  !
 ! A183  A(57,93,95)           111.5186         calculate D2E/DX2 analytically  !
 ! A184  A(57,93,96)           111.3373         calculate D2E/DX2 analytically  !
 ! A185  A(94,93,95)           107.3318         calculate D2E/DX2 analytically  !
 ! A186  A(94,93,96)           107.6005         calculate D2E/DX2 analytically  !
 ! A187  A(95,93,96)           106.8929         calculate D2E/DX2 analytically  !
 ! A188  A(59,97,98)           111.7153         calculate D2E/DX2 analytically  !
 ! A189  A(59,97,99)           111.329          calculate D2E/DX2 analytically  !
 ! A190  A(59,97,100)          111.7095         calculate D2E/DX2 analytically  !
 ! A191  A(98,97,99)           107.0405         calculate D2E/DX2 analytically  !
 ! A192  A(98,97,100)          107.7546         calculate D2E/DX2 analytically  !
 ! A193  A(99,97,100)          107.0336         calculate D2E/DX2 analytically  !
 ! D1    D(5,1,2,3)            -52.2838         calculate D2E/DX2 analytically  !
 ! D2    D(5,1,2,7)             64.0006         calculate D2E/DX2 analytically  !
 ! D3    D(5,1,2,13)          -173.9445         calculate D2E/DX2 analytically  !
 ! D4    D(8,1,2,3)             67.9773         calculate D2E/DX2 analytically  !
 ! D5    D(8,1,2,7)           -175.7383         calculate D2E/DX2 analytically  !
 ! D6    D(8,1,2,13)           -53.6834         calculate D2E/DX2 analytically  !
 ! D7    D(14,1,2,3)          -173.0643         calculate D2E/DX2 analytically  !
 ! D8    D(14,1,2,7)           -56.7799         calculate D2E/DX2 analytically  !
 ! D9    D(14,1,2,13)           65.275          calculate D2E/DX2 analytically  !
 ! D10   D(2,1,5,4)             49.1556         calculate D2E/DX2 analytically  !
 ! D11   D(2,1,5,10)           -69.8958         calculate D2E/DX2 analytically  !
 ! D12   D(2,1,5,15)           171.1691         calculate D2E/DX2 analytically  !
 ! D13   D(8,1,5,4)            -70.1565         calculate D2E/DX2 analytically  !
 ! D14   D(8,1,5,10)           170.7921         calculate D2E/DX2 analytically  !
 ! D15   D(8,1,5,15)            51.857          calculate D2E/DX2 analytically  !
 ! D16   D(14,1,5,4)           168.2917         calculate D2E/DX2 analytically  !
 ! D17   D(14,1,5,10)           49.2403         calculate D2E/DX2 analytically  !
 ! D18   D(14,1,5,15)          -69.6948         calculate D2E/DX2 analytically  !
 ! D19   D(2,1,14,24)         -143.3224         calculate D2E/DX2 analytically  !
 ! D20   D(5,1,14,24)           96.1586         calculate D2E/DX2 analytically  !
 ! D21   D(8,1,14,24)          -25.3808         calculate D2E/DX2 analytically  !
 ! D22   D(1,2,3,6)            175.0487         calculate D2E/DX2 analytically  !
 ! D23   D(1,2,3,11)            59.3979         calculate D2E/DX2 analytically  !
 ! D24   D(1,2,3,12)           -64.9964         calculate D2E/DX2 analytically  !
 ! D25   D(7,2,3,6)             57.1894         calculate D2E/DX2 analytically  !
 ! D26   D(7,2,3,11)           -58.4615         calculate D2E/DX2 analytically  !
 ! D27   D(7,2,3,12)           177.1442         calculate D2E/DX2 analytically  !
 ! D28   D(13,2,3,6)           -61.2771         calculate D2E/DX2 analytically  !
 ! D29   D(13,2,3,11)         -176.9279         calculate D2E/DX2 analytically  !
 ! D30   D(13,2,3,12)           58.6778         calculate D2E/DX2 analytically  !
 ! D31   D(1,2,13,20)          -98.6847         calculate D2E/DX2 analytically  !
 ! D32   D(3,2,13,20)          139.1043         calculate D2E/DX2 analytically  !
 ! D33   D(7,2,13,20)           22.8343         calculate D2E/DX2 analytically  !
 ! D34   D(2,3,6,41)           -82.9683         calculate D2E/DX2 analytically  !
 ! D35   D(11,3,6,41)           35.2845         calculate D2E/DX2 analytically  !
 ! D36   D(12,3,6,41)          157.2653         calculate D2E/DX2 analytically  !
 ! D37   D(2,3,11,4)           -63.8294         calculate D2E/DX2 analytically  !
 ! D38   D(6,3,11,4)           177.615          calculate D2E/DX2 analytically  !
 ! D39   D(12,3,11,4)           58.13           calculate D2E/DX2 analytically  !
 ! D40   D(2,3,12,79)         -172.9846         calculate D2E/DX2 analytically  !
 ! D41   D(6,3,12,79)          -52.5494         calculate D2E/DX2 analytically  !
 ! D42   D(11,3,12,79)          64.6996         calculate D2E/DX2 analytically  !
 ! D43   D(9,4,5,1)             67.5718         calculate D2E/DX2 analytically  !
 ! D44   D(9,4,5,10)          -173.5456         calculate D2E/DX2 analytically  !
 ! D45   D(9,4,5,15)           -54.0751         calculate D2E/DX2 analytically  !
 ! D46   D(11,4,5,1)           -50.4531         calculate D2E/DX2 analytically  !
 ! D47   D(11,4,5,10)           68.4295         calculate D2E/DX2 analytically  !
 ! D48   D(11,4,5,15)         -172.1            calculate D2E/DX2 analytically  !
 ! D49   D(16,4,5,1)          -170.8136         calculate D2E/DX2 analytically  !
 ! D50   D(16,4,5,10)          -51.931          calculate D2E/DX2 analytically  !
 ! D51   D(16,4,5,15)           67.5396         calculate D2E/DX2 analytically  !
 ! D52   D(5,4,11,3)            58.5645         calculate D2E/DX2 analytically  !
 ! D53   D(9,4,11,3)           -60.015          calculate D2E/DX2 analytically  !
 ! D54   D(16,4,11,3)         -178.3472         calculate D2E/DX2 analytically  !
 ! D55   D(5,4,16,17)          -78.8301         calculate D2E/DX2 analytically  !
 ! D56   D(5,4,16,18)          172.1721         calculate D2E/DX2 analytically  !
 ! D57   D(5,4,16,19)           46.4513         calculate D2E/DX2 analytically  !
 ! D58   D(9,4,16,17)           42.5511         calculate D2E/DX2 analytically  !
 ! D59   D(9,4,16,18)          -66.4466         calculate D2E/DX2 analytically  !
 ! D60   D(9,4,16,19)          167.8326         calculate D2E/DX2 analytically  !
 ! D61   D(11,4,16,17)         160.0496         calculate D2E/DX2 analytically  !
 ! D62   D(11,4,16,18)          51.0518         calculate D2E/DX2 analytically  !
 ! D63   D(11,4,16,19)         -74.669          calculate D2E/DX2 analytically  !
 ! D64   D(1,5,15,28)          133.7296         calculate D2E/DX2 analytically  !
 ! D65   D(4,5,15,28)         -102.0033         calculate D2E/DX2 analytically  !
 ! D66   D(10,5,15,28)          16.2345         calculate D2E/DX2 analytically  !
 ! D67   D(3,6,41,36)          -78.6121         calculate D2E/DX2 analytically  !
 ! D68   D(3,12,79,80)         169.4897         calculate D2E/DX2 analytically  !
 ! D69   D(3,12,79,81)         -71.1434         calculate D2E/DX2 analytically  !
 ! D70   D(3,12,79,82)          50.202          calculate D2E/DX2 analytically  !
 ! D71   D(2,13,20,21)         -59.2166         calculate D2E/DX2 analytically  !
 ! D72   D(2,13,20,22)          62.4787         calculate D2E/DX2 analytically  !
 ! D73   D(2,13,20,23)        -177.8298         calculate D2E/DX2 analytically  !
 ! D74   D(1,14,24,25)         -60.4021         calculate D2E/DX2 analytically  !
 ! D75   D(1,14,24,26)          61.3173         calculate D2E/DX2 analytically  !
 ! D76   D(1,14,24,27)         179.8191         calculate D2E/DX2 analytically  !
 ! D77   D(5,15,28,29)         -72.764          calculate D2E/DX2 analytically  !
 ! D78   D(5,15,28,30)          48.2929         calculate D2E/DX2 analytically  !
 ! D79   D(5,15,28,31)         168.9496         calculate D2E/DX2 analytically  !
 ! D80   D(4,16,19,37)         100.957          calculate D2E/DX2 analytically  !
 ! D81   D(17,16,19,37)       -138.9631         calculate D2E/DX2 analytically  !
 ! D82   D(18,16,19,37)        -19.4902         calculate D2E/DX2 analytically  !
 ! D83   D(16,19,37,34)        -79.0888         calculate D2E/DX2 analytically  !
 ! D84   D(36,32,33,34)        -49.9655         calculate D2E/DX2 analytically  !
 ! D85   D(36,32,33,38)         61.6868         calculate D2E/DX2 analytically  !
 ! D86   D(36,32,33,44)       -177.3449         calculate D2E/DX2 analytically  !
 ! D87   D(39,32,33,34)         70.4549         calculate D2E/DX2 analytically  !
 ! D88   D(39,32,33,38)       -177.8928         calculate D2E/DX2 analytically  !
 ! D89   D(39,32,33,44)        -56.9245         calculate D2E/DX2 analytically  !
 ! D90   D(45,32,33,34)       -166.8025         calculate D2E/DX2 analytically  !
 ! D91   D(45,32,33,38)        -55.1502         calculate D2E/DX2 analytically  !
 ! D92   D(45,32,33,44)         65.8181         calculate D2E/DX2 analytically  !
 ! D93   D(33,32,36,35)         48.8915         calculate D2E/DX2 analytically  !
 ! D94   D(33,32,36,41)        -71.9995         calculate D2E/DX2 analytically  !
 ! D95   D(33,32,36,46)        168.301          calculate D2E/DX2 analytically  !
 ! D96   D(39,32,36,35)        -72.7595         calculate D2E/DX2 analytically  !
 ! D97   D(39,32,36,41)        166.3495         calculate D2E/DX2 analytically  !
 ! D98   D(39,32,36,46)         46.6499         calculate D2E/DX2 analytically  !
 ! D99   D(45,32,36,35)        167.5855         calculate D2E/DX2 analytically  !
 ! D100  D(45,32,36,41)         46.6945         calculate D2E/DX2 analytically  !
 ! D101  D(45,32,36,46)        -73.005          calculate D2E/DX2 analytically  !
 ! D102  D(33,32,45,67)        -97.3694         calculate D2E/DX2 analytically  !
 ! D103  D(36,32,45,67)        144.2894         calculate D2E/DX2 analytically  !
 ! D104  D(39,32,45,67)         25.6461         calculate D2E/DX2 analytically  !
 ! D105  D(32,33,34,37)        174.405          calculate D2E/DX2 analytically  !
 ! D106  D(32,33,34,42)         38.4193         calculate D2E/DX2 analytically  !
 ! D107  D(32,33,34,53)        -83.5637         calculate D2E/DX2 analytically  !
 ! D108  D(38,33,34,37)         58.6026         calculate D2E/DX2 analytically  !
 ! D109  D(38,33,34,42)        -77.383          calculate D2E/DX2 analytically  !
 ! D110  D(38,33,34,53)        160.634          calculate D2E/DX2 analytically  !
 ! D111  D(44,33,34,37)        -57.7648         calculate D2E/DX2 analytically  !
 ! D112  D(44,33,34,42)        166.2495         calculate D2E/DX2 analytically  !
 ! D113  D(44,33,34,53)         44.2665         calculate D2E/DX2 analytically  !
 ! D114  D(32,33,44,63)       -120.2494         calculate D2E/DX2 analytically  !
 ! D115  D(32,33,44,83)         97.2503         calculate D2E/DX2 analytically  !
 ! D116  D(34,33,44,63)        110.6993         calculate D2E/DX2 analytically  !
 ! D117  D(34,33,44,83)        -31.801          calculate D2E/DX2 analytically  !
 ! D118  D(38,33,44,63)         -0.2295         calculate D2E/DX2 analytically  !
 ! D119  D(38,33,44,83)       -142.7299         calculate D2E/DX2 analytically  !
 ! D120  D(33,34,37,19)        -39.0322         calculate D2E/DX2 analytically  !
 ! D121  D(42,34,37,19)         99.2911         calculate D2E/DX2 analytically  !
 ! D122  D(53,34,37,19)       -147.252          calculate D2E/DX2 analytically  !
 ! D123  D(33,34,42,35)        -23.5858         calculate D2E/DX2 analytically  !
 ! D124  D(37,34,42,35)       -158.916          calculate D2E/DX2 analytically  !
 ! D125  D(53,34,42,35)         96.2026         calculate D2E/DX2 analytically  !
 ! D126  D(33,34,53,51)         88.7676         calculate D2E/DX2 analytically  !
 ! D127  D(33,34,53,83)        -41.179          calculate D2E/DX2 analytically  !
 ! D128  D(37,34,53,51)       -156.7079         calculate D2E/DX2 analytically  !
 ! D129  D(37,34,53,83)         73.3455         calculate D2E/DX2 analytically  !
 ! D130  D(42,34,53,51)        -39.4001         calculate D2E/DX2 analytically  !
 ! D131  D(42,34,53,83)       -169.3468         calculate D2E/DX2 analytically  !
 ! D132  D(40,35,36,32)         83.2885         calculate D2E/DX2 analytically  !
 ! D133  D(40,35,36,41)       -156.8199         calculate D2E/DX2 analytically  !
 ! D134  D(40,35,36,46)        -38.2955         calculate D2E/DX2 analytically  !
 ! D135  D(42,35,36,32)        -34.849          calculate D2E/DX2 analytically  !
 ! D136  D(42,35,36,41)         85.0427         calculate D2E/DX2 analytically  !
 ! D137  D(42,35,36,46)       -156.433          calculate D2E/DX2 analytically  !
 ! D138  D(47,35,36,32)       -150.6064         calculate D2E/DX2 analytically  !
 ! D139  D(47,35,36,41)        -30.7148         calculate D2E/DX2 analytically  !
 ! D140  D(47,35,36,46)         87.8096         calculate D2E/DX2 analytically  !
 ! D141  D(36,35,42,34)         21.8473         calculate D2E/DX2 analytically  !
 ! D142  D(40,35,42,34)        -97.3585         calculate D2E/DX2 analytically  !
 ! D143  D(47,35,42,34)        144.2784         calculate D2E/DX2 analytically  !
 ! D144  D(36,35,47,48)       -170.3839         calculate D2E/DX2 analytically  !
 ! D145  D(36,35,47,49)         72.5214         calculate D2E/DX2 analytically  !
 ! D146  D(36,35,47,50)        -45.3817         calculate D2E/DX2 analytically  !
 ! D147  D(40,35,47,48)        -47.1179         calculate D2E/DX2 analytically  !
 ! D148  D(40,35,47,49)       -164.2127         calculate D2E/DX2 analytically  !
 ! D149  D(40,35,47,50)         77.8842         calculate D2E/DX2 analytically  !
 ! D150  D(42,35,47,48)         65.9565         calculate D2E/DX2 analytically  !
 ! D151  D(42,35,47,49)        -51.1383         calculate D2E/DX2 analytically  !
 ! D152  D(42,35,47,50)       -169.0414         calculate D2E/DX2 analytically  !
 ! D153  D(32,36,41,6)         121.1789         calculate D2E/DX2 analytically  !
 ! D154  D(35,36,41,6)          -2.8224         calculate D2E/DX2 analytically  !
 ! D155  D(46,36,41,6)        -119.0025         calculate D2E/DX2 analytically  !
 ! D156  D(32,36,46,71)        103.3431         calculate D2E/DX2 analytically  !
 ! D157  D(35,36,46,71)       -132.6174         calculate D2E/DX2 analytically  !
 ! D158  D(41,36,46,71)        -14.7014         calculate D2E/DX2 analytically  !
 ! D159  D(33,44,63,64)        -55.3373         calculate D2E/DX2 analytically  !
 ! D160  D(33,44,63,65)         66.2604         calculate D2E/DX2 analytically  !
 ! D161  D(33,44,63,66)       -175.6641         calculate D2E/DX2 analytically  !
 ! D162  D(83,44,63,64)         90.6402         calculate D2E/DX2 analytically  !
 ! D163  D(83,44,63,65)       -147.7621         calculate D2E/DX2 analytically  !
 ! D164  D(83,44,63,66)        -29.6866         calculate D2E/DX2 analytically  !
 ! D165  D(33,44,83,53)          4.3066         calculate D2E/DX2 analytically  !
 ! D166  D(33,44,83,84)       -168.3083         calculate D2E/DX2 analytically  !
 ! D167  D(63,44,83,53)       -137.97           calculate D2E/DX2 analytically  !
 ! D168  D(63,44,83,84)         49.4151         calculate D2E/DX2 analytically  !
 ! D169  D(32,45,67,68)        -58.1773         calculate D2E/DX2 analytically  !
 ! D170  D(32,45,67,69)         63.7648         calculate D2E/DX2 analytically  !
 ! D171  D(32,45,67,70)       -176.8333         calculate D2E/DX2 analytically  !
 ! D172  D(36,46,71,72)        -60.5402         calculate D2E/DX2 analytically  !
 ! D173  D(36,46,71,73)         61.6317         calculate D2E/DX2 analytically  !
 ! D174  D(36,46,71,74)       -179.751          calculate D2E/DX2 analytically  !
 ! D175  D(35,47,50,75)        -74.9156         calculate D2E/DX2 analytically  !
 ! D176  D(48,47,50,75)         48.8756         calculate D2E/DX2 analytically  !
 ! D177  D(49,47,50,75)        167.1675         calculate D2E/DX2 analytically  !
 ! D178  D(47,50,75,76)       -172.4624         calculate D2E/DX2 analytically  !
 ! D179  D(47,50,75,77)        -53.7102         calculate D2E/DX2 analytically  !
 ! D180  D(47,50,75,78)         68.518          calculate D2E/DX2 analytically  !
 ! D181  D(43,51,53,34)        -21.0262         calculate D2E/DX2 analytically  !
 ! D182  D(43,51,53,83)        111.407          calculate D2E/DX2 analytically  !
 ! D183  D(52,51,53,34)       -151.1905         calculate D2E/DX2 analytically  !
 ! D184  D(52,51,53,83)        -18.7573         calculate D2E/DX2 analytically  !
 ! D185  D(54,51,53,34)         94.3905         calculate D2E/DX2 analytically  !
 ! D186  D(54,51,53,83)       -133.1763         calculate D2E/DX2 analytically  !
 ! D187  D(43,51,54,55)         69.1992         calculate D2E/DX2 analytically  !
 ! D188  D(43,51,54,56)       -106.6238         calculate D2E/DX2 analytically  !
 ! D189  D(52,51,54,55)       -163.0361         calculate D2E/DX2 analytically  !
 ! D190  D(52,51,54,56)         21.1408         calculate D2E/DX2 analytically  !
 ! D191  D(53,51,54,55)        -49.4057         calculate D2E/DX2 analytically  !
 ! D192  D(53,51,54,56)        134.7713         calculate D2E/DX2 analytically  !
 ! D193  D(34,53,83,44)         19.5113         calculate D2E/DX2 analytically  !
 ! D194  D(34,53,83,84)         44.5694         calculate D2E/DX2 analytically  !
 ! D195  D(51,53,83,44)       -123.4697         calculate D2E/DX2 analytically  !
 ! D196  D(51,53,83,84)        -98.4116         calculate D2E/DX2 analytically  !
 ! D197  D(51,54,55,57)       -174.85           calculate D2E/DX2 analytically  !
 ! D198  D(51,54,55,58)          5.1376         calculate D2E/DX2 analytically  !
 ! D199  D(56,54,55,57)          0.8742         calculate D2E/DX2 analytically  !
 ! D200  D(56,54,55,58)       -179.1382         calculate D2E/DX2 analytically  !
 ! D201  D(51,54,56,59)        175.4024         calculate D2E/DX2 analytically  !
 ! D202  D(51,54,56,60)         -4.1617         calculate D2E/DX2 analytically  !
 ! D203  D(55,54,56,59)         -0.2834         calculate D2E/DX2 analytically  !
 ! D204  D(55,54,56,60)       -179.8476         calculate D2E/DX2 analytically  !
 ! D205  D(54,55,57,61)         -0.7548         calculate D2E/DX2 analytically  !
 ! D206  D(54,55,57,93)       -179.0707         calculate D2E/DX2 analytically  !
 ! D207  D(58,55,57,61)        179.2576         calculate D2E/DX2 analytically  !
 ! D208  D(58,55,57,93)          0.9417         calculate D2E/DX2 analytically  !
 ! D209  D(54,56,59,61)         -0.4369         calculate D2E/DX2 analytically  !
 ! D210  D(54,56,59,97)        177.4783         calculate D2E/DX2 analytically  !
 ! D211  D(60,56,59,61)        179.1234         calculate D2E/DX2 analytically  !
 ! D212  D(60,56,59,97)         -2.9614         calculate D2E/DX2 analytically  !
 ! D213  D(55,57,61,59)          0.0595         calculate D2E/DX2 analytically  !
 ! D214  D(55,57,61,62)        179.469          calculate D2E/DX2 analytically  !
 ! D215  D(93,57,61,59)        178.3443         calculate D2E/DX2 analytically  !
 ! D216  D(93,57,61,62)         -2.2462         calculate D2E/DX2 analytically  !
 ! D217  D(55,57,93,94)       -158.4365         calculate D2E/DX2 analytically  !
 ! D218  D(55,57,93,95)         81.3217         calculate D2E/DX2 analytically  !
 ! D219  D(55,57,93,96)        -37.977          calculate D2E/DX2 analytically  !
 ! D220  D(61,57,93,94)         23.2466         calculate D2E/DX2 analytically  !
 ! D221  D(61,57,93,95)        -96.9952         calculate D2E/DX2 analytically  !
 ! D222  D(61,57,93,96)        143.7061         calculate D2E/DX2 analytically  !
 ! D223  D(56,59,61,57)          0.5478         calculate D2E/DX2 analytically  !
 ! D224  D(56,59,61,62)       -178.8618         calculate D2E/DX2 analytically  !
 ! D225  D(97,59,61,57)       -177.3652         calculate D2E/DX2 analytically  !
 ! D226  D(97,59,61,62)          3.2253         calculate D2E/DX2 analytically  !
 ! D227  D(56,59,97,98)         30.2258         calculate D2E/DX2 analytically  !
 ! D228  D(56,59,97,99)        -89.3867         calculate D2E/DX2 analytically  !
 ! D229  D(56,59,97,100)       151.0134         calculate D2E/DX2 analytically  !
 ! D230  D(61,59,97,98)       -151.8369         calculate D2E/DX2 analytically  !
 ! D231  D(61,59,97,99)         88.5506         calculate D2E/DX2 analytically  !
 ! D232  D(61,59,97,100)       -31.0493         calculate D2E/DX2 analytically  !
 ! D233  D(44,83,84,85)       -108.571          calculate D2E/DX2 analytically  !
 ! D234  D(44,83,84,89)         57.2138         calculate D2E/DX2 analytically  !
 ! D235  D(53,83,84,85)       -132.4445         calculate D2E/DX2 analytically  !
 ! D236  D(53,83,84,89)         33.3402         calculate D2E/DX2 analytically  !
 ! D237  D(83,84,85,86)       -132.0768         calculate D2E/DX2 analytically  !
 ! D238  D(83,84,85,87)        -12.6523         calculate D2E/DX2 analytically  !
 ! D239  D(83,84,85,88)        106.6765         calculate D2E/DX2 analytically  !
 ! D240  D(89,84,85,86)         61.145          calculate D2E/DX2 analytically  !
 ! D241  D(89,84,85,87)       -179.4305         calculate D2E/DX2 analytically  !
 ! D242  D(89,84,85,88)        -60.1016         calculate D2E/DX2 analytically  !
 ! D243  D(83,84,89,90)       -105.7758         calculate D2E/DX2 analytically  !
 ! D244  D(83,84,89,91)         13.5393         calculate D2E/DX2 analytically  !
 ! D245  D(83,84,89,92)        132.8889         calculate D2E/DX2 analytically  !
 ! D246  D(85,84,89,90)         61.7102         calculate D2E/DX2 analytically  !
 ! D247  D(85,84,89,91)       -178.9748         calculate D2E/DX2 analytically  !
 ! D248  D(85,84,89,92)        -59.6251         calculate D2E/DX2 analytically  !
 --------------------------------------------------------------------------------
 Trust Radius=3.00D-02 FncErr=1.00D-07 GrdErr=1.00D-06 EigMax=2.50D+02 EigMin=1.00D-04
 Number of steps in this run=    555 maximum allowed number of steps=    600.
 Search for a saddle point of order  1.
 Step   0 in ReCalcFC=30 IGetFC= 4 compute analytic Hessian.
 GradGradGradGradGradGradGradGradGradGradGradGradGradGradGradGradGradGrad

 Leave Link  103 at Tue May 21 17:00:55 2019, MaxMem=  6442450944 cpu:               4.5 elap:               0.2
 (Enter /home/ekwan/sw/g16/l202.exe)
 Stoichiometry    C30H47F6NaO15S
 Framework group  C1[X(C30H47F6NaO15S)]
 Deg. of freedom   294
 Full point group                 C1      NOp   1
 Largest Abelian subgroup         C1      NOp   1
 Largest concise Abelian subgroup C1      NOp   1
                         Standard orientation:                         
 ---------------------------------------------------------------------
 Center     Atomic      Atomic             Coordinates (Angstroms)
 Number     Number       Type             X           Y           Z
 ---------------------------------------------------------------------
      1          6           0       -5.466390   -0.525683   -1.057656
      2          6           0       -4.888382   -0.950788    0.291760
      3          6           0       -3.823678   -2.027359    0.087724
      4          6           0       -3.219913   -1.190285   -2.083227
      5          6           0       -4.338482   -0.144143   -2.017678
      6          1           0       -3.345105   -2.271229    1.044971
      7          1           0       -4.377456   -0.090890    0.748086
      8          1           0       -6.038530   -1.367103   -1.468830
      9          1           0       -3.611708   -2.103292   -2.551042
     10          1           0       -3.901485    0.791567   -1.657756
     11          8           0       -2.788130   -1.523223   -0.734964
     12          8           0       -4.431139   -3.177677   -0.433769
     13          8           0       -5.882670   -1.445642    1.174655
     14          8           0       -6.332005    0.587792   -0.832253
     15          8           0       -4.888302    0.047906   -3.321894
     16          6           0       -1.985788   -0.695359   -2.876083
     17          1           0       -2.285265   -0.817116   -3.947319
     18          1           0       -1.217706   -1.492542   -2.711159
     19          8           0       -1.557612    0.561243   -2.564935
     20          6           0       -6.332687   -0.486822    2.121471
     21          1           0       -5.500883   -0.123263    2.744507
     22          1           0       -6.808488    0.368588    1.630193
     23          1           0       -7.059581   -0.993654    2.762063
     24          6           0       -7.489367    0.599829   -1.654537
     25          1           0       -7.227615    0.640882   -2.716922
     26          1           0       -8.112592   -0.289054   -1.475509
     27          1           0       -8.060803    1.491641   -1.381678
     28          6           0       -4.424120    1.235032   -3.958477
     29          1           0       -4.876976    2.126639   -3.497375
     30          1           0       -3.333133    1.313508   -3.889715
     31          1           0       -4.741796    1.179968   -5.004045
     32          6           0       -1.007849    0.674857    1.915309
     33          6           0       -1.058717    0.990586    0.430590
     34          6           0        0.019564    0.320484   -0.381844
     35          6           0        0.169451   -1.509048    1.247168
     36          6           0       -0.911126   -0.838553    2.105429
     37          1           0       -0.107543    0.492379   -1.461192
     38          1           0       -1.957632    0.523106    0.013993
     39          1           0       -0.144670    1.151358    2.390488
     40          1           0        1.121787   -1.409385    1.767763
     41          1           0       -1.885388   -1.261056    1.846901
     42          8           0        0.367710   -0.911144   -0.079881
     43          8           0        2.184844    0.722814    2.095874
     44          8           0       -1.088473    2.391038    0.185233
     45          8           0       -2.219656    1.092608    2.539252
     46          8           0       -0.592938   -1.143064    3.455514
     47          6           0       -0.168178   -2.964167    0.874250
     48          1           0        0.717062   -3.428157    0.413915
     49          1           0       -0.966316   -2.922249    0.130119
     50          8           0       -0.651329   -3.742792    1.945855
     51         16           0        2.594918    1.405953    0.858785
     52          8           0        3.078990    2.797607    0.977412
     53          8           0        1.462832    1.401220   -0.211625
     54          6           0        3.888616    0.422559    0.107893
     55          6           0        3.555224   -0.817242   -0.431402
     56          6           0        5.204625    0.870781    0.154853
     57          6           0        4.574129   -1.632035   -0.918406
     58          1           0        2.522418   -1.142797   -0.471560
     59          6           0        6.209682    0.044273   -0.349880
     60          1           0        5.437095    1.838656    0.582071
     61          6           0        5.902432   -1.208030   -0.881518
     62          1           0        6.690583   -1.850594   -1.254219
     63          6           0       -2.264748    2.813685   -0.535197
     64          1           0       -2.334047    2.238519   -1.464262
     65          1           0       -3.155468    2.663731    0.086082
     66          1           0       -2.133589    3.879700   -0.728343
     67          6           0       -2.147531    2.364476    3.170569
     68          1           0       -1.359878    2.380217    3.936826
     69          1           0       -1.958727    3.164264    2.446652
     70          1           0       -3.115336    2.529667    3.649993
     71          6           0       -1.702369   -1.603833    4.220837
     72          1           0       -2.493514   -0.847721    4.262927
     73          1           0       -2.101564   -2.535241    3.800830
     74          1           0       -1.324663   -1.794895    5.228307
     75          6           0        0.356538   -4.138129    2.869513
     76          1           0       -0.112085   -4.838400    3.564765
     77          1           0        1.185137   -4.643036    2.352371
     78          1           0        0.743349   -3.279992    3.430083
     79          6           0       -3.545320   -4.290406   -0.509510
     80          1           0       -4.156925   -5.164474   -0.742716
     81          1           0       -2.793987   -4.151985   -1.296118
     82          1           0       -3.028983   -4.448382    0.447882
     83         11           0        0.832346    3.625736   -0.338491
     84          8           0       -0.290646    5.581923   -0.036468
     85          6           0       -0.680009    6.478991   -1.072252
     86          1           0       -0.406522    7.510563   -0.816159
     87          1           0       -0.151401    6.175909   -1.978406
     88          1           0       -1.762982    6.426243   -1.246610
     89          6           0       -0.929352    5.869004    1.203895
     90          1           0       -2.019029    5.767914    1.113719
     91          1           0       -0.557945    5.147642    1.934313
     92          1           0       -0.687257    6.885708    1.538980
     93          6           0        4.211214   -2.963642   -1.520833
     94          9           0        5.254032   -3.818035   -1.517557
     95          9           0        3.802015   -2.833072   -2.801444
     96          9           0        3.198428   -3.551465   -0.842348
     97          6           0        7.634774    0.530307   -0.362596
     98          9           0        7.880421    1.383361    0.653649
     99          9           0        7.920147    1.187731   -1.509747
    100          9           0        8.511334   -0.490865   -0.263670
 ---------------------------------------------------------------------
 Rotational constants (GHZ):           0.0690092           0.0312434           0.0272412
 Leave Link  202 at Tue May 21 17:00:55 2019, MaxMem=  6442450944 cpu:               5.5 elap:               0.2
 (Enter /home/ekwan/sw/g16/l301.exe)
 Standard basis: 6-31G(d) (6D, 7F)
 Ernie: Thresh=  0.10000D-02 Tol=  0.10000D-05 Strict=F.
 There are   897 symmetry adapted cartesian basis functions of A   symmetry.
 There are   897 symmetry adapted basis functions of A   symmetry.
   897 basis functions,  1720 primitive gaussians,   897 cartesian basis functions
   214 alpha electrons      214 beta electrons
       nuclear repulsion energy      9315.1920901417 Hartrees.
 IExCor=  402 DFT=T Ex+Corr=B3LYP ExCW=0 ScaHFX=  0.200000
 ScaDFX=  0.800000  0.720000  1.000000  0.810000 ScalE2=  1.000000  1.000000
 IRadAn=      5 IRanWt=     -1 IRanGd=            0 ICorTp=0 IEmpDi=141
 NAtoms=  100 NActive=  100 NUniq=  100 SFac= 1.00D+00 NAtFMM=   60 NAOKFM=T Big=T
 Integral buffers will be    131072 words long.
 Raffenetti 2 integral format.
 Two-electron integral symmetry is turned on.
 R6Disp:  Grimme-D3(BJ) Dispersion energy=       -0.2259642940 Hartrees.
 Nuclear repulsion after empirical dispersion term =     9314.9661258477 Hartrees.
 Force inversion solution in PCM.
 ------------------------------------------------------------------------------
 Polarizable Continuum Model (PCM)
 =================================
 Model                : PCM.
 Atomic radii         : UFF (Universal Force Field).
 Polarization charges : Total charges.
 Charge compensation  : None.
 Solution method      : Matrix inversion.
 Cavity type          : Scaled VdW (van der Waals Surface) (Alpha=1.100).
 Cavity algorithm     : GePol (No added spheres)
                        Default sphere list used, NSphG=  100.
                        Lebedev-Laikov grids with approx.  5.0 points / Ang**2.
                        Smoothing algorithm: York/Karplus (Gamma=1.0000).
                        Polarization charges: spherical gaussians, with
                                              point-specific exponents (IZeta= 3).
                        Self-potential: point-specific (ISelfS= 7).
                        Self-field    : sphere-specific E.n sum rule (ISelfD= 2).
 1st derivatives      : Analytical E(r).r(x)/FMM algorithm (CHGder, D1EAlg=3).
                        Cavity 1st derivative terms included.
 2nd derivatives      : Analytical E(r).r(xy)/FMM algorithm (CHGder, D2EAlg=3).
                        Cavity 2nd derivative terms included.
 Solvent              : TetraHydroFuran, Eps=   7.425700 Eps(inf)=   1.974025
 ------------------------------------------------------------------------------
 GePol: Number of generator spheres                  =     100
 GePol: Total number of spheres                      =     100
 GePol: Number of exposed spheres                    =     100 (100.00%)
 GePol: Number of points                             =    6272
 GePol: Average weight of points                     =       0.13
 GePol: Minimum weight of points                     =   0.15D-11
 GePol: Maximum weight of points                     =    0.21593
 GePol: Number of points with low weight             =     416
 GePol: Fraction of low-weight points (<1% of avg)   =       6.63%
 GePol: Cavity surface area                          =    793.984 Ang**2
 GePol: Cavity volume                                =    978.978 Ang**3
 Leave Link  301 at Tue May 21 17:00:55 2019, MaxMem=  6442450944 cpu:               6.8 elap:               0.3
 (Enter /home/ekwan/sw/g16/l302.exe)
 NPDir=0 NMtPBC=     1 NCelOv=     1 NCel=       1 NClECP=     1 NCelD=      1
         NCelK=      1 NCelE2=     1 NClLst=     1 CellRange=     0.0.
 One-electron integrals computed using PRISM.
 One-electron integral symmetry used in STVInt
 NBasis=   897 RedAO= T EigKep=  3.87D-04  NBF=   897
 NBsUse=   897 1.00D-06 EigRej= -1.00D+00 NBFU=   897
 Precomputing XC quadrature grid using
 IXCGrd= 4 IRadAn=           5 IRanWt=          -1 IRanGd=           0 AccXCQ= 0.00D+00.
 Generated NRdTot=       0 NPtTot=           0 NUsed=           0 NTot=          32
[...]
 00023896,0.00069708,-0.00011045,0.00100267,0.00026378,0.00026803,0.001
 81465,0.00007827,0.00103385,0.00073603,0.00045384,-0.00051546,0.000078
 52,-0.00294562,0.00004109,-0.00011713,0.00033631,0.00064211,-0.0001226
 3,-0.00003438,-0.00013339,0.01361732,-0.00349066,-0.02203496,0.0000363
 3,-0.00018091,-0.00067966,0.00031183,0.00101260,0.00024488,-0.00034181
 ,-0.00002331,-0.00056650,-0.00005667,-0.00003367,-0.00004248,0.0000058
 8,-0.00001044,0.00000300,0.00001408,0.00000224,0.00000371,0.00000567,0
 .00001274,0.00000181,-0.00000127,-0.00004821,0.00002164,-0.00000387,0.
 00000464,-0.00000177,-0.00000414,0.00000558,0.00000241,0.00000628,0.00
 000571,-0.00000623,-0.00004547,0.00001967,0.00003097,0.00001023,0.0000
 0189,-0.00000266,0.00000423,-0.00000487,0.00000128,0.00000157,-0.00000
 313,-0.00000652,-0.00000267,0.00000842,0.00001107,0.00000531,-0.000007
 33,-0.00000676,-0.00000233,0.00000965,-0.00000411,-0.00000590,-0.00000
 282,0.00000798,-0.00000520,0.00000041,-0.00000258,0.00000294,-0.000002
 31,0.00000062,-0.00000043,-0.00000033,-0.00000420,-0.00000313,0.000001
 34,0.00000362,-0.00002362,-0.00014139,-0.00007629,-0.00001118,0.000024
 59,0.00001953,0.00000404,-0.00001335,-0.00002062,0.00000193,0.00000633
 ,0.00000037,0.00000121,-0.00000268,0.00000502,-0.00000246,0.00000177,0
 .00000273,0.00000383,-0.00000937,-0.00001164,-0.00000339,-0.00000106,0
 .00000135,0.00000292,0.00000052,0.00000521,-0.00000013,0.00000423,0.00
 000102,-0.00031847,0.00115253,-0.00074734,-0.00002443,-0.00037226,0.00
 014887,0.00015949,-0.00022564,0.00046368,0.00026336,-0.00038776,0.0000
 4194,0.03125518,-0.11934165,-0.07643341,-0.00446083,0.01905649,0.01514
 373,-0.02820066,0.15001022,-0.00000973,-0.00000744,-0.00000205,-0.0000
 1115,0.00000233,0.00000039,-0.00003136,0.00001390,-0.00000700,-0.00000
 842,-0.00000467,-0.00003594,-0.00001198,-0.00000398,-0.00001833,-0.000
 00062,0.00000542,0.00000842,-0.00000455,-0.00000278,0.00000067,0.00000
 278,-0.00000013,0.,0.00000531,-0.00000430,0.00000440,-0.00000354,-0.00
 000317,0.00000087,0.00003540,-0.00000531,0.00002990,0.00001722,-0.0000
 1358,0.00001345,0.00001205,0.00000122,0.00000077,0.00001657,0.00000909
 ,0.00000830,0.00000714,0.00001689,0.00002840,-0.00002548,0.00006342,-0
 .00002610,0.00001548,-0.00001774,0.00002579,-0.00000313,-0.00000656,-0
 .00000767,0.00008481,0.00000309,0.00012395,-0.00000673,-0.00000217,-0.
 00000161,0.00000036,-0.00000077,0.00000168,0.00000147,0.00000180,0.000
 00027,0.00000047,-0.00000014,-0.00000111,-0.00000980,-0.00000023,-0.00
 000888,0.00000027,-0.00000047,0.00000257,0.00000119,-0.00000023,0.0000
 0087,0.00000194,0.00000074,-0.00000006,0.00000487,-0.00001510,-0.00000
 709,0.00000084,0.00000307,0.00000036,-0.00000585,-0.00000357,-0.000009
 70,0.00000494,0.00000109,0.00000477,-0.00006039,-0.00000569,0.00001862
 ,0.00001228,-0.00008750,0.00002155,-0.00042890,0.00018189,-0.00011953,
 -0.00009302,0.00005092,0.00005379,-0.00002608,-0.00000223,0.00003842,-
 0.00000805,-0.00004226,-0.00011738,0.00001258,0.00002942,-0.00001802,-
 0.00001121,-0.00001754,0.00001950,-0.00000486,0.00001014,0.00002622,0.
 00001250,0.00000071,-0.00000921,0.00019952,-0.00004327,-0.00001588,0.0
 0044140,0.00016931,-0.00035477,0.00007389,0.00008823,0.00004926,0.0000
 7229,0.00003796,-0.00002860,0.00005548,-0.00001887,-0.00005410,-0.0000
 2808,0.00004512,0.00002260,-0.00001419,0.00001851,-0.00000437,0.000006
 06,-0.00000696,-0.00000230,0.00004062,-0.00003499,-0.00001567,-0.00138
 217,-0.00124486,0.00028145,0.00030956,0.00057690,-0.00003642,0.0008941
 3,0.00018833,0.00035768,0.00057183,0.00032515,0.00064278,0.00022521,-0
 .00050571,-0.00004214,0.00000879,-0.00093441,0.00076982,0.00130147,-0.
 00045554,0.00091768,-0.00010945,-0.00006345,-0.00012184,0.01127561,-0.
 01554423,-0.01039064,-0.00044569,-0.00026624,-0.00053094,0.00146223,0.
 00142672,-0.00154440,-0.00022261,-0.00026039,-0.00064456,-0.00005771,-
 0.00003472,-0.00004409,0.00000864,-0.00000817,0.00000110,0.00001256,0.
 00000265,0.00000481,0.00000618,0.00001296,0.00000005,-0.00000808,-0.00
 003777,0.00000929,-0.00000084,0.00000466,0.00000277,-0.00000442,0.0000
 0531,0.00000144,0.00000708,0.00000444,-0.00000552,-0.00004620,0.000020
 97,0.00002732,0.00000969,0.00000220,-0.00000299,0.00000486,-0.00000643
 ,0.00000213,0.00000072,-0.00000149,-0.00000351,-0.00001427,0.00000980,
 -0.00000249,0.00000647,-0.00000673,-0.00000623,-0.00000238,0.00001122,
 -0.00000426,-0.00000543,-0.00000613,0.00001077,-0.00000206,0.00000101,
 -0.00000796,0.00000293,-0.00000239,0.00000040,-0.00000185,0.00000013,-
 0.00000279,-0.00000304,0.00000148,0.00000479,-0.00003011,-0.00011864,-
 0.00010959,-0.00000354,0.00002579,0.00003930,0.00000102,-0.00001484,-0
 .00003408,0.00000186,0.00000489,0.00000225,-0.00000117,-0.00000210,0.0
 0000735,0.00000066,0.00000264,0.00000341,0.00000276,-0.00000850,-0.000
 02490,-0.00000130,-0.00000117,0.00000388,0.00000182,0.00000552,0.00000
 656,-0.00000174,0.00000078,0.00000211,-0.00008413,0.00130919,-0.000889
 10,-0.00006705,-0.00038836,0.00017542,0.00016509,-0.00028574,0.0006505
 8,0.00026870,-0.00043106,0.00006508,0.04666507,-0.07603827,-0.18853658
 ,0.00448182,0.00058024,-0.08165952,-0.05131778,0.12945998,0.29533910,0
 .00003017,0.00000970,-0.00000813,0.00002738,-0.00001097,-0.00001987,0.
 00008548,-0.00006091,-0.00002909,0.00000630,-0.00000193,0.00002874,0.0
 0002423,0.00000877,0.00002204,0.00000046,-0.00000450,-0.00000417,0.000
 00862,0.00000539,-0.00000241,-0.00000818,0.00000168,0.00000057,-0.0000
 1233,0.00001304,-0.00000502,0.00001252,0.00000700,-0.00000310,-0.00008
 402,0.00004289,0.00000976,-0.00003546,0.00005389,-0.00000744,-0.000036
 95,0.00000184,0.00002754,-0.00004476,-0.00001638,-0.00000268,-0.000030
 88,-0.00000578,-0.00001838,0.00008508,-0.00017935,0.00004456,-0.000030
 11,0.00003579,-0.00004416,0.00000532,0.00001514,0.00001340,-0.00022168
 ,0.00005649,-0.00019149,0.00001204,0.00001116,-0.00001135,0.00000177,-
 0.00000270,-0.00000150,-0.00000029,-0.00000330,0.00000033,-0.00000429,
 0.00000062,0.00000427,0.00002458,-0.00000327,0.00001331,0.00000066,0.0
 0000159,-0.00000204,-0.00000446,0.00000372,-0.00000125,-0.00000368,-0.
 00000261,-0.00000058,0.00001429,0.00000764,-0.00000176,-0.00000368,-0.
 00000607,0.00000127,0.00000839,0.00000856,0.00001825,-0.00000680,-0.00
 000035,-0.00000677,0.00011789,0.00000370,-0.00007592,-0.00002757,0.000
 14958,-0.00007329,0.00093331,-0.00059847,0.00017192,0.00014821,-0.0001
 4458,-0.00021357,0.00004832,-0.00002241,-0.00011081,0.00000774,0.00008
 344,0.00019865,-0.00002596,-0.00005901,0.00003536,0.00002722,0.0000297
 9,-0.00003868,0.00000715,-0.00003478,-0.00003682,-0.00001772,0.0000018
 6,0.00001805,-0.00033295,0.00027754,0.00014377,-0.00097152,-0.00026115
 ,0.00120060,-0.00015179,-0.00012566,-0.00002798,-0.00014524,-0.0000702
 4,0.00009861,-0.00008443,0.00005975,0.00016377,0.00004511,-0.00012949,
 -0.00006493,0.00001571,-0.00002298,-0.00000236,0.00000054,0.00001220,0
 .00000241,-0.00002061,0.00011673,0.00010828,0.00249971,0.00257682,-0.0
 0118689,-0.00059170,-0.00101428,0.00029711,-0.00185215,-0.00029503,-0.
 00054196,-0.00200154,-0.00084427,0.00190312,-0.00102415,-0.00018251,0.
 00006218,-0.00530546,0.00549241,-0.00345599,-0.00022777,0.00027448,0.0
 0071674,0.00016578,0.00000600,-0.00006543,-0.03618632,-0.03811784,-0.0
 0112884,0.00055355,-0.00010940,-0.00043616,-0.00103487,-0.00171353,0.0
 0066148,-0.00201207,0.00067067,-0.00099667,0.00011259,0.00005675,0.000
 06999,-0.00000465,0.00001159,-0.00000713,-0.00003167,-0.00000167,0.000
 00058,-0.00000286,-0.00001747,-0.00000499,0.00000305,0.00007719,-0.000
 04550,0.00001021,-0.00001105,0.00000308,0.00001054,-0.00000441,-0.0000
 0067,-0.00001393,-0.00000989,0.00001159,0.00008449,-0.00004398,-0.0000
 6283,-0.00001560,-0.00000132,0.00000378,-0.00001191,0.00000995,-0.0000
 0209,-0.00000506,0.00000524,0.00001794,-0.00004720,-0.00003710,-0.0000
 4189,-0.00000484,0.00001337,0.00001331,0.00001257,-0.00000404,-0.00000
 204,0.00000674,-0.00000199,-0.00000863,-0.00000161,-0.00001774,-0.0000
 0272,-0.00000594,0.00000585,-0.00000174,0.00000091,-0.00000013,0.00000
 670,0.00000631,-0.00000219,-0.00000196,0.00017728,0.00024640,0.0000559
 0,-0.00003368,-0.00006532,0.00000539,0.00001512,0.00003284,0.00002781,
 0.00000133,-0.00000892,0.00000006,0.00000106,0.00000079,0.00000246,-0.
 00000880,-0.00000049,-0.00000247,0.00002519,0.00001988,-0.00002790,-0.
 00000844,0.00000092,-0.00000197,0.00000054,-0.00000244,-0.00000585,0.0
 0000088,-0.00000819,0.00000277,0.00033102,-0.00227636,0.00097044,0.000
 22556,0.00076954,-0.00020152,-0.00024854,0.00049163,-0.00069482,-0.000
 41240,0.00069223,-0.00004712,-0.18346795,-0.08779154,-0.00960127,0.010
 80594,-0.01674153,0.01273399,0.01128429,-0.01482597,-0.01421634,0.2088
 3334,0.00000577,-0.00000145,-0.00000267,0.00000545,-0.00000444,-0.0000
 0420,0.00002011,-0.00002386,-0.00000843,-0.00000070,-0.00000314,0.0000
 0106,0.00000453,-0.00000142,0.00000152,-0.00000043,0.00000001,0.000000
 83,0.00000177,0.00000155,-0.00000103,-0.00000256,0.00000096,-0.0000002
 4,-0.00000362,0.00000467,-0.00000082,0.00000321,0.00000230,-0.00000091
 ,-0.00001640,0.00001887,0.00000945,-0.00000385,0.00002403,-0.00000150,
 -0.00000708,0.00000454,0.00000588,-0.00000845,0.00000074,0.00000030,-0
 .00000807,0.00000764,0.00000267,0.00002123,-0.00006042,0.00001206,-0.0
 0000659,0.00000868,-0.00001013,0.00000404,0.00000928,0.00000273,-0.000
 05368,0.00003712,-0.00003709,0.00000182,-0.00000047,-0.00000119,0.0000
 0009,-0.00000103,-0.00000070,0.00000077,-0.00000012,0.00000044,-0.0000
 0137,0.00000034,0.00000105,0.00000545,-0.00000231,0.00000221,0.0000003
 0,0.00000001,-0.00000001,-0.00000144,0.00000170,0.00000015,-0.00000003
 ,-0.00000018,-0.00000034,0.00000659,-0.00000629,-0.00000274,-0.0000000
 4,0.00000022,-0.00000012,0.00000088,0.00000114,0.00000334,-0.00000118,
 0.00000023,-0.00000124,0.00002356,-0.00000557,-0.00001462,-0.00000803,
 0.00001580,-0.00002050,0.00019818,-0.00019361,0.00001766,0.00001997,-0
 .00003683,-0.00005623,0.00000642,-0.00001145,-0.00002087,-0.00000073,0
 .00001719,0.00003625,-0.00000540,-0.00001158,0.00000718,0.00000467,0.0
 0000416,-0.00000869,0.00000002,-0.00001038,-0.00000189,-0.00000261,0.0
 0000139,0.00000289,-0.00003369,0.00011297,0.00004661,-0.00013090,0.000
 06313,0.00019671,-0.00003258,-0.00000446,0.00000192,-0.00002662,0.0000
 0195,0.00001559,-0.00001140,0.00002221,0.00003586,-0.00000013,-0.00003
 976,-0.00000953,0.00000267,0.00000198,-0.00000326,0.00000129,0.0000020
 8,0.00000049,0.00001359,0.00003793,0.00002946,0.00045888,0.00008183,-0
 .00021710,-0.00019714,-0.00001805,0.00005896,-0.00038124,0.00001754,-0
 .00011067,0.00032757,-0.00041497,0.00015331,0.00025523,0.00037442,-0.0
 0025982,-0.00130664,0.00112779,-0.00018022,-0.00063026,0.00133763,-0.0
 0000889,0.00008992,0.00010086,-0.00010916,-0.00723549,-0.00057368,-0.0
 0072086,0.00062600,0.00029128,-0.00018171,0.00203667,-0.00301274,0.002
 55785,0.00109348,0.00157999,-0.00126289,0.00002342,0.00000892,0.000010
 54,0.00000034,-0.00000137,-0.00000117,-0.00000747,0.00000034,0.0000022
 6,0.00000222,-0.00000101,-0.00000072,0.00000332,0.00000424,-0.00000506
 ,0.00000174,-0.00000292,-0.00000129,0.00000301,0.00000176,0.00000176,-
 0.00000361,-0.00000096,0.00000180,0.00001530,-0.00001174,-0.00001145,-
 0.00000107,0.00000066,0.00000036,-0.00000412,0.00000274,-0.00000066,-0
 .00000156,-0.00000004,0.00000451,-0.00002895,-0.00001793,-0.00001152,0
 .00000109,0.00000211,0.00000250,0.00000626,0.00000527,-0.00000504,-0.0
 0000084,-0.00000223,0.00000005,-0.00000648,-0.00001076,-0.00000170,-0.
 00000127,0.00000172,-0.00000048,0.00000080,-0.00000062,0.00000013,0.00
 000125,-0.00000036,0.00000129,0.00007090,0.00003093,-0.00000713,-0.000
 02811,-0.00001915,0.00000798,0.00001184,0.00000926,0.00000650,0.000001
 96,-0.00000014,-0.00000037,0.00000210,-0.00000157,0.00000364,-0.000007
 35,0.00000056,0.00000017,0.00001640,0.00000406,-0.00001709,-0.00000755
 ,-0.00000017,-0.00000133,0.00000270,-0.00000298,-0.00000030,0.00000105
 ,-0.00000017,0.00000177,-0.00042143,-0.00040514,0.00004754,0.00020273,
 0.00016984,-0.00000208,0.00002625,0.00010239,-0.00003861,0.00001194,0.
 00011043,-0.00002735,-0.09631652,-0.15890757,-0.00739473,-0.02750952,-
 0.05477315,0.03033977,-0.02462593,-0.04485822,-0.03771828,0.15344339,0
 .25768501,0.00000140,-0.00000048,-0.00000207,0.00000047,-0.00000057,-0
 .00000333,0.00000200,-0.00000286,-0.00000805,-0.00000171,-0.00000155,-
 0.00000812,-0.00000027,0.00000060,-0.00000262,-0.00000002,0.00000119,0
 .00000238,-0.00000030,-0.00000025,-0.00000008,-0.00000011,0.00000008,0
 .00000016,0.00000024,0.00000006,0.00000080,0.00000066,-0.00000021,-0.0
 0000010,-0.00000108,0.00000358,0.00001213,-0.00000012,0.00000123,0.000
 00436,-0.00000181,-0.00000008,0.00000529,-0.00000125,-0.00000016,0.000
 00274,-0.00000200,0.00000339,0.00000637,0.00000412,-0.00000101,-0.0000
 0325,0.00000070,-0.00000071,0.00000254,-0.00000104,-0.00000127,-0.0000
 0056,-0.00000450,0.00000381,0.00001214,-0.00000052,0.00000176,-0.00000
 302,0.00000053,-0.00000072,0.00000052,0.00000037,0.00000003,0.00000011
 ,-0.00000049,0.,0.00000026,0.00000018,-0.00000026,-0.00000116,0.000000
 18,0.00000017,0.00000059,-0.00000016,0.00000033,0.00000003,-0.00000003
 ,-0.00000023,-0.00000008,0.00000332,-0.00000262,-0.00000256,-0.0000004
 9,-0.00000019,0.00000044,-0.00000055,0.00000030,-0.00000041,0.00000065
 ,0.00000030,0.00000068,-0.00000320,0.00000069,-0.00000756,-0.00000168,
 -0.00000295,-0.00000654,0.00000320,-0.00003829,-0.00000895,-0.00000970
 ,-0.00000644,-0.00001848,-0.00000148,-0.00000375,-0.00000614,-0.000002
 81,0.00000054,-0.00000759,-0.00000075,-0.00000010,0.00000018,-0.000000
 56,-0.00000140,0.00000185,-0.00000101,-0.00000087,0.00000288,0.0000018
 7,0.00000038,-0.00000038,0.00001062,0.00002800,0.00001750,0.00002422,0
 .00004951,0.00005053,0.00000084,0.00000690,0.00001228,0.00000223,-0.00
 000111,0.00000819,0.00000685,0.00000157,0.00000889,0.00000070,-0.00000
 299,-0.00000515,-0.00000234,0.00000118,-0.00000232,0.00000244,-0.00000
 060,-0.00000026,0.00001048,0.00000568,0.00001544,-0.00005367,-0.000040
 91,-0.00022872,0.00001752,-0.00001092,0.00004712,-0.00006892,-0.000020
 22,0.00003291,0.00003291,-0.00079934,-0.00009921,0.00008374,0.00024462
 ,-0.00006832,-0.00096746,0.00081088,0.00051272,-0.00015509,-0.00033194
 ,0.00008335,-0.00002814,-0.00001672,0.00002920,0.00045163,-0.00061566,
 0.00999602,-0.00028002,-0.00002125,0.00020079,-0.00017647,0.00023766,-
 0.00062965,-0.00059232,-0.00043257,0.00005081,-0.00000262,-0.00000247,
 -0.00000321,0.00000201,-0.00000006,-0.00000088,-0.00000071,0.00000040,
 0.00000112,0.00000113,0.00000121,-0.00000082,-0.00000360,0.00000134,-0
 .00000570,0.00000171,-0.00000009,0.00000219,0.,0.00000083,0.00000010,0
 .00000054,-0.00000026,0.00000001,-0.00000340,0.00000112,-0.00000059,0.
 00000082,0.00000054,-0.00000044,0.00000018,-0.00000105,0.00000057,-0.0
 0000068,0.00000061,0.00000198,-0.00001306,-0.00000088,-0.00001018,0.00
 000161,-0.00000020,0.,0.00000067,0.00000320,-0.00000159,-0.00000079,-0
 .00000313,0.00000301,0.00000023,-0.00000118,-0.00000377,0.00000015,-0.
 00000006,-0.00000012,-0.00000073,0.00000017,0.00000041,-0.00000012,0.0
 0000018,0.00000127,0.00000870,0.00000253,-0.00002475,-0.00000218,0.000
 00026,0.00001390,0.00000072,-0.00000105,-0.00000796,0.00000055,0.00000
 007,0.00000082,-0.00000068,-0.00000031,0.00000237,0.00000006,0.0000007
 7,0.00000066,0.00000265,-0.00000010,-0.00001138,-0.00000059,-0.0000001
 8,0.00000128,0.00000026,0.00000229,0.00000118,-0.00000068,-0.00000132,
 0.00000094,0.00007239,-0.00006893,-0.00011144,-0.00000924,0.00003017,0
 .00001358,-0.00000170,0.00001538,0.00003387,-0.00003512,0.00002214,0.0
 0004291,-0.00885541,-0.00531282,-0.07152938,0.02072419,0.03781083,-0.0
 0134252,-0.02409635,-0.04641284,-0.01432516,0.01390710,0.01486965,0.07
 726016\\0.00000014,0.00000171,-0.00000079,0.00000076,0.00000217,-0.000
 00037,0.00000147,0.00000103,-0.00000109,0.00000097,0.00000035,-0.00000
 042,0.00000047,0.00000125,-0.00000069,0.00000154,0.00000276,-0.0000001
 3,0.00000004,0.00000178,-0.00000033,0.00000092,0.00000222,-0.00000083,
 0.00000130,0.00000050,-0.00000087,-0.00000020,0.00000086,0.00000009,0.
 00000067,0.00000090,-0.00000040,0.00000164,0.00000154,-0.00000125,0.00
 000052,0.00000292,-0.00000049,-0.00000031,0.00000223,-0.00000016,0.000
 00028,0.00000110,-0.00000024,0.00000035,-0.00000031,-0.00000032,0.0000
 0086,-0.00000054,-0.00000024,0.00000103,-0.00000079,-0.00000052,-0.000
 00029,-0.00000004,-0.00000006,0.00000006,0.00000321,-0.00000046,-0.000
 00017,0.00000306,-0.00000041,-0.00000026,0.00000340,-0.00000043,0.0000
 0039,0.00000384,-0.00000081,-0.00000009,0.00000285,-0.00000036,-0.0000
 0004,0.00000239,-0.00000034,0.00000032,0.00000320,-0.00000065,-0.00000
 059,0.00000321,-0.00000015,-0.00000030,0.00000066,0.00000009,-0.000000
 76,0.00000095,0.00000027,-0.00000038,-0.00000003,0.00000014,-0.0000001
 5,0.00000046,0.00000004,-0.00000021,0.00000073,0.00000031,-0.00000042,
 0.00000014,0.00000053,0.00000031,-0.00000085,0.00000012,0.00000079,-0.
 00000051,-0.00000034,0.00000086,0.00000181,0.00000134,0.00000004,-0.00
 000087,0.00000028,-0.00000042,0.00000050,-0.00000006,-0.00000082,0.000
 00019,0.00000025,0.00000062,-0.00000062,-0.00000033,-0.00000037,-0.000
 00141,-0.00000255,0.00000053,-0.00000077,-0.00000018,-0.00000043,-0.00
 000106,0.00000047,-0.00000098,-0.00000010,0.00000047,-0.00000054,0.000
 00132,0.00000016,0.00000030,0.00000081,-0.00000050,0.00000159,-0.00000
 012,-0.00000081,0.00000173,-0.00000082,-0.00000084,0.00000151,-0.00000
 003,-0.00000087,0.00000176,0.00000032,-0.00000099,-0.00000106,-0.00000
 157,-0.00000010,-0.00000139,-0.00000162,0.00000135,-0.00000038,-0.0000
 0128,0.00000103,-0.00000027,-0.00000253,0.00000052,0.00000054,-0.00000
 256,-0.00000002,-0.00000048,-0.00000313,0.00000086,0.00000092,-0.00000
 318,0.00000006,0.00000075,-0.00000202,-0.00000003,0.00000004,-0.000003
 77,0.00000072,-0.00000092,-0.00000314,0.00000105,0.00000059,-0.0000037
 9,-0.00000005,0.00000109,-0.00000432,0.,-0.00000140,0.00000027,0.00000
 070,-0.00000102,0.00000036,0.00000043,-0.00000135,0.00000115,0.0000006
 1,-0.00000187,0.00000037,0.00000100,-0.00000142,0.00000133,0.00000063,
 -0.00000149,0.00000129,0.00000059,-0.00000177,0.00000121,0.00000079,-0
 .00000152,0.00000209,0.00000051,0.00000051,0.00000153,-0.00000048,0.00
 000016,0.00000194,-0.00000037,0.00000106,0.00000161,-0.00000084,0.0000
 0057,0.00000160,-0.00000055,0.00000198,0.00000011,-0.00000107,0.000002
 25,0.00000051,-0.00000132,0.00000222,-0.00000050,-0.00000116,0.0000014
 8,0.00000004,-0.00000083,0.00000237,0.00000125,-0.00000144,0.00000274,
 0.00000135,-0.00000171,0.00000224,0.00000049,-0.00000131,0.00000223,0.
 00000112,-0.00000145,-0.00000162,-0.00000123,0.00000102,-0.00000297,-0
 .00000027,0.00000147,-0.00000319,-0.00000051,0.00000181,-0.00000372,-0
 .00000057,0.00000213,-0.00000297,-0.00000099,0.00000175,-0.00000313,0.
 00000001,0.00000173,-0.00000307,0.00000025,0.00000169,-0.00000298,0.00
 000079,0.00000150,-0.00000289,0.00000013,0.00000146,-0.00000358,0.0000
 0023,0.00000194,0.00000202,-0.00000328,-0.00000065,0.00000201,-0.00000
 369,-0.00000062,0.00000158,-0.00000326,-0.00000041,0.00000197,-0.00000
 228,-0.00000059,-0.00000020,-0.00000439,0.00000088,-0.00000074,-0.0000
 0460,0.00000100,-0.00000025,-0.00000502,0.00000085,0.00000032,-0.00000
 500,0.00000064\\\@


      TO SUSPECT YOUR OWN MORTALITY IS TO KNOW THE BEGINNING OF TERROR.
      TO LEARN IRREFUTABLY THAT YOU ARE MORTAL IS TO KNOW THE END
      OF TERROR.

                                                  -- JESSICA
                                                     CHILDREN OF DUNE
                                                     BY FRANK HERBERT
 Job cpu time:       4 days  7 hours 33 minutes 18.1 seconds.
 Elapsed time:       0 days  3 hours 23 minutes  2.6 seconds.
 File lengths (MBytes):  RWF=   9782 Int=      0 D2E=      0 Chk=    104 Scr=      1
 Normal termination of Gaussian 16 at Wed May 22 00:12:06 2019.
