 Entering Gaussian System, Link 0=g16
 Input=clay_new-glu_gluC6-AADL-Na3_1Me2O-bisCF3-ts-b3lyp_d3bj-631gd-pcm_thf.gjf
 Output=clay_new-glu_gluC6-AADL-Na3_1Me2O-bisCF3-ts-b3lyp_d3bj-631gd-pcm_thf.out
 Initial command:
 /home/ekwan/sw/g16/l1.exe "/scratch/users/ekwan/clay_new-glu_gluC6-AADL-Na3_1Me2O-bisCF3-ts-b3lyp_d3bj-631gd-pcm_thf/Gau-65405.inp" -scrdir="/scratch/users/ekwan/clay_new-glu_gluC6-AADL-Na3_1Me2O-bisCF3-ts-b3lyp_d3bj-631gd-pcm_thf/"
 Entering Link 1 = /home/ekwan/sw/g16/l1.exe PID=     65406.
  
 Copyright (c) 1988,1990,1992,1993,1995,1998,2003,2009,2016,
            Gaussian, Inc.  All Rights Reserved.
  
 This is part of the Gaussian(R) 16 program.  It is based on
 the Gaussian(R) 09 system (copyright 2009, Gaussian, Inc.),
 the Gaussian(R) 03 system (copyright 2003, Gaussian, Inc.),
 the Gaussian(R) 98 system (copyright 1998, Gaussian, Inc.),
 the Gaussian(R) 94 system (copyright 1995, Gaussian, Inc.),
 the Gaussian 92(TM) system (copyright 1992, Gaussian, Inc.),
 the Gaussian 90(TM) system (copyright 1990, Gaussian, Inc.),
 the Gaussian 88(TM) system (copyright 1988, Gaussian, Inc.),
 the Gaussian 86(TM) system (copyright 1986, Carnegie Mellon
 University), and the Gaussian 82(TM) system (copyright 1983,
 Carnegie Mellon University). Gaussian is a federally registered
 trademark of Gaussian, Inc.
  
 This software contains proprietary and confidential information,
 including trade secrets, belonging to Gaussian, Inc.
  
 This software is provided under written license and may be
 used, copied, transmitted, or stored only in accord with that
 written license.
  
 The following legend is applicable only to US Government
 contracts under FAR:
  
                    RESTRICTED RIGHTS LEGEND
  
 Use, reproduction and disclosure by the US Government is
 subject to restrictions as set forth in subparagraphs (a)
 and (c) of the Commercial Computer Software - Restricted
 Rights clause in FAR 52.227-19.
  
 Gaussian, Inc.
 340 Quinnipiac St., Bldg. 40, Wallingford CT 06492
  
  
 ---------------------------------------------------------------
 Warning -- This program may not be used in any manner that
 competes with the business of Gaussian, Inc. or will provide
 assistance to any competitor of Gaussian, Inc.  The licensee
 of this program is prohibited from giving any competitor of
 Gaussian, Inc. access to this program.  By using this program,
 the user acknowledges that Gaussian, Inc. is engaged in the
 business of creating and licensing software in the field of
 computational chemistry and represents and warrants to the
 licensee that it is not a competitor of Gaussian, Inc. and that
 it will not use this program in any manner prohibited above.
 ---------------------------------------------------------------
  

 Cite this work as:
 Gaussian 16, Revision A.03,
 M. J. Frisch, G. W. Trucks, H. B. Schlegel, G. E. Scuseria, 
 M. A. Robb, J. R. Cheeseman, G. Scalmani, V. Barone, 
 G. A. Petersson, H. Nakatsuji, X. Li, M. Caricato, A. V. Marenich, 
 J. Bloino, B. G. Janesko, R. Gomperts, B. Mennucci, H. P. Hratchian, 
 J. V. Ortiz, A. F. Izmaylov, J. L. Sonnenberg, D. Williams-Young, 
 F. Ding, F. Lipparini, F. Egidi, J. Goings, B. Peng, A. Petrone, 
 T. Henderson, D. Ranasinghe, V. G. Zakrzewski, J. Gao, N. Rega, 
 G. Zheng, W. Liang, M. Hada, M. Ehara, K. Toyota, R. Fukuda, 
 J. Hasegawa, M. Ishida, T. Nakajima, Y. Honda, O. Kitao, H. Nakai, 
 T. Vreven, K. Throssell, J. A. Montgomery, Jr., J. E. Peralta, 
 F. Ogliaro, M. J. Bearpark, J. J. Heyd, E. N. Brothers, K. N. Kudin, 
 V. N. Staroverov, T. A. Keith, R. Kobayashi, J. Normand, 
 K. Raghavachari, A. P. Rendell, J. C. Burant, S. S. Iyengar, 
 J. Tomasi, M. Cossi, J. M. Millam, M. Klene, C. Adamo, R. Cammi, 
 J. W. Ochterski, R. L. Martin, K. Morokuma, O. Farkas, 
 J. B. Foresman, and D. J. Fox, Gaussian, Inc., Wallingford CT, 2016.
 
 ******************************************
 Gaussian 16:  AS64L-G16RevA.03 25-Dec-2016
                30-May-2019 
 ******************************************
 %mem=48GB
 %nprocshared=32
 Will use up to   32 processors via shared memory.
 ----------------------------------------------------------------------
 #p opt=(ts,noeigentest,calcfc,maxstep=5,modredundant,recalc=30) freq=n
 oraman b3lyp 6-31g* pop=none scrf=(solvent=tetrahydrofuran,pcm) empiri
 caldispersion=gd3bj
 ----------------------------------------------------------------------
 1/5=1,8=5,10=4,11=1,18=120,26=3,38=1,71=30/1,3;
 2/9=110,12=2,17=6,18=5,40=1/2;
 3/5=1,6=6,7=1,11=2,25=1,30=1,70=2201,71=2,72=20,74=-5,124=41,140=1/1,2,3;
 4//1;
 5/5=2,38=5,53=20/2;
 8/6=4,10=90,11=11/1;
 11/6=1,8=1,9=11,15=111,16=1/1,2,10;
 10/6=1,13=1/2;
 7/10=1,18=20,25=1/1,2,3,16;
 1/5=1,8=5,10=4,11=1,18=20,26=3,71=30/3(2);
 2/9=110/2;
 99//99;
 2/9=110/2;
 3/5=1,6=6,7=1,11=2,25=1,30=1,70=2205,71=1,72=20,74=-5,124=41/1,2,3;
 4/5=5,16=3,69=1/1;
 5/5=2,38=5,53=20/2;
 7//1,2,3,16;
 1/5=1,8=5,11=1,18=20,26=3,71=30/3(-5);
 2/9=110/2;
 99/9=1/99;
 Leave Link    1 at Thu May 30 22:14:49 2019, MaxMem=  6442450944 cpu:               6.4 elap:               0.2
 (Enter /home/ekwan/sw/g16/l101.exe)
 -----
 title
 -----
 Symbolic Z-matrix:
 Charge =  0 Multiplicity = 1
 C                     4.53971  -0.34681   0.07775 
 C                     5.35587  -1.53001  -0.43683 
 C                     5.16026  -2.75307   0.47207 
 C                     2.96504  -2.05299   1.15698 
 C                     3.09338  -0.74627   0.37311 
 H                     5.62329  -3.65011   0.03654 
 H                     4.97391  -1.80779  -1.43162 
 H                     4.99641   0.01852   1.00669 
 H                     3.286    -1.88575   2.19542 
 H                     2.55305  -0.89325  -0.57066 
 O                     3.79585  -3.07443   0.56451 
 O                     5.75861  -2.46879   1.71501 
 O                     6.70939  -1.11516  -0.5386 
 O                     4.50555   0.70099  -0.89258 
 O                     2.45712   0.27306   1.14606 
 C                     1.51627  -2.59301   1.13236 
 H                     0.95624  -1.93587   1.84251 
 H                     1.57845  -3.58137   1.65305 
 O                     0.9686   -2.66707  -0.1159 
 C                     7.53987  -2.0129   -1.25356 
 H                     7.72046  -2.94343  -0.69788 
 H                     7.10777  -2.26641  -2.23318 
 H                     8.49648  -1.50682  -1.4063 
 C                     5.47357   1.72139  -0.7149 
 H                     5.42967   2.13894   0.30236 
 H                     6.48929   1.35663  -0.90337 
 H                     5.22561   2.51335  -1.42774 
 C                     1.81625   1.27303   0.37385 
 H                     2.53415   1.92305  -0.13411 
 H                     1.16298   0.81913  -0.37802 
 H                     1.20333   1.86611   1.05816 
 C                    -3.35862  -1.6112    1.38983 
 C                    -2.14586  -2.17573   0.65223 
 C                    -1.15375  -1.10914   0.23838 
 C                    -1.91054   0.37725   1.9978 
 C                    -2.85433  -0.70968   2.51655 
 H                    -0.2456   -1.48541  -0.29413 
 H                    -1.58453  -2.79235   1.36937 
 H                    -3.97857  -1.01501   0.70503 
 H                    -2.49597   1.12368   1.4572 
 H                    -2.31834  -1.32881   3.2451 
 O                    -0.90804  -0.12474   1.06081 
 O                    -2.47293   0.53485  -3.42286 
 O                    -2.53908  -2.97757  -0.447 
 O                    -4.12827  -2.63935   1.98513 
 O                    -3.9239   -0.01571   3.13497 
 C                    -1.12233   1.05981   3.09922 
 H                    -1.81831   1.6204    3.73734 
 H                    -0.43222   1.77594   2.6368 
 O                    -0.42902   0.07505   3.84021 
 S                    -1.49815   0.41169  -2.31618 
 O                    -0.19667  -0.19403  -2.63146 
 O                    -2.22924  -0.31352  -1.15519 
 C                    -1.1554    2.03509  -1.63829 
 C                    -2.06257   2.61792  -0.75994 
 C                     0.04703   2.65932  -1.95998 
 C                    -1.73362   3.83165  -0.15737 
 H                    -2.99693   2.12024  -0.52983 
 C                     0.35137   3.88269  -1.3638 
 H                     0.74924   2.17411  -2.62668 
 C                    -0.52833   4.46721  -0.45216 
 H                    -0.2731    5.4023    0.03036 
 C                    -1.73129  -4.16581  -0.61635 
 H                    -0.66846  -3.90517  -0.5145 
 H                    -2.02601  -4.91287   0.13121 
 H                    -1.95708  -4.54106  -1.61556 
 C                    -5.16131  -3.17399   1.16753 
 H                    -5.80278  -2.37298   0.771 
 H                    -4.75655  -3.75658   0.33361 
 H                    -5.76162  -3.82342   1.80875 
 C                    -4.32623  -0.56192   4.38813 
 H                    -4.69679  -1.58546   4.27221 
 H                    -3.49361  -0.55431   5.10471 
 H                    -5.12713   0.07999   4.76243 
 C                     0.86735   0.47929   4.26265 
 H                     1.26783  -0.34051   4.86409 
 H                     1.52643   0.64533   3.40142 
 H                     0.82522   1.38685   4.88211 
 C                     5.74552  -3.57783   2.60391 
 H                     6.28997  -3.2714    3.49992 
 H                     4.72355  -3.86526   2.87661 
 H                     6.24737  -4.44756   2.15462 
 Na                   -3.47105  -1.92195  -2.28966 
 O                    -3.77567  -3.85949  -3.43509 
 C                    -2.93309  -4.27114  -4.50884 
 H                    -3.53202  -4.58881  -5.37192 
 H                    -2.31944  -3.41198  -4.78682 
 H                    -2.28219  -5.09826  -4.19648 
 C                    -4.62286  -4.90646  -2.97166 
 H                    -4.03028  -5.75598  -2.60789 
 H                    -5.21642  -4.50095  -2.14911 
 H                    -5.29176  -5.24871  -3.77175 
 C                     1.63719   4.58241  -1.71991 
 F                     2.0621    5.38515  -0.72277 
 F                     1.49179   5.35407  -2.81968 
 F                     2.62685   3.7004   -1.98551 
 C                    -2.65756   4.39144   0.88899 
 F                    -2.42905   5.69543   1.12989 
 F                    -2.50544   3.73427   2.06957 
 F                    -3.95219   4.25373   0.53554 
 
 Add virtual bond connecting atoms H37        and O19        Dist= 3.22D+00.
 Add virtual bond connecting atoms O53        and C34        Dist= 3.65D+00.
 Add virtual bond connecting atoms Na83       and O44        Dist= 4.38D+00.
 Add virtual bond connecting atoms Na83       and O53        Dist= 4.40D+00.
 The following ModRedundant input section has been read:
 
 ITRead=  0  0  0  0  0  0  0  0  0  0  0  0  0  0  0  0  0  0  0  0
 ITRead=  0  0  0  0  0  0  0  0  0  0  0  0  0  0  0  0  0  0  0  0
 ITRead=  0  0  0  0  0  0  0  0  0  0  0  0  0  0  0  0  0  0  0  0
 ITRead=  0  0  0  0  0  0  0  0  0  0  0  0  0  0  0  0  0  0  0  0
 ITRead=  0  0  0  0  0  0  0  0  0  0  0  0  0  0  0  0  0  0  0  0
 MicOpt= -1 -1 -1 -1 -1 -1 -1 -1 -1 -1 -1 -1 -1 -1 -1 -1 -1 -1 -1 -1
 MicOpt= -1 -1 -1 -1 -1 -1 -1 -1 -1 -1 -1 -1 -1 -1 -1 -1 -1 -1 -1 -1
 MicOpt= -1 -1 -1 -1 -1 -1 -1 -1 -1 -1 -1 -1 -1 -1 -1 -1 -1 -1 -1 -1
 MicOpt= -1 -1 -1 -1 -1 -1 -1 -1 -1 -1 -1 -1 -1 -1 -1 -1 -1 -1 -1 -1
 MicOpt= -1 -1 -1 -1 -1 -1 -1 -1 -1 -1 -1 -1 -1 -1 -1 -1 -1 -1 -1 -1
 NAtoms=    100 NQM=      100 NQMF=       0 NMMI=      0 NMMIF=      0
                NMic=       0 NMicF=      0.
                    Isotopes and Nuclear Properties:
 (Nuclear quadrupole moments (NQMom) in fm**2, nuclear magnetic moments (NMagM)
  in nuclear magnetons)

  Atom         1           2           3           4           5           6           7           8           9          10
 IAtWgt=          12          12          12          12          12           1           1           1           1           1
 AtmWgt=  12.0000000  12.0000000  12.0000000  12.0000000  12.0000000   1.0078250   1.0078250   1.0078250   1.0078250   1.0078250
 NucSpn=           0           0           0           0           0           1           1           1           1           1
 AtZEff=   0.0000000   0.0000000   0.0000000   0.0000000   0.0000000   0.0000000   0.0000000   0.0000000   0.0000000   0.0000000
 NQMom=    0.0000000   0.0000000   0.0000000   0.0000000   0.0000000   0.0000000   0.0000000   0.0000000   0.0000000   0.0000000
 NMagM=    0.0000000   0.0000000   0.0000000   0.0000000   0.0000000   2.7928460   2.7928460   2.7928460   2.7928460   2.7928460
 AtZNuc=   6.0000000   6.0000000   6.0000000   6.0000000   6.0000000   1.0000000   1.0000000   1.0000000   1.0000000   1.0000000

  Atom        11          12          13          14          15          16          17          18          19          20
 IAtWgt=          16          16          16          16          16          12           1           1          16          12
 AtmWgt=  15.9949146  15.9949146  15.9949146  15.9949146  15.9949146  12.0000000   1.0078250   1.0078250  15.9949146  12.0000000
 NucSpn=           0           0           0           0           0           0           1           1           0           0
 AtZEff=   0.0000000   0.0000000   0.0000000   0.0000000   0.0000000   0.0000000   0.0000000   0.0000000   0.0000000   0.0000000
 NQMom=    0.0000000   0.0000000   0.0000000   0.0000000   0.0000000   0.0000000   0.0000000   0.0000000   0.0000000   0.0000000
 NMagM=    0.0000000   0.0000000   0.0000000   0.0000000   0.0000000   0.0000000   2.7928460   2.7928460   0.0000000   0.0000000
 AtZNuc=   8.0000000   8.0000000   8.0000000   8.0000000   8.0000000   6.0000000   1.0000000   1.0000000   8.0000000   6.0000000

  Atom        21          22          23          24          25          26          27          28          29          30
 IAtWgt=           1           1           1          12           1           1           1          12           1           1
 AtmWgt=   1.0078250   1.0078250   1.0078250  12.0000000   1.0078250   1.0078250   1.0078250  12.0000000   1.0078250   1.0078250
 NucSpn=           1           1           1           0           1           1           1           0           1           1
 AtZEff=   0.0000000   0.0000000   0.0000000   0.0000000   0.0000000   0.0000000   0.0000000   0.0000000   0.0000000   0.0000000
 NQMom=    0.0000000   0.0000000   0.0000000   0.0000000   0.0000000   0.0000000   0.0000000   0.0000000   0.0000000   0.0000000
 NMagM=    2.7928460   2.7928460   2.7928460   0.0000000   2.7928460   2.7928460   2.7928460   0.0000000   2.7928460   2.7928460
 AtZNuc=   1.0000000   1.0000000   1.0000000   6.0000000   1.0000000   1.0000000   1.0000000   6.0000000   1.0000000   1.0000000

  Atom        31          32          33          34          35          36          37          38          39          40
 IAtWgt=           1          12          12          12          12          12           1           1           1           1
 AtmWgt=   1.0078250  12.0000000  12.0000000  12.0000000  12.0000000  12.0000000   1.0078250   1.0078250   1.0078250   1.0078250
 NucSpn=           1           0           0           0           0           0           1           1           1           1
 AtZEff=   0.0000000   0.0000000   0.0000000   0.0000000   0.0000000   0.0000000   0.0000000   0.0000000   0.0000000   0.0000000
 NQMom=    0.0000000   0.0000000   0.0000000   0.0000000   0.0000000   0.0000000   0.0000000   0.0000000   0.0000000   0.0000000
 NMagM=    2.7928460   0.0000000   0.0000000   0.0000000   0.0000000   0.0000000   2.7928460   2.7928460   2.7928460   2.7928460
 AtZNuc=   1.0000000   6.0000000   6.0000000   6.0000000   6.0000000   6.0000000   1.0000000   1.0000000   1.0000000   1.0000000

  Atom        41          42          43          44          45          46          47          48          49          50
 IAtWgt=           1          16          16          16          16          16          12           1           1          16
 AtmWgt=   1.0078250  15.9949146  15.9949146  15.9949146  15.9949146  15.9949146  12.0000000   1.0078250   1.0078250  15.9949146
 NucSpn=           1           0           0           0           0           0           0           1           1           0
 AtZEff=   0.0000000   0.0000000   0.0000000   0.0000000   0.0000000   0.0000000   0.0000000   0.0000000   0.0000000   0.0000000
 NQMom=    0.0000000   0.0000000   0.0000000   0.0000000   0.0000000   0.0000000   0.0000000   0.0000000   0.0000000   0.0000000
 NMagM=    2.7928460   0.0000000   0.0000000   0.0000000   0.0000000   0.0000000   0.0000000   2.7928460   2.7928460   0.0000000
 AtZNuc=   1.0000000   8.0000000   8.0000000   8.0000000   8.0000000   8.0000000   6.0000000   1.0000000   1.0000000   8.0000000

  Atom        51          52          53          54          55          56          57          58          59          60
 IAtWgt=          32          16          16          12          12          12          12           1          12           1
 AtmWgt=  31.9720718  15.9949146  15.9949146  12.0000000  12.0000000  12.0000000  12.0000000   1.0078250  12.0000000   1.0078250
 NucSpn=           0           0           0           0           0           0           0           1           0           1
 AtZEff=   0.0000000   0.0000000   0.0000000   0.0000000   0.0000000   0.0000000   0.0000000   0.0000000   0.0000000   0.0000000
 NQMom=    0.0000000   0.0000000   0.0000000   0.0000000   0.0000000   0.0000000   0.0000000   0.0000000   0.0000000   0.0000000
 NMagM=    0.0000000   0.0000000   0.0000000   0.0000000   0.0000000   0.0000000   0.0000000   2.7928460   0.0000000   2.7928460
 AtZNuc=  16.0000000   8.0000000   8.0000000   6.0000000   6.0000000   6.0000000   6.0000000   1.0000000   6.0000000   1.0000000

  Atom        61          62          63          64          65          66          67          68          69          70
 IAtWgt=          12           1          12           1           1           1          12           1           1           1
 AtmWgt=  12.0000000   1.0078250  12.0000000   1.0078250   1.0078250   1.0078250  12.0000000   1.0078250   1.0078250   1.0078250
 NucSpn=           0           1           0           1           1           1           0           1           1           1
 AtZEff=   0.0000000   0.0000000   0.0000000   0.0000000   0.0000000   0.0000000   0.0000000   0.0000000   0.0000000   0.0000000
 NQMom=    0.0000000   0.0000000   0.0000000   0.0000000   0.0000000   0.0000000   0.0000000   0.0000000   0.0000000   0.0000000
 NMagM=    0.0000000   2.7928460   0.0000000   2.7928460   2.7928460   2.7928460   0.0000000   2.7928460   2.7928460   2.7928460
 AtZNuc=   6.0000000   1.0000000   6.0000000   1.0000000   1.0000000   1.0000000   6.0000000   1.0000000   1.0000000   1.0000000

  Atom        71          72          73          74          75          76          77          78          79          80
 IAtWgt=          12           1           1           1          12           1           1           1          12           1
 AtmWgt=  12.0000000   1.0078250   1.0078250   1.0078250  12.0000000   1.0078250   1.0078250   1.0078250  12.0000000   1.0078250
 NucSpn=           0           1           1           1           0           1           1           1           0           1
 AtZEff=   0.0000000   0.0000000   0.0000000   0.0000000   0.0000000   0.0000000   0.0000000   0.0000000   0.0000000   0.0000000
 NQMom=    0.0000000   0.0000000   0.0000000   0.0000000   0.0000000   0.0000000   0.0000000   0.0000000   0.0000000   0.0000000
 NMagM=    0.0000000   2.7928460   2.7928460   2.7928460   0.0000000   2.7928460   2.7928460   2.7928460   0.0000000   2.7928460
 AtZNuc=   6.0000000   1.0000000   1.0000000   1.0000000   6.0000000   1.0000000   1.0000000   1.0000000   6.0000000   1.0000000

  Atom        81          82          83          84          85          86          87          88          89          90
 IAtWgt=           1           1          23          16          12           1           1           1          12           1
 AtmWgt=   1.0078250   1.0078250  22.9897697  15.9949146  12.0000000   1.0078250   1.0078250   1.0078250  12.0000000   1.0078250
 NucSpn=           1           1           3           0           0           1           1           1           0           1
 AtZEff=   0.0000000   0.0000000   0.0000000   0.0000000   0.0000000   0.0000000   0.0000000   0.0000000   0.0000000   0.0000000
 NQMom=    0.0000000   0.0000000  10.4000000   0.0000000   0.0000000   0.0000000   0.0000000   0.0000000   0.0000000   0.0000000
 NMagM=    2.7928460   2.7928460   2.2175200   0.0000000   0.0000000   2.7928460   2.7928460   2.7928460   0.0000000   2.7928460
 AtZNuc=   1.0000000   1.0000000  11.0000000   8.0000000   6.0000000   1.0000000   1.0000000   1.0000000   6.0000000   1.0000000

  Atom        91          92          93          94          95          96          97          98          99         100
 IAtWgt=           1           1          12          19          19          19          12          19          19          19
 AtmWgt=   1.0078250   1.0078250  12.0000000  18.9984033  18.9984033  18.9984033  12.0000000  18.9984033  18.9984033  18.9984033
 NucSpn=           1           1           0           1           1           1           0           1           1           1
 AtZEff=   0.0000000   0.0000000   0.0000000   0.0000000   0.0000000   0.0000000   0.0000000   0.0000000   0.0000000   0.0000000
 NQMom=    0.0000000   0.0000000   0.0000000   0.0000000   0.0000000   0.0000000   0.0000000   0.0000000   0.0000000   0.0000000
 NMagM=    2.7928460   2.7928460   0.0000000   2.6288670   2.6288670   2.6288670   0.0000000   2.6288670   2.6288670   2.6288670
 AtZNuc=   1.0000000   1.0000000   6.0000000   9.0000000   9.0000000   9.0000000   6.0000000   9.0000000   9.0000000   9.0000000
 Leave Link  101 at Thu May 30 22:14:50 2019, MaxMem=  6442450944 cpu:              23.7 elap:               0.9
 (Enter /home/ekwan/sw/g16/l103.exe)

 GradGradGradGradGradGradGradGradGradGradGradGradGradGradGradGradGradGrad
 Berny optimization.
 Initialization pass.
                           ----------------------------
                           !    Initial Parameters    !
                           ! (Angstroms and Degrees)  !
 --------------------------                            --------------------------
 ! Name  Definition              Value          Derivative Info.                !
 --------------------------------------------------------------------------------
 ! R1    R(1,2)                  1.5267         calculate D2E/DX2 analytically  !
 ! R2    R(1,5)                  1.5293         calculate D2E/DX2 analytically  !
 ! R3    R(1,8)                  1.0977         calculate D2E/DX2 analytically  !
 ! R4    R(1,14)                 1.4285         calculate D2E/DX2 analytically  !
 ! R5    R(2,3)                  1.5363         calculate D2E/DX2 analytically  !
 ! R6    R(2,7)                  1.1012         calculate D2E/DX2 analytically  !
 ! R7    R(2,13)                 1.4193         calculate D2E/DX2 analytically  !
 ! R8    R(3,6)                  1.0994         calculate D2E/DX2 analytically  !
 ! R9    R(3,11)                 1.4048         calculate D2E/DX2 analytically  !
 ! R10   R(3,12)                 1.4084         calculate D2E/DX2 analytically  !
 ! R11   R(4,5)                  1.5292         calculate D2E/DX2 analytically  !
 ! R12   R(4,9)                  1.0997         calculate D2E/DX2 analytically  !
 ! R13   R(4,11)                 1.4438         calculate D2E/DX2 analytically  !
 ! R14   R(4,16)                 1.5463         calculate D2E/DX2 analytically  !
 ! R15   R(5,10)                 1.0974         calculate D2E/DX2 analytically  !
 ! R16   R(5,15)                 1.4287         calculate D2E/DX2 analytically  !
 ! R17   R(12,79)                1.4214         calculate D2E/DX2 analytically  !
 ! R18   R(13,20)                1.4166         calculate D2E/DX2 analytically  !
 ! R19   R(14,24)                1.4177         calculate D2E/DX2 analytically  !
 ! R20   R(15,28)                1.4167         calculate D2E/DX2 analytically  !
 ! R21   R(16,17)                1.1179         calculate D2E/DX2 analytically  !
 ! R22   R(16,18)                1.1189         calculate D2E/DX2 analytically  !
 ! R23   R(16,19)                1.3651         calculate D2E/DX2 analytically  !
 ! R24   R(19,37)                1.7036         calculate D2E/DX2 analytically  !
 ! R25   R(20,21)                1.0988         calculate D2E/DX2 analytically  !
 ! R26   R(20,22)                1.1003         calculate D2E/DX2 analytically  !
 ! R27   R(20,23)                1.093          calculate D2E/DX2 analytically  !
 ! R28   R(24,25)                1.1005         calculate D2E/DX2 analytically  !
 ! R29   R(24,26)                1.0956         calculate D2E/DX2 analytically  !
 ! R30   R(24,27)                1.094          calculate D2E/DX2 analytically  !
 ! R31   R(28,29)                1.0936         calculate D2E/DX2 analytically  !
 ! R32   R(28,30)                1.0946         calculate D2E/DX2 analytically  !
 ! R33   R(28,31)                1.0935         calculate D2E/DX2 analytically  !
 ! R34   R(32,33)                1.5276         calculate D2E/DX2 analytically  !
 ! R35   R(32,36)                1.5286         calculate D2E/DX2 analytically  !
 ! R36   R(32,39)                1.0994         calculate D2E/DX2 analytically  !
 ! R37   R(32,45)                1.4156         calculate D2E/DX2 analytically  !
 ! R38   R(33,34)                1.5143         calculate D2E/DX2 analytically  !
 ! R39   R(33,38)                1.0998         calculate D2E/DX2 analytically  !
 ! R40   R(33,44)                1.4163         calculate D2E/DX2 analytically  !
 ! R41   R(34,37)                1.118          calculate D2E/DX2 analytically  !
 ! R42   R(34,42)                1.3061         calculate D2E/DX2 analytically  !
 ! R43   R(34,53)                1.9318         calculate D2E/DX2 analytically  !
 ! R44   R(35,36)                1.5301         calculate D2E/DX2 analytically  !
 ! R45   R(35,40)                1.0918         calculate D2E/DX2 analytically  !
 ! R46   R(35,42)                1.4611         calculate D2E/DX2 analytically  !
 ! R47   R(35,47)                1.5167         calculate D2E/DX2 analytically  !
 ! R48   R(36,41)                1.0961         calculate D2E/DX2 analytically  !
 ! R49   R(36,46)                1.417          calculate D2E/DX2 analytically  !
 ! R50   R(43,51)                1.4799         calculate D2E/DX2 analytically  !
 ! R51   R(44,63)                1.4468         calculate D2E/DX2 analytically  !
 ! R52   R(44,83)                2.3191         calculate D2E/DX2 analytically  !
 ! R53   R(45,67)                1.4218         calculate D2E/DX2 analytically  !
 ! R54   R(46,71)                1.425          calculate D2E/DX2 analytically  !
 ! R55   R(47,48)                1.0981         calculate D2E/DX2 analytically  !
 ! R56   R(47,49)                1.0968         calculate D2E/DX2 analytically  !
 ! R57   R(47,50)                1.414          calculate D2E/DX2 analytically  !
 ! R58   R(50,75)                1.4221         calculate D2E/DX2 analytically  !
 ! R59   R(51,52)                1.4697         calculate D2E/DX2 analytically  !
 ! R60   R(51,53)                1.5519         calculate D2E/DX2 analytically  !
 ! R61   R(51,54)                1.7923         calculate D2E/DX2 analytically  !
 ! R62   R(53,83)                2.3273         calculate D2E/DX2 analytically  !
 ! R63   R(54,55)                1.3907         calculate D2E/DX2 analytically  !
 ! R64   R(54,56)                1.3925         calculate D2E/DX2 analytically  !
 ! R65   R(55,57)                1.3944         calculate D2E/DX2 analytically  !
 ! R66   R(55,58)                1.0834         calculate D2E/DX2 analytically  !
 ! R67   R(56,59)                1.3945         calculate D2E/DX2 analytically  !
 ! R68   R(56,60)                1.0831         calculate D2E/DX2 analytically  !
 ! R69   R(57,61)                1.3941         calculate D2E/DX2 analytically  !
 ! R70   R(57,97)                1.504          calculate D2E/DX2 analytically  !
 ! R71   R(59,61)                1.3952         calculate D2E/DX2 analytically  !
 ! R72   R(59,93)                1.5066         calculate D2E/DX2 analytically  !
 ! R73   R(61,62)                1.0828         calculate D2E/DX2 analytically  !
 ! R74   R(63,64)                1.0991         calculate D2E/DX2 analytically  !
 ! R75   R(63,65)                1.0972         calculate D2E/DX2 analytically  !
 ! R76   R(63,66)                1.091          calculate D2E/DX2 analytically  !
 ! R77   R(67,68)                1.1001         calculate D2E/DX2 analytically  !
 ! R78   R(67,69)                1.0948         calculate D2E/DX2 analytically  !
 ! R79   R(67,70)                1.0924         calculate D2E/DX2 analytically  !
 ! R80   R(71,72)                1.0947         calculate D2E/DX2 analytically  !
 ! R81   R(71,73)                1.0985         calculate D2E/DX2 analytically  !
 ! R82   R(71,74)                1.0925         calculate D2E/DX2 analytically  !
 ! R83   R(75,76)                1.0928         calculate D2E/DX2 analytically  !
 ! R84   R(75,77)                1.0971         calculate D2E/DX2 analytically  !
 ! R85   R(75,78)                1.0996         calculate D2E/DX2 analytically  !
 ! R86   R(79,80)                1.0923         calculate D2E/DX2 analytically  !
 ! R87   R(79,81)                1.0961         calculate D2E/DX2 analytically  !
 ! R88   R(79,82)                1.1001         calculate D2E/DX2 analytically  !
 ! R89   R(83,84)                2.2713         calculate D2E/DX2 analytically  !
 ! R90   R(84,85)                1.4256         calculate D2E/DX2 analytically  !
 ! R91   R(84,89)                1.4243         calculate D2E/DX2 analytically  !
 ! R92   R(85,86)                1.0975         calculate D2E/DX2 analytically  !
 ! R93   R(85,87)                1.0918         calculate D2E/DX2 analytically  !
 ! R94   R(85,88)                1.0979         calculate D2E/DX2 analytically  !
 ! R95   R(89,90)                1.0978         calculate D2E/DX2 analytically  !
 ! R96   R(89,91)                1.0924         calculate D2E/DX2 analytically  !
 ! R97   R(89,92)                1.0976         calculate D2E/DX2 analytically  !
 ! R98   R(93,94)                1.3488         calculate D2E/DX2 analytically  !
 ! R99   R(93,95)                1.3513         calculate D2E/DX2 analytically  !
 ! R100  R(93,96)                1.352          calculate D2E/DX2 analytically  !
 ! R101  R(97,98)                1.3456         calculate D2E/DX2 analytically  !
 ! R102  R(97,99)                1.3597         calculate D2E/DX2 analytically  !
 ! R103  R(97,100)               1.3491         calculate D2E/DX2 analytically  !
 ! A1    A(2,1,5)              111.6076         calculate D2E/DX2 analytically  !
 ! A2    A(2,1,8)              108.708          calculate D2E/DX2 analytically  !
 ! A3    A(2,1,14)             110.628          calculate D2E/DX2 analytically  !
 ! A4    A(5,1,8)              108.4799         calculate D2E/DX2 analytically  !
 ! A5    A(5,1,14)             107.4679         calculate D2E/DX2 analytically  !
 ! A6    A(8,1,14)             109.9174         calculate D2E/DX2 analytically  !
 ! A7    A(1,2,3)              110.4572         calculate D2E/DX2 analytically  !
 ! A8    A(1,2,7)              108.3335         calculate D2E/DX2 analytically  !
 ! A9    A(1,2,13)             107.9053         calculate D2E/DX2 analytically  !
 ! A10   A(3,2,7)              106.8258         calculate D2E/DX2 analytically  !
 ! A11   A(3,2,13)             113.3613         calculate D2E/DX2 analytically  !
 ! A12   A(7,2,13)             109.8606         calculate D2E/DX2 analytically  !
 ! A13   A(2,3,6)              111.1962         calculate D2E/DX2 analytically  !
 ! A14   A(2,3,11)             110.164          calculate D2E/DX2 analytically  !
 ! A15   A(2,3,12)             107.8978         calculate D2E/DX2 analytically  !
 ! A16   A(6,3,11)             104.3864         calculate D2E/DX2 analytically  !
 ! A17   A(6,3,12)             109.5939         calculate D2E/DX2 analytically  !
 ! A18   A(11,3,12)            113.6233         calculate D2E/DX2 analytically  !
 ! A19   A(5,4,9)              109.2444         calculate D2E/DX2 analytically  !
 ! A20   A(5,4,11)             110.2361         calculate D2E/DX2 analytically  !
 ! A21   A(5,4,16)             111.647          calculate D2E/DX2 analytically  !
 ! A22   A(9,4,11)             109.0949         calculate D2E/DX2 analytically  !
 ! A23   A(9,4,16)             109.9741         calculate D2E/DX2 analytically  !
 ! A24   A(11,4,16)            106.5902         calculate D2E/DX2 analytically  !
 ! A25   A(1,5,4)              113.6775         calculate D2E/DX2 analytically  !
 ! A26   A(1,5,10)             109.5457         calculate D2E/DX2 analytically  !
 ! A27   A(1,5,15)             109.8343         calculate D2E/DX2 analytically  !
 ! A28   A(4,5,10)             106.5633         calculate D2E/DX2 analytically  !
 ! A29   A(4,5,15)             107.1548         calculate D2E/DX2 analytically  !
 ! A30   A(10,5,15)            109.9713         calculate D2E/DX2 analytically  !
 ! A31   A(3,11,4)             115.0906         calculate D2E/DX2 analytically  !
 ! A32   A(3,12,79)            112.9854         calculate D2E/DX2 analytically  !
 ! A33   A(2,13,20)            114.2059         calculate D2E/DX2 analytically  !
 ! A34   A(1,14,24)            115.2443         calculate D2E/DX2 analytically  !
 ! A35   A(5,15,28)            114.2146         calculate D2E/DX2 analytically  !
 ! A36   A(4,16,17)            104.711          calculate D2E/DX2 analytically  !
 ! A37   A(4,16,18)            104.4191         calculate D2E/DX2 analytically  !
 ! A38   A(4,16,19)            114.1661         calculate D2E/DX2 analytically  !
 ! A39   A(17,16,18)           104.5645         calculate D2E/DX2 analytically  !
 ! A40   A(17,16,19)           114.3161         calculate D2E/DX2 analytically  !
 ! A41   A(18,16,19)           113.5723         calculate D2E/DX2 analytically  !
 ! A42   A(16,19,37)           110.1186         calculate D2E/DX2 analytically  !
 ! A43   A(13,20,21)           112.1973         calculate D2E/DX2 analytically  !
 ! A44   A(13,20,22)           111.4159         calculate D2E/DX2 analytically  !
 ! A45   A(13,20,23)           106.8696         calculate D2E/DX2 analytically  !
 ! A46   A(21,20,22)           108.6443         calculate D2E/DX2 analytically  !
 ! A47   A(21,20,23)           108.6006         calculate D2E/DX2 analytically  !
 ! A48   A(22,20,23)           109.0255         calculate D2E/DX2 analytically  !
 ! A49   A(14,24,25)           111.205          calculate D2E/DX2 analytically  !
 ! A50   A(14,24,26)           111.83           calculate D2E/DX2 analytically  !
 ! A51   A(14,24,27)           106.5358         calculate D2E/DX2 analytically  !
 ! A52   A(25,24,26)           108.8039         calculate D2E/DX2 analytically  !
 ! A53   A(25,24,27)           108.5783         calculate D2E/DX2 analytically  !
 ! A54   A(26,24,27)           109.8197         calculate D2E/DX2 analytically  !
 ! A55   A(15,28,29)           112.0721         calculate D2E/DX2 analytically  !
 ! A56   A(15,28,30)           110.5921         calculate D2E/DX2 analytically  !
 ! A57   A(15,28,31)           107.1751         calculate D2E/DX2 analytically  !
 ! A58   A(29,28,30)           108.6155         calculate D2E/DX2 analytically  !
 ! A59   A(29,28,31)           109.649          calculate D2E/DX2 analytically  !
 ! A60   A(30,28,31)           108.678          calculate D2E/DX2 analytically  !
 ! A61   A(33,32,36)           108.1766         calculate D2E/DX2 analytically  !
 ! A62   A(33,32,39)           110.3238         calculate D2E/DX2 analytically  !
 ! A63   A(33,32,45)           111.4875         calculate D2E/DX2 analytically  !
 ! A64   A(36,32,39)           108.9854         calculate D2E/DX2 analytically  !
 ! A65   A(36,32,45)           107.3225         calculate D2E/DX2 analytically  !
 ! A66   A(39,32,45)           110.4395         calculate D2E/DX2 analytically  !
 ! A67   A(32,33,34)           113.0665         calculate D2E/DX2 analytically  !
 ! A68   A(32,33,38)           107.3107         calculate D2E/DX2 analytically  !
 ! A69   A(32,33,44)           111.3194         calculate D2E/DX2 analytically  !
 ! A70   A(34,33,38)           103.8102         calculate D2E/DX2 analytically  !
 ! A71   A(34,33,44)           111.6256         calculate D2E/DX2 analytically  !
 ! A72   A(38,33,44)           109.2907         calculate D2E/DX2 analytically  !
 ! A73   A(33,34,37)           115.1702         calculate D2E/DX2 analytically  !
 ! A74   A(33,34,42)           118.8177         calculate D2E/DX2 analytically  !
 ! A75   A(33,34,53)            97.0358         calculate D2E/DX2 analytically  !
 ! A76   A(37,34,42)           113.6277         calculate D2E/DX2 analytically  !
 ! A77   A(37,34,53)           104.315          calculate D2E/DX2 analytically  !
 ! A78   A(42,34,53)           104.3932         calculate D2E/DX2 analytically  !
 ! A79   A(36,35,40)           108.8303         calculate D2E/DX2 analytically  !
 ! A80   A(36,35,42)           113.3623         calculate D2E/DX2 analytically  !
 ! A81   A(36,35,47)           113.2061         calculate D2E/DX2 analytically  !
 ! A82   A(40,35,42)           106.5729         calculate D2E/DX2 analytically  !
 ! A83   A(40,35,47)           109.3027         calculate D2E/DX2 analytically  !
 ! A84   A(42,35,47)           105.2926         calculate D2E/DX2 analytically  !
 ! A85   A(32,36,35)           111.8728         calculate D2E/DX2 analytically  !
 ! A86   A(32,36,41)           108.5501         calculate D2E/DX2 analytically  !
 ! A87   A(32,36,46)           111.1923         calculate D2E/DX2 analytically  !
 ! A88   A(35,36,41)           108.9643         calculate D2E/DX2 analytically  !
 ! A89   A(35,36,46)           105.4043         calculate D2E/DX2 analytically  !
 ! A90   A(41,36,46)           110.8331         calculate D2E/DX2 analytically  !
 ! A91   A(19,37,34)           139.6899         calculate D2E/DX2 analytically  !
 ! A92   A(34,42,35)           122.2547         calculate D2E/DX2 analytically  !
 ! A93   A(33,44,63)           113.6297         calculate D2E/DX2 analytically  !
 ! A94   A(33,44,83)           118.0701         calculate D2E/DX2 analytically  !
 ! A95   A(63,44,83)           120.346          calculate D2E/DX2 analytically  !
 ! A96   A(32,45,67)           115.2348         calculate D2E/DX2 analytically  !
 ! A97   A(36,46,71)           114.153          calculate D2E/DX2 analytically  !
 ! A98   A(35,47,48)           108.8063         calculate D2E/DX2 analytically  !
 ! A99   A(35,47,49)           108.3408         calculate D2E/DX2 analytically  !
 ! A100  A(35,47,50)           108.7809         calculate D2E/DX2 analytically  !
 ! A101  A(48,47,49)           108.0878         calculate D2E/DX2 analytically  !
 ! A102  A(48,47,50)           111.2084         calculate D2E/DX2 analytically  !
 ! A103  A(49,47,50)           111.5396         calculate D2E/DX2 analytically  !
 ! A104  A(47,50,75)           113.8698         calculate D2E/DX2 analytically  !
 ! A105  A(43,51,52)           117.204          calculate D2E/DX2 analytically  !
 ! A106  A(43,51,53)           106.7403         calculate D2E/DX2 analytically  !
 ! A107  A(43,51,54)           109.4761         calculate D2E/DX2 analytically  !
 ! A108  A(52,51,53)           112.6474         calculate D2E/DX2 analytically  !
 ! A109  A(52,51,54)           106.5636         calculate D2E/DX2 analytically  !
 ! A110  A(53,51,54)           103.3203         calculate D2E/DX2 analytically  !
 ! A111  A(34,53,51)           118.0261         calculate D2E/DX2 analytically  !
 ! A112  A(34,53,83)           111.3509         calculate D2E/DX2 analytically  !
 ! A113  A(51,53,83)           102.1023         calculate D2E/DX2 analytically  !
 ! A114  A(51,54,55)           119.5851         calculate D2E/DX2 analytically  !
 ! A115  A(51,54,56)           118.933          calculate D2E/DX2 analytically  !
 ! A116  A(55,54,56)           121.4203         calculate D2E/DX2 analytically  !
 ! A117  A(54,55,57)           118.9345         calculate D2E/DX2 analytically  !
 ! A118  A(54,55,58)           120.2796         calculate D2E/DX2 analytically  !
 ! A119  A(57,55,58)           120.7653         calculate D2E/DX2 analytically  !
 ! A120  A(54,56,59)           118.8786         calculate D2E/DX2 analytically  !
 ! A121  A(54,56,60)           120.083          calculate D2E/DX2 analytically  !
 ! A122  A(59,56,60)           120.9762         calculate D2E/DX2 analytically  !
 ! A123  A(55,57,61)           120.6228         calculate D2E/DX2 analytically  !
 ! A124  A(55,57,97)           118.6656         calculate D2E/DX2 analytically  !
 ! A125  A(61,57,97)           120.5681         calculate D2E/DX2 analytically  !
 ! A126  A(56,59,61)           120.615          calculate D2E/DX2 analytically  !
 ! A127  A(56,59,93)           119.5148         calculate D2E/DX2 analytically  !
 ! A128  A(61,59,93)           119.8678         calculate D2E/DX2 analytically  !
 ! A129  A(57,61,59)           119.491          calculate D2E/DX2 analytically  !
 ! A130  A(57,61,62)           120.2171         calculate D2E/DX2 analytically  !
 ! A131  A(59,61,62)           120.2891         calculate D2E/DX2 analytically  !
 ! A132  A(44,63,64)           109.5309         calculate D2E/DX2 analytically  !
 ! A133  A(44,63,65)           109.2381         calculate D2E/DX2 analytically  !
 ! A134  A(44,63,66)           105.9115         calculate D2E/DX2 analytically  !
 ! A135  A(64,63,65)           110.9829         calculate D2E/DX2 analytically  !
 ! A136  A(64,63,66)           111.5056         calculate D2E/DX2 analytically  !
 ! A137  A(65,63,66)           109.5268         calculate D2E/DX2 analytically  !
 ! A138  A(45,67,68)           110.9239         calculate D2E/DX2 analytically  !
 ! A139  A(45,67,69)           111.684          calculate D2E/DX2 analytically  !
 ! A140  A(45,67,70)           106.5763         calculate D2E/DX2 analytically  !
 ! A141  A(68,67,69)           109.1752         calculate D2E/DX2 analytically  !
 ! A142  A(68,67,70)           108.9056         calculate D2E/DX2 analytically  !
 ! A143  A(69,67,70)           109.5066         calculate D2E/DX2 analytically  !
 ! A144  A(46,71,72)           111.1516         calculate D2E/DX2 analytically  !
 ! A145  A(46,71,73)           110.9152         calculate D2E/DX2 analytically  !
 ! A146  A(46,71,74)           106.4425         calculate D2E/DX2 analytically  !
 ! A147  A(72,71,73)           109.3972         calculate D2E/DX2 analytically  !
 ! A148  A(72,71,74)           109.7239         calculate D2E/DX2 analytically  !
 ! A149  A(73,71,74)           109.1515         calculate D2E/DX2 analytically  !
 ! A150  A(50,75,76)           106.5179         calculate D2E/DX2 analytically  !
 ! A151  A(50,75,77)           110.9434         calculate D2E/DX2 analytically  !
 ! A152  A(50,75,78)           111.5317         calculate D2E/DX2 analytically  !
 ! A153  A(76,75,77)           108.991          calculate D2E/DX2 analytically  !
 ! A154  A(76,75,78)           108.8538         calculate D2E/DX2 analytically  !
 ! A155  A(77,75,78)           109.8969         calculate D2E/DX2 analytically  !
 ! A156  A(12,79,80)           106.8287         calculate D2E/DX2 analytically  !
 ! A157  A(12,79,81)           111.6409         calculate D2E/DX2 analytically  !
 ! A158  A(12,79,82)           110.9324         calculate D2E/DX2 analytically  !
 ! A159  A(80,79,81)           109.5248         calculate D2E/DX2 analytically  !
 ! A160  A(80,79,82)           109.2345         calculate D2E/DX2 analytically  !
 ! A161  A(81,79,82)           108.6409         calculate D2E/DX2 analytically  !
 ! A162  A(44,83,53)            73.3117         calculate D2E/DX2 analytically  !
 ! A163  A(44,83,84)            93.8016         calculate D2E/DX2 analytically  !
 ! A164  A(53,83,84)           155.0884         calculate D2E/DX2 analytically  !
 ! A165  A(83,84,85)           123.1544         calculate D2E/DX2 analytically  !
 ! A166  A(83,84,89)           122.8705         calculate D2E/DX2 analytically  !
 ! A167  A(85,84,89)           112.6037         calculate D2E/DX2 analytically  !
 ! A168  A(84,85,86)           110.6923         calculate D2E/DX2 analytically  !
 ! A169  A(84,85,87)           107.2614         calculate D2E/DX2 analytically  !
 ! A170  A(84,85,88)           110.7111         calculate D2E/DX2 analytically  !
 ! A171  A(86,85,87)           109.5285         calculate D2E/DX2 analytically  !
 ! A172  A(86,85,88)           109.2212         calculate D2E/DX2 analytically  !
 ! A173  A(87,85,88)           109.3938         calculate D2E/DX2 analytically  !
 ! A174  A(84,89,90)           110.8288         calculate D2E/DX2 analytically  !
 ! A175  A(84,89,91)           107.1771         calculate D2E/DX2 analytically  !
 ! A176  A(84,89,92)           110.7648         calculate D2E/DX2 analytically  !
 ! A177  A(90,89,91)           109.3318         calculate D2E/DX2 analytically  !
 ! A178  A(90,89,92)           109.2206         calculate D2E/DX2 analytically  !
 ! A179  A(91,89,92)           109.4808         calculate D2E/DX2 analytically  !
 ! A180  A(59,93,94)           111.7489         calculate D2E/DX2 analytically  !
 ! A181  A(59,93,95)           111.454          calculate D2E/DX2 analytically  !
 ! A182  A(59,93,96)           111.6039         calculate D2E/DX2 analytically  !
 ! A183  A(94,93,95)           107.1997         calculate D2E/DX2 analytically  !
 ! A184  A(94,93,96)           107.6312         calculate D2E/DX2 analytically  !
 ! A185  A(95,93,96)           106.9426         calculate D2E/DX2 analytically  !
 ! A186  A(57,97,98)           112.3914         calculate D2E/DX2 analytically  !
 ! A187  A(57,97,99)           110.8211         calculate D2E/DX2 analytically  !
 ! A188  A(57,97,100)          111.6711         calculate D2E/DX2 analytically  !
 ! A189  A(98,97,99)           107.0936         calculate D2E/DX2 analytically  !
 ! A190  A(98,97,100)          107.9869         calculate D2E/DX2 analytically  !
 ! A191  A(99,97,100)          106.5891         calculate D2E/DX2 analytically  !
 ! D1    D(5,1,2,3)            -49.0132         calculate D2E/DX2 analytically  !
 ! D2    D(5,1,2,7)             67.6714         calculate D2E/DX2 analytically  !
 ! D3    D(5,1,2,13)          -173.4353         calculate D2E/DX2 analytically  !
 ! D4    D(8,1,2,3)             70.5955         calculate D2E/DX2 analytically  !
 ! D5    D(8,1,2,7)           -172.7199         calculate D2E/DX2 analytically  !
 ! D6    D(8,1,2,13)           -53.8266         calculate D2E/DX2 analytically  !
 ! D7    D(14,1,2,3)          -168.622          calculate D2E/DX2 analytically  !
 ! D8    D(14,1,2,7)           -51.9374         calculate D2E/DX2 analytically  !
 ! D9    D(14,1,2,13)           66.9559         calculate D2E/DX2 analytically  !
 ! D10   D(2,1,5,4)             45.9053         calculate D2E/DX2 analytically  !
 ! D11   D(2,1,5,10)           -73.1719         calculate D2E/DX2 analytically  !
 ! D12   D(2,1,5,15)           165.9412         calculate D2E/DX2 analytically  !
 ! D13   D(8,1,5,4)            -73.8381         calculate D2E/DX2 analytically  !
 ! D14   D(8,1,5,10)           167.0847         calculate D2E/DX2 analytically  !
 ! D15   D(8,1,5,15)            46.1978         calculate D2E/DX2 analytically  !
 ! D16   D(14,1,5,4)           167.3641         calculate D2E/DX2 analytically  !
 ! D17   D(14,1,5,10)           48.2869         calculate D2E/DX2 analytically  !
 ! D18   D(14,1,5,15)          -72.5999         calculate D2E/DX2 analytically  !
 ! D19   D(2,1,14,24)          -95.7481         calculate D2E/DX2 analytically  !
 ! D20   D(5,1,14,24)          142.182          calculate D2E/DX2 analytically  !
 ! D21   D(8,1,14,24)           24.3126         calculate D2E/DX2 analytically  !
 ! D22   D(1,2,3,6)            171.7989         calculate D2E/DX2 analytically  !
 ! D23   D(1,2,3,11)            56.5662         calculate D2E/DX2 analytically  !
 ! D24   D(1,2,3,12)           -67.9881         calculate D2E/DX2 analytically  !
 ! D25   D(7,2,3,6)             54.1828         calculate D2E/DX2 analytically  !
 ! D26   D(7,2,3,11)           -61.0498         calculate D2E/DX2 analytically  !
 ! D27   D(7,2,3,12)           174.3959         calculate D2E/DX2 analytically  !
 ! D28   D(13,2,3,6)           -66.9648         calculate D2E/DX2 analytically  !
 ! D29   D(13,2,3,11)          177.8026         calculate D2E/DX2 analytically  !
 ! D30   D(13,2,3,12)           53.2483         calculate D2E/DX2 analytically  !
 ! D31   D(1,2,13,20)         -167.8862         calculate D2E/DX2 analytically  !
 ! D32   D(3,2,13,20)           69.4538         calculate D2E/DX2 analytically  !
 ! D33   D(7,2,13,20)          -49.9706         calculate D2E/DX2 analytically  !
 ! D34   D(2,3,11,4)           -62.4391         calculate D2E/DX2 analytically  !
 ! D35   D(6,3,11,4)           178.0998         calculate D2E/DX2 analytically  !
 ! D36   D(12,3,11,4)           58.7551         calculate D2E/DX2 analytically  !
 ! D37   D(2,3,12,79)         -174.71           calculate D2E/DX2 analytically  !
 ! D38   D(6,3,12,79)          -53.4942         calculate D2E/DX2 analytically  !
 ! D39   D(11,3,12,79)          62.8361         calculate D2E/DX2 analytically  !
 ! D40   D(9,4,5,1)             72.1008         calculate D2E/DX2 analytically  !
 ! D41   D(9,4,5,10)          -167.1326         calculate D2E/DX2 analytically  !
 ! D42   D(9,4,5,15)           -49.4396         calculate D2E/DX2 analytically  !
 ! D43   D(11,4,5,1)           -47.766          calculate D2E/DX2 analytically  !
 ! D44   D(11,4,5,10)           73.0006         calculate D2E/DX2 analytically  !
 ! D45   D(11,4,5,15)         -169.3064         calculate D2E/DX2 analytically  !
 ! D46   D(16,4,5,1)          -166.0411         calculate D2E/DX2 analytically  !
 ! D47   D(16,4,5,10)          -45.2744         calculate D2E/DX2 analytically  !
 ! D48   D(16,4,5,15)           72.4186         calculate D2E/DX2 analytically  !
 ! D49   D(5,4,11,3)            57.4332         calculate D2E/DX2 analytically  !
 ! D50   D(9,4,11,3)           -62.524          calculate D2E/DX2 analytically  !
 ! D51   D(16,4,11,3)          178.7695         calculate D2E/DX2 analytically  !
 ! D52   D(5,4,16,17)          -75.2885         calculate D2E/DX2 analytically  !
 ! D53   D(5,4,16,18)          175.0809         calculate D2E/DX2 analytically  !
 ! D54   D(5,4,16,19)           50.474          calculate D2E/DX2 analytically  !
 ! D55   D(9,4,16,17)           46.1478         calculate D2E/DX2 analytically  !
 ! D56   D(9,4,16,18)          -63.4828         calculate D2E/DX2 analytically  !
 ! D57   D(9,4,16,19)          171.9104         calculate D2E/DX2 analytically  !
 ! D58   D(11,4,16,17)         164.2779         calculate D2E/DX2 analytically  !
 ! D59   D(11,4,16,18)          54.6473         calculate D2E/DX2 analytically  !
 ! D60   D(11,4,16,19)         -69.9596         calculate D2E/DX2 analytically  !
 ! D61   D(1,5,15,28)           89.9348         calculate D2E/DX2 analytically  !
 ! D62   D(4,5,15,28)         -146.1384         calculate D2E/DX2 analytically  !
 ! D63   D(10,5,15,28)         -30.6953         calculate D2E/DX2 analytically  !
 ! D64   D(3,12,79,80)         176.1654         calculate D2E/DX2 analytically  !
 ! D65   D(3,12,79,81)         -64.1219         calculate D2E/DX2 analytically  !
 ! D66   D(3,12,79,82)          57.206          calculate D2E/DX2 analytically  !
 ! D67   D(2,13,20,21)         -70.495          calculate D2E/DX2 analytically  !
 ! D68   D(2,13,20,22)          51.5732         calculate D2E/DX2 analytically  !
 ! D69   D(2,13,20,23)         170.5759         calculate D2E/DX2 analytically  !
 ! D70   D(1,14,24,25)         -53.39           calculate D2E/DX2 analytically  !
 ! D71   D(1,14,24,26)          68.4712         calculate D2E/DX2 analytically  !
 ! D72   D(1,14,24,27)        -171.5327         calculate D2E/DX2 analytically  !
 ! D73   D(5,15,28,29)         -71.1057         calculate D2E/DX2 analytically  !
 ! D74   D(5,15,28,30)          50.2481         calculate D2E/DX2 analytically  !
 ! D75   D(5,15,28,31)         168.5554         calculate D2E/DX2 analytically  !
 ! D76   D(4,16,19,37)        -109.5283         calculate D2E/DX2 analytically  !
 ! D77   D(17,16,19,37)         11.0146         calculate D2E/DX2 analytically  !
 ! D78   D(18,16,19,37)        130.8971         calculate D2E/DX2 analytically  !
 ! D79   D(16,19,37,34)        -50.0323         calculate D2E/DX2 analytically  !
 ! D80   D(36,32,33,34)        -50.8141         calculate D2E/DX2 analytically  !
 ! D81   D(36,32,33,38)         63.0446         calculate D2E/DX2 analytically  !
 ! D82   D(36,32,33,44)       -177.4113         calculate D2E/DX2 analytically  !
 ! D83   D(39,32,33,34)         68.3134         calculate D2E/DX2 analytically  !
 ! D84   D(39,32,33,38)       -177.8279         calculate D2E/DX2 analytically  !
 ! D85   D(39,32,33,44)        -58.2839         calculate D2E/DX2 analytically  !
 ! D86   D(45,32,33,34)       -168.592          calculate D2E/DX2 analytically  !
 ! D87   D(45,32,33,38)        -54.7333         calculate D2E/DX2 analytically  !
 ! D88   D(45,32,33,44)         64.8108         calculate D2E/DX2 analytically  !
 ! D89   D(33,32,36,35)         54.8924         calculate D2E/DX2 analytically  !
 ! D90   D(33,32,36,41)        -65.3786         calculate D2E/DX2 analytically  !
 ! D91   D(33,32,36,46)        172.4501         calculate D2E/DX2 analytically  !
 ! D92   D(39,32,36,35)        -65.0784         calculate D2E/DX2 analytically  !
 ! D93   D(39,32,36,41)        174.6507         calculate D2E/DX2 analytically  !
 ! D94   D(39,32,36,46)         52.4794         calculate D2E/DX2 analytically  !
 ! D95   D(45,32,36,35)        175.3073         calculate D2E/DX2 analytically  !
 ! D96   D(45,32,36,41)         55.0363         calculate D2E/DX2 analytically  !
 ! D97   D(45,32,36,46)        -67.135          calculate D2E/DX2 analytically  !
 ! D98   D(33,32,45,67)        -90.2753         calculate D2E/DX2 analytically  !
 ! D99   D(36,32,45,67)        151.4334         calculate D2E/DX2 analytically  !
 ! D100  D(39,32,45,67)         32.7533         calculate D2E/DX2 analytically  !
 ! D101  D(32,33,34,37)        179.3069         calculate D2E/DX2 analytically  !
 ! D102  D(32,33,34,42)         39.4914         calculate D2E/DX2 analytically  !
 ! D103  D(32,33,34,53)        -71.2262         calculate D2E/DX2 analytically  !
 ! D104  D(38,33,34,37)         63.3486         calculate D2E/DX2 analytically  !
 ! D105  D(38,33,34,42)        -76.4669         calculate D2E/DX2 analytically  !
 ! D106  D(38,33,34,53)        172.8156         calculate D2E/DX2 analytically  !
 ! D107  D(44,33,34,37)        -54.2586         calculate D2E/DX2 analytically  !
 ! D108  D(44,33,34,42)        165.926          calculate D2E/DX2 analytically  !
 ! D109  D(44,33,34,53)         55.2084         calculate D2E/DX2 analytically  !
 ! D110  D(32,33,44,63)       -140.3977         calculate D2E/DX2 analytically  !
 ! D111  D(32,33,44,83)         70.4776         calculate D2E/DX2 analytically  !
 ! D112  D(34,33,44,63)         92.2187         calculate D2E/DX2 analytically  !
 ! D113  D(34,33,44,83)        -56.906          calculate D2E/DX2 analytically  !
 ! D114  D(38,33,44,63)        -22.0375         calculate D2E/DX2 analytically  !
 ! D115  D(38,33,44,83)       -171.1622         calculate D2E/DX2 analytically  !
 ! D116  D(33,34,37,19)        -50.2346         calculate D2E/DX2 analytically  !
 ! D117  D(42,34,37,19)         91.6628         calculate D2E/DX2 analytically  !
 ! D118  D(53,34,37,19)       -155.2804         calculate D2E/DX2 analytically  !
 ! D119  D(33,34,42,35)        -30.256          calculate D2E/DX2 analytically  !
 ! D120  D(37,34,42,35)       -170.6564         calculate D2E/DX2 analytically  !
 ! D121  D(53,34,42,35)         76.3339         calculate D2E/DX2 analytically  !
 ! D122  D(33,34,53,51)       -153.5949         calculate D2E/DX2 analytically  !
 ! D123  D(33,34,53,83)        -36.0082         calculate D2E/DX2 analytically  !
 ! D124  D(37,34,53,51)        -35.3161         calculate D2E/DX2 analytically  !
 ! D125  D(37,34,53,83)         82.2706         calculate D2E/DX2 analytically  !
 ! D126  D(42,34,53,51)         84.1905         calculate D2E/DX2 analytically  !
 ! D127  D(42,34,53,83)       -158.2229         calculate D2E/DX2 analytically  !
 ! D128  D(40,35,36,32)         72.8562         calculate D2E/DX2 analytically  !
 ! D129  D(40,35,36,41)       -167.115          calculate D2E/DX2 analytically  !
 ! D130  D(40,35,36,46)        -48.1189         calculate D2E/DX2 analytically  !
 ! D131  D(42,35,36,32)        -45.5412         calculate D2E/DX2 analytically  !
 ! D132  D(42,35,36,41)         74.4876         calculate D2E/DX2 analytically  !
 ! D133  D(42,35,36,46)       -166.5162         calculate D2E/DX2 analytically  !
 ! D134  D(47,35,36,32)       -165.3948         calculate D2E/DX2 analytically  !
 ! D135  D(47,35,36,41)        -45.366          calculate D2E/DX2 analytically  !
 ! D136  D(47,35,36,46)         73.6302         calculate D2E/DX2 analytically  !
 ! D137  D(36,35,42,34)         33.2043         calculate D2E/DX2 analytically  !
 ! D138  D(40,35,42,34)        -86.4906         calculate D2E/DX2 analytically  !
 ! D139  D(47,35,42,34)        157.4745         calculate D2E/DX2 analytically  !
 ! D140  D(36,35,47,48)        -66.1113         calculate D2E/DX2 analytically  !
 ! D141  D(36,35,47,49)        176.6027         calculate D2E/DX2 analytically  !
 ! D142  D(36,35,47,50)         55.1848         calculate D2E/DX2 analytically  !
 ! D143  D(40,35,47,48)         55.3725         calculate D2E/DX2 analytically  !
 ! D144  D(40,35,47,49)        -61.9135         calculate D2E/DX2 analytically  !
 ! D145  D(40,35,47,50)        176.6686         calculate D2E/DX2 analytically  !
 ! D146  D(42,35,47,48)        169.52           calculate D2E/DX2 analytically  !
 ! D147  D(42,35,47,49)         52.234          calculate D2E/DX2 analytically  !
 ! D148  D(42,35,47,50)        -69.1839         calculate D2E/DX2 analytically  !
 ! D149  D(32,36,46,71)        102.2901         calculate D2E/DX2 analytically  !
 ! D150  D(35,36,46,71)       -136.2914         calculate D2E/DX2 analytically  !
 ! D151  D(41,36,46,71)        -18.548          calculate D2E/DX2 analytically  !
 ! D152  D(33,44,63,64)        -45.1748         calculate D2E/DX2 analytically  !
 ! D153  D(33,44,63,65)         76.5754         calculate D2E/DX2 analytically  !
 ! D154  D(33,44,63,66)       -165.5455         calculate D2E/DX2 analytically  !
 ! D155  D(83,44,63,64)        103.1773         calculate D2E/DX2 analytically  !
 ! D156  D(83,44,63,65)       -135.0725         calculate D2E/DX2 analytically  !
 ! D157  D(83,44,63,66)        -17.1934         calculate D2E/DX2 analytically  !
 ! D158  D(33,44,83,53)         22.1839         calculate D2E/DX2 analytically  !
 ! D159  D(33,44,83,84)       -179.5357         calculate D2E/DX2 analytically  !
 ! D160  D(63,44,83,53)       -124.8061         calculate D2E/DX2 analytically  !
 ! D161  D(63,44,83,84)         33.4743         calculate D2E/DX2 analytically  !
 ! D162  D(32,45,67,68)        -52.3902         calculate D2E/DX2 analytically  !
 ! D163  D(32,45,67,69)         69.6459         calculate D2E/DX2 analytically  !
 ! D164  D(32,45,67,70)       -170.7975         calculate D2E/DX2 analytically  !
 ! D165  D(36,46,71,72)        -62.2484         calculate D2E/DX2 analytically  !
 ! D166  D(36,46,71,73)         59.6954         calculate D2E/DX2 analytically  !
 ! D167  D(36,46,71,74)        178.3136         calculate D2E/DX2 analytically  !
 ! D168  D(35,47,50,75)        142.5258         calculate D2E/DX2 analytically  !
 ! D169  D(48,47,50,75)        -97.6598         calculate D2E/DX2 analytically  !
 ! D170  D(49,47,50,75)         23.0838         calculate D2E/DX2 analytically  !
 ! D171  D(47,50,75,76)        176.9528         calculate D2E/DX2 analytically  !
 ! D172  D(47,50,75,77)        -64.5616         calculate D2E/DX2 analytically  !
 ! D173  D(47,50,75,78)         58.3093         calculate D2E/DX2 analytically  !
 ! D174  D(43,51,53,34)        162.2569         calculate D2E/DX2 analytically  !
 ! D175  D(43,51,53,83)         39.8481         calculate D2E/DX2 analytically  !
 ! D176  D(52,51,53,34)         32.258          calculate D2E/DX2 analytically  !
 ! D177  D(52,51,53,83)        -90.1508         calculate D2E/DX2 analytically  !
 ! D178  D(54,51,53,34)        -82.3384         calculate D2E/DX2 analytically  !
 ! D179  D(54,51,53,83)        155.2528         calculate D2E/DX2 analytically  !
 ! D180  D(43,51,54,55)         78.9705         calculate D2E/DX2 analytically  !
 ! D181  D(43,51,54,56)       -103.8429         calculate D2E/DX2 analytically  !
 ! D182  D(52,51,54,55)       -153.3617         calculate D2E/DX2 analytically  !
 ! D183  D(52,51,54,56)         23.8249         calculate D2E/DX2 analytically  !
 ! D184  D(53,51,54,55)        -34.4635         calculate D2E/DX2 analytically  !
 ! D185  D(53,51,54,56)        142.7231         calculate D2E/DX2 analytically  !
 ! D186  D(34,53,83,44)          9.5243         calculate D2E/DX2 analytically  !
 ! D187  D(34,53,83,84)        -51.7134         calculate D2E/DX2 analytically  !
 ! D188  D(51,53,83,44)        136.3788         calculate D2E/DX2 analytically  !
 ! D189  D(51,53,83,84)         75.1412         calculate D2E/DX2 analytically  !
 ! D190  D(51,54,55,57)        174.9018         calculate D2E/DX2 analytically  !
 ! D191  D(51,54,55,58)         -3.4608         calculate D2E/DX2 analytically  !
 ! D192  D(56,54,55,57)         -2.2128         calculate D2E/DX2 analytically  !
 ! D193  D(56,54,55,58)        179.4246         calculate D2E/DX2 analytically  !
 ! D194  D(51,54,56,59)       -175.8753         calculate D2E/DX2 analytically  !
 ! D195  D(51,54,56,60)          1.285          calculate D2E/DX2 analytically  !
 ! D196  D(55,54,56,59)          1.2576         calculate D2E/DX2 analytically  !
 ! D197  D(55,54,56,60)        178.4179         calculate D2E/DX2 analytically  !
 ! D198  D(54,55,57,61)          1.4219         calculate D2E/DX2 analytically  !
 ! D199  D(54,55,57,97)       -174.2484         calculate D2E/DX2 analytically  !
 ! D200  D(58,55,57,61)        179.7763         calculate D2E/DX2 analytically  !
 ! D201  D(58,55,57,97)          4.106          calculate D2E/DX2 analytically  !
 ! D202  D(54,56,59,61)          0.5055         calculate D2E/DX2 analytically  !
 ! D203  D(54,56,59,93)       -178.9269         calculate D2E/DX2 analytically  !
 ! D204  D(60,56,59,61)       -176.6286         calculate D2E/DX2 analytically  !
 ! D205  D(60,56,59,93)          3.939          calculate D2E/DX2 analytically  !
 ! D206  D(55,57,61,59)          0.2869         calculate D2E/DX2 analytically  !
 ! D207  D(55,57,61,62)       -179.112          calculate D2E/DX2 analytically  !
 ! D208  D(97,57,61,59)        175.8745         calculate D2E/DX2 analytically  !
 ! D209  D(97,57,61,62)         -3.5244         calculate D2E/DX2 analytically  !
 ! D210  D(55,57,97,98)       -163.5792         calculate D2E/DX2 analytically  !
 ! D211  D(55,57,97,99)         76.633          calculate D2E/DX2 analytically  !
 ! D212  D(55,57,97,100)       -42.0392         calculate D2E/DX2 analytically  !
 ! D213  D(61,57,97,98)         20.7481         calculate D2E/DX2 analytically  !
 ! D214  D(61,57,97,99)        -99.0398         calculate D2E/DX2 analytically  !
 ! D215  D(61,57,97,100)       142.2881         calculate D2E/DX2 analytically  !
 ! D216  D(56,59,61,57)         -1.2646         calculate D2E/DX2 analytically  !
 ! D217  D(56,59,61,62)        178.1338         calculate D2E/DX2 analytically  !
 ! D218  D(93,59,61,57)        178.1657         calculate D2E/DX2 analytically  !
 ! D219  D(93,59,61,62)         -2.4358         calculate D2E/DX2 analytically  !
 ! D220  D(56,59,93,94)       -153.6616         calculate D2E/DX2 analytically  !
 ! D221  D(56,59,93,95)         86.415          calculate D2E/DX2 analytically  !
 ! D222  D(56,59,93,96)        -33.0828         calculate D2E/DX2 analytically  !
 ! D223  D(61,59,93,94)         26.9017         calculate D2E/DX2 analytically  !
 ! D224  D(61,59,93,95)        -93.0217         calculate D2E/DX2 analytically  !
 ! D225  D(61,59,93,96)        147.4805         calculate D2E/DX2 analytically  !
 ! D226  D(44,83,84,85)       -103.3746         calculate D2E/DX2 analytically  !
 ! D227  D(44,83,84,89)         62.2609         calculate D2E/DX2 analytically  !
 ! D228  D(53,83,84,85)        -46.0702         calculate D2E/DX2 analytically  !
 ! D229  D(53,83,84,89)        119.5653         calculate D2E/DX2 analytically  !
 ! D230  D(83,84,85,86)       -131.9387         calculate D2E/DX2 analytically  !
 ! D231  D(83,84,85,87)        -12.4965         calculate D2E/DX2 analytically  !
 ! D232  D(83,84,85,88)        106.7933         calculate D2E/DX2 analytically  !
 ! D233  D(89,84,85,86)         61.1058         calculate D2E/DX2 analytically  !
 ! D234  D(89,84,85,87)       -179.452          calculate D2E/DX2 analytically  !
 ! D235  D(89,84,85,88)        -60.1622         calculate D2E/DX2 analytically  !
 ! D236  D(83,84,89,90)       -106.8564         calculate D2E/DX2 analytically  !
 ! D237  D(83,84,89,91)         12.3738         calculate D2E/DX2 analytically  !
 ! D238  D(83,84,89,92)        131.7482         calculate D2E/DX2 analytically  !
 ! D239  D(85,84,89,90)         60.1418         calculate D2E/DX2 analytically  !
 ! D240  D(85,84,89,91)        179.372          calculate D2E/DX2 analytically  !
 ! D241  D(85,84,89,92)        -61.2537         calculate D2E/DX2 analytically  !
 --------------------------------------------------------------------------------
 Trust Radius=5.00D-02 FncErr=1.00D-07 GrdErr=1.00D-06 EigMax=2.50D+02 EigMin=1.00D-04
 Number of steps in this run=    545 maximum allowed number of steps=    600.
 Search for a saddle point of order  1.
 Step   0 in ReCalcFC=30 IGetFC= 4 compute analytic Hessian.
 GradGradGradGradGradGradGradGradGradGradGradGradGradGradGradGradGradGrad

 Leave Link  103 at Thu May 30 22:14:51 2019, MaxMem=  6442450944 cpu:               3.9 elap:               0.2
 (Enter /home/ekwan/sw/g16/l202.exe)
 Stoichiometry    C30H47F6NaO15S
 Framework group  C1[X(C30H47F6NaO15S)]
 Deg. of freedom   294
 Full point group                 C1      NOp   1
 Largest Abelian subgroup         C1      NOp   1
 Largest concise Abelian subgroup C1      NOp   1
                         Standard orientation:                         
 ---------------------------------------------------------------------
 Center     Atomic      Atomic             Coordinates (Angstroms)
 Number     Number       Type             X           Y           Z
 ---------------------------------------------------------------------
      1          6           0        4.539713   -0.346806    0.077748
      2          6           0        5.355871   -1.530005   -0.436832
      3          6           0        5.160265   -2.753065    0.472072
      4          6           0        2.965040   -2.052987    1.156980
      5          6           0        3.093382   -0.746271    0.373109
      6          1           0        5.623293   -3.650109    0.036539
      7          1           0        4.973910   -1.807786   -1.431624
      8          1           0        4.996411    0.018524    1.006688
      9          1           0        3.286002   -1.885745    2.195415
     10          1           0        2.553050   -0.893247   -0.570658
     11          8           0        3.795854   -3.074427    0.564508
     12          8           0        5.758614   -2.468790    1.715006
     13          8           0        6.709393   -1.115156   -0.538597
     14          8           0        4.505548    0.700992   -0.892577
     15          8           0        2.457120    0.273062    1.146060
     16          6           0        1.516270   -2.593006    1.132356
     17          1           0        0.956243   -1.935866    1.842511
     18          1           0        1.578452   -3.581365    1.653048
     19          8           0        0.968596   -2.667071   -0.115898
     20          6           0        7.539871   -2.012902   -1.253564
     21          1           0        7.720457   -2.943426   -0.697879
     22          1           0        7.107773   -2.266412   -2.233177
     23          1           0        8.496479   -1.506818   -1.406303
     24          6           0        5.473572    1.721388   -0.714895
     25          1           0        5.429671    2.138942    0.302364
     26          1           0        6.489289    1.356629   -0.903366
     27          1           0        5.225614    2.513345   -1.427738
     28          6           0        1.816247    1.273025    0.373852
     29          1           0        2.534147    1.923047   -0.134108
     30          1           0        1.162980    0.819130   -0.378015
     31          1           0        1.203325    1.866106    1.058158
     32          6           0       -3.358621   -1.611204    1.389826
     33          6           0       -2.145864   -2.175730    0.652234
     34          6           0       -1.153748   -1.109141    0.238380
     35          6           0       -1.910537    0.377254    1.997804
     36          6           0       -2.854325   -0.709684    2.516553
     37          1           0       -0.245602   -1.485412   -0.294133
     38          1           0       -1.584530   -2.792352    1.369367
     39          1           0       -3.978571   -1.015009    0.705034
     40          1           0       -2.495968    1.123679    1.457197
     41          1           0       -2.318340   -1.328811    3.245101
     42          8           0       -0.908041   -0.124744    1.060810
     43          8           0       -2.472931    0.534852   -3.422863
     44          8           0       -2.539075   -2.977567   -0.447004
     45          8           0       -4.128271   -2.639345    1.985133
     46          8           0       -3.923898   -0.015713    3.134968
     47          6           0       -1.122332    1.059809    3.099217
     48          1           0       -1.818314    1.620398    3.737342
     49          1           0       -0.432224    1.775935    2.636801
     50          8           0       -0.429020    0.075054    3.840207
     51         16           0       -1.498146    0.411689   -2.316183
     52          8           0       -0.196669   -0.194029   -2.631456
     53          8           0       -2.229243   -0.313516   -1.155185
     54          6           0       -1.155402    2.035092   -1.638286
     55          6           0       -2.062569    2.617915   -0.759941
     56          6           0        0.047026    2.659318   -1.959979
     57          6           0       -1.733615    3.831650   -0.157366
     58          1           0       -2.996929    2.120241   -0.529827
     59          6           0        0.351366    3.882691   -1.363798
     60          1           0        0.749240    2.174112   -2.626680
     61          6           0       -0.528331    4.467208   -0.452162
     62          1           0       -0.273095    5.402296    0.030357
     63          6           0       -1.731293   -4.165811   -0.616352
     64          1           0       -0.668463   -3.905172   -0.514495
     65          1           0       -2.026012   -4.912873    0.131207
     66          1           0       -1.957079   -4.541056   -1.615555
     67          6           0       -5.161314   -3.173987    1.167531
     68          1           0       -5.802775   -2.372980    0.770997
     69          1           0       -4.756550   -3.756581    0.333607
     70          1           0       -5.761623   -3.823417    1.808749
     71          6           0       -4.326231   -0.561924    4.388132
     72          1           0       -4.696791   -1.585462    4.272213
     73          1           0       -3.493607   -0.554308    5.104711
     74          1           0       -5.127130    0.079991    4.762435
     75          6           0        0.867353    0.479291    4.262652
     76          1           0        1.267830   -0.340508    4.864093
     77          1           0        1.526428    0.645326    3.401420
     78          1           0        0.825224    1.386848    4.882109
     79          6           0        5.745524   -3.577830    2.603908
     80          1           0        6.289973   -3.271398    3.499915
     81          1           0        4.723547   -3.865259    2.876610
     82          1           0        6.247368   -4.447563    2.154615
     83         11           0       -3.471053   -1.921951   -2.289656
     84          8           0       -3.775672   -3.859485   -3.435089
     85          6           0       -2.933091   -4.271144   -4.508842
     86          1           0       -3.532019   -4.588811   -5.371918
     87          1           0       -2.319435   -3.411980   -4.786821
     88          1           0       -2.282192   -5.098257   -4.196481
     89          6           0       -4.622857   -4.906456   -2.971664
     90          1           0       -4.030278   -5.755975   -2.607894
     91          1           0       -5.216422   -4.500953   -2.149107
     92          1           0       -5.291763   -5.248713   -3.771749
     93          6           0        1.637187    4.582406   -1.719914
     94          9           0        2.062105    5.385147   -0.722767
     95          9           0        1.491786    5.354070   -2.819683
     96          9           0        2.626849    3.700397   -1.985513
     97          6           0       -2.657561    4.391443    0.888991
     98          9           0       -2.429054    5.695434    1.129892
     99          9           0       -2.505441    3.734267    2.069573
    100          9           0       -3.952187    4.253726    0.535543
 ---------------------------------------------------------------------
 Rotational constants (GHZ):           0.0496577           0.0404456           0.0319502
 Leave Link  202 at Thu May 30 22:14:51 2019, MaxMem=  6442450944 cpu:               7.6 elap:               0.3
 (Enter /home/ekwan/sw/g16/l301.exe)
 Standard basis: 6-31G(d) (6D, 7F)
 Ernie: Thresh=  0.10000D-02 Tol=  0.10000D-05 Strict=F.
 There are   897 symmetry adapted cartesian basis functions of A   symmetry.
 There are   897 symmetry adapted basis functions of A   symmetry.
   897 basis functions,  1720 primitive gaussians,   897 cartesian basis functions
   214 alpha electrons      214 beta electrons
       nuclear repulsion energy      9380.8855396774 Hartrees.
 IExCor=  402 DFT=T Ex+Corr=B3LYP ExCW=0 ScaHFX=  0.200000
 ScaDFX=  0.800000  0.720000  1.000000  0.810000 ScalE2=  1.000000  1.000000
 IRadAn=      5 IRanWt=     -1 IRanGd=            0 ICorTp=0 IEmpDi=141
 NAtoms=  100 NActive=  100 NUniq=  100 SFac= 1.00D+00 NAtFMM=   60 NAOKFM=T Big=T
 Integral buffers will be    131072 words long.
 Raffenetti 2 integral format.
 Two-electron integral symmetry is turned on.
 R6Disp:  Grimme-D3(BJ) Dispersion energy=       -0.2239296528 Hartrees.
 Nuclear repulsion after empirical dispersion term =     9380.6616100246 Hartrees.
 Force inversion solution in PCM.
 ------------------------------------------------------------------------------
 Polarizable Continuum Model (PCM)
 =================================
 Model                : PCM.
 Atomic radii         : UFF (Universal Force Field).
 Polarization charges : Total charges.
 Charge compensation  : None.
 Solution method      : Matrix inversion.
 Cavity type          : Scaled VdW (van der Waals Surface) (Alpha=1.100).
 Cavity algorithm     : GePol (No added spheres)
                        Default sphere list used, NSphG=  100.
                        Lebedev-Laikov grids with approx.  5.0 points / Ang**2.
                        Smoothing algorithm: York/Karplus (Gamma=1.0000).
                        Polarization charges: spherical gaussians, with
                                              point-specific exponents (IZeta= 3).
                        Self-potential: point-specific (ISelfS= 7).
                        Self-field    : sphere-specific E.n sum rule (ISelfD= 2).
 1st derivatives      : Analytical E(r).r(x)/FMM algorithm (CHGder, D1EAlg=3).
                        Cavity 1st derivative terms included.
 2nd derivatives      : Analytical E(r).r(xy)/FMM algorithm (CHGder, D2EAlg=3).
                        Cavity 2nd derivative terms included.
 Solvent              : TetraHydroFuran, Eps=   7.425700 Eps(inf)=   1.974025
 ------------------------------------------------------------------------------
 GePol: Number of generator spheres                  =     100
 GePol: Total number of spheres                      =     100
 GePol: Number of exposed spheres                    =     100 (100.00%)
 GePol: Number of points                             =    6402
 GePol: Average weight of points                     =       0.12
 GePol: Minimum weight of points                     =   0.20D-11
 GePol: Maximum weight of points                     =    0.21593
 GePol: Number of points with low weight             =     467
 GePol: Fraction of low-weight points (<1% of avg)   =       7.29%
 GePol: Cavity surface area                          =    797.903 Ang**2
 GePol: Cavity volume                                =    984.646 Ang**3
 Leave Link  301 at Thu May 30 22:14:51 2019, MaxMem=  6442450944 cpu:               9.4 elap:               0.4
 (Enter /home/ekwan/sw/g16/l302.exe)
 NPDir=0 NMtPBC=     1 NCelOv=     1 NCel=       1 NClECP=     1 NCelD=      1
         NCelK=      1 NCelE2=     1 NClLst=     1 CellRange=     0.0.
 One-electron integrals computed using PRISM.
 One-electron integral symmetry used in STVInt
 NBasis=   897 RedAO= T EigKep=  4.09D-04  NBF=   897
 NBsUse=   897 1.00D-06 EigRej= -1.00D+00 NBFU=   897
 Precomputing XC quadrature grid using
 IXCGrd= 4 IRadAn=           5 IRanWt=          -1 IRanGd=           0 AccXCQ= 0.00D+00.
 Generated NRdTot=       0 NPtTot=           0 NUsed=           0 NTot=          32
 NSgBfM=   823   821   822   822   823 MxSgAt=   100 MxSgA2=   100.
 Leave Link  302 at Thu May 30 22:15:06 2019, MaxMem=  6442450944 cpu:             457.1 elap:              14.9
 (Enter /home/ekwan/sw/g16/l303.exe)
 DipDrv:  MaxL=1.
 Leave Link  303 at Thu May 30 22:15:07 2019, MaxMem=  6442450944 cpu:              12.0 elap:               0.5
 (Enter /home/ekwan/sw/g16/l401.exe)
 ExpMin= 2.60D-02 ExpMax= 2.19D+04 ExpMxC= 3.30D+03 IAcc=3 IRadAn=         5 AccDes= 0.00D+00
 Harris functional with IExCor=  402 and IRadAn=       5 diagonalized for initial guess.
 HarFok:  IExCor=  402 AccDes= 0.00D+00 IRadAn=         5 IDoV= 1 UseB2=F ITyADJ=14
 ICtDFT=  3500011 ScaDFX=  1.000000  1.000000  1.000000  1.000000
 FoFCou: FMM=F IPFlag=           0 FMFlag=      100000 FMFlg1=        2001
         NFxFlg=           0 DoJE=T BraDBF=F KetDBF=T FulRan=T
         wScrn=  0.000000 ICntrl=       500 IOpCl=  0 I1Cent=   200000004 NGrid=           0
[...]
 00022623,-0.00007626,-0.00021405,-0.00017664,0.00022824,0.00000298,0.0
 0009590,-0.00005394,0.00048563,-0.00022847,-0.00033851,-0.00044631,-0.
 00013343,0.00023662,0.00068618,-0.00069013,0.00038694,-0.00051635,-0.0
 0060811,0.00049000,0.00003694,0.00019999,-0.00003374,0.00001916,0.0003
 5898,-0.00066795,-0.00095318,0.00094410,0.00060168,-0.00050749,-0.0008
 5482,0.00002924,0.00065335,0.00060569,0.00009424,0.00187925,0.00920932
 ,0.00162468,0.00045385,-0.00002723,0.00026204,0.00042247,-0.00042711,-
 0.00032225,0.00002462,0.00001448,0.00004180,-0.00090489,-0.00011028,-0
 .00057307,0.00049444,0.00000922,-0.00010081,-0.00005762,0.00010005,0.0
 0000436,0.00000989,0.00000312,0.00000967,0.00000501,-0.00001654,0.0000
 0769,0.00000237,-0.00002125,-0.00001221,0.00011877,0.00003936,0.000097
 64,-0.00001289,0.00000763,-0.00001495,-0.00000985,-0.00001512,-0.00002
 981,-0.00002591,-0.00001814,-0.00000475,0.00011763,0.00010134,-0.00032
 023,-0.00001825,-0.00005466,0.00004562,0.00000876,-0.00000683,0.000026
 05,-0.00001627,0.00001402,0.00002717,-0.00054775,-0.00017726,-0.000181
 70,0.00008419,-0.00001498,0.00005212,0.00005056,0.00005593,0.00001424,
 0.00004248,0.00008397,0.00002533,-0.00000952,0.00000719,-0.00000261,0.
 ,0.00000038,0.00000154,0.00000217,0.00000114,-0.00000065,0.00000214,-0
 .00000302,-0.00000202,0.00003074,0.00000845,0.00008123,-0.00000469,-0.
 00000484,-0.00002482,-0.00000784,0.00000098,0.00001609,-0.00000151,-0.
 00000232,-0.00000419,0.00000214,0.00000048,0.00000164,0.00000054,0.000
 00163,-0.00000019,0.00000505,0.00000645,0.00000598,0.00000057,0.000002
 81,0.00000133,0.00000339,-0.00000300,0.00000065,-0.00000168,-0.0000013
 6,-0.00000406,0.00011159,-0.00019767,0.00005218,-0.00003245,0.00004594
 ,0.00001624,-0.00002089,0.00002594,-0.00000670,-0.00003706,0.00007074,
 -0.00002307,0.00232525,-0.09676759,0.05953658,-0.00230374,-0.06239331,
 0.04795439,-0.01643001,0.14364202,-0.00001193,0.00002655,-0.00005552,-
 0.00001536,0.00000223,-0.00001250,-0.00002478,0.00001011,-0.00005429,0
 .00001514,0.00002687,-0.00005223,-0.00009424,0.00006115,0.00004795,0.0
 0000119,-0.00000127,0.00000582,-0.00000012,0.00000454,0.00000903,0.000
 00846,0.00000407,0.00001060,0.00001321,-0.00000438,0.00002363,-0.00000
 332,0.00001713,-0.00000135,0.00000293,-0.00002379,0.00004328,0.0000147
 0,-0.00001438,0.00005398,0.00002605,-0.00001443,0.00001201,0.00005886,
 -0.00002302,0.00004836,0.00021851,-0.00023730,0.00033238,-0.00002035,-
 0.00004490,-0.00020502,-0.00002266,0.00004071,0.00004785,-0.00000039,-
 0.00002148,0.00003478,0.00008420,-0.00007877,0.00012541,-0.00001029,0.
 00000935,-0.00000828,0.00000165,-0.00000628,0.00000272,0.00000303,0.00
 000171,0.00000442,0.00000214,0.00000037,-0.00000255,-0.00003274,-0.000
 01893,-0.00005022,0.00000104,0.00000671,0.00001779,0.00001024,-0.00000
 159,0.00000553,-0.00002222,-0.00000689,0.00001232,-0.00014091,-0.00007
 470,-0.00040685,-0.00010890,0.00001026,0.00002928,0.00009604,0.0001924
 9,0.00010458,0.00000616,0.00010275,-0.00004539,-0.00003811,-0.00003297
 ,-0.00024195,0.00014177,-0.00008013,-0.00005242,-0.00091856,0.00007558
 ,-0.00151699,0.00059406,-0.00081116,-0.00065143,-0.00020763,-0.0000873
 0,0.00005749,0.00002763,0.00003846,0.00014498,-0.00002374,-0.00004356,
 0.00001672,0.00003163,-0.00000708,0.00000466,-0.00034396,-0.00097672,-
 0.00091362,0.00000890,0.00005584,-0.00001836,-0.00006965,0.00102120,0.
 00121046,-0.00066054,-0.00084540,-0.00050846,-0.00000604,0.00002345,0.
 00015611,0.00011770,0.00012624,0.00015045,0.00008462,0.00033080,-0.000
 00070,0.00070931,-0.00126573,-0.00027214,-0.00061163,0.00010002,0.0009
 4326,0.00074524,-0.00020825,-0.00023486,-0.00076537,0.00098219,-0.0002
 4778,0.00163395,0.00360447,0.00059967,0.00016651,-0.00124319,-0.000396
 02,-0.00035952,-0.00167241,0.00123852,0.00146218,-0.00112082,0.0005721
 6,0.00173594,0.00243218,0.00046258,0.00044030,0.00011461,-0.00096827,0
 .00657617,0.01833439,-0.04347021,-0.00074538,0.00040654,-0.00080495,0.
 00233182,-0.00150925,0.00034665,-0.00011042,0.00012583,-0.00005768,-0.
 00243067,-0.00317806,-0.00284382,-0.00064126,0.00069691,-0.00065815,0.
 00000284,0.00000726,0.00001110,0.00000598,0.00000634,-0.00000678,-0.00
 000400,-0.00001210,0.00000647,0.00000136,0.00001606,0.00000389,-0.0000
 7918,-0.00000771,-0.00007661,0.00001336,-0.00000808,0.00000350,0.00000
 874,0.00002057,0.00001925,0.00001363,0.00000589,0.00000905,-0.00010156
 ,-0.00009065,0.00019123,0.00002222,0.00005984,-0.00003015,0.00000528,-
 0.00001983,-0.00000137,-0.00002293,-0.00002141,-0.00000521,0.00065560,
 0.00018031,0.00019539,-0.00009672,0.00002997,-0.00005630,-0.00006873,-
 0.00008182,-0.00003190,-0.00003579,-0.00007539,0.00001685,0.00000321,0
 .00001696,-0.00002174,0.00000573,-0.00000206,0.00000528,-0.00000421,-0
 .00000450,-0.00000128,-0.00000222,-0.00000135,0.00000388,0.00011142,0.
 00021190,-0.00005482,-0.00002761,-0.00005523,0.00001927,0.00000939,0.0
 0002031,-0.00000816,-0.00000428,-0.00000035,-0.00000049,-0.00000631,-0
 .00000533,0.00000670,0.00000240,-0.00000387,0.00000341,0.00002784,0.00
 003686,-0.00002135,0.00000279,-0.00001052,0.00000161,-0.00000564,0.000
 00204,-0.00000027,-0.00000437,-0.00000427,0.00000110,-0.00227197,-0.00
 180898,0.00051698,0.00068045,0.00054413,0.00023650,0.00045922,0.000593
 38,-0.00053769,0.00117807,0.00002814,-0.00031652,-0.00227226,0.0613986
 1,-0.21460855,0.00167418,0.03203475,0.00242592,0.03265404,-0.12365476,
 0.29190196,0.00001914,-0.00001363,0.00002747,0.00003101,-0.00002495,-0
 .00001662,0.00007468,-0.00002002,0.00003282,0.00002789,-0.00006721,0.0
 0002464,0.00016063,-0.00017436,-0.00015188,-0.00001467,0.00001392,-0.0
 0000228,-0.00000146,0.00000172,0.00000301,0.00000101,-0.00000256,-0.00
 000343,-0.00000516,0.00000567,-0.00000799,-0.00000346,-0.00000593,0.00
 001435,-0.00008345,0.00007881,0.00000006,-0.00003533,0.00003754,-0.000
 04471,-0.00007252,0.00003544,0.00002794,-0.00009971,0.00004401,0.00000
 433,-0.00034399,0.00039590,-0.00014768,0.00004738,-0.00004887,0.000106
 33,-0.00000042,0.00000549,0.00000499,-0.00001339,0.00005416,-0.0000418
 7,-0.00012360,0.00017837,-0.00003950,0.00002465,-0.00003306,-0.0000230
 6,-0.00000370,0.00001031,-0.00000036,-0.00000003,0.00000366,0.00000478
 ,-0.00000704,0.00000108,0.00000376,0.00004519,0.00001740,0.00000439,0.
 00000601,-0.00000567,0.00000695,-0.00002169,0.00000349,0.00000240,0.00
 002367,-0.00000411,-0.00001375,0.00026506,-0.00016753,0.00021193,0.000
 05953,0.00000515,-0.00001991,-0.00006747,-0.00013072,-0.00008522,-0.00
 004504,0.00001071,0.00012593,-0.00017856,0.00000141,-0.00008118,-0.000
 06058,-0.00008478,-0.00002873,0.00008049,-0.00052043,0.00023615,-0.000
 00870,-0.00020659,0.00007888,-0.00034660,0.00007109,0.00014487,0.00014
 034,-0.00007000,-0.00006173,0.00003713,0.00001838,0.00000090,0.0000065
 9,0.00000538,0.00004661,-0.00027637,-0.00021074,-0.00015674,0.00005176
 ,0.00001553,-0.00001906,0.00010779,0.00031016,-0.00002370,0.00081812,0
 .00058776,0.00070189,0.00007215,0.00014505,0.00002791,0.00022259,0.000
 08198,0.00002105,0.00024882,-0.00003597,-0.00006970,0.00009968,-0.0004
 2875,0.00019267,-0.00010211,-0.00007686,0.00016741,0.00028326,-0.00003
 159,-0.00008124,-0.00015498,0.00029137,-0.00019915,-0.00155829,-0.0026
 5022,-0.00113721,-0.00004303,0.00092966,0.00043030,0.00055918,0.001062
 97,-0.00035715,-0.00008018,0.00020795,0.00130848,-0.00079291,-0.003164
 05,-0.00049343,-0.00042008,0.00023997,0.00037259,-0.04700606,-0.003901
 87,-0.00595037,-0.00068448,0.00192815,0.00006087,-0.00142263,-0.001547
 08,0.00149774,0.00002374,0.00009941,-0.00017306,-0.00131446,0.00663124
 ,0.00345916,0.00047003,0.00029125,-0.00079812,0.00004094,-0.00005997,-
 0.00000906,-0.00002570,-0.00002160,-0.00000916,-0.00000141,0.00001965,
 -0.00001001,-0.00000457,0.00000593,0.00000797,-0.00012616,0.00003375,-
 0.00008191,0.00002886,-0.00002509,0.00002815,0.00000797,-0.00000774,0.
 00000803,0.00001613,0.00000768,0.00000737,-0.00005266,-0.00001156,0.00
 005778,0.00000198,0.00001199,-0.00001113,0.00001719,-0.00000493,0.0000
 1343,0.00002112,-0.00000535,-0.00004172,0.00013278,0.00003275,0.000088
 62,-0.00002730,0.00002307,-0.00002707,-0.00000792,-0.00002729,-0.00001
 251,-0.00001133,-0.00002686,0.00000694,0.00000865,-0.00003615,0.000022
 40,-0.00000132,0.00000022,-0.00000439,0.00000131,0.00000140,-0.0000003
 5,-0.00000348,0.00000915,0.00000260,-0.00025205,-0.00006487,0.00000427
 ,0.00005850,0.00001098,-0.00000037,-0.00002861,-0.00000442,0.00001198,
 0.00000633,0.00000433,0.00000169,-0.00000032,0.00000770,-0.00001080,0.
 00000358,-0.00000838,-0.00000140,-0.00003184,-0.00000568,0.00001570,0.
 00000614,-0.00000335,-0.00000232,-0.00000066,-0.00000133,-0.00001121,0
 .00000441,0.00000721,0.00000348,0.00210969,0.00174350,-0.00039968,-0.0
 0056595,-0.00042399,-0.00004150,-0.00044944,-0.00079632,0.00071072,-0.
 00106240,0.00004133,0.00027336,-0.26097112,-0.00385886,-0.02412502,-0.
 02751601,-0.04028499,-0.01581117,-0.02520891,0.01430634,-0.04146058,0.
 36526820,-0.00000793,-0.00000630,-0.00000242,-0.00000996,0.00000282,0.
 00000347,-0.00002701,-0.00000124,-0.00000919,-0.00001014,0.00001036,-0
 .00000205,-0.00002887,0.00002304,0.00002251,0.00000400,-0.00000178,0.0
 0000023,0.00000037,0.00000025,0.00000074,0.00000160,0.00000181,0.00000
 121,0.00000397,-0.00000051,0.00000354,-0.00000272,-0.00000300,0.000000
 11,0.00003049,-0.00000997,-0.00000186,0.00001268,-0.00000359,0.0000120
 3,0.00001806,-0.00000227,-0.00000500,0.00002593,0.00000881,-0.00000208
 ,0.00006734,-0.00005416,0.00002216,-0.00003892,0.00001316,-0.00005788,
 -0.00000179,-0.00000144,0.,0.00000848,-0.00001576,0.00001625,0.0000900
 0,-0.00006013,0.00002357,-0.00000491,0.00000489,0.00000340,0.00000038,
 -0.00000157,-0.00000027,0.00000026,-0.00000077,-0.00000016,0.00000213,
 -0.00000007,-0.00000095,-0.00001540,-0.00001501,-0.00000730,0.00000056
 ,0.00000160,0.00000319,0.00000448,0.00000038,0.00000090,-0.00000398,0.
 00000137,0.00000065,-0.00004070,0.00003155,-0.00004085,-0.00000324,-0.
 00000015,0.00000292,-0.00000095,0.00002646,0.00001704,-0.00000546,-0.0
 0000927,-0.00002080,0.00001839,0.00006498,-0.00002845,0.00000105,0.000
 03796,0.00003680,-0.00001742,0.00018059,-0.00003769,-0.00015912,0.0002
 3794,-0.00006673,0.00006412,0.00001828,-0.00001130,-0.00007461,0.00003
 771,0.00002212,-0.00000528,-0.00000976,-0.00000317,0.00001050,0.000003
 60,0.00001536,-0.00002244,0.00000707,0.00002266,-0.00001558,-0.0000273
 0,0.00001328,0.00004112,-0.00015593,-0.00004795,-0.00009933,-0.0001310
 7,-0.00017352,0.00001091,-0.00007804,-0.00003250,-0.00004528,-0.000073
 72,0.00000870,-0.00003472,-0.00004733,0.00009018,-0.00009445,0.0000602
 5,-0.00010015,0.00001910,0.00001271,-0.00004527,-0.00004977,0.00001672
 ,0.00001405,0.00014364,-0.00006256,0.00010636,0.00000110,0.00059158,0.
 00046373,0.00010407,-0.00018005,-0.00011395,-0.00001524,-0.00026818,0.
 00000355,0.00018822,0.00056776,0.00065643,0.00035308,-0.00175757,-0.00
 016391,0.00027972,0.00009428,-0.00014790,0.01013316,0.01090448,-0.0001
 8640,0.00115418,0.00026995,-0.00036854,0.00091302,0.00051333,-0.000183
 31,0.00004020,0.00007765,-0.00003585,0.00054752,-0.00196195,-0.0012327
 6,0.00038672,0.00017844,-0.00022162,-0.00002565,0.00004919,0.00000600,
 0.00000455,0.00000097,0.00000238,0.00000163,-0.00001012,0.00000466,0.0
 0000083,-0.00000601,-0.00000491,0.00002184,0.00002837,0.00001859,0.000
 00211,-0.00000239,-0.00000182,-0.00000039,-0.00000390,-0.00000947,-0.0
 0000705,-0.00000674,0.00000195,0.00003011,0.00003091,-0.00009811,-0.00
 000521,-0.00001365,0.00001207,0.00000720,-0.00000609,0.00001514,-0.000
 00431,0.00000308,0.00000188,-0.00009182,-0.00003702,-0.00003509,0.0000
 1477,-0.00000227,0.00001009,0.00000800,0.00000733,-0.00000027,0.000008
 02,0.00001628,0.00000984,-0.00000394,0.00000549,-0.00000442,0.00000094
 ,-0.00000015,0.00000163,0.00000046,-0.00000024,-0.00000056,0.00000052,
 -0.00000151,-0.00000026,0.00001805,0.00007123,0.00003624,-0.00000278,-
 0.00001723,-0.00001087,-0.00000604,0.00000611,0.00001019,-0.00000150,-
 0.00000133,-0.00000271,-0.00000034,0.00000001,0.00000198,0.00000152,-0
 .00000116,0.00000042,0.00000679,0.00001377,0.00000029,0.00000184,-0.00
 000175,0.00000090,0.00000048,-0.00000135,-0.00000128,-0.00000181,-0.00
 000127,-0.00000184,-0.00045798,-0.00051346,-0.00001000,0.00012264,0.00
 014553,0.00006109,0.00011516,0.00020939,-0.00016351,0.00024988,0.00001
 711,-0.00005293,-0.00860438,-0.07438935,-0.00498896,-0.05508911,-0.022
 68027,-0.01687460,0.02062185,0.00796269,0.01532330,0.02921778,0.080068
 48,-0.00000552,0.00000600,-0.00001919,-0.00000671,0.00000025,-0.000004
 60,-0.00001303,0.00000191,-0.00002062,0.00000355,0.00000850,-0.0000177
 4,-0.00003238,0.00001968,0.00001555,0.00000082,-0.00000012,0.00000201,
 0.00000002,0.00000182,0.00000369,0.00000350,0.00000185,0.00000404,0.00
 000520,-0.00000139,0.00000875,-0.00000180,0.00000469,0.00000009,0.0000
 0596,-0.00000713,0.00001468,0.00000722,-0.00000405,0.00002068,0.000010
 63,-0.00000360,0.00000466,0.00002368,-0.00000208,0.00001691,0.00007616
 ,-0.00007814,0.00010970,-0.00001556,-0.00001236,-0.00007771,-0.0000075
 6,0.00001251,0.00001585,0.00000183,-0.00000956,0.00001417,0.00004603,-
 0.00003425,0.00004639,-0.00000368,0.00000277,-0.00000359,0.00000048,-0
 .00000213,0.00000091,0.00000123,0.00000065,0.00000192,0.00000100,0.000
 00018,-0.00000102,-0.00001430,-0.00001133,-0.00002005,0.00000094,0.000
 00253,0.00000810,0.00000368,-0.00000007,0.00000231,-0.00000725,-0.0000
 0233,0.00000342,-0.00004347,-0.00001533,-0.00013305,-0.00003620,-0.000
 00098,0.00000848,0.00002824,0.00006698,0.00003122,-0.00000215,0.000029
 58,-0.00001637,-0.00001441,-0.00000041,-0.00008185,0.00004754,-0.00002
 169,-0.00001289,-0.00030902,0.00004718,-0.00051856,0.00021021,-0.00025
 990,-0.00017809,-0.00005356,-0.00002142,-0.00000390,-0.00000488,0.0000
 1772,0.00005242,-0.00000825,-0.00001613,0.00000552,0.00001317,-0.00000
 098,0.00000320,-0.00007063,-0.00021135,-0.00026693,0.00000416,0.000017
 66,-0.00000344,-0.00003460,0.00031154,0.00038881,-0.00015817,-0.000293
 55,-0.00014163,0.00000318,-0.00000500,0.00004846,0.00003396,0.00002888
 ,0.00005360,0.00001118,0.00009328,0.00002038,0.00017779,-0.00040206,0.
 00004885,-0.00011462,-0.00006469,0.00023050,0.00022020,-0.00008458,-0.
 00006881,-0.00018456,0.00025374,-0.00007798,0.00031730,0.00121752,0.00
 023159,0.00008292,-0.00035580,-0.00009550,-0.00007116,-0.00058462,0.00
 038882,-0.00011707,0.00052369,0.00034456,0.00079420,-0.00127353,-0.000
 71162,0.00072983,0.00032992,-0.00023062,0.02056283,0.00007982,0.009382
 45,0.00083384,0.00010657,-0.00046017,0.00052818,0.00017096,-0.00143793
 ,0.00003753,0.00004210,0.00004777,0.00001898,-0.00237008,-0.00022964,0
 .00024956,-0.00003631,0.00029844,-0.00000347,0.00001205,0.00000451,0.0
 0000207,0.00000146,-0.00000226,-0.00000107,-0.00000596,0.00000314,0.00
 000044,0.00000455,0.00000058,-0.00002684,0.00000268,-0.00002588,0.0000
 0595,-0.00000422,0.00000060,0.00000225,0.00000689,0.00000455,0.0000034
 5,0.00000020,0.00000382,-0.00002496,-0.00002622,0.00004197,0.00000569,
 0.00001806,-0.00000725,0.00000321,-0.00000661,0.00000115,-0.00001047,-
 0.00000733,0.00000075,0.00015780,0.00003364,0.00003873,-0.00002338,0.0
 0001096,-0.00001415,-0.00001640,-0.00002321,-0.00000957,-0.00000962,-0
 .00001424,0.00001059,0.00000038,0.00000567,-0.00000794,0.00000227,-0.0
 0000076,0.00000217,-0.00000128,-0.00000158,-0.00000064,-0.00000083,-0.
 00000041,0.00000145,0.00002730,0.00009826,-0.00001441,-0.00000713,-0.0
 0002530,0.00000598,-0.00000007,0.00000902,-0.00000018,-0.00000145,0.00
 000018,-0.00000061,-0.00000284,-0.00000155,0.00000202,0.00000161,-0.00
 000254,0.00000153,0.00001080,0.00001780,-0.00000780,0.00000206,-0.0000
 0486,0.00000081,-0.00000230,0.00000036,-0.00000122,-0.00000185,-0.0000
 0128,0.00000028,-0.00092634,-0.00068248,-0.00009389,0.00023589,0.00022
 535,0.00011595,0.00022288,0.00030211,-0.00019520,0.00033315,0.00000648
 ,-0.00005658,-0.02954182,-0.00433624,-0.07803704,-0.01986899,-0.015105
 76,0.00498036,-0.05599441,0.01377367,-0.03192354,0.08168216,0.00850762
 ,0.09813183\\0.00000063,-0.00000037,0.00000104,0.00000015,-0.00000090,
 0.00000030,-0.00000027,-0.00000067,0.00000020,-0.00000111,-0.00000060,
 0.00000076,-0.00000040,-0.00000054,0.00000050,-0.00000054,-0.00000104,
 -0.00000026,-0.00000008,-0.00000025,0.00000087,-0.00000028,-0.00000158
 ,0.00000130,-0.00000076,-0.00000149,0.,-0.00000031,-0.00000052,-0.0000
 0020,-0.00000008,-0.00000080,-0.00000079,-0.00000070,-0.00000182,0.000
 00032,0.00000015,-0.00000102,0.00000139,0.00000015,-0.00000033,0.00000
 171,0.00000042,-0.00000037,0.00000081,0.00000047,-0.00000080,-0.000000
 66,-0.00000105,-0.00000083,-0.00000035,-0.00000085,-0.00000126,-0.0000
 0102,-0.00000104,-0.00000020,-0.00000009,0.00000009,-0.00000042,0.0000
 0071,-0.00000030,-0.00000101,0.00000057,0.00000029,-0.00000012,0.00000
 092,0.00000011,-0.00000096,0.00000161,0.00000069,-0.00000114,0.0000026
 0,0.00000045,-0.00000092,0.00000242,0.00000070,-0.00000077,0.00000232,
 0.00000090,0.00000006,0.00000251,-0.00000010,-0.00000092,0.00000165,0.
 00000065,0.00000009,0.00000133,0.00000044,-0.00000004,0.00000070,0.000
 00012,-0.00000073,0.00000144,-0.00000025,0.00000065,-0.00000164,-0.000
 00076,0.00000019,-0.00000118,0.00000044,-0.00000079,0.00000055,0.00000
 040,-0.00000095,-0.00000002,-0.00000004,-0.00000053,0.00000002,-0.0000
 0009,0.00000064,-0.00000103,-0.00000071,-0.00000020,-0.00000166,0.0000
 0018,0.00000083,-0.00000131,-0.00000055,0.00000017,0.00000034,-0.00000
 082,-0.00000105,-0.00000154,-0.00000009,0.00000106,-0.00000071,0.00000
 169,0.00000224,0.00000049,-0.00000127,0.00000090,-0.00000143,-0.000001
 53,0.00000035,-0.00000228,-0.00000160,-0.00000141,-0.00000076,-0.00000
 030,-0.00000088,0.00000072,-0.00000017,-0.00000079,0.00000034,0.000000
 03,-0.00000153,0.00000104,-0.00000055,-0.00000194,0.00000026,0.0000003
 9,0.00000090,-0.00000100,0.00000127,0.00000217,-0.00000036,0.00000027,
 0.00000122,-0.00000044,0.00000151,0.00000127,0.00000070,0.00000101,0.0
 0000091,0.00000167,0.00000134,0.00000119,0.00000214,0.00000174,0.00000
 084,0.00000177,0.00000052,0.00000081,0.00000063,0.00000039,0.00000040,
 0.00000166,0.00000094,0.00000129,0.00000150,0.00000039,0.00000008,0.00
 000178,0.00000133,0.00000063,0.00000297,0.00000020,0.00000113,-0.00000
 174,-0.00000092,0.00000015,-0.00000165,-0.00000074,0.00000066,-0.00000
 286,-0.00000055,0.00000116,-0.00000302,-0.00000117,-0.00000046,-0.0000
 0219,-0.00000048,0.00000118,-0.00000234,-0.00000033,0.00000114,-0.0000
 0311,-0.00000093,0.00000040,-0.00000318,0.00000015,-0.00000077,-0.0000
 0056,-0.00000121,-0.00000098,-0.00000156,-0.00000134,-0.00000161,-0.00
 000108,-0.00000104,-0.00000103,-0.00000097,-0.00000103,-0.00000196,0.0
 0000039,-0.00000099,-0.00000270,0.00000048,-0.00000043,-0.00000177,0.0
 0000084,-0.00000065,-0.00000221,0.00000139,-0.00000165,-0.00000182,0.0
 0000045,-0.00000134,-0.00000291,-0.00000003,-0.00000088,-0.00000222,-0
 .00000057,-0.00000099,-0.00000254,-0.00000064,0.00000094,0.00000235,-0
 .00000102,0.00000049,0.00000256,-0.00000153,0.00000057,0.00000183,-0.0
 0000210,0.00000052,0.00000348,-0.00000280,0.00000014,0.00000311,-0.000
 00193,0.00000013,0.00000272,-0.00000291,-0.00000047,0.00000233,-0.0000
 0477,-0.00000005,0.00000200,-0.00000352,-0.00000012,0.00000392,-0.0000
 0219,0.00000008,0.00000303,-0.00000320,0.00000241,0.00000031,0.0000030
 5,0.00000148,0.00000003,0.00000351,0.00000180,0.00000128,0.00000339,0.
 00000168,0.00000117,0.00000302,0.00000078,0.00000058,0.00000183,0.0000
 0110,-0.00000016,0.00000257,0.00000027,-0.00000073,0.00000136,0.000000
 97,0.00000101,0.00000137\\\@


 KNOWLEDGE IS OF TWO KINDS:  WE KNOW A SUBJECT OURSELVES OR WE KNOW 
 WHERE WE CAN FIND INFORMATION UPON IT.

                                    -- SAMUEL JOHNSON
 Job cpu time:       4 days  7 hours 36 minutes 21.8 seconds.
 Elapsed time:       0 days  3 hours 24 minutes 13.8 seconds.
 File lengths (MBytes):  RWF=   9826 Int=      0 D2E=      0 Chk=     86 Scr=      1
 Normal termination of Gaussian 16 at Fri May 31 05:09:12 2019.
