 Entering Gaussian System, Link 0=g16
 Input=clay_new-glu_gluC6-CADL-Na3_1Me2O-bisCF3-ts-b3lyp_d3bj-631gd-pcm_thf.gjf
 Output=clay_new-glu_gluC6-CADL-Na3_1Me2O-bisCF3-ts-b3lyp_d3bj-631gd-pcm_thf.out
 Initial command:
 /home/ekwan/sw/g16/l1.exe "/scratch/users/ekwan/clay_new-glu_gluC6-CADL-Na3_1Me2O-bisCF3-ts-b3lyp_d3bj-631gd-pcm_thf/Gau-61049.inp" -scrdir="/scratch/users/ekwan/clay_new-glu_gluC6-CADL-Na3_1Me2O-bisCF3-ts-b3lyp_d3bj-631gd-pcm_thf/"
 Entering Link 1 = /home/ekwan/sw/g16/l1.exe PID=     61050.
  
 Copyright (c) 1988,1990,1992,1993,1995,1998,2003,2009,2016,
            Gaussian, Inc.  All Rights Reserved.
  
 This is part of the Gaussian(R) 16 program.  It is based on
 the Gaussian(R) 09 system (copyright 2009, Gaussian, Inc.),
 the Gaussian(R) 03 system (copyright 2003, Gaussian, Inc.),
 the Gaussian(R) 98 system (copyright 1998, Gaussian, Inc.),
 the Gaussian(R) 94 system (copyright 1995, Gaussian, Inc.),
 the Gaussian 92(TM) system (copyright 1992, Gaussian, Inc.),
 the Gaussian 90(TM) system (copyright 1990, Gaussian, Inc.),
 the Gaussian 88(TM) system (copyright 1988, Gaussian, Inc.),
 the Gaussian 86(TM) system (copyright 1986, Carnegie Mellon
 University), and the Gaussian 82(TM) system (copyright 1983,
 Carnegie Mellon University). Gaussian is a federally registered
 trademark of Gaussian, Inc.
  
 This software contains proprietary and confidential information,
 including trade secrets, belonging to Gaussian, Inc.
  
 This software is provided under written license and may be
 used, copied, transmitted, or stored only in accord with that
 written license.
  
 The following legend is applicable only to US Government
 contracts under FAR:
  
                    RESTRICTED RIGHTS LEGEND
  
 Use, reproduction and disclosure by the US Government is
 subject to restrictions as set forth in subparagraphs (a)
 and (c) of the Commercial Computer Software - Restricted
 Rights clause in FAR 52.227-19.
  
 Gaussian, Inc.
 340 Quinnipiac St., Bldg. 40, Wallingford CT 06492
  
  
 ---------------------------------------------------------------
 Warning -- This program may not be used in any manner that
 competes with the business of Gaussian, Inc. or will provide
 assistance to any competitor of Gaussian, Inc.  The licensee
 of this program is prohibited from giving any competitor of
 Gaussian, Inc. access to this program.  By using this program,
 the user acknowledges that Gaussian, Inc. is engaged in the
 business of creating and licensing software in the field of
 computational chemistry and represents and warrants to the
 licensee that it is not a competitor of Gaussian, Inc. and that
 it will not use this program in any manner prohibited above.
 ---------------------------------------------------------------
  

 Cite this work as:
 Gaussian 16, Revision A.03,
 M. J. Frisch, G. W. Trucks, H. B. Schlegel, G. E. Scuseria, 
 M. A. Robb, J. R. Cheeseman, G. Scalmani, V. Barone, 
 G. A. Petersson, H. Nakatsuji, X. Li, M. Caricato, A. V. Marenich, 
 J. Bloino, B. G. Janesko, R. Gomperts, B. Mennucci, H. P. Hratchian, 
 J. V. Ortiz, A. F. Izmaylov, J. L. Sonnenberg, D. Williams-Young, 
 F. Ding, F. Lipparini, F. Egidi, J. Goings, B. Peng, A. Petrone, 
 T. Henderson, D. Ranasinghe, V. G. Zakrzewski, J. Gao, N. Rega, 
 G. Zheng, W. Liang, M. Hada, M. Ehara, K. Toyota, R. Fukuda, 
 J. Hasegawa, M. Ishida, T. Nakajima, Y. Honda, O. Kitao, H. Nakai, 
 T. Vreven, K. Throssell, J. A. Montgomery, Jr., J. E. Peralta, 
 F. Ogliaro, M. J. Bearpark, J. J. Heyd, E. N. Brothers, K. N. Kudin, 
 V. N. Staroverov, T. A. Keith, R. Kobayashi, J. Normand, 
 K. Raghavachari, A. P. Rendell, J. C. Burant, S. S. Iyengar, 
 J. Tomasi, M. Cossi, J. M. Millam, M. Klene, C. Adamo, R. Cammi, 
 J. W. Ochterski, R. L. Martin, K. Morokuma, O. Farkas, 
 J. B. Foresman, and D. J. Fox, Gaussian, Inc., Wallingford CT, 2016.
 
 ******************************************
 Gaussian 16:  AS64L-G16RevA.03 25-Dec-2016
                30-May-2019 
 ******************************************
 %mem=48GB
 %nprocshared=32
 Will use up to   32 processors via shared memory.
 ----------------------------------------------------------------------
 #p opt=(ts,noeigentest,calcfc,maxstep=5,modredundant,recalc=30) freq=n
 oraman b3lyp 6-31g* pop=none scrf=(solvent=tetrahydrofuran,pcm) empiri
 caldispersion=gd3bj
 ----------------------------------------------------------------------
 1/5=1,8=5,10=4,11=1,18=120,26=3,38=1,71=30/1,3;
 2/9=110,12=2,17=6,18=5,40=1/2;
 3/5=1,6=6,7=1,11=2,25=1,30=1,70=2201,71=2,72=20,74=-5,124=41,140=1/1,2,3;
 4//1;
 5/5=2,38=5,53=20/2;
 8/6=4,10=90,11=11/1;
 11/6=1,8=1,9=11,15=111,16=1/1,2,10;
 10/6=1,13=1/2;
 7/10=1,18=20,25=1/1,2,3,16;
 1/5=1,8=5,10=4,11=1,18=20,26=3,71=30/3(2);
 2/9=110/2;
 99//99;
 2/9=110/2;
 3/5=1,6=6,7=1,11=2,25=1,30=1,70=2205,71=1,72=20,74=-5,124=41/1,2,3;
 4/5=5,16=3,69=1/1;
 5/5=2,38=5,53=20/2;
 7//1,2,3,16;
 1/5=1,8=5,11=1,18=20,26=3,71=30/3(-5);
 2/9=110/2;
 99/9=1/99;
 Leave Link    1 at Thu May 30 18:50:05 2019, MaxMem=  6442450944 cpu:               4.5 elap:               0.2
 (Enter /home/ekwan/sw/g16/l101.exe)
 -----
 title
 -----
 Symbolic Z-matrix:
 Charge =  0 Multiplicity = 1
 C                    -4.50425  -0.92119   0.90654 
 C                    -5.07286  -1.01367  -0.50406 
 C                    -5.9666    0.20156  -0.79882 
 C                    -4.7623    1.6345    0.7058 
 C                    -3.94088   0.45643   1.2294 
 H                    -6.28043   0.2145   -1.85211 
 H                    -4.24726  -0.97028  -1.23049 
 H                    -5.29831  -1.15726   1.62152 
 H                    -5.6298    1.78908   1.36126 
 H                    -2.95629   0.56461   0.75846 
 O                    -5.22692   1.38717  -0.63909 
 O                    -7.09326   0.1156    0.03598 
 O                    -5.73539  -2.26154  -0.61569 
 O                    -3.42828  -1.86872   1.06765 
 O                    -3.83541   0.57824   2.64727 
 C                    -3.87877   2.90801   0.66301 
 H                    -3.78857   3.22036   1.73346 
 H                    -4.52865   3.68864   0.19581 
 O                    -2.68902   2.72778   0.0273 
 C                    -6.11963  -2.59955  -1.93811 
 H                    -6.94207  -1.97033  -2.30298 
 H                    -5.27233  -2.51316  -2.63553 
 H                    -6.4573   -3.63819  -1.9137 
 C                    -3.77986  -3.0773    1.73867 
 H                    -4.13579  -2.86187   2.75345 
 H                    -4.54993  -3.62246   1.18548 
 H                    -2.86931  -3.67861   1.79923 
 C                    -2.51214   0.76041   3.12909 
 H                    -1.90985  -0.14406   2.98968 
 H                    -2.01666   1.60543   2.63693 
 H                    -2.59173   0.96846   4.19991 
 C                     1.30143   0.84497  -1.76533 
 C                    -0.10112   1.31343  -1.38517 
 C                    -0.15467   1.79219   0.04079 
 C                     1.98736   2.89798  -0.30717 
 C                     2.30433   1.97938  -1.50992 
 H                    -1.16075   1.9867    0.46084 
 H                    -0.33245   2.2009   -1.9902 
 H                     1.57193  -0.0277   -1.16156 
 H                     2.81162   2.81426   0.40213 
 H                     2.28433   2.59181  -2.42229 
 O                     0.79056   2.57343   0.47772 
 O                     0.29831  -1.53293   2.65465 
 O                    -1.0628    0.30008  -1.62658 
 O                     1.37834   0.53681  -3.14851 
 O                     3.62387   1.52125  -1.27229 
 C                     1.80406   4.35212  -0.7272 
 H                     2.73759   4.68446  -1.19874 
 H                     1.62669   4.96991   0.16087 
 O                     0.75441   4.48796  -1.66835 
 S                     0.8286   -0.25924   2.12926 
 O                     0.91479   0.88752   3.04018 
 O                     0.04887   0.0677    0.83106 
 C                     2.47101  -0.58866   1.49632 
 C                     2.65363  -1.69872   0.67322 
 C                     3.49822   0.3116    1.74362 
 C                     3.90792  -1.9119    0.10788 
 H                     1.82507  -2.36388   0.45821 
 C                     4.73675   0.09973   1.13811 
 H                     3.31796   1.17659   2.37002 
 C                     4.95409  -1.01643   0.3355 
 H                     5.91786  -1.17453  -0.13255 
 C                    -2.21896   0.78712  -2.34283 
 H                    -2.73217   1.53669  -1.72743 
 H                    -1.90276   1.19767  -3.30982 
 H                    -2.85146  -0.08432  -2.51944 
 C                     1.12455  -0.82454  -3.47353 
 H                     1.77585  -1.4944   -2.89761 
 H                     0.07841  -1.09087  -3.29287 
 H                     1.35114  -0.937    -4.53649 
 C                     4.28776   0.93871  -2.38736 
 H                     3.93014  -0.07605  -2.59304 
 H                     4.16162   1.55085  -3.28937 
 H                     5.34459   0.89808  -2.11512 
 C                    -0.46375   5.06019  -1.17079 
 H                    -1.01429   5.40457  -2.05059 
 H                    -1.08851   4.33965  -0.62598 
 H                    -0.24812   5.92572  -0.53075 
 C                    -8.06726   1.11721  -0.23528 
 H                    -8.91463   0.91907   0.42419 
 H                    -7.67638   2.12185  -0.0389 
 H                    -8.40059   1.06514  -1.28184 
 Na                   -1.40839  -1.45446   0.04388 
 O                    -0.15086  -3.37284  -0.2387 
 C                    -0.02535  -4.31371   0.82977 
 H                     0.96835  -4.77894   0.81151 
 H                    -0.14804  -3.75351   1.75675 
 H                    -0.79184  -5.09527   0.74768 
 C                     0.0571   -3.97328  -1.51567 
 H                    -0.66071  -4.78641  -1.68575 
 H                    -0.09001  -3.1948   -2.26562 
 H                     1.0773   -4.3661   -1.59336 
 C                     4.09978  -3.06531  -0.83573 
 F                     3.35405  -4.13724  -0.4796 
 F                     5.38341  -3.46295  -0.90269 
 F                     3.7217   -2.73796  -2.10068 
 C                     5.83501   1.10888   1.32881 
 F                     5.33641   2.34744   1.53739 
 F                     6.64317   1.1715    0.24681 
 F                     6.6186    0.81375   2.38961 
 
 Add virtual bond connecting atoms C34        and O53        Dist= 3.61D+00.
 Add virtual bond connecting atoms H37        and O19        Dist= 3.31D+00.
 Add virtual bond connecting atoms O84        and H58        Dist= 4.39D+00.
 Add virtual bond connecting atoms O84        and Na83       Dist= 4.37D+00.
 Add virtual bond connecting atoms H87        and O43        Dist= 4.60D+00.
 Add virtual bond connecting atoms H91        and H69        Dist= 4.44D+00.
 The following ModRedundant input section has been read:
 
 ITRead=  0  0  0  0  0  0  0  0  0  0  0  0  0  0  0  0  0  0  0  0
 ITRead=  0  0  0  0  0  0  0  0  0  0  0  0  0  0  0  0  0  0  0  0
 ITRead=  0  0  0  0  0  0  0  0  0  0  0  0  0  0  0  0  0  0  0  0
 ITRead=  0  0  0  0  0  0  0  0  0  0  0  0  0  0  0  0  0  0  0  0
 ITRead=  0  0  0  0  0  0  0  0  0  0  0  0  0  0  0  0  0  0  0  0
 MicOpt= -1 -1 -1 -1 -1 -1 -1 -1 -1 -1 -1 -1 -1 -1 -1 -1 -1 -1 -1 -1
 MicOpt= -1 -1 -1 -1 -1 -1 -1 -1 -1 -1 -1 -1 -1 -1 -1 -1 -1 -1 -1 -1
 MicOpt= -1 -1 -1 -1 -1 -1 -1 -1 -1 -1 -1 -1 -1 -1 -1 -1 -1 -1 -1 -1
 MicOpt= -1 -1 -1 -1 -1 -1 -1 -1 -1 -1 -1 -1 -1 -1 -1 -1 -1 -1 -1 -1
 MicOpt= -1 -1 -1 -1 -1 -1 -1 -1 -1 -1 -1 -1 -1 -1 -1 -1 -1 -1 -1 -1
 NAtoms=    100 NQM=      100 NQMF=       0 NMMI=      0 NMMIF=      0
                NMic=       0 NMicF=      0.
                    Isotopes and Nuclear Properties:
 (Nuclear quadrupole moments (NQMom) in fm**2, nuclear magnetic moments (NMagM)
  in nuclear magnetons)

  Atom         1           2           3           4           5           6           7           8           9          10
 IAtWgt=          12          12          12          12          12           1           1           1           1           1
 AtmWgt=  12.0000000  12.0000000  12.0000000  12.0000000  12.0000000   1.0078250   1.0078250   1.0078250   1.0078250   1.0078250
 NucSpn=           0           0           0           0           0           1           1           1           1           1
 AtZEff=   0.0000000   0.0000000   0.0000000   0.0000000   0.0000000   0.0000000   0.0000000   0.0000000   0.0000000   0.0000000
 NQMom=    0.0000000   0.0000000   0.0000000   0.0000000   0.0000000   0.0000000   0.0000000   0.0000000   0.0000000   0.0000000
 NMagM=    0.0000000   0.0000000   0.0000000   0.0000000   0.0000000   2.7928460   2.7928460   2.7928460   2.7928460   2.7928460
 AtZNuc=   6.0000000   6.0000000   6.0000000   6.0000000   6.0000000   1.0000000   1.0000000   1.0000000   1.0000000   1.0000000

  Atom        11          12          13          14          15          16          17          18          19          20
 IAtWgt=          16          16          16          16          16          12           1           1          16          12
 AtmWgt=  15.9949146  15.9949146  15.9949146  15.9949146  15.9949146  12.0000000   1.0078250   1.0078250  15.9949146  12.0000000
 NucSpn=           0           0           0           0           0           0           1           1           0           0
 AtZEff=   0.0000000   0.0000000   0.0000000   0.0000000   0.0000000   0.0000000   0.0000000   0.0000000   0.0000000   0.0000000
 NQMom=    0.0000000   0.0000000   0.0000000   0.0000000   0.0000000   0.0000000   0.0000000   0.0000000   0.0000000   0.0000000
 NMagM=    0.0000000   0.0000000   0.0000000   0.0000000   0.0000000   0.0000000   2.7928460   2.7928460   0.0000000   0.0000000
 AtZNuc=   8.0000000   8.0000000   8.0000000   8.0000000   8.0000000   6.0000000   1.0000000   1.0000000   8.0000000   6.0000000

  Atom        21          22          23          24          25          26          27          28          29          30
 IAtWgt=           1           1           1          12           1           1           1          12           1           1
 AtmWgt=   1.0078250   1.0078250   1.0078250  12.0000000   1.0078250   1.0078250   1.0078250  12.0000000   1.0078250   1.0078250
 NucSpn=           1           1           1           0           1           1           1           0           1           1
 AtZEff=   0.0000000   0.0000000   0.0000000   0.0000000   0.0000000   0.0000000   0.0000000   0.0000000   0.0000000   0.0000000
 NQMom=    0.0000000   0.0000000   0.0000000   0.0000000   0.0000000   0.0000000   0.0000000   0.0000000   0.0000000   0.0000000
 NMagM=    2.7928460   2.7928460   2.7928460   0.0000000   2.7928460   2.7928460   2.7928460   0.0000000   2.7928460   2.7928460
 AtZNuc=   1.0000000   1.0000000   1.0000000   6.0000000   1.0000000   1.0000000   1.0000000   6.0000000   1.0000000   1.0000000

  Atom        31          32          33          34          35          36          37          38          39          40
 IAtWgt=           1          12          12          12          12          12           1           1           1           1
 AtmWgt=   1.0078250  12.0000000  12.0000000  12.0000000  12.0000000  12.0000000   1.0078250   1.0078250   1.0078250   1.0078250
 NucSpn=           1           0           0           0           0           0           1           1           1           1
 AtZEff=   0.0000000   0.0000000   0.0000000   0.0000000   0.0000000   0.0000000   0.0000000   0.0000000   0.0000000   0.0000000
 NQMom=    0.0000000   0.0000000   0.0000000   0.0000000   0.0000000   0.0000000   0.0000000   0.0000000   0.0000000   0.0000000
 NMagM=    2.7928460   0.0000000   0.0000000   0.0000000   0.0000000   0.0000000   2.7928460   2.7928460   2.7928460   2.7928460
 AtZNuc=   1.0000000   6.0000000   6.0000000   6.0000000   6.0000000   6.0000000   1.0000000   1.0000000   1.0000000   1.0000000

  Atom        41          42          43          44          45          46          47          48          49          50
 IAtWgt=           1          16          16          16          16          16          12           1           1          16
 AtmWgt=   1.0078250  15.9949146  15.9949146  15.9949146  15.9949146  15.9949146  12.0000000   1.0078250   1.0078250  15.9949146
 NucSpn=           1           0           0           0           0           0           0           1           1           0
 AtZEff=   0.0000000   0.0000000   0.0000000   0.0000000   0.0000000   0.0000000   0.0000000   0.0000000   0.0000000   0.0000000
 NQMom=    0.0000000   0.0000000   0.0000000   0.0000000   0.0000000   0.0000000   0.0000000   0.0000000   0.0000000   0.0000000
 NMagM=    2.7928460   0.0000000   0.0000000   0.0000000   0.0000000   0.0000000   0.0000000   2.7928460   2.7928460   0.0000000
 AtZNuc=   1.0000000   8.0000000   8.0000000   8.0000000   8.0000000   8.0000000   6.0000000   1.0000000   1.0000000   8.0000000

  Atom        51          52          53          54          55          56          57          58          59          60
 IAtWgt=          32          16          16          12          12          12          12           1          12           1
 AtmWgt=  31.9720718  15.9949146  15.9949146  12.0000000  12.0000000  12.0000000  12.0000000   1.0078250  12.0000000   1.0078250
 NucSpn=           0           0           0           0           0           0           0           1           0           1
 AtZEff=   0.0000000   0.0000000   0.0000000   0.0000000   0.0000000   0.0000000   0.0000000   0.0000000   0.0000000   0.0000000
 NQMom=    0.0000000   0.0000000   0.0000000   0.0000000   0.0000000   0.0000000   0.0000000   0.0000000   0.0000000   0.0000000
 NMagM=    0.0000000   0.0000000   0.0000000   0.0000000   0.0000000   0.0000000   0.0000000   2.7928460   0.0000000   2.7928460
 AtZNuc=  16.0000000   8.0000000   8.0000000   6.0000000   6.0000000   6.0000000   6.0000000   1.0000000   6.0000000   1.0000000

  Atom        61          62          63          64          65          66          67          68          69          70
 IAtWgt=          12           1          12           1           1           1          12           1           1           1
 AtmWgt=  12.0000000   1.0078250  12.0000000   1.0078250   1.0078250   1.0078250  12.0000000   1.0078250   1.0078250   1.0078250
 NucSpn=           0           1           0           1           1           1           0           1           1           1
 AtZEff=   0.0000000   0.0000000   0.0000000   0.0000000   0.0000000   0.0000000   0.0000000   0.0000000   0.0000000   0.0000000
 NQMom=    0.0000000   0.0000000   0.0000000   0.0000000   0.0000000   0.0000000   0.0000000   0.0000000   0.0000000   0.0000000
 NMagM=    0.0000000   2.7928460   0.0000000   2.7928460   2.7928460   2.7928460   0.0000000   2.7928460   2.7928460   2.7928460
 AtZNuc=   6.0000000   1.0000000   6.0000000   1.0000000   1.0000000   1.0000000   6.0000000   1.0000000   1.0000000   1.0000000

  Atom        71          72          73          74          75          76          77          78          79          80
 IAtWgt=          12           1           1           1          12           1           1           1          12           1
 AtmWgt=  12.0000000   1.0078250   1.0078250   1.0078250  12.0000000   1.0078250   1.0078250   1.0078250  12.0000000   1.0078250
 NucSpn=           0           1           1           1           0           1           1           1           0           1
 AtZEff=   0.0000000   0.0000000   0.0000000   0.0000000   0.0000000   0.0000000   0.0000000   0.0000000   0.0000000   0.0000000
 NQMom=    0.0000000   0.0000000   0.0000000   0.0000000   0.0000000   0.0000000   0.0000000   0.0000000   0.0000000   0.0000000
 NMagM=    0.0000000   2.7928460   2.7928460   2.7928460   0.0000000   2.7928460   2.7928460   2.7928460   0.0000000   2.7928460
 AtZNuc=   6.0000000   1.0000000   1.0000000   1.0000000   6.0000000   1.0000000   1.0000000   1.0000000   6.0000000   1.0000000

  Atom        81          82          83          84          85          86          87          88          89          90
 IAtWgt=           1           1          23          16          12           1           1           1          12           1
 AtmWgt=   1.0078250   1.0078250  22.9897697  15.9949146  12.0000000   1.0078250   1.0078250   1.0078250  12.0000000   1.0078250
 NucSpn=           1           1           3           0           0           1           1           1           0           1
 AtZEff=   0.0000000   0.0000000   0.0000000   0.0000000   0.0000000   0.0000000   0.0000000   0.0000000   0.0000000   0.0000000
 NQMom=    0.0000000   0.0000000  10.4000000   0.0000000   0.0000000   0.0000000   0.0000000   0.0000000   0.0000000   0.0000000
 NMagM=    2.7928460   2.7928460   2.2175200   0.0000000   0.0000000   2.7928460   2.7928460   2.7928460   0.0000000   2.7928460
 AtZNuc=   1.0000000   1.0000000  11.0000000   8.0000000   6.0000000   1.0000000   1.0000000   1.0000000   6.0000000   1.0000000

  Atom        91          92          93          94          95          96          97          98          99         100
 IAtWgt=           1           1          12          19          19          19          12          19          19          19
 AtmWgt=   1.0078250   1.0078250  12.0000000  18.9984033  18.9984033  18.9984033  12.0000000  18.9984033  18.9984033  18.9984033
 NucSpn=           1           1           0           1           1           1           0           1           1           1
 AtZEff=   0.0000000   0.0000000   0.0000000   0.0000000   0.0000000   0.0000000   0.0000000   0.0000000   0.0000000   0.0000000
 NQMom=    0.0000000   0.0000000   0.0000000   0.0000000   0.0000000   0.0000000   0.0000000   0.0000000   0.0000000   0.0000000
 NMagM=    2.7928460   2.7928460   0.0000000   2.6288670   2.6288670   2.6288670   0.0000000   2.6288670   2.6288670   2.6288670
 AtZNuc=   1.0000000   1.0000000   6.0000000   9.0000000   9.0000000   9.0000000   6.0000000   9.0000000   9.0000000   9.0000000
 Leave Link  101 at Thu May 30 18:50:06 2019, MaxMem=  6442450944 cpu:              17.8 elap:               0.7
 (Enter /home/ekwan/sw/g16/l103.exe)

 GradGradGradGradGradGradGradGradGradGradGradGradGradGradGradGradGradGrad
 Berny optimization.
 Initialization pass.
                           ----------------------------
                           !    Initial Parameters    !
                           ! (Angstroms and Degrees)  !
 --------------------------                            --------------------------
 ! Name  Definition              Value          Derivative Info.                !
 --------------------------------------------------------------------------------
 ! R1    R(1,2)                  1.5237         calculate D2E/DX2 analytically  !
 ! R2    R(1,5)                  1.523          calculate D2E/DX2 analytically  !
 ! R3    R(1,8)                  1.0943         calculate D2E/DX2 analytically  !
 ! R4    R(1,14)                 1.4427         calculate D2E/DX2 analytically  !
 ! R5    R(2,3)                  1.537          calculate D2E/DX2 analytically  !
 ! R6    R(2,7)                  1.1006         calculate D2E/DX2 analytically  !
 ! R7    R(2,13)                 1.4172         calculate D2E/DX2 analytically  !
 ! R8    R(3,6)                  1.0991         calculate D2E/DX2 analytically  !
 ! R9    R(3,11)                 1.4065         calculate D2E/DX2 analytically  !
 ! R10   R(3,12)                 1.4049         calculate D2E/DX2 analytically  !
 ! R11   R(4,5)                  1.5286         calculate D2E/DX2 analytically  !
 ! R12   R(4,9)                  1.0982         calculate D2E/DX2 analytically  !
 ! R13   R(4,11)                 1.4442         calculate D2E/DX2 analytically  !
 ! R14   R(4,16)                 1.5506         calculate D2E/DX2 analytically  !
 ! R15   R(5,10)                 1.0968         calculate D2E/DX2 analytically  !
 ! R16   R(5,15)                 1.427          calculate D2E/DX2 analytically  !
 ! R17   R(12,79)                1.4232         calculate D2E/DX2 analytically  !
 ! R18   R(13,20)                1.418          calculate D2E/DX2 analytically  !
 ! R19   R(14,24)                1.4264         calculate D2E/DX2 analytically  !
 ! R20   R(14,83)                2.3021         calculate D2E/DX2 analytically  !
 ! R21   R(15,28)                1.42           calculate D2E/DX2 analytically  !
 ! R22   R(16,17)                1.1187         calculate D2E/DX2 analytically  !
 ! R23   R(16,18)                1.118          calculate D2E/DX2 analytically  !
 ! R24   R(16,19)                1.3609         calculate D2E/DX2 analytically  !
 ! R25   R(19,37)                1.7529         calculate D2E/DX2 analytically  !
 ! R26   R(20,21)                1.0979         calculate D2E/DX2 analytically  !
 ! R27   R(20,22)                1.1008         calculate D2E/DX2 analytically  !
 ! R28   R(20,23)                1.0924         calculate D2E/DX2 analytically  !
 ! R29   R(24,25)                1.0968         calculate D2E/DX2 analytically  !
 ! R30   R(24,26)                1.0937         calculate D2E/DX2 analytically  !
 ! R31   R(24,27)                1.0929         calculate D2E/DX2 analytically  !
 ! R32   R(28,29)                1.0956         calculate D2E/DX2 analytically  !
 ! R33   R(28,30)                1.0963         calculate D2E/DX2 analytically  !
 ! R34   R(28,31)                1.0937         calculate D2E/DX2 analytically  !
 ! R35   R(32,33)                1.5268         calculate D2E/DX2 analytically  !
 ! R36   R(32,36)                1.5356         calculate D2E/DX2 analytically  !
 ! R37   R(32,39)                1.0951         calculate D2E/DX2 analytically  !
 ! R38   R(32,45)                1.4192         calculate D2E/DX2 analytically  !
 ! R39   R(33,34)                1.5051         calculate D2E/DX2 analytically  !
 ! R40   R(33,38)                1.0987         calculate D2E/DX2 analytically  !
 ! R41   R(33,44)                1.4177         calculate D2E/DX2 analytically  !
 ! R42   R(34,37)                1.1075         calculate D2E/DX2 analytically  !
 ! R43   R(34,42)                1.3018         calculate D2E/DX2 analytically  !
 ! R44   R(34,53)                1.9078         calculate D2E/DX2 analytically  !
 ! R45   R(35,36)                1.5463         calculate D2E/DX2 analytically  !
 ! R46   R(35,40)                1.0907         calculate D2E/DX2 analytically  !
 ! R47   R(35,42)                1.4676         calculate D2E/DX2 analytically  !
 ! R48   R(35,47)                1.5246         calculate D2E/DX2 analytically  !
 ! R49   R(36,41)                1.099          calculate D2E/DX2 analytically  !
 ! R50   R(36,46)                1.4169         calculate D2E/DX2 analytically  !
 ! R51   R(43,51)                1.4763         calculate D2E/DX2 analytically  !
 ! R52   R(43,87)                2.4365         calculate D2E/DX2 analytically  !
 ! R53   R(44,63)                1.4446         calculate D2E/DX2 analytically  !
 ! R54   R(45,67)                1.4224         calculate D2E/DX2 analytically  !
 ! R55   R(46,71)                1.4225         calculate D2E/DX2 analytically  !
 ! R56   R(47,48)                1.0974         calculate D2E/DX2 analytically  !
 ! R57   R(47,49)                1.0963         calculate D2E/DX2 analytically  !
 ! R58   R(47,50)                1.4163         calculate D2E/DX2 analytically  !
 ! R59   R(50,75)                1.4349         calculate D2E/DX2 analytically  !
 ! R60   R(51,52)                1.4671         calculate D2E/DX2 analytically  !
 ! R61   R(51,53)                1.5492         calculate D2E/DX2 analytically  !
 ! R62   R(51,54)                1.7907         calculate D2E/DX2 analytically  !
 ! R63   R(53,83)                2.2495         calculate D2E/DX2 analytically  !
 ! R64   R(54,55)                1.3939         calculate D2E/DX2 analytically  !
 ! R65   R(54,56)                1.3881         calculate D2E/DX2 analytically  !
 ! R66   R(55,57)                1.3922         calculate D2E/DX2 analytically  !
 ! R67   R(55,58)                1.0841         calculate D2E/DX2 analytically  !
 ! R68   R(56,59)                1.3948         calculate D2E/DX2 analytically  !
 ! R69   R(56,60)                1.0831         calculate D2E/DX2 analytically  !
 ! R70   R(57,61)                1.3958         calculate D2E/DX2 analytically  !
 ! R71   R(57,93)                1.5025         calculate D2E/DX2 analytically  !
 ! R72   R(58,84)                2.3255         calculate D2E/DX2 analytically  !
 ! R73   R(59,61)                1.3918         calculate D2E/DX2 analytically  !
 ! R74   R(59,97)                1.5036         calculate D2E/DX2 analytically  !
 ! R75   R(61,62)                1.083          calculate D2E/DX2 analytically  !
 ! R76   R(63,64)                1.0973         calculate D2E/DX2 analytically  !
 ! R77   R(63,65)                1.0971         calculate D2E/DX2 analytically  !
 ! R78   R(63,66)                1.0912         calculate D2E/DX2 analytically  !
 ! R79   R(67,68)                1.0975         calculate D2E/DX2 analytically  !
 ! R80   R(67,69)                1.0945         calculate D2E/DX2 analytically  !
 ! R81   R(67,70)                1.0926         calculate D2E/DX2 analytically  !
 ! R82   R(69,91)                2.3474         calculate D2E/DX2 analytically  !
 ! R83   R(71,72)                1.0954         calculate D2E/DX2 analytically  !
 ! R84   R(71,73)                1.0974         calculate D2E/DX2 analytically  !
 ! R85   R(71,74)                1.0921         calculate D2E/DX2 analytically  !
 ! R86   R(75,76)                1.0935         calculate D2E/DX2 analytically  !
 ! R87   R(75,77)                1.0983         calculate D2E/DX2 analytically  !
 ! R88   R(75,78)                1.0979         calculate D2E/DX2 analytically  !
 ! R89   R(79,80)                1.0919         calculate D2E/DX2 analytically  !
 ! R90   R(79,81)                1.0957         calculate D2E/DX2 analytically  !
 ! R91   R(79,82)                1.0996         calculate D2E/DX2 analytically  !
 ! R92   R(83,84)                2.3112         calculate D2E/DX2 analytically  !
 ! R93   R(84,85)                1.4292         calculate D2E/DX2 analytically  !
 ! R94   R(84,89)                1.4263         calculate D2E/DX2 analytically  !
 ! R95   R(85,86)                1.0974         calculate D2E/DX2 analytically  !
 ! R96   R(85,87)                1.09           calculate D2E/DX2 analytically  !
 ! R97   R(85,88)                1.0978         calculate D2E/DX2 analytically  !
 ! R98   R(89,90)                1.0979         calculate D2E/DX2 analytically  !
 ! R99   R(89,91)                1.0909         calculate D2E/DX2 analytically  !
 ! R100  R(89,92)                1.096          calculate D2E/DX2 analytically  !
 ! R101  R(93,94)                1.3535         calculate D2E/DX2 analytically  !
 ! R102  R(93,95)                1.3455         calculate D2E/DX2 analytically  !
 ! R103  R(93,96)                1.3602         calculate D2E/DX2 analytically  !
 ! R104  R(97,98)                1.3513         calculate D2E/DX2 analytically  !
 ! R105  R(97,99)                1.352          calculate D2E/DX2 analytically  !
 ! R106  R(97,100)               1.3514         calculate D2E/DX2 analytically  !
 ! A1    A(2,1,5)              112.9051         calculate D2E/DX2 analytically  !
 ! A2    A(2,1,8)              108.723          calculate D2E/DX2 analytically  !
 ! A3    A(2,1,14)             109.988          calculate D2E/DX2 analytically  !
 ! A4    A(5,1,8)              108.969          calculate D2E/DX2 analytically  !
 ! A5    A(5,1,14)             107.1289         calculate D2E/DX2 analytically  !
 ! A6    A(8,1,14)             109.0585         calculate D2E/DX2 analytically  !
 ! A7    A(1,2,3)              110.2757         calculate D2E/DX2 analytically  !
 ! A8    A(1,2,7)              109.1916         calculate D2E/DX2 analytically  !
 ! A9    A(1,2,13)             107.5063         calculate D2E/DX2 analytically  !
 ! A10   A(3,2,7)              106.1679         calculate D2E/DX2 analytically  !
 ! A11   A(3,2,13)             114.1559         calculate D2E/DX2 analytically  !
 ! A12   A(7,2,13)             109.4764         calculate D2E/DX2 analytically  !
 ! A13   A(2,3,6)              111.0456         calculate D2E/DX2 analytically  !
 ! A14   A(2,3,11)             109.8092         calculate D2E/DX2 analytically  !
 ! A15   A(2,3,12)             107.6979         calculate D2E/DX2 analytically  !
 ! A16   A(6,3,11)             104.4217         calculate D2E/DX2 analytically  !
 ! A17   A(6,3,12)             109.9485         calculate D2E/DX2 analytically  !
 ! A18   A(11,3,12)            113.944          calculate D2E/DX2 analytically  !
 ! A19   A(5,4,9)              109.1781         calculate D2E/DX2 analytically  !
 ! A20   A(5,4,11)             111.0918         calculate D2E/DX2 analytically  !
 ! A21   A(5,4,16)             109.6469         calculate D2E/DX2 analytically  !
 ! A22   A(9,4,11)             109.0129         calculate D2E/DX2 analytically  !
 ! A23   A(9,4,16)             110.5462         calculate D2E/DX2 analytically  !
 ! A24   A(11,4,16)            107.3532         calculate D2E/DX2 analytically  !
 ! A25   A(1,5,4)              115.1962         calculate D2E/DX2 analytically  !
 ! A26   A(1,5,10)             109.2855         calculate D2E/DX2 analytically  !
 ! A27   A(1,5,15)             108.3726         calculate D2E/DX2 analytically  !
 ! A28   A(4,5,10)             105.0287         calculate D2E/DX2 analytically  !
 ! A29   A(4,5,15)             108.3167         calculate D2E/DX2 analytically  !
 ! A30   A(10,5,15)            110.6014         calculate D2E/DX2 analytically  !
 ! A31   A(3,11,4)             114.7896         calculate D2E/DX2 analytically  !
 ! A32   A(3,12,79)            113.1124         calculate D2E/DX2 analytically  !
 ! A33   A(2,13,20)            114.2055         calculate D2E/DX2 analytically  !
 ! A34   A(1,14,24)            115.162          calculate D2E/DX2 analytically  !
 ! A35   A(1,14,83)            119.1121         calculate D2E/DX2 analytically  !
 ! A36   A(24,14,83)           125.3069         calculate D2E/DX2 analytically  !
 ! A37   A(5,15,28)            114.6437         calculate D2E/DX2 analytically  !
 ! A38   A(4,16,17)            104.4089         calculate D2E/DX2 analytically  !
 ! A39   A(4,16,18)            104.7008         calculate D2E/DX2 analytically  !
 ! A40   A(4,16,19)            113.7196         calculate D2E/DX2 analytically  !
 ! A41   A(17,16,18)           104.5824         calculate D2E/DX2 analytically  !
 ! A42   A(17,16,19)           114.4213         calculate D2E/DX2 analytically  !
 ! A43   A(18,16,19)           113.9182         calculate D2E/DX2 analytically  !
 ! A44   A(16,19,37)           134.6391         calculate D2E/DX2 analytically  !
 ! A45   A(13,20,21)           112.1048         calculate D2E/DX2 analytically  !
 ! A46   A(13,20,22)           111.3199         calculate D2E/DX2 analytically  !
 ! A47   A(13,20,23)           106.831          calculate D2E/DX2 analytically  !
 ! A48   A(21,20,22)           108.7268         calculate D2E/DX2 analytically  !
 ! A49   A(21,20,23)           108.7092         calculate D2E/DX2 analytically  !
 ! A50   A(22,20,23)           109.0681         calculate D2E/DX2 analytically  !
 ! A51   A(14,24,25)           110.4163         calculate D2E/DX2 analytically  !
 ! A52   A(14,24,26)           110.9737         calculate D2E/DX2 analytically  !
 ! A53   A(14,24,27)           106.6721         calculate D2E/DX2 analytically  !
 ! A54   A(25,24,26)           109.7186         calculate D2E/DX2 analytically  !
 ! A55   A(25,24,27)           109.0991         calculate D2E/DX2 analytically  !
 ! A56   A(26,24,27)           109.9011         calculate D2E/DX2 analytically  !
 ! A57   A(15,28,29)           111.298          calculate D2E/DX2 analytically  !
 ! A58   A(15,28,30)           111.5767         calculate D2E/DX2 analytically  !
 ! A59   A(15,28,31)           106.7858         calculate D2E/DX2 analytically  !
 ! A60   A(29,28,30)           109.3155         calculate D2E/DX2 analytically  !
 ! A61   A(29,28,31)           108.7608         calculate D2E/DX2 analytically  !
 ! A62   A(30,28,31)           109.0143         calculate D2E/DX2 analytically  !
 ! A63   A(33,32,36)           109.3833         calculate D2E/DX2 analytically  !
 ! A64   A(33,32,39)           109.52           calculate D2E/DX2 analytically  !
 ! A65   A(33,32,45)           111.0441         calculate D2E/DX2 analytically  !
 ! A66   A(36,32,39)           109.6138         calculate D2E/DX2 analytically  !
 ! A67   A(36,32,45)           106.6858         calculate D2E/DX2 analytically  !
 ! A68   A(39,32,45)           110.5439         calculate D2E/DX2 analytically  !
 ! A69   A(32,33,34)           111.4798         calculate D2E/DX2 analytically  !
 ! A70   A(32,33,38)           107.7057         calculate D2E/DX2 analytically  !
 ! A71   A(32,33,44)           111.1869         calculate D2E/DX2 analytically  !
 ! A72   A(34,33,38)           104.9086         calculate D2E/DX2 analytically  !
 ! A73   A(34,33,44)           111.3796         calculate D2E/DX2 analytically  !
 ! A74   A(38,33,44)           109.9232         calculate D2E/DX2 analytically  !
 ! A75   A(33,34,37)           116.5853         calculate D2E/DX2 analytically  !
 ! A76   A(33,34,42)           118.884          calculate D2E/DX2 analytically  !
 ! A77   A(33,34,53)            95.8037         calculate D2E/DX2 analytically  !
 ! A78   A(37,34,42)           115.2719         calculate D2E/DX2 analytically  !
 ! A79   A(37,34,53)            95.6564         calculate D2E/DX2 analytically  !
 ! A80   A(42,34,53)           109.0231         calculate D2E/DX2 analytically  !
 ! A81   A(36,35,40)           107.7784         calculate D2E/DX2 analytically  !
 ! A82   A(36,35,42)           116.8594         calculate D2E/DX2 analytically  !
 ! A83   A(36,35,47)           112.1456         calculate D2E/DX2 analytically  !
 ! A84   A(40,35,42)           104.5676         calculate D2E/DX2 analytically  !
 ! A85   A(40,35,47)           110.0748         calculate D2E/DX2 analytically  !
 ! A86   A(42,35,47)           105.0833         calculate D2E/DX2 analytically  !
 ! A87   A(32,36,35)           115.7456         calculate D2E/DX2 analytically  !
 ! A88   A(32,36,41)           105.1716         calculate D2E/DX2 analytically  !
 ! A89   A(32,36,46)           113.4082         calculate D2E/DX2 analytically  !
 ! A90   A(35,36,41)           108.1162         calculate D2E/DX2 analytically  !
 ! A91   A(35,36,46)           104.628          calculate D2E/DX2 analytically  !
 ! A92   A(41,36,46)           109.655          calculate D2E/DX2 analytically  !
 ! A93   A(19,37,34)           140.5759         calculate D2E/DX2 analytically  !
 ! A94   A(34,42,35)           123.0479         calculate D2E/DX2 analytically  !
 ! A95   A(51,43,87)           136.1332         calculate D2E/DX2 analytically  !
 ! A96   A(33,44,63)           112.7258         calculate D2E/DX2 analytically  !
 ! A97   A(32,45,67)           114.8878         calculate D2E/DX2 analytically  !
 ! A98   A(36,46,71)           115.823          calculate D2E/DX2 analytically  !
 ! A99   A(35,47,48)           107.7545         calculate D2E/DX2 analytically  !
 ! A100  A(35,47,49)           109.497          calculate D2E/DX2 analytically  !
 ! A101  A(35,47,50)           111.3242         calculate D2E/DX2 analytically  !
 ! A102  A(48,47,49)           108.3639         calculate D2E/DX2 analytically  !
 ! A103  A(48,47,50)           108.4132         calculate D2E/DX2 analytically  !
 ! A104  A(49,47,50)           111.3678         calculate D2E/DX2 analytically  !
 ! A105  A(47,50,75)           115.9118         calculate D2E/DX2 analytically  !
 ! A106  A(43,51,52)           118.3278         calculate D2E/DX2 analytically  !
 ! A107  A(43,51,53)           107.4269         calculate D2E/DX2 analytically  !
 ! A108  A(43,51,54)           107.2489         calculate D2E/DX2 analytically  !
 ! A109  A(52,51,53)           112.6387         calculate D2E/DX2 analytically  !
 ! A110  A(52,51,54)           108.0218         calculate D2E/DX2 analytically  !
 ! A111  A(53,51,54)           101.7857         calculate D2E/DX2 analytically  !
 ! A112  A(34,53,51)           126.2666         calculate D2E/DX2 analytically  !
 ! A113  A(34,53,83)           113.4264         calculate D2E/DX2 analytically  !
 ! A114  A(51,53,83)           118.4556         calculate D2E/DX2 analytically  !
 ! A115  A(51,54,55)           118.3833         calculate D2E/DX2 analytically  !
 ! A116  A(51,54,56)           119.7656         calculate D2E/DX2 analytically  !
 ! A117  A(55,54,56)           121.6499         calculate D2E/DX2 analytically  !
 ! A118  A(54,55,57)           118.6688         calculate D2E/DX2 analytically  !
 ! A119  A(54,55,58)           120.3713         calculate D2E/DX2 analytically  !
 ! A120  A(57,55,58)           120.9374         calculate D2E/DX2 analytically  !
 ! A121  A(54,56,59)           118.7671         calculate D2E/DX2 analytically  !
 ! A122  A(54,56,60)           119.857          calculate D2E/DX2 analytically  !
 ! A123  A(59,56,60)           121.3433         calculate D2E/DX2 analytically  !
 ! A124  A(55,57,61)           120.718          calculate D2E/DX2 analytically  !
 ! A125  A(55,57,93)           119.1833         calculate D2E/DX2 analytically  !
 ! A126  A(61,57,93)           119.9473         calculate D2E/DX2 analytically  !
 ! A127  A(56,59,61)           120.7172         calculate D2E/DX2 analytically  !
 ! A128  A(56,59,97)           119.4434         calculate D2E/DX2 analytically  !
 ! A129  A(61,59,97)           119.8207         calculate D2E/DX2 analytically  !
 ! A130  A(57,61,59)           119.4384         calculate D2E/DX2 analytically  !
 ! A131  A(57,61,62)           120.19           calculate D2E/DX2 analytically  !
 ! A132  A(59,61,62)           120.3474         calculate D2E/DX2 analytically  !
 ! A133  A(44,63,64)           109.0602         calculate D2E/DX2 analytically  !
 ! A134  A(44,63,65)           109.421          calculate D2E/DX2 analytically  !
 ! A135  A(44,63,66)           105.9562         calculate D2E/DX2 analytically  !
 ! A136  A(64,63,65)           111.9321         calculate D2E/DX2 analytically  !
 ! A137  A(64,63,66)           111.4219         calculate D2E/DX2 analytically  !
 ! A138  A(65,63,66)           108.8612         calculate D2E/DX2 analytically  !
 ! A139  A(45,67,68)           110.998          calculate D2E/DX2 analytically  !
 ! A140  A(45,67,69)           111.451          calculate D2E/DX2 analytically  !
 ! A141  A(45,67,70)           106.4866         calculate D2E/DX2 analytically  !
 ! A142  A(68,67,69)           109.3943         calculate D2E/DX2 analytically  !
 ! A143  A(68,67,70)           108.9413         calculate D2E/DX2 analytically  !
 ! A144  A(69,67,70)           109.4959         calculate D2E/DX2 analytically  !
 ! A145  A(67,69,91)           111.033          calculate D2E/DX2 analytically  !
 ! A146  A(46,71,72)           111.9736         calculate D2E/DX2 analytically  !
 ! A147  A(46,71,73)           111.2378         calculate D2E/DX2 analytically  !
 ! A148  A(46,71,74)           105.7513         calculate D2E/DX2 analytically  !
 ! A149  A(72,71,73)           108.9587         calculate D2E/DX2 analytically  !
 ! A150  A(72,71,74)           109.164          calculate D2E/DX2 analytically  !
 ! A151  A(73,71,74)           109.6883         calculate D2E/DX2 analytically  !
 ! A152  A(50,75,76)           105.9037         calculate D2E/DX2 analytically  !
 ! A153  A(50,75,77)           113.1594         calculate D2E/DX2 analytically  !
 ! A154  A(50,75,78)           110.4763         calculate D2E/DX2 analytically  !
 ! A155  A(76,75,77)           108.6213         calculate D2E/DX2 analytically  !
 ! A156  A(76,75,78)           108.6421         calculate D2E/DX2 analytically  !
 ! A157  A(77,75,78)           109.8615         calculate D2E/DX2 analytically  !
 ! A158  A(12,79,80)           106.7562         calculate D2E/DX2 analytically  !
 ! A159  A(12,79,81)           111.5286         calculate D2E/DX2 analytically  !
 ! A160  A(12,79,82)           110.8264         calculate D2E/DX2 analytically  !
 ! A161  A(80,79,81)           109.571          calculate D2E/DX2 analytically  !
 ! A162  A(80,79,82)           109.3293         calculate D2E/DX2 analytically  !
 ! A163  A(81,79,82)           108.792          calculate D2E/DX2 analytically  !
 ! A164  A(14,83,53)           122.3133         calculate D2E/DX2 analytically  !
 ! A165  A(14,83,84)           112.4836         calculate D2E/DX2 analytically  !
 ! A166  A(53,83,84)           104.5939         calculate D2E/DX2 analytically  !
 ! A167  A(58,84,83)            93.7581         calculate D2E/DX2 analytically  !
 ! A168  A(58,84,85)            89.253          calculate D2E/DX2 analytically  !
 ! A169  A(58,84,89)           109.0907         calculate D2E/DX2 analytically  !
 ! A170  A(83,84,85)           120.1864         calculate D2E/DX2 analytically  !
 ! A171  A(83,84,89)           122.5628         calculate D2E/DX2 analytically  !
 ! A172  A(85,84,89)           112.295          calculate D2E/DX2 analytically  !
 ! A173  A(84,85,86)           110.2536         calculate D2E/DX2 analytically  !
 ! A174  A(84,85,87)           106.7118         calculate D2E/DX2 analytically  !
 ! A175  A(84,85,88)           110.5772         calculate D2E/DX2 analytically  !
 ! A176  A(86,85,87)           109.509          calculate D2E/DX2 analytically  !
 ! A177  A(86,85,88)           109.2199         calculate D2E/DX2 analytically  !
 ! A178  A(87,85,88)           110.5422         calculate D2E/DX2 analytically  !
 ! A179  A(43,87,85)           139.5672         calculate D2E/DX2 analytically  !
 ! A180  A(84,89,90)           110.8028         calculate D2E/DX2 analytically  !
 ! A181  A(84,89,91)           107.1811         calculate D2E/DX2 analytically  !
 ! A182  A(84,89,92)           110.4915         calculate D2E/DX2 analytically  !
 ! A183  A(90,89,91)           109.5031         calculate D2E/DX2 analytically  !
 ! A184  A(90,89,92)           109.4008         calculate D2E/DX2 analytically  !
 ! A185  A(91,89,92)           109.4239         calculate D2E/DX2 analytically  !
 ! A186  A(69,91,89)           158.5545         calculate D2E/DX2 analytically  !
 ! A187  A(57,93,94)           111.8606         calculate D2E/DX2 analytically  !
 ! A188  A(57,93,95)           112.3303         calculate D2E/DX2 analytically  !
 ! A189  A(57,93,96)           111.333          calculate D2E/DX2 analytically  !
 ! A190  A(94,93,95)           107.739          calculate D2E/DX2 analytically  !
 ! A191  A(94,93,96)           106.3884         calculate D2E/DX2 analytically  !
 ! A192  A(95,93,96)           106.8597         calculate D2E/DX2 analytically  !
 ! A193  A(59,97,98)           111.4206         calculate D2E/DX2 analytically  !
 ! A194  A(59,97,99)           111.4816         calculate D2E/DX2 analytically  !
 ! A195  A(59,97,100)          112.1158         calculate D2E/DX2 analytically  !
 ! A196  A(98,97,99)           107.5557         calculate D2E/DX2 analytically  !
 ! A197  A(98,97,100)          107.0336         calculate D2E/DX2 analytically  !
 ! A198  A(99,97,100)          106.9607         calculate D2E/DX2 analytically  !
 ! A199  L(55,58,84,16,-1)     169.2695         calculate D2E/DX2 analytically  !
 ! A200  L(55,58,84,16,-2)     172.7772         calculate D2E/DX2 analytically  !
 ! D1    D(5,1,2,3)            -46.5446         calculate D2E/DX2 analytically  !
 ! D2    D(5,1,2,7)             69.7447         calculate D2E/DX2 analytically  !
 ! D3    D(5,1,2,13)          -171.5717         calculate D2E/DX2 analytically  !
 ! D4    D(8,1,2,3)             74.5065         calculate D2E/DX2 analytically  !
 ! D5    D(8,1,2,7)           -169.2042         calculate D2E/DX2 analytically  !
 ! D6    D(8,1,2,13)           -50.5206         calculate D2E/DX2 analytically  !
 ! D7    D(14,1,2,3)          -166.1426         calculate D2E/DX2 analytically  !
 ! D8    D(14,1,2,7)           -49.8533         calculate D2E/DX2 analytically  !
 ! D9    D(14,1,2,13)           68.8303         calculate D2E/DX2 analytically  !
 ! D10   D(2,1,5,4)             40.2091         calculate D2E/DX2 analytically  !
 ! D11   D(2,1,5,10)           -77.7106         calculate D2E/DX2 analytically  !
 ! D12   D(2,1,5,15)           161.6908         calculate D2E/DX2 analytically  !
 ! D13   D(8,1,5,4)            -80.7022         calculate D2E/DX2 analytically  !
 ! D14   D(8,1,5,10)           161.3782         calculate D2E/DX2 analytically  !
 ! D15   D(8,1,5,15)            40.7796         calculate D2E/DX2 analytically  !
 ! D16   D(14,1,5,4)           161.4424         calculate D2E/DX2 analytically  !
 ! D17   D(14,1,5,10)           43.5228         calculate D2E/DX2 analytically  !
 ! D18   D(14,1,5,15)          -77.0758         calculate D2E/DX2 analytically  !
 ! D19   D(2,1,14,24)          -99.9363         calculate D2E/DX2 analytically  !
 ! D20   D(2,1,14,83)           73.0288         calculate D2E/DX2 analytically  !
 ! D21   D(5,1,14,24)          137.0066         calculate D2E/DX2 analytically  !
 ! D22   D(5,1,14,83)          -50.0283         calculate D2E/DX2 analytically  !
 ! D23   D(8,1,14,24)           19.2096         calculate D2E/DX2 analytically  !
 ! D24   D(8,1,14,83)         -167.8253         calculate D2E/DX2 analytically  !
 ! D25   D(1,2,3,6)            172.7988         calculate D2E/DX2 analytically  !
 ! D26   D(1,2,3,11)            57.8227         calculate D2E/DX2 analytically  !
 ! D27   D(1,2,3,12)           -66.7701         calculate D2E/DX2 analytically  !
 ! D28   D(7,2,3,6)             54.6359         calculate D2E/DX2 analytically  !
 ! D29   D(7,2,3,11)           -60.3401         calculate D2E/DX2 analytically  !
 ! D30   D(7,2,3,12)           175.0671         calculate D2E/DX2 analytically  !
 ! D31   D(13,2,3,6)           -66.0605         calculate D2E/DX2 analytically  !
 ! D32   D(13,2,3,11)          178.9635         calculate D2E/DX2 analytically  !
 ! D33   D(13,2,3,12)           54.3707         calculate D2E/DX2 analytically  !
 ! D34   D(1,2,13,20)         -169.6324         calculate D2E/DX2 analytically  !
 ! D35   D(3,2,13,20)           67.7042         calculate D2E/DX2 analytically  !
 ! D36   D(7,2,13,20)          -51.1322         calculate D2E/DX2 analytically  !
 ! D37   D(2,3,11,4)           -64.1557         calculate D2E/DX2 analytically  !
 ! D38   D(6,3,11,4)           176.7173         calculate D2E/DX2 analytically  !
 ! D39   D(12,3,11,4)           56.7411         calculate D2E/DX2 analytically  !
 ! D40   D(2,3,12,79)         -174.1223         calculate D2E/DX2 analytically  !
 ! D41   D(6,3,12,79)          -53.0025         calculate D2E/DX2 analytically  !
 ! D42   D(11,3,12,79)          63.8101         calculate D2E/DX2 analytically  !
 ! D43   D(9,4,5,1)             77.9649         calculate D2E/DX2 analytically  !
 ! D44   D(9,4,5,10)          -161.7535         calculate D2E/DX2 analytically  !
 ! D45   D(9,4,5,15)           -43.5471         calculate D2E/DX2 analytically  !
 ! D46   D(11,4,5,1)           -42.2897         calculate D2E/DX2 analytically  !
 ! D47   D(11,4,5,10)           77.9919         calculate D2E/DX2 analytically  !
 ! D48   D(11,4,5,15)         -163.8017         calculate D2E/DX2 analytically  !
 ! D49   D(16,4,5,1)          -160.7883         calculate D2E/DX2 analytically  !
 ! D50   D(16,4,5,10)          -40.5068         calculate D2E/DX2 analytically  !
 ! D51   D(16,4,5,15)           77.6997         calculate D2E/DX2 analytically  !
 ! D52   D(5,4,11,3)            55.5611         calculate D2E/DX2 analytically  !
 ! D53   D(9,4,11,3)           -64.7914         calculate D2E/DX2 analytically  !
 ! D54   D(16,4,11,3)          175.4339         calculate D2E/DX2 analytically  !
 ! D55   D(5,4,16,17)          -74.773          calculate D2E/DX2 analytically  !
 ! D56   D(5,4,16,18)          175.5844         calculate D2E/DX2 analytically  !
 ! D57   D(5,4,16,19)           50.6174         calculate D2E/DX2 analytically  !
 ! D58   D(9,4,16,17)           45.6458         calculate D2E/DX2 analytically  !
 ! D59   D(9,4,16,18)          -63.9969         calculate D2E/DX2 analytically  !
 ! D60   D(9,4,16,19)          171.0362         calculate D2E/DX2 analytically  !
 ! D61   D(11,4,16,17)         164.4372         calculate D2E/DX2 analytically  !
 ! D62   D(11,4,16,18)          54.7946         calculate D2E/DX2 analytically  !
 ! D63   D(11,4,16,19)         -70.1724         calculate D2E/DX2 analytically  !
 ! D64   D(1,5,15,28)          117.7228         calculate D2E/DX2 analytically  !
 ! D65   D(4,5,15,28)         -116.6525         calculate D2E/DX2 analytically  !
 ! D66   D(10,5,15,28)          -2.055          calculate D2E/DX2 analytically  !
 ! D67   D(3,12,79,80)         176.6895         calculate D2E/DX2 analytically  !
 ! D68   D(3,12,79,81)         -63.6514         calculate D2E/DX2 analytically  !
 ! D69   D(3,12,79,82)          57.7184         calculate D2E/DX2 analytically  !
 ! D70   D(2,13,20,21)         -70.467          calculate D2E/DX2 analytically  !
 ! D71   D(2,13,20,22)          51.5721         calculate D2E/DX2 analytically  !
 ! D72   D(2,13,20,23)         170.5485         calculate D2E/DX2 analytically  !
 ! D73   D(1,14,24,25)         -60.6293         calculate D2E/DX2 analytically  !
 ! D74   D(1,14,24,26)          61.2578         calculate D2E/DX2 analytically  !
 ! D75   D(1,14,24,27)        -179.0492         calculate D2E/DX2 analytically  !
 ! D76   D(83,14,24,25)        126.905          calculate D2E/DX2 analytically  !
 ! D77   D(83,14,24,26)       -111.2079         calculate D2E/DX2 analytically  !
 ! D78   D(83,14,24,27)          8.485          calculate D2E/DX2 analytically  !
 ! D79   D(1,14,83,53)          75.7091         calculate D2E/DX2 analytically  !
 ! D80   D(1,14,83,84)        -158.5274         calculate D2E/DX2 analytically  !
 ! D81   D(24,14,83,53)       -112.0979         calculate D2E/DX2 analytically  !
 ! D82   D(24,14,83,84)         13.6656         calculate D2E/DX2 analytically  !
 ! D83   D(5,15,28,29)         -68.6923         calculate D2E/DX2 analytically  !
 ! D84   D(5,15,28,30)          53.715          calculate D2E/DX2 analytically  !
 ! D85   D(5,15,28,31)         172.743          calculate D2E/DX2 analytically  !
 ! D86   D(4,16,19,37)         -77.5975         calculate D2E/DX2 analytically  !
 ! D87   D(17,16,19,37)         42.2714         calculate D2E/DX2 analytically  !
 ! D88   D(18,16,19,37)        162.5281         calculate D2E/DX2 analytically  !
 ! D89   D(16,19,37,34)       -179.5858         calculate D2E/DX2 analytically  !
 ! D90   D(36,32,33,34)        -56.0004         calculate D2E/DX2 analytically  !
 ! D91   D(36,32,33,38)         58.5728         calculate D2E/DX2 analytically  !
 ! D92   D(36,32,33,44)        179.0623         calculate D2E/DX2 analytically  !
 ! D93   D(39,32,33,34)         64.1502         calculate D2E/DX2 analytically  !
 ! D94   D(39,32,33,38)        178.7233         calculate D2E/DX2 analytically  !
 ! D95   D(39,32,33,44)        -60.7872         calculate D2E/DX2 analytically  !
 ! D96   D(45,32,33,34)       -173.4837         calculate D2E/DX2 analytically  !
 ! D97   D(45,32,33,38)        -58.9105         calculate D2E/DX2 analytically  !
 ! D98   D(45,32,33,44)         61.579          calculate D2E/DX2 analytically  !
 ! D99   D(33,32,36,35)         33.5129         calculate D2E/DX2 analytically  !
 ! D100  D(33,32,36,41)        -85.7257         calculate D2E/DX2 analytically  !
 ! D101  D(33,32,36,46)        154.4629         calculate D2E/DX2 analytically  !
 ! D102  D(39,32,36,35)        -86.5802         calculate D2E/DX2 analytically  !
 ! D103  D(39,32,36,41)        154.1812         calculate D2E/DX2 analytically  !
 ! D104  D(39,32,36,46)         34.3698         calculate D2E/DX2 analytically  !
 ! D105  D(45,32,36,35)        153.7018         calculate D2E/DX2 analytically  !
 ! D106  D(45,32,36,41)         34.4632         calculate D2E/DX2 analytically  !
 ! D107  D(45,32,36,46)        -85.3482         calculate D2E/DX2 analytically  !
 ! D108  D(33,32,45,67)        -92.4045         calculate D2E/DX2 analytically  !
 ! D109  D(36,32,45,67)        148.4808         calculate D2E/DX2 analytically  !
 ! D110  D(39,32,45,67)         29.3658         calculate D2E/DX2 analytically  !
 ! D111  D(32,33,34,37)       -169.7892         calculate D2E/DX2 analytically  !
 ! D112  D(32,33,34,42)         44.9966         calculate D2E/DX2 analytically  !
 ! D113  D(32,33,34,53)        -70.4867         calculate D2E/DX2 analytically  !
 ! D114  D(38,33,34,37)         73.9166         calculate D2E/DX2 analytically  !
 ! D115  D(38,33,34,42)        -71.2975         calculate D2E/DX2 analytically  !
 ! D116  D(38,33,34,53)        173.2192         calculate D2E/DX2 analytically  !
 ! D117  D(44,33,34,37)        -44.9596         calculate D2E/DX2 analytically  !
 ! D118  D(44,33,34,42)        169.8263         calculate D2E/DX2 analytically  !
 ! D119  D(44,33,34,53)         54.343          calculate D2E/DX2 analytically  !
 ! D120  D(32,33,44,63)       -132.0086         calculate D2E/DX2 analytically  !
 ! D121  D(34,33,44,63)        102.9978         calculate D2E/DX2 analytically  !
 ! D122  D(38,33,44,63)        -12.8367         calculate D2E/DX2 analytically  !
 ! D123  D(33,34,37,19)        -43.1219         calculate D2E/DX2 analytically  !
 ! D124  D(42,34,37,19)        103.3457         calculate D2E/DX2 analytically  !
 ! D125  D(53,34,37,19)       -142.5142         calculate D2E/DX2 analytically  !
 ! D126  D(33,34,42,35)         -6.7977         calculate D2E/DX2 analytically  !
 ! D127  D(37,34,42,35)       -152.4518         calculate D2E/DX2 analytically  !
 ! D128  D(53,34,42,35)        101.4039         calculate D2E/DX2 analytically  !
 ! D129  D(33,34,53,51)        144.0094         calculate D2E/DX2 analytically  !
 ! D130  D(33,34,53,83)        -51.8484         calculate D2E/DX2 analytically  !
 ! D131  D(37,34,53,51)        -98.4677         calculate D2E/DX2 analytically  !
 ! D132  D(37,34,53,83)         65.6745         calculate D2E/DX2 analytically  !
 ! D133  D(42,34,53,51)         20.7372         calculate D2E/DX2 analytically  !
 ! D134  D(42,34,53,83)       -175.1206         calculate D2E/DX2 analytically  !
 ! D135  D(40,35,36,32)        118.7401         calculate D2E/DX2 analytically  !
 ! D136  D(40,35,36,41)       -123.6478         calculate D2E/DX2 analytically  !
 ! D137  D(40,35,36,46)         -6.8306         calculate D2E/DX2 analytically  !
 ! D138  D(42,35,36,32)          1.452          calculate D2E/DX2 analytically  !
 ! D139  D(42,35,36,41)        119.064          calculate D2E/DX2 analytically  !
 ! D140  D(42,35,36,46)       -124.1187         calculate D2E/DX2 analytically  !
 ! D141  D(47,35,36,32)       -119.9498         calculate D2E/DX2 analytically  !
 ! D142  D(47,35,36,41)         -2.3378         calculate D2E/DX2 analytically  !
 ! D143  D(47,35,36,46)        114.4795         calculate D2E/DX2 analytically  !
 ! D144  D(36,35,42,34)        -16.9935         calculate D2E/DX2 analytically  !
 ! D145  D(40,35,42,34)       -136.0217         calculate D2E/DX2 analytically  !
 ! D146  D(47,35,42,34)        108.0441         calculate D2E/DX2 analytically  !
 ! D147  D(36,35,47,48)        -59.8054         calculate D2E/DX2 analytically  !
 ! D148  D(36,35,47,49)       -177.47           calculate D2E/DX2 analytically  !
 ! D149  D(36,35,47,50)         58.9474         calculate D2E/DX2 analytically  !
 ! D150  D(40,35,47,48)         60.1755         calculate D2E/DX2 analytically  !
 ! D151  D(40,35,47,49)        -57.4891         calculate D2E/DX2 analytically  !
 ! D152  D(40,35,47,50)        178.9284         calculate D2E/DX2 analytically  !
 ! D153  D(42,35,47,48)        172.2516         calculate D2E/DX2 analytically  !
 ! D154  D(42,35,47,49)         54.587          calculate D2E/DX2 analytically  !
 ! D155  D(42,35,47,50)        -68.9956         calculate D2E/DX2 analytically  !
 ! D156  D(32,36,46,71)         68.6194         calculate D2E/DX2 analytically  !
 ! D157  D(35,36,46,71)       -164.3544         calculate D2E/DX2 analytically  !
 ! D158  D(41,36,46,71)        -48.6031         calculate D2E/DX2 analytically  !
 ! D159  D(87,43,51,52)        178.9139         calculate D2E/DX2 analytically  !
 ! D160  D(87,43,51,53)         50.0454         calculate D2E/DX2 analytically  !
 ! D161  D(87,43,51,54)        -58.7155         calculate D2E/DX2 analytically  !
 ! D162  D(51,43,87,85)          3.8065         calculate D2E/DX2 analytically  !
 ! D163  D(33,44,63,64)        -63.2292         calculate D2E/DX2 analytically  !
 ! D164  D(33,44,63,65)         59.5108         calculate D2E/DX2 analytically  !
 ! D165  D(33,44,63,66)        176.7252         calculate D2E/DX2 analytically  !
 ! D166  D(32,45,67,68)        -54.0208         calculate D2E/DX2 analytically  !
 ! D167  D(32,45,67,69)         68.1858         calculate D2E/DX2 analytically  !
 ! D168  D(32,45,67,70)       -172.4577         calculate D2E/DX2 analytically  !
 ! D169  D(36,46,71,72)        -76.2086         calculate D2E/DX2 analytically  !
 ! D170  D(36,46,71,73)         45.9776         calculate D2E/DX2 analytically  !
 ! D171  D(36,46,71,74)        165.0011         calculate D2E/DX2 analytically  !
 ! D172  D(35,47,50,75)        105.7888         calculate D2E/DX2 analytically  !
 ! D173  D(48,47,50,75)       -135.8536         calculate D2E/DX2 analytically  !
 ! D174  D(49,47,50,75)        -16.7224         calculate D2E/DX2 analytically  !
 ! D175  D(47,50,75,76)        161.0643         calculate D2E/DX2 analytically  !
 ! D176  D(47,50,75,77)        -80.054          calculate D2E/DX2 analytically  !
 ! D177  D(47,50,75,78)         43.6003         calculate D2E/DX2 analytically  !
 ! D178  D(43,51,53,34)        157.707          calculate D2E/DX2 analytically  !
 ! D179  D(43,51,53,83)         -5.7233         calculate D2E/DX2 analytically  !
 ! D180  D(52,51,53,34)         25.6574         calculate D2E/DX2 analytically  !
 ! D181  D(52,51,53,83)       -137.773          calculate D2E/DX2 analytically  !
 ! D182  D(54,51,53,34)        -89.7749         calculate D2E/DX2 analytically  !
 ! D183  D(54,51,53,83)        106.7948         calculate D2E/DX2 analytically  !
 ! D184  D(43,51,54,55)         47.2069         calculate D2E/DX2 analytically  !
 ! D185  D(43,51,54,56)       -137.8616         calculate D2E/DX2 analytically  !
 ! D186  D(52,51,54,55)        175.7798         calculate D2E/DX2 analytically  !
 ! D187  D(52,51,54,56)         -9.2887         calculate D2E/DX2 analytically  !
 ! D188  D(53,51,54,55)        -65.4448         calculate D2E/DX2 analytically  !
 ! D189  D(53,51,54,56)        109.4866         calculate D2E/DX2 analytically  !
 ! D190  D(34,53,83,14)        -93.0113         calculate D2E/DX2 analytically  !
 ! D191  D(34,53,83,84)        137.7715         calculate D2E/DX2 analytically  !
 ! D192  D(51,53,83,14)         72.4764         calculate D2E/DX2 analytically  !
 ! D193  D(51,53,83,84)        -56.7409         calculate D2E/DX2 analytically  !
 ! D194  D(51,54,55,57)        175.896          calculate D2E/DX2 analytically  !
 ! D195  D(51,54,55,58)         -2.3933         calculate D2E/DX2 analytically  !
 ! D196  D(56,54,55,57)          1.0648         calculate D2E/DX2 analytically  !
 ! D197  D(56,54,55,58)       -177.2245         calculate D2E/DX2 analytically  !
 ! D198  D(51,54,56,59)       -174.092          calculate D2E/DX2 analytically  !
 ! D199  D(51,54,56,60)          3.8596         calculate D2E/DX2 analytically  !
 ! D200  D(55,54,56,59)          0.6692         calculate D2E/DX2 analytically  !
 ! D201  D(55,54,56,60)        178.6208         calculate D2E/DX2 analytically  !
 ! D202  D(54,55,57,61)         -1.4303         calculate D2E/DX2 analytically  !
 ! D203  D(54,55,57,93)       -176.9554         calculate D2E/DX2 analytically  !
 ! D204  D(58,55,57,61)        176.8489         calculate D2E/DX2 analytically  !
 ! D205  D(58,55,57,93)          1.3238         calculate D2E/DX2 analytically  !
 ! D206  D(54,55,84,83)         25.6718         calculate D2E/DX2 analytically  !
 ! D207  D(54,55,84,85)        -94.5845         calculate D2E/DX2 analytically  !
 ! D208  D(54,55,84,89)        150.5829         calculate D2E/DX2 analytically  !
 ! D209  D(57,55,84,83)       -143.1563         calculate D2E/DX2 analytically  !
 ! D210  D(57,55,84,85)         96.5874         calculate D2E/DX2 analytically  !
 ! D211  D(57,55,84,89)        -18.2452         calculate D2E/DX2 analytically  !
 ! D212  D(54,56,59,61)         -2.0765         calculate D2E/DX2 analytically  !
 ! D213  D(54,56,59,97)        176.3493         calculate D2E/DX2 analytically  !
 ! D214  D(60,56,59,61)       -179.9965         calculate D2E/DX2 analytically  !
 ! D215  D(60,56,59,97)         -1.5707         calculate D2E/DX2 analytically  !
 ! D216  D(55,57,61,59)          0.0619         calculate D2E/DX2 analytically  !
 ! D217  D(55,57,61,62)       -178.1568         calculate D2E/DX2 analytically  !
 ! D218  D(93,57,61,59)        175.553          calculate D2E/DX2 analytically  !
 ! D219  D(93,57,61,62)         -2.6658         calculate D2E/DX2 analytically  !
 ! D220  D(55,57,93,94)        -35.0283         calculate D2E/DX2 analytically  !
 ! D221  D(55,57,93,95)       -156.3399         calculate D2E/DX2 analytically  !
 ! D222  D(55,57,93,96)         83.857          calculate D2E/DX2 analytically  !
 ! D223  D(61,57,93,94)        149.4115         calculate D2E/DX2 analytically  !
 ! D224  D(61,57,93,95)         28.0998         calculate D2E/DX2 analytically  !
 ! D225  D(61,57,93,96)        -91.7033         calculate D2E/DX2 analytically  !
 ! D226  D(56,59,61,57)          1.7233         calculate D2E/DX2 analytically  !
 ! D227  D(56,59,61,62)        179.9392         calculate D2E/DX2 analytically  !
 ! D228  D(97,59,61,57)       -176.6966         calculate D2E/DX2 analytically  !
 ! D229  D(97,59,61,62)          1.5193         calculate D2E/DX2 analytically  !
 ! D230  D(56,59,97,98)        -28.362          calculate D2E/DX2 analytically  !
 ! D231  D(56,59,97,99)       -148.5337         calculate D2E/DX2 analytically  !
 ! D232  D(56,59,97,100)        91.5776         calculate D2E/DX2 analytically  !
 ! D233  D(61,59,97,98)        150.0781         calculate D2E/DX2 analytically  !
 ! D234  D(61,59,97,99)         29.9064         calculate D2E/DX2 analytically  !
 ! D235  D(61,59,97,100)       -89.9823         calculate D2E/DX2 analytically  !
 ! D236  D(45,67,69,91)       -137.3896         calculate D2E/DX2 analytically  !
 ! D237  D(68,67,69,91)        -14.2629         calculate D2E/DX2 analytically  !
 ! D238  D(70,67,69,91)        105.0575         calculate D2E/DX2 analytically  !
 ! D239  D(67,69,91,89)         58.9862         calculate D2E/DX2 analytically  !
 ! D240  D(14,83,84,58)       -136.181          calculate D2E/DX2 analytically  !
 ! D241  D(14,83,84,85)        -44.8576         calculate D2E/DX2 analytically  !
 ! D242  D(14,83,84,89)        108.2974         calculate D2E/DX2 analytically  !
 ! D243  D(53,83,84,58)         -1.3052         calculate D2E/DX2 analytically  !
 ! D244  D(53,83,84,85)         90.0181         calculate D2E/DX2 analytically  !
 ! D245  D(53,83,84,89)       -116.8269         calculate D2E/DX2 analytically  !
 ! D246  D(58,84,85,86)        -52.122          calculate D2E/DX2 analytically  !
 ! D247  D(58,84,85,87)         66.7234         calculate D2E/DX2 analytically  !
 ! D248  D(58,84,85,88)       -173.0079         calculate D2E/DX2 analytically  !
 ! D249  D(83,84,85,86)       -146.0355         calculate D2E/DX2 analytically  !
 ! D250  D(83,84,85,87)        -27.1901         calculate D2E/DX2 analytically  !
 ! D251  D(83,84,85,88)         93.0786         calculate D2E/DX2 analytically  !
 ! D252  D(89,84,85,86)         58.2537         calculate D2E/DX2 analytically  !
 ! D253  D(89,84,85,87)        177.0991         calculate D2E/DX2 analytically  !
 ! D254  D(89,84,85,88)        -62.6322         calculate D2E/DX2 analytically  !
 ! D255  D(58,84,89,90)        156.0174         calculate D2E/DX2 analytically  !
 ! D256  D(58,84,89,91)        -84.5573         calculate D2E/DX2 analytically  !
 ! D257  D(58,84,89,92)         34.5962         calculate D2E/DX2 analytically  !
 ! D258  D(83,84,89,90)        -96.3256         calculate D2E/DX2 analytically  !
 ! D259  D(83,84,89,91)         23.0998         calculate D2E/DX2 analytically  !
 ! D260  D(83,84,89,92)        142.2533         calculate D2E/DX2 analytically  !
 ! D261  D(85,84,89,90)         58.7211         calculate D2E/DX2 analytically  !
 ! D262  D(85,84,89,91)        178.1464         calculate D2E/DX2 analytically  !
 ! D263  D(85,84,89,92)        -62.7001         calculate D2E/DX2 analytically  !
 ! D264  D(84,85,87,43)        -31.914          calculate D2E/DX2 analytically  !
 ! D265  D(86,85,87,43)         87.4154         calculate D2E/DX2 analytically  !
 ! D266  D(88,85,87,43)       -152.2052         calculate D2E/DX2 analytically  !
 ! D267  D(84,89,91,69)         44.2985         calculate D2E/DX2 analytically  !
 ! D268  D(90,89,91,69)        164.5553         calculate D2E/DX2 analytically  !
 ! D269  D(92,89,91,69)        -75.5404         calculate D2E/DX2 analytically  !
 --------------------------------------------------------------------------------
 Trust Radius=5.00D-02 FncErr=1.00D-07 GrdErr=1.00D-06 EigMax=2.50D+02 EigMin=1.00D-04
 Number of steps in this run=    585 maximum allowed number of steps=    600.
 Search for a saddle point of order  1.
 Step   0 in ReCalcFC=30 IGetFC= 4 compute analytic Hessian.
 GradGradGradGradGradGradGradGradGradGradGradGradGradGradGradGradGradGrad

 Leave Link  103 at Thu May 30 18:50:06 2019, MaxMem=  6442450944 cpu:               4.4 elap:               0.2
 (Enter /home/ekwan/sw/g16/l202.exe)
 Stoichiometry    C30H47F6NaO15S
 Framework group  C1[X(C30H47F6NaO15S)]
 Deg. of freedom   294
 Full point group                 C1      NOp   1
 Largest Abelian subgroup         C1      NOp   1
 Largest concise Abelian subgroup C1      NOp   1
                         Standard orientation:                         
 ---------------------------------------------------------------------
 Center     Atomic      Atomic             Coordinates (Angstroms)
 Number     Number       Type             X           Y           Z
 ---------------------------------------------------------------------
      1          6           0       -4.504253    0.921187   -0.906542
      2          6           0       -5.072861    1.013671    0.504062
      3          6           0       -5.966600   -0.201559    0.798816
      4          6           0       -4.762303   -1.634496   -0.705800
      5          6           0       -3.940880   -0.456425   -1.229402
      6          1           0       -6.280433   -0.214502    1.852108
      7          1           0       -4.247255    0.970277    1.230494
      8          1           0       -5.298310    1.157256   -1.621519
      9          1           0       -5.629796   -1.789081   -1.361264
     10          1           0       -2.956285   -0.564606   -0.758464
     11          8           0       -5.226918   -1.387173    0.639090
     12          8           0       -7.093255   -0.115604   -0.035981
     13          8           0       -5.735392    2.261545    0.615689
     14          8           0       -3.428275    1.868720   -1.067648
     15          8           0       -3.835405   -0.578238   -2.647270
     16          6           0       -3.878768   -2.908011   -0.663005
     17          1           0       -3.788565   -3.220356   -1.733463
     18          1           0       -4.528651   -3.688639   -0.195806
     19          8           0       -2.689020   -2.727779   -0.027297
     20          6           0       -6.119633    2.599548    1.938111
     21          1           0       -6.942072    1.970331    2.302977
     22          1           0       -5.272335    2.513158    2.635528
     23          1           0       -6.457301    3.638189    1.913697
     24          6           0       -3.779864    3.077301   -1.738674
     25          1           0       -4.135794    2.861871   -2.753452
     26          1           0       -4.549926    3.622460   -1.185479
     27          1           0       -2.869307    3.678612   -1.799226
     28          6           0       -2.512144   -0.760412   -3.129089
     29          1           0       -1.909848    0.144061   -2.989683
     30          1           0       -2.016664   -1.605430   -2.636931
     31          1           0       -2.591733   -0.968456   -4.199911
     32          6           0        1.301427   -0.844966    1.765325
     33          6           0       -0.101120   -1.313427    1.385166
     34          6           0       -0.154671   -1.792191   -0.040785
     35          6           0        1.987361   -2.897983    0.307169
     36          6           0        2.304332   -1.979375    1.509924
     37          1           0       -1.160751   -1.986698   -0.460839
     38          1           0       -0.332445   -2.200904    1.990198
     39          1           0        1.571929    0.027704    1.161559
     40          1           0        2.811623   -2.814256   -0.402127
     41          1           0        2.284329   -2.591810    2.422287
     42          8           0        0.790560   -2.573427   -0.477722
     43          8           0        0.298308    1.532933   -2.654647
     44          8           0       -1.062802   -0.300075    1.626578
     45          8           0        1.378343   -0.536805    3.148512
     46          8           0        3.623874   -1.521245    1.272294
     47          6           0        1.804056   -4.352122    0.727201
     48          1           0        2.737593   -4.684463    1.198740
     49          1           0        1.626692   -4.969911   -0.160869
     50          8           0        0.754412   -4.487963    1.668352
     51         16           0        0.828596    0.259236   -2.129258
     52          8           0        0.914788   -0.887517   -3.040183
     53          8           0        0.048872   -0.067695   -0.831063
     54          6           0        2.471008    0.588656   -1.496318
     55          6           0        2.653630    1.698718   -0.673218
     56          6           0        3.498220   -0.311603   -1.743617
     57          6           0        3.907915    1.911897   -0.107878
     58          1           0        1.825066    2.363875   -0.458212
     59          6           0        4.736750   -0.099732   -1.138115
     60          1           0        3.317963   -1.176589   -2.370023
     61          6           0        4.954087    1.016426   -0.335500
     62          1           0        5.917856    1.174531    0.132549
     63          6           0       -2.218961   -0.787116    2.342831
     64          1           0       -2.732170   -1.536688    1.727426
     65          1           0       -1.902757   -1.197674    3.309815
     66          1           0       -2.851457    0.084324    2.519439
     67          6           0        1.124547    0.824540    3.473530
     68          1           0        1.775854    1.494398    2.897608
     69          1           0        0.078410    1.090873    3.292873
     70          1           0        1.351140    0.937002    4.536491
     71          6           0        4.287764   -0.938709    2.387365
     72          1           0        3.930139    0.076054    2.593041
     73          1           0        4.161619   -1.550847    3.289369
     74          1           0        5.344593   -0.898076    2.115117
     75          6           0       -0.463746   -5.060194    1.170786
     76          1           0       -1.014292   -5.404574    2.050588
     77          1           0       -1.088507   -4.339654    0.625980
     78          1           0       -0.248118   -5.925724    0.530748
     79          6           0       -8.067260   -1.117210    0.235276
     80          1           0       -8.914628   -0.919074   -0.424188
     81          1           0       -7.676382   -2.121847    0.038895
     82          1           0       -8.400589   -1.065137    1.281842
     83         11           0       -1.408394    1.454460   -0.043884
     84          8           0       -0.150860    3.372841    0.238699
     85          6           0       -0.025347    4.313709   -0.829771
     86          1           0        0.968352    4.778935   -0.811509
     87          1           0       -0.148036    3.753509   -1.756754
     88          1           0       -0.791844    5.095271   -0.747682
     89          6           0        0.057096    3.973284    1.515667
     90          1           0       -0.660708    4.786406    1.685747
     91          1           0       -0.090009    3.194797    2.265618
     92          1           0        1.077300    4.366098    1.593363
     93          6           0        4.099780    3.065314    0.835733
     94          9           0        3.354048    4.137237    0.479595
     95          9           0        5.383409    3.462948    0.902687
     96          9           0        3.721696    2.737955    2.100685
     97          6           0        5.835007   -1.108883   -1.328813
     98          9           0        5.336412   -2.347444   -1.537393
     99          9           0        6.643174   -1.171504   -0.246814
    100          9           0        6.618598   -0.813748   -2.389612
 ---------------------------------------------------------------------
 Rotational constants (GHZ):           0.0822260           0.0362911           0.0317716
 Leave Link  202 at Thu May 30 18:50:07 2019, MaxMem=  6442450944 cpu:               4.9 elap:               0.2
 (Enter /home/ekwan/sw/g16/l301.exe)
 Standard basis: 6-31G(d) (6D, 7F)
 Ernie: Thresh=  0.10000D-02 Tol=  0.10000D-05 Strict=F.
 There are   897 symmetry adapted cartesian basis functions of A   symmetry.
 There are   897 symmetry adapted basis functions of A   symmetry.
   897 basis functions,  1720 primitive gaussians,   897 cartesian basis functions
   214 alpha electrons      214 beta electrons
       nuclear repulsion energy      9753.7729360168 Hartrees.
 IExCor=  402 DFT=T Ex+Corr=B3LYP ExCW=0 ScaHFX=  0.200000
 ScaDFX=  0.800000  0.720000  1.000000  0.810000 ScalE2=  1.000000  1.000000
 IRadAn=      5 IRanWt=     -1 IRanGd=            0 ICorTp=0 IEmpDi=141
 NAtoms=  100 NActive=  100 NUniq=  100 SFac= 1.00D+00 NAtFMM=   60 NAOKFM=T Big=T
 Integral buffers will be    131072 words long.
 Raffenetti 2 integral format.
 Two-electron integral symmetry is turned on.
 R6Disp:  Grimme-D3(BJ) Dispersion energy=       -0.2437513146 Hartrees.
 Nuclear repulsion after empirical dispersion term =     9753.5291847022 Hartrees.
 Force inversion solution in PCM.
 ------------------------------------------------------------------------------
 Polarizable Continuum Model (PCM)
 =================================
 Model                : PCM.
 Atomic radii         : UFF (Universal Force Field).
 Polarization charges : Total charges.
 Charge compensation  : None.
 Solution method      : Matrix inversion.
[...]
 5165,-0.00002558,-0.00001652,0.00001503,0.00002829,-0.00002688,-0.0000
 1003,0.00000955,0.00000307,0.00006287,0.00002258,0.00002111,0.00177868
 ,-0.00062472,-0.00064089,-0.00038466,0.00034196,0.00033156,-0.00088165
 ,0.00052403,-0.00052506,-0.00175096,0.00039804,0.00031950,-0.00069161,
 -0.00012672,0.00014721,-0.00098486,-0.00417839,-0.00141893,-0.00008756
 ,0.00060874,0.00052743,0.00000962,0.00006151,0.00005934,-0.02019070,0.
 00538917,0.01850659,-0.00015375,0.00000035,0.00022422,-0.00065257,-0.0
 0236547,0.00045146,-0.00181280,-0.00044960,0.00081176,0.00005800,-0.00
 000914,0.00003708,-0.00000217,0.00000030,-0.00000328,-0.00000500,0.000
 00500,-0.00001211,-0.00000702,-0.00000514,-0.00000319,0.00003651,-0.00
 002877,0.00003362,-0.00000432,0.00001100,0.00000951,-0.00000348,-0.000
 00032,0.00000089,-0.00000205,0.00000277,-0.00001485,0.00000746,0.00000
 637,-0.00014440,0.00006359,0.00003053,0.00008342,-0.00003726,0.0000250
 9,-0.00001507,-0.00007452,-0.00028705,-0.00008930,-0.00001757,-0.00000
 549,0.00000829,0.00000375,-0.00000044,-0.00000102,0.00000258,-0.000009
 61,-0.00000185,0.00000205,0.00000540,0.00000066,0.00000838,-0.00000774
 ,0.00000317,-0.00000143,0.00000036,0.00000023,0.00000041,0.00000126,-0
 .00000001,-0.00000107,0.00000057,-0.00000178,0.00014134,0.00003288,0.0
 0005965,-0.00012311,-0.00010590,-0.00006715,0.00003323,0.00004706,-0.0
 0003512,0.00000384,0.00002341,-0.00000090,0.00002354,0.00002174,-0.000
 01032,-0.00002175,-0.00002000,-0.00000911,0.00001754,0.00002243,0.0001
 0435,-0.00001532,-0.00001913,-0.00001392,0.00000145,0.00001265,-0.0000
 0484,0.00001278,0.00001520,0.00000690,0.00001222,0.00099143,0.00090661
 ,-0.00011904,-0.00040592,-0.00013128,0.00014559,-0.00028210,-0.0002072
 1,-0.00005704,-0.00013734,-0.00046766,-0.01912916,-0.07963434,0.014586
 78,0.03731482,-0.00745704,-0.03858257,0.00941569,0.07803646,-0.0000113
 7,0.00000612,-0.00000662,0.00000049,-0.00000415,-0.00001118,-0.0000105
 6,-0.00000555,-0.00000919,-0.00000924,-0.00000062,-0.00001970,-0.00001
 474,-0.00000834,-0.00002889,0.00000442,0.00000030,0.00000449,-0.000001
 93,0.00000189,0.00000082,0.00000097,-0.00000057,0.00000066,0.00000207,
 -0.00000061,0.00000212,-0.00000038,0.00000490,-0.00000410,0.00001422,0
 .00000689,0.00002414,0.00000821,-0.00000112,0.00000712,0.00000611,0.00
 000812,0.00001943,0.00002142,-0.00000032,0.00001814,0.00005700,0.00000
 343,0.00004140,-0.00000918,0.00000349,0.00000071,-0.00000241,0.0000024
 8,0.00000779,0.00001229,-0.00000771,0.00000217,0.00003356,-0.00000989,
 0.00001922,-0.00000012,-0.00000237,-0.00001570,0.00000122,-0.00000060,
 0.00000193,-0.00000266,-0.00000025,0.00000249,0.00000041,0.00000078,0.
 00000097,-0.00000672,-0.00000283,-0.00000529,-0.00000373,-0.00000021,0
 .00000177,0.00000373,0.00000177,0.00000139,0.00000271,-0.00000419,-0.0
 0000315,-0.00005053,0.00000999,-0.00001235,-0.00000127,-0.00001613,-0.
 00000207,-0.00000159,0.00000569,-0.00000589,0.00000258,-0.00000221,0.0
 0000170,-0.00004527,0.00011227,-0.00014218,0.00004638,-0.00009556,-0.0
 0003162,0.00000570,0.00035505,-0.00026800,-0.00010284,-0.00001955,-0.0
 0033241,0.00078812,-0.00033048,-0.00009391,-0.00003977,-0.00002647,0.0
 0005351,0.00001158,0.00000889,0.00001615,0.00000477,0.00000162,-0.0000
 3717,-0.00015053,0.00001565,-0.00005905,-0.00010154,0.00003105,-0.0000
 1335,-0.00015716,-0.00006946,0.00015820,0.00041713,0.00018077,-0.00012
 488,-0.00007302,-0.00001005,0.00005570,-0.00019919,-0.00007066,0.00008
 264,-0.00082462,0.00018069,0.00025825,0.00006240,0.00005073,0.00000288
 ,-0.00001739,-0.00003757,0.00000607,-0.00002575,0.00003634,0.00000599,
 -0.00002895,0.00000148,0.00005981,-0.00109179,0.00021264,-0.00005467,0
 .00032084,-0.00006863,-0.00006546,0.00049536,-0.00030614,0.00050335,0.
 00042022,-0.00084511,-0.00054054,-0.00033261,0.00043644,0.00029998,0.0
 0155059,0.00304165,0.00111859,0.00058949,0.00077354,0.00090683,-0.0001
 5067,0.00008121,0.00000434,0.01334594,0.00070019,-0.00702208,-0.000547
 77,-0.00005630,0.00019376,0.00015431,-0.00370669,-0.00110247,-0.001196
 83,0.00131089,0.00038055,-0.00001085,-0.00000420,0.00000225,-0.0000007
 5,-0.00000539,-0.00001359,0.00000350,-0.00000276,0.00000867,-0.0000030
 0,0.00000193,-0.00000408,0.00002315,0.00010151,0.00003443,0.00001959,0
 .00000763,-0.00001621,-0.00002583,-0.00001561,-0.00000804,0.00000845,-
 0.00000693,0.00000481,0.00201293,-0.00017971,-0.00040902,-0.00041526,-
 0.00000942,-0.00011081,-0.00048432,0.00002148,-0.00011253,-0.00129843,
 0.00032211,0.00061942,0.00002990,-0.00001444,-0.00001117,0.00000099,-0
 .00000254,0.00000417,-0.00000531,0.00000162,-0.00000457,-0.00000209,0.
 00000919,0.00000208,-0.00000581,0.00000289,-0.00000503,-0.00000032,-0.
 00000057,0.,0.00000004,0.00000014,-0.00000074,0.00000110,0.00000038,0.
 00000281,-0.00006624,-0.00001723,-0.00007210,0.00005829,0.00005284,0.0
 0008106,-0.00001720,-0.00001237,-0.00000656,0.00000001,-0.00001597,-0.
 00000263,-0.00001984,-0.00001408,0.00000846,0.00001305,0.00000838,0.00
 000811,0.00000021,-0.00002107,-0.00008542,0.00000490,0.00001037,0.0000
 1195,0.00000529,-0.00000618,0.00000681,-0.00000828,-0.00000023,-0.0000
 0247,0.00044342,-0.00022076,-0.00069475,-0.00002742,0.00013348,0.00015
 072,-0.00021434,0.00009810,0.00013899,-0.00000968,0.00001170,0.0003743
 7,0.09190002,0.02125812,-0.17201010,0.03084474,-0.02813138,-0.01798779
 ,-0.14530702,-0.01065612,0.27573231,0.00002197,-0.00000377,0.00000663,
 0.00002710,0.00002147,0.00000059,0.00005836,0.00001844,0.00000026,0.00
 001092,-0.00000549,0.00002529,0.00005452,0.00001613,-0.00000912,-0.000
 00735,-0.00000080,-0.00000345,-0.00000168,-0.00000175,0.00001733,-0.00
 000692,-0.00000464,0.00000284,-0.00002010,-0.00000089,0.00000235,-0.00
 000318,-0.00000340,0.00000537,-0.00004863,-0.00001776,-0.00001944,-0.0
 0005013,0.00000563,0.00000621,-0.00002985,-0.00002746,-0.00001896,-0.0
 0005126,-0.00002831,0.00000558,-0.00010721,-0.00000410,-0.00000835,0.0
 0014578,-0.00003062,-0.00012593,-0.00001484,0.00000734,0.00003948,-0.0
 0006036,0.00003133,0.00000294,-0.00029187,0.00008752,0.00008456,0.0000
 1539,0.00000458,0.00001616,-0.00000374,0.00000261,-0.00000361,-0.00000
 180,-0.00000034,0.00000023,-0.00000095,-0.00000437,-0.00000210,0.00002
 407,0.00003545,-0.00002356,-0.00000268,0.00000083,0.00000771,-0.000007
 59,-0.00000663,-0.00000050,-0.00000569,0.00000659,0.00000033,0.0000877
 3,-0.00002592,-0.00001208,0.00001493,0.00004520,-0.00000825,0.00000764
 ,-0.00003212,0.00000042,-0.00001957,0.00000880,0.00002030,0.00003526,-
 0.00011760,0.00038214,0.00017047,0.00013377,-0.00002044,0.00007319,-0.
 00053675,0.00036876,0.00027415,-0.00001042,0.00020472,0.00029149,-0.00
 021559,0.00014485,0.00024661,-0.00004153,-0.00009446,-0.00003740,-0.00
 001991,-0.00002630,0.00007944,0.00005627,0.00006077,0.00016795,-0.0001
 3444,-0.00005689,-0.00002865,0.00004714,-0.00008394,-0.00005533,0.0001
 7367,-0.00006974,-0.00101278,-0.00040420,0.00052059,-0.00030297,-0.000
 04186,-0.00013907,-0.00011048,-0.00004635,-0.00033603,-0.00010249,0.00
 021854,-0.00064840,0.00002130,-0.00027056,0.00007982,0.00000355,0.0000
 1217,-0.00001180,-0.00001939,0.00003696,0.00000258,-0.00021721,0.00021
 072,-0.00009352,0.00290880,-0.00042582,-0.00110688,-0.00071003,0.00042
 434,0.00061656,-0.00116047,0.00045698,-0.00046621,0.00004578,-0.001035
 10,0.00106885,-0.00056824,-0.00076485,-0.00070586,0.00100817,-0.001732
 71,-0.00074836,-0.00053669,-0.00211533,0.00094180,0.00014762,0.0001923
 5,-0.00009418,-0.02169725,-0.00039414,-0.03445126,-0.00006593,0.000639
 75,-0.00070706,-0.00337151,0.00129169,0.00139845,-0.00015410,0.0004056
 0,-0.00102365,0.00016855,-0.00003967,0.00011828,-0.00000574,0.00000751
 ,-0.00001661,-0.00000997,0.00001573,-0.00002618,-0.00003042,-0.0000179
 6,-0.00001535,0.00010646,0.00007777,0.00010023,-0.00000973,0.00001991,
 0.00002533,-0.00002755,-0.00002320,0.00000148,-0.00000646,-0.00000953,
 -0.00004966,-0.00024623,0.00008105,0.00036752,0.00004975,-0.00002073,0
 .00005438,-0.00002842,0.00007609,-0.00010860,-0.00004408,-0.00009235,-
 0.00003693,0.00012998,-0.00008903,-0.00004966,-0.00002675,0.00001721,-
 0.00001166,0.00000546,-0.00000138,0.00000974,-0.00000507,0.00002296,0.
 00001965,0.00002052,-0.00001288,0.00000652,-0.00000447,0.00000052,0.00
 000142,0.00000098,0.00000100,-0.00000114,-0.00000208,0.00000171,-0.000
 00401,0.00029854,0.00009841,0.00007500,-0.00026355,-0.00026253,-0.0001
 0140,0.00005691,0.00012596,-0.00011506,0.00001431,0.00004400,-0.000004
 48,0.00004089,0.00004206,-0.00002091,-0.00004373,-0.00004496,-0.000013
 03,0.00002742,0.00005678,0.00021363,-0.00003421,-0.00004165,-0.0000268
 7,0.00000906,0.00002879,-0.00000364,0.00002869,0.00003399,0.00001457,-
 0.00075460,0.00187633,0.00176399,-0.00017741,-0.00098650,-0.00035064,0
 .00051599,-0.00055994,-0.00035004,-0.00001888,-0.00030595,-0.00081933,
 -0.15016397,0.01195622,-0.09254749,-0.01968757,0.03665996,-0.02234945,
 0.02172794,-0.00114693,0.00938027,0.17333358,0.00001428,-0.00001432,0.
 00000416,0.00000336,0.00000022,-0.00000021,0.00000805,-0.00000705,0.00
 000066,0.00000450,-0.00000376,0.00000520,0.00001545,0.00000176,0.00000
 302,-0.00000195,0.00000086,-0.00000108,0.00000045,-0.00000133,0.000003
 87,-0.00000238,0.00000050,0.00000029,-0.00000307,0.00000139,0.00000003
 ,-0.00000213,-0.00000649,0.00000475,-0.00000615,0.00000741,-0.00000345
 ,-0.00000930,0.00000666,-0.00000065,-0.00000637,0.00000110,-0.00000573
 ,-0.00002369,0.00001125,-0.00000589,-0.00003022,0.00000976,-0.00000770
 ,0.00000876,-0.00000944,-0.00001891,-0.00000204,0.00000124,0.00000724,
 -0.00000919,0.00000671,-0.00000052,-0.00002477,0.00003295,0.00001066,0
 .00000421,-0.00000014,0.00000419,-0.00000194,0.00000112,-0.00000086,-0
 .00000003,-0.00000073,0.00000039,0.00000053,-0.00000031,-0.00000034,0.
 00000855,-0.00000070,-0.00000034,0.00000080,0.00000095,0.00000123,-0.0
 0000194,-0.00000094,-0.00000101,-0.00000347,0.00000452,0.00000025,0.00
 002601,-0.00002373,0.00000012,0.00000444,0.00001716,-0.00000071,0.0000
 0226,-0.00000724,-0.00000214,-0.00000545,0.00000146,0.00000551,0.00001
 342,-0.00013532,0.00011923,-0.00000766,0.00005296,-0.00001079,-0.00009
 091,-0.00053306,0.00011609,-0.00036902,-0.00004476,-0.00013534,-0.0000
 6401,-0.00005391,0.00003279,0.00004418,0.00003618,-0.00003359,-0.00002
 221,-0.00000599,-0.00001731,0.00002856,0.00002249,0.00003684,-0.000329
 24,-0.00004648,0.00004013,0.00002297,0.00001325,0.00000529,0.00030906,
 0.00025070,0.00003255,-0.00044646,-0.00003786,0.00015412,-0.00001854,0
 .00002925,-0.00002570,0.00000331,0.00008610,-0.00006342,0.00021760,0.0
 0023357,0.00005725,-0.00004545,0.00003682,-0.00003681,0.00001326,0.000
 02107,-0.00002304,-0.00001019,0.00000504,0.00000389,0.00010307,-0.0000
 1718,0.00004481,0.00118471,-0.00046243,-0.00021699,-0.00025162,0.00024
 699,0.00019745,-0.00047889,0.00034177,-0.00031324,-0.00027328,-0.00099
 440,0.00050300,-0.00075455,-0.00008612,0.00008113,0.00029400,-0.000938
 94,-0.00150960,0.00030124,0.00005354,0.00075485,0.00006856,0.00009832,
 -0.00001911,-0.01443788,0.01018584,-0.01249470,-0.00039069,0.00017335,
 -0.00018118,-0.00000188,0.00020951,0.00069701,0.00001078,0.00010673,-0
 .00021324,0.00002965,-0.00000254,0.00001889,-0.00000167,-0.00000156,-0
 .00000280,-0.00000290,0.00000237,-0.00000701,-0.00000196,-0.00000219,-
 0.00000067,0.00002970,-0.00004707,0.00002252,-0.00000785,0.00001136,0.
 00000775,0.00000086,0.00000273,0.00000086,-0.00000240,0.00000597,-0.00
 000936,-0.00005076,-0.00007257,-0.00005025,0.00004682,0.00003730,0.000
 06948,0.00000464,0.00002676,0.00001457,0.00000365,-0.00005975,-0.00011
 040,-0.00004045,0.00000932,0.00001661,0.00000908,-0.00000410,0.0000016
 4,0.00000110,-0.00000952,-0.00000418,0.00000322,0.00000200,-0.00000297
 ,0.00000463,-0.00000584,0.00000186,-0.00000068,0.00000026,-0.00000003,
 0.00000024,0.00000127,0.00000016,-0.00000067,0.00000033,-0.00000097,0.
 00010538,-0.00000108,0.00003904,-0.00011205,-0.00008409,-0.00006124,0.
 00003186,0.00003352,-0.00002762,0.00000025,0.00002254,0.00000295,0.000
 02070,0.00001176,-0.00000797,-0.00001909,-0.00001524,-0.00000694,0.000
 01442,0.00002178,0.00009077,-0.00001138,-0.00001587,-0.00001176,0.0000
 0092,0.00000981,-0.00000468,0.00000999,0.00001224,0.00000534,-0.000039
 98,0.00058469,0.00060812,-0.00004555,-0.00022655,-0.00011678,0.0000959
 6,-0.00016501,-0.00013725,-0.00004181,-0.00007898,-0.00030011,0.011708
 99,-0.07415830,0.01613395,0.04617474,-0.03105573,0.03633182,0.00116775
 ,0.00985393,0.01541851,-0.04367514,0.08647820,0.00001101,0.00000243,0.
 00000191,0.00002250,0.00001633,-0.00000454,0.00004347,0.00001435,-0.00
 000473,0.00000351,-0.00000451,0.00001171,0.00003964,0.00000971,-0.0000
 2456,-0.00000381,-0.00000071,-0.00000049,-0.00000240,-0.00000033,0.000
 01464,-0.00000542,-0.00000450,0.00000265,-0.00001635,-0.00000127,0.000
 00311,-0.00000259,0.00000019,0.00000274,-0.00003354,-0.00001287,-0.000
 00393,-0.00003717,0.00000302,0.00000924,-0.00002122,-0.00001967,-0.000
 00545,-0.00003125,-0.00002855,0.00001602,-0.00006376,-0.00000215,0.000
 01705,0.00012153,-0.00002366,-0.00011169,-0.00001394,0.00000770,0.0000
 3851,-0.00004599,0.00002255,0.00000426,-0.00023897,0.00006829,0.000084
 54,0.00001198,0.00000269,0.00000512,-0.00000218,0.00000168,-0.00000196
 ,-0.00000284,-0.00000026,0.00000132,-0.00000074,-0.00000326,-0.0000013
 3,0.00001614,0.00003115,-0.00002481,-0.00000474,0.00000035,0.00000775,
 -0.00000454,-0.00000493,0.00000088,-0.00000285,0.00000278,-0.00000137,
 0.00005032,-0.00001847,-0.00001990,0.00001304,0.00003158,-0.00000911,0
 .00000603,-0.00002570,-0.00000272,-0.00001722,0.00000795,0.00002004,0.
 00001052,-0.00003423,0.00024806,0.00016020,0.00007391,-0.00002369,0.00
 006517,-0.00028026,0.00022045,0.00026912,-0.00001059,0.00007988,0.0005
 1329,-0.00026818,0.00008222,0.00019592,-0.00004863,-0.00006472,-0.0000
 2201,-0.00001412,-0.00001595,0.00005923,0.00004965,0.00003099,0.000119
 76,-0.00010796,-0.00004907,-0.00006332,0.00004862,-0.00007821,-0.00015
 315,0.00008727,-0.00000790,-0.00080435,-0.00034363,0.00048956,-0.00027
 640,-0.00004536,-0.00009494,-0.00015496,-0.00008271,-0.00024292,-0.000
 45037,0.00020479,-0.00051161,0.00005335,-0.00022245,0.00006489,-0.0000
 0723,-0.00000661,-0.00000265,-0.00002472,0.00004463,0.00000469,-0.0002
 1938,0.00018676,-0.00006413,0.00204608,-0.00049889,-0.00108440,-0.0004
 5739,0.00036336,0.00054788,-0.00081690,0.00029929,-0.00022446,-0.00107
 386,-0.00127588,0.00080019,-0.00072799,0.00007761,0.00003595,0.0002512
 9,-0.00185719,-0.00195727,0.00016218,-0.00070846,0.00042122,0.00006318
 ,0.00012694,-0.00005853,-0.02143349,0.00181216,-0.01096389,-0.00017541
 ,0.00044133,-0.00058535,-0.00081993,0.00013808,0.00133319,-0.00000208,
 0.00062977,-0.00043584,0.00013405,-0.00003369,0.00009622,-0.00000451,0
 .00000416,-0.00001910,-0.00000739,0.00001178,-0.00001748,-0.00002646,-
 0.00001408,-0.00001454,0.00008844,0.00011388,0.00008663,0.00000146,0.0
 0001460,0.00001309,-0.00003187,-0.00002511,-0.00000093,-0.00000103,-0.
 00001235,-0.00003625,0.00038410,0.00003318,0.00023659,-0.00008444,-0.0
 0003708,-0.00000565,-0.00013918,0.00006467,-0.00012918,-0.00017168,0.0
 0010541,0.00053608,0.00013125,-0.00008552,-0.00005235,-0.00002420,0.00
 001472,-0.00000788,0.00000204,0.00000038,0.00000656,-0.00000516,0.0000
 2405,0.00001779,0.00001377,-0.00000858,0.00000248,-0.00000397,0.000000
 09,0.00000117,0.00000086,0.00000075,-0.00000142,-0.00000112,0.00000163
 ,-0.00000168,0.00020499,0.00008333,0.00003253,-0.00016927,-0.00018254,
 -0.00003734,0.00003116,0.00009748,-0.00009333,0.00001295,0.00002305,-0
 .00000693,0.00002181,0.00003216,-0.00001388,-0.00002613,-0.00003227,-0
 .00000733,0.00001844,0.00003300,0.00012496,-0.00002354,-0.00002727,-0.
 00001585,0.00000926,0.00001910,0.00000065,0.00001801,0.00002473,0.0000
 0878,-0.00037725,0.00138014,0.00092944,-0.00013795,-0.00064564,-0.0001
 4916,0.00030294,-0.00039271,-0.00020911,-0.00002189,-0.00024142,-0.000
 49841,-0.09228983,0.01643525,-0.17789915,-0.01723645,0.02446655,0.0025
 8051,-0.00662121,0.01540951,-0.07988699,0.13995506,-0.05550625,0.26651
 189\\0.00000045,-0.00000090,0.00000388,0.00000046,-0.00000197,0.000004
 09,-0.00000077,-0.00000226,0.00000459,0.00000004,-0.00000080,0.0000020
 1,0.00000217,0.00000161,0.00000319,-0.00000140,-0.00000410,0.00000452,
 -0.00000167,-0.00000250,0.00000393,0.00000223,-0.00000014,0.00000508,0
 .00000050,-0.00000081,0.00000248,0.00000034,-0.00000046,0.00000193,-0.
 00000089,-0.00000231,0.00000244,0.00000051,-0.00000283,0.00000526,0.00
 000014,-0.00000235,0.00000602,0.00000229,-0.00000034,0.00000573,0.0000
 0199,-0.00000122,0.00000218,-0.00000032,0.00000001,0.00000158,0.000000
 15,0.00000034,-0.00000062,-0.00000122,-0.00000119,-0.00000003,0.000001
 34,-0.00000138,-0.00000081,0.00000045,-0.00000414,0.00000702,-0.000000
 89,-0.00000455,0.00000711,-0.00000123,-0.00000421,0.00000644,0.0000001
 3,-0.00000382,0.00000830,0.00000345,-0.00000008,0.00000511,0.00000392,
 0.00000085,0.00000552,0.00000296,-0.00000007,0.00000702,0.00000244,0.0
 0000135,0.00000545,0.00000263,0.00000165,0.00000024,0.00000187,0.00000
 330,0.00000134,0.00000229,0.00000173,-0.00000099,0.00000337,0.00000310
 ,0.00000056,-0.00000076,-0.00000173,-0.00000216,-0.00000327,-0.0000020
 3,-0.00000128,-0.00000354,0.00000150,-0.00000237,-0.00000231,0.0000008
 6,-0.00000659,-0.00000269,-0.00000047,-0.00000558,0.00000034,0.0000016
 9,-0.00000036,-0.00000081,-0.00000180,-0.00000218,-0.00000084,-0.00000
 001,-0.00000172,-0.00000049,0.00000221,-0.00000562,-0.00000246,-0.0000
 0063,-0.00000421,0.,0.00000093,-0.00000306,0.00000350,0.00000388,0.000
 00122,-0.00000110,-0.00000114,-0.00000034,-0.00000199,-0.00000140,-0.0
 0000193,-0.00000118,0.00000037,-0.00000528,-0.00000445,0.00000307,-0.0
 0000284,-0.00000331,0.00000116,-0.00000751,-0.00000151,0.00000145,-0.0
 0000625,-0.00000228,-0.00000348,-0.00000625,0.00000063,0.00000182,-0.0
 0000008,0.00000301,0.00000409,-0.00000246,0.00000350,0.00000155,-0.000
 00049,0.00000234,0.00000355,-0.00000229,0.00000072,0.00000151,-0.00000
 187,0.00000136,0.00000392,-0.00000328,0.00000065,0.00000233,-0.0000019
 0,0.00000165,0.00000181,0.00000013,0.00000104,0.00000279,-0.00000507,0
 .00000174,0.00000384,-0.00000451,0.00000067,0.00000357,-0.00000283,0.0
 0000093,0.00000282,-0.00000455,-0.00000174,-0.00000249,0.00000006,-0.0
 0000303,-0.00000214,-0.00000009,-0.00000295,-0.00000353,-0.00000011,-0
 .00000166,-0.00000300,0.00000222,-0.00000332,-0.00000222,-0.00000098,-
 0.00000081,-0.00000114,-0.00000037,-0.00000179,-0.00000297,0.00000068,
 -0.00000299,-0.00000304,-0.00000109,-0.00000148,0.00000075,-0.00000435
 ,-0.00000223,-0.00000071,-0.00000374,-0.00000335,-0.00000072,-0.000005
 58,-0.00000267,0.00000084,-0.00000593,-0.00000182,0.00000235,-0.000005
 46,-0.00000390,-0.00000103,-0.00000518,-0.00000153,-0.00000456,-0.0000
 0221,-0.00000244,0.00000030,-0.00000532,-0.00000089,-0.00000334,0.0000
 0545,0.00000028,-0.00000291,0.00000609,-0.00000058,-0.00000273,0.00000
 402,-0.00000120,-0.00000423,0.00000571,-0.00000082,0.00000105,0.000001
 33,0.00000305,0.00000130,0.00000162,0.00000254,0.00000071,0.00000421,0
 .00000303,0.00000151,0.00000271,0.00000404,0.00000194,0.00000300,0.000
 00336,0.00000081,0.00000458,-0.00000030,-0.00000148,0.00000386,0.00000
 088,-0.00000113,0.00000442,0.00000019,-0.00000096,0.00000253,0.0000007
 4,-0.00000058,0.00000251,0.00000177,0.00000140,-0.00000236,0.00000162,
 0.00000144,0.00000051,0.00000080,0.00000216,-0.00000179,-0.00000073,0.
 00000060,-0.00000071,-0.00000021,0.00000554,-0.00000586,0.00000058,0.0
 0000391,-0.00000713,0.00000047,0.00000353,-0.00000762,0.00000227,0.000
 00521,-0.00000667\\\@


 ERWIN WITH HIS PSI CAN DO
 CALCULATIONS QUITE A FEW.
 BUT ONE THING HAS NOT BEEN SEEN
 JUST WHAT DOES PSI REALLY MEAN.
 -- WALTER HUCKEL, TRANS. BY FELIX BLOCH
 Job cpu time:       4 days 18 hours 39 minutes 33.7 seconds.
 Elapsed time:       0 days  3 hours 46 minutes 43.8 seconds.
 File lengths (MBytes):  RWF=   9721 Int=      0 D2E=      0 Chk=     85 Scr=      1
 Normal termination of Gaussian 16 at Fri May 31 02:25:17 2019.
