 Entering Gaussian System, Link 0=g16
 Input=clay_new-glu_gluC6-CCDR-Na3_1Me2O-bisCF3-ts-b3lyp_d3bj-631gd-pcm_thf.gjf
 Output=clay_new-glu_gluC6-CCDR-Na3_1Me2O-bisCF3-ts-b3lyp_d3bj-631gd-pcm_thf.out
 Initial command:
 /home/ekwan/sw/g16/l1.exe "/scratch/users/ekwan/clay_new-glu_gluC6-CCDR-Na3_1Me2O-bisCF3-ts-b3lyp_d3bj-631gd-pcm_thf/Gau-16245.inp" -scrdir="/scratch/users/ekwan/clay_new-glu_gluC6-CCDR-Na3_1Me2O-bisCF3-ts-b3lyp_d3bj-631gd-pcm_thf/"
 Entering Link 1 = /home/ekwan/sw/g16/l1.exe PID=     16246.
  
 Copyright (c) 1988,1990,1992,1993,1995,1998,2003,2009,2016,
            Gaussian, Inc.  All Rights Reserved.
  
 This is part of the Gaussian(R) 16 program.  It is based on
 the Gaussian(R) 09 system (copyright 2009, Gaussian, Inc.),
 the Gaussian(R) 03 system (copyright 2003, Gaussian, Inc.),
 the Gaussian(R) 98 system (copyright 1998, Gaussian, Inc.),
 the Gaussian(R) 94 system (copyright 1995, Gaussian, Inc.),
 the Gaussian 92(TM) system (copyright 1992, Gaussian, Inc.),
 the Gaussian 90(TM) system (copyright 1990, Gaussian, Inc.),
 the Gaussian 88(TM) system (copyright 1988, Gaussian, Inc.),
 the Gaussian 86(TM) system (copyright 1986, Carnegie Mellon
 University), and the Gaussian 82(TM) system (copyright 1983,
 Carnegie Mellon University). Gaussian is a federally registered
 trademark of Gaussian, Inc.
  
 This software contains proprietary and confidential information,
 including trade secrets, belonging to Gaussian, Inc.
  
 This software is provided under written license and may be
 used, copied, transmitted, or stored only in accord with that
 written license.
  
 The following legend is applicable only to US Government
 contracts under FAR:
  
                    RESTRICTED RIGHTS LEGEND
  
 Use, reproduction and disclosure by the US Government is
 subject to restrictions as set forth in subparagraphs (a)
 and (c) of the Commercial Computer Software - Restricted
 Rights clause in FAR 52.227-19.
  
 Gaussian, Inc.
 340 Quinnipiac St., Bldg. 40, Wallingford CT 06492
  
  
 ---------------------------------------------------------------
 Warning -- This program may not be used in any manner that
 competes with the business of Gaussian, Inc. or will provide
 assistance to any competitor of Gaussian, Inc.  The licensee
 of this program is prohibited from giving any competitor of
 Gaussian, Inc. access to this program.  By using this program,
 the user acknowledges that Gaussian, Inc. is engaged in the
 business of creating and licensing software in the field of
 computational chemistry and represents and warrants to the
 licensee that it is not a competitor of Gaussian, Inc. and that
 it will not use this program in any manner prohibited above.
 ---------------------------------------------------------------
  

 Cite this work as:
 Gaussian 16, Revision A.03,
 M. J. Frisch, G. W. Trucks, H. B. Schlegel, G. E. Scuseria, 
 M. A. Robb, J. R. Cheeseman, G. Scalmani, V. Barone, 
 G. A. Petersson, H. Nakatsuji, X. Li, M. Caricato, A. V. Marenich, 
 J. Bloino, B. G. Janesko, R. Gomperts, B. Mennucci, H. P. Hratchian, 
 J. V. Ortiz, A. F. Izmaylov, J. L. Sonnenberg, D. Williams-Young, 
 F. Ding, F. Lipparini, F. Egidi, J. Goings, B. Peng, A. Petrone, 
 T. Henderson, D. Ranasinghe, V. G. Zakrzewski, J. Gao, N. Rega, 
 G. Zheng, W. Liang, M. Hada, M. Ehara, K. Toyota, R. Fukuda, 
 J. Hasegawa, M. Ishida, T. Nakajima, Y. Honda, O. Kitao, H. Nakai, 
 T. Vreven, K. Throssell, J. A. Montgomery, Jr., J. E. Peralta, 
 F. Ogliaro, M. J. Bearpark, J. J. Heyd, E. N. Brothers, K. N. Kudin, 
 V. N. Staroverov, T. A. Keith, R. Kobayashi, J. Normand, 
 K. Raghavachari, A. P. Rendell, J. C. Burant, S. S. Iyengar, 
 J. Tomasi, M. Cossi, J. M. Millam, M. Klene, C. Adamo, R. Cammi, 
 J. W. Ochterski, R. L. Martin, K. Morokuma, O. Farkas, 
 J. B. Foresman, and D. J. Fox, Gaussian, Inc., Wallingford CT, 2016.
 
 ******************************************
 Gaussian 16:  AS64L-G16RevA.03 25-Dec-2016
                28-May-2019 
 ******************************************
 %mem=48GB
 %nprocshared=32
 Will use up to   32 processors via shared memory.
 ----------------------------------------------------------------------
 #p opt=(ts,noeigentest,calcfc,maxstep=5,modredundant,recalc=30) freq=n
 oraman b3lyp 6-31g* pop=none scrf=(solvent=tetrahydrofuran,pcm) empiri
 caldispersion=gd3bj
 ----------------------------------------------------------------------
 1/5=1,8=5,10=4,11=1,18=120,26=3,38=1,71=30/1,3;
 2/9=110,12=2,17=6,18=5,40=1/2;
 3/5=1,6=6,7=1,11=2,25=1,30=1,70=2201,71=2,72=20,74=-5,124=41,140=1/1,2,3;
 4//1;
 5/5=2,38=5,53=20/2;
 8/6=4,10=90,11=11/1;
 11/6=1,8=1,9=11,15=111,16=1/1,2,10;
 10/6=1,13=1/2;
 7/10=1,18=20,25=1/1,2,3,16;
 1/5=1,8=5,10=4,11=1,18=20,26=3,71=30/3(2);
 2/9=110/2;
 99//99;
 2/9=110/2;
 3/5=1,6=6,7=1,11=2,25=1,30=1,70=2205,71=1,72=20,74=-5,124=41/1,2,3;
 4/5=5,16=3,69=1/1;
 5/5=2,38=5,53=20/2;
 7//1,2,3,16;
 1/5=1,8=5,11=1,18=20,26=3,71=30/3(-5);
 2/9=110/2;
 99/9=1/99;
 Leave Link    1 at Tue May 28 23:47:56 2019, MaxMem=  6442450944 cpu:               5.6 elap:               0.2
 (Enter /home/ekwan/sw/g16/l101.exe)
 -----
 title
 -----
 Symbolic Z-matrix:
 Charge =  0 Multiplicity = 1
 C                    -3.11132  -2.42875   0.73889 
 C                    -2.61246  -2.17928  -0.68377 
 C                    -3.47048  -1.13452  -1.4039 
 C                    -4.1014   -0.1064    0.67339 
 C                    -3.26231  -1.10461   1.48264 
 H                    -3.00657  -0.84207  -2.35377 
 H                    -1.60252  -1.76221  -0.61123 
 H                    -4.08602  -2.93263   0.70327 
 H                    -5.12015  -0.50754   0.5702 
 H                    -2.26929  -0.68042   1.64265 
 O                    -3.52748   0.0535   -0.64578 
 O                    -4.74278  -1.6927   -1.63528 
 O                    -2.58607  -3.40803  -1.40457 
 O                    -2.17107  -3.24872   1.4367 
 O                    -3.89252  -1.3513    2.73903 
 C                    -4.16291   1.29791   1.30576 
 H                    -4.79232   1.16795   2.22224 
 H                    -4.81451   1.88375   0.60594 
 O                    -2.9468    1.86228   1.53462 
 C                    -1.38989  -3.60975  -2.13486 
 H                    -1.20348  -2.79391  -2.84821 
 H                    -0.52507  -3.70394  -1.46382 
 H                    -1.50578  -4.54337  -2.69175 
 C                    -2.52155  -4.62251   1.48436 
 H                    -3.47255  -4.77032   2.01698 
 H                    -2.60385  -5.05281   0.48054 
 H                    -1.7265   -5.13275   2.03604 
 C                    -3.26405  -0.65559   3.81008 
 H                    -2.27826  -1.08585   4.03043 
 H                    -3.13027   0.40591   3.5706 
 H                    -3.91109  -0.76573   4.68591 
 C                     1.36018   2.15853   1.53622 
 C                    -0.12461   2.32153   1.23704 
 C                    -0.62567   1.23019   0.32003 
 C                     1.02455  -0.3426    1.18172 
 C                     1.60726   0.75508   2.07892 
 H                    -1.65847   1.30535   0.00263 
 H                    -0.72216   2.16891   2.14303 
 H                     1.93114   2.30133   0.6119 
 H                     1.70882  -0.48393   0.35204 
 H                     1.15612   0.69387   3.07291 
 O                    -0.26521  -0.01137   0.57587 
 O                     0.81      1.93662  -3.54023 
 O                    -0.39767   3.6056    0.70123 
 O                     1.7466    3.12155   2.50326 
 O                     3.00625   0.50053   2.14365 
 C                     0.85773  -1.67422   1.88869 
 H                     1.85513  -2.12834   1.9955 
 H                     0.24053  -2.34137   1.2741 
 O                     0.26766  -1.46662   3.15568 
 S                     0.42474   0.97448  -2.49266 
 O                    -0.68467   0.05242  -2.76061 
 O                     0.21004   1.80581  -1.18739 
 C                     1.85717  -0.00441  -2.0507 
 C                     1.75682  -1.38832  -2.04272 
 C                     2.98448   0.64993  -1.55142 
 C                     2.80033  -2.13357  -1.48753 
 H                     0.86022  -1.86665  -2.4146 
 C                     4.00512  -0.1064   -0.98505 
 H                     3.0376    1.73139  -1.55163 
 C                     3.91753  -1.50111  -0.94826 
 H                     4.70103  -2.08441  -0.48019 
 C                    -1.25671   4.39909   1.54326 
 H                    -2.17739   3.83489   1.73135 
 H                    -0.73553   4.64208   2.47598 
 H                    -1.45866   5.32064   0.99197 
 C                     2.98275   3.76021   2.20732 
 H                     3.78912   3.03152   2.07313 
 H                     2.90163   4.37414   1.29801 
 H                     3.21147   4.4101    3.05521 
 C                     3.49578   0.20119   3.44536 
 H                     3.37543   1.05756   4.12059 
 H                     2.98262  -0.66873   3.87481 
 H                     4.5578   -0.02283   3.32613 
 C                     0.07849  -2.68529   3.85971 
 H                    -0.3219   -2.42573   4.84228 
 H                    -0.63452  -3.32844   3.33288 
 H                     1.03248  -3.21873   3.98866 
 C                    -5.58239  -0.84587  -2.40729 
 H                    -6.50756  -1.39721  -2.59012 
 H                    -5.8105    0.08702  -1.8784 
 H                    -5.11173  -0.59768  -3.37034 
 Na                   -0.16283   4.06333  -1.54756 
 O                    -2.40922   4.19247  -2.01181 
 C                    -3.08223   2.9788   -1.63706 
 H                    -4.10015   2.97123  -2.04713 
 H                    -2.52094   2.15216  -2.07226 
 H                    -3.10654   2.86154  -0.54608 
 C                    -3.15416   5.34364  -1.63857 
 H                    -3.3487    5.35641  -0.55759 
 H                    -2.5657    6.22252  -1.9147 
 H                    -4.11511   5.37223  -2.16992 
 C                     2.62813  -3.62208  -1.35034 
 F                     2.0233   -4.15513  -2.43191 
 F                     1.84273  -3.91581  -0.28064 
 F                     3.79927  -4.25896  -1.17062 
 C                     5.20359   0.57873  -0.3816 
 F                     5.6342   -0.06035   0.72493 
 F                     4.93009   1.85684  -0.04213 
 F                     6.24093   0.61155  -1.24823 
 
 Add virtual bond connecting atoms O53        and C34        Dist= 3.43D+00.
 Add virtual bond connecting atoms H37        and O19        Dist= 3.93D+00.
 Add virtual bond connecting atoms H64        and O19        Dist= 4.02D+00.
 Add virtual bond connecting atoms Na83       and O44        Dist= 4.36D+00.
 Add virtual bond connecting atoms Na83       and O53        Dist= 4.38D+00.
 Add virtual bond connecting atoms H88        and H18        Dist= 4.31D+00.
 Add virtual bond connecting atoms H88        and O19        Dist= 4.37D+00.
 Add virtual bond connecting atoms H88        and H37        Dist= 4.15D+00.
 The following ModRedundant input section has been read:
 
 ITRead=  0  0  0  0  0  0  0  0  0  0  0  0  0  0  0  0  0  0  0  0
 ITRead=  0  0  0  0  0  0  0  0  0  0  0  0  0  0  0  0  0  0  0  0
 ITRead=  0  0  0  0  0  0  0  0  0  0  0  0  0  0  0  0  0  0  0  0
 ITRead=  0  0  0  0  0  0  0  0  0  0  0  0  0  0  0  0  0  0  0  0
 ITRead=  0  0  0  0  0  0  0  0  0  0  0  0  0  0  0  0  0  0  0  0
 MicOpt= -1 -1 -1 -1 -1 -1 -1 -1 -1 -1 -1 -1 -1 -1 -1 -1 -1 -1 -1 -1
 MicOpt= -1 -1 -1 -1 -1 -1 -1 -1 -1 -1 -1 -1 -1 -1 -1 -1 -1 -1 -1 -1
 MicOpt= -1 -1 -1 -1 -1 -1 -1 -1 -1 -1 -1 -1 -1 -1 -1 -1 -1 -1 -1 -1
 MicOpt= -1 -1 -1 -1 -1 -1 -1 -1 -1 -1 -1 -1 -1 -1 -1 -1 -1 -1 -1 -1
 MicOpt= -1 -1 -1 -1 -1 -1 -1 -1 -1 -1 -1 -1 -1 -1 -1 -1 -1 -1 -1 -1
 NAtoms=    100 NQM=      100 NQMF=       0 NMMI=      0 NMMIF=      0
                NMic=       0 NMicF=      0.
                    Isotopes and Nuclear Properties:
 (Nuclear quadrupole moments (NQMom) in fm**2, nuclear magnetic moments (NMagM)
  in nuclear magnetons)

  Atom         1           2           3           4           5           6           7           8           9          10
 IAtWgt=          12          12          12          12          12           1           1           1           1           1
 AtmWgt=  12.0000000  12.0000000  12.0000000  12.0000000  12.0000000   1.0078250   1.0078250   1.0078250   1.0078250   1.0078250
 NucSpn=           0           0           0           0           0           1           1           1           1           1
 AtZEff=   0.0000000   0.0000000   0.0000000   0.0000000   0.0000000   0.0000000   0.0000000   0.0000000   0.0000000   0.0000000
 NQMom=    0.0000000   0.0000000   0.0000000   0.0000000   0.0000000   0.0000000   0.0000000   0.0000000   0.0000000   0.0000000
 NMagM=    0.0000000   0.0000000   0.0000000   0.0000000   0.0000000   2.7928460   2.7928460   2.7928460   2.7928460   2.7928460
 AtZNuc=   6.0000000   6.0000000   6.0000000   6.0000000   6.0000000   1.0000000   1.0000000   1.0000000   1.0000000   1.0000000

  Atom        11          12          13          14          15          16          17          18          19          20
 IAtWgt=          16          16          16          16          16          12           1           1          16          12
 AtmWgt=  15.9949146  15.9949146  15.9949146  15.9949146  15.9949146  12.0000000   1.0078250   1.0078250  15.9949146  12.0000000
 NucSpn=           0           0           0           0           0           0           1           1           0           0
 AtZEff=   0.0000000   0.0000000   0.0000000   0.0000000   0.0000000   0.0000000   0.0000000   0.0000000   0.0000000   0.0000000
 NQMom=    0.0000000   0.0000000   0.0000000   0.0000000   0.0000000   0.0000000   0.0000000   0.0000000   0.0000000   0.0000000
 NMagM=    0.0000000   0.0000000   0.0000000   0.0000000   0.0000000   0.0000000   2.7928460   2.7928460   0.0000000   0.0000000
 AtZNuc=   8.0000000   8.0000000   8.0000000   8.0000000   8.0000000   6.0000000   1.0000000   1.0000000   8.0000000   6.0000000

  Atom        21          22          23          24          25          26          27          28          29          30
 IAtWgt=           1           1           1          12           1           1           1          12           1           1
 AtmWgt=   1.0078250   1.0078250   1.0078250  12.0000000   1.0078250   1.0078250   1.0078250  12.0000000   1.0078250   1.0078250
 NucSpn=           1           1           1           0           1           1           1           0           1           1
 AtZEff=   0.0000000   0.0000000   0.0000000   0.0000000   0.0000000   0.0000000   0.0000000   0.0000000   0.0000000   0.0000000
 NQMom=    0.0000000   0.0000000   0.0000000   0.0000000   0.0000000   0.0000000   0.0000000   0.0000000   0.0000000   0.0000000
 NMagM=    2.7928460   2.7928460   2.7928460   0.0000000   2.7928460   2.7928460   2.7928460   0.0000000   2.7928460   2.7928460
 AtZNuc=   1.0000000   1.0000000   1.0000000   6.0000000   1.0000000   1.0000000   1.0000000   6.0000000   1.0000000   1.0000000

  Atom        31          32          33          34          35          36          37          38          39          40
 IAtWgt=           1          12          12          12          12          12           1           1           1           1
 AtmWgt=   1.0078250  12.0000000  12.0000000  12.0000000  12.0000000  12.0000000   1.0078250   1.0078250   1.0078250   1.0078250
 NucSpn=           1           0           0           0           0           0           1           1           1           1
 AtZEff=   0.0000000   0.0000000   0.0000000   0.0000000   0.0000000   0.0000000   0.0000000   0.0000000   0.0000000   0.0000000
 NQMom=    0.0000000   0.0000000   0.0000000   0.0000000   0.0000000   0.0000000   0.0000000   0.0000000   0.0000000   0.0000000
 NMagM=    2.7928460   0.0000000   0.0000000   0.0000000   0.0000000   0.0000000   2.7928460   2.7928460   2.7928460   2.7928460
 AtZNuc=   1.0000000   6.0000000   6.0000000   6.0000000   6.0000000   6.0000000   1.0000000   1.0000000   1.0000000   1.0000000

  Atom        41          42          43          44          45          46          47          48          49          50
 IAtWgt=           1          16          16          16          16          16          12           1           1          16
 AtmWgt=   1.0078250  15.9949146  15.9949146  15.9949146  15.9949146  15.9949146  12.0000000   1.0078250   1.0078250  15.9949146
 NucSpn=           1           0           0           0           0           0           0           1           1           0
 AtZEff=   0.0000000   0.0000000   0.0000000   0.0000000   0.0000000   0.0000000   0.0000000   0.0000000   0.0000000   0.0000000
 NQMom=    0.0000000   0.0000000   0.0000000   0.0000000   0.0000000   0.0000000   0.0000000   0.0000000   0.0000000   0.0000000
 NMagM=    2.7928460   0.0000000   0.0000000   0.0000000   0.0000000   0.0000000   0.0000000   2.7928460   2.7928460   0.0000000
 AtZNuc=   1.0000000   8.0000000   8.0000000   8.0000000   8.0000000   8.0000000   6.0000000   1.0000000   1.0000000   8.0000000

  Atom        51          52          53          54          55          56          57          58          59          60
 IAtWgt=          32          16          16          12          12          12          12           1          12           1
 AtmWgt=  31.9720718  15.9949146  15.9949146  12.0000000  12.0000000  12.0000000  12.0000000   1.0078250  12.0000000   1.0078250
 NucSpn=           0           0           0           0           0           0           0           1           0           1
 AtZEff=   0.0000000   0.0000000   0.0000000   0.0000000   0.0000000   0.0000000   0.0000000   0.0000000   0.0000000   0.0000000
 NQMom=    0.0000000   0.0000000   0.0000000   0.0000000   0.0000000   0.0000000   0.0000000   0.0000000   0.0000000   0.0000000
 NMagM=    0.0000000   0.0000000   0.0000000   0.0000000   0.0000000   0.0000000   0.0000000   2.7928460   0.0000000   2.7928460
 AtZNuc=  16.0000000   8.0000000   8.0000000   6.0000000   6.0000000   6.0000000   6.0000000   1.0000000   6.0000000   1.0000000

  Atom        61          62          63          64          65          66          67          68          69          70
 IAtWgt=          12           1          12           1           1           1          12           1           1           1
 AtmWgt=  12.0000000   1.0078250  12.0000000   1.0078250   1.0078250   1.0078250  12.0000000   1.0078250   1.0078250   1.0078250
 NucSpn=           0           1           0           1           1           1           0           1           1           1
 AtZEff=   0.0000000   0.0000000   0.0000000   0.0000000   0.0000000   0.0000000   0.0000000   0.0000000   0.0000000   0.0000000
 NQMom=    0.0000000   0.0000000   0.0000000   0.0000000   0.0000000   0.0000000   0.0000000   0.0000000   0.0000000   0.0000000
 NMagM=    0.0000000   2.7928460   0.0000000   2.7928460   2.7928460   2.7928460   0.0000000   2.7928460   2.7928460   2.7928460
 AtZNuc=   6.0000000   1.0000000   6.0000000   1.0000000   1.0000000   1.0000000   6.0000000   1.0000000   1.0000000   1.0000000

  Atom        71          72          73          74          75          76          77          78          79          80
 IAtWgt=          12           1           1           1          12           1           1           1          12           1
 AtmWgt=  12.0000000   1.0078250   1.0078250   1.0078250  12.0000000   1.0078250   1.0078250   1.0078250  12.0000000   1.0078250
 NucSpn=           0           1           1           1           0           1           1           1           0           1
 AtZEff=   0.0000000   0.0000000   0.0000000   0.0000000   0.0000000   0.0000000   0.0000000   0.0000000   0.0000000   0.0000000
 NQMom=    0.0000000   0.0000000   0.0000000   0.0000000   0.0000000   0.0000000   0.0000000   0.0000000   0.0000000   0.0000000
 NMagM=    0.0000000   2.7928460   2.7928460   2.7928460   0.0000000   2.7928460   2.7928460   2.7928460   0.0000000   2.7928460
 AtZNuc=   6.0000000   1.0000000   1.0000000   1.0000000   6.0000000   1.0000000   1.0000000   1.0000000   6.0000000   1.0000000

  Atom        81          82          83          84          85          86          87          88          89          90
 IAtWgt=           1           1          23          16          12           1           1           1          12           1
 AtmWgt=   1.0078250   1.0078250  22.9897697  15.9949146  12.0000000   1.0078250   1.0078250   1.0078250  12.0000000   1.0078250
 NucSpn=           1           1           3           0           0           1           1           1           0           1
 AtZEff=   0.0000000   0.0000000   0.0000000   0.0000000   0.0000000   0.0000000   0.0000000   0.0000000   0.0000000   0.0000000
 NQMom=    0.0000000   0.0000000  10.4000000   0.0000000   0.0000000   0.0000000   0.0000000   0.0000000   0.0000000   0.0000000
 NMagM=    2.7928460   2.7928460   2.2175200   0.0000000   0.0000000   2.7928460   2.7928460   2.7928460   0.0000000   2.7928460
 AtZNuc=   1.0000000   1.0000000  11.0000000   8.0000000   6.0000000   1.0000000   1.0000000   1.0000000   6.0000000   1.0000000

  Atom        91          92          93          94          95          96          97          98          99         100
 IAtWgt=           1           1          12          19          19          19          12          19          19          19
 AtmWgt=   1.0078250   1.0078250  12.0000000  18.9984033  18.9984033  18.9984033  12.0000000  18.9984033  18.9984033  18.9984033
 NucSpn=           1           1           0           1           1           1           0           1           1           1
 AtZEff=   0.0000000   0.0000000   0.0000000   0.0000000   0.0000000   0.0000000   0.0000000   0.0000000   0.0000000   0.0000000
 NQMom=    0.0000000   0.0000000   0.0000000   0.0000000   0.0000000   0.0000000   0.0000000   0.0000000   0.0000000   0.0000000
 NMagM=    2.7928460   2.7928460   0.0000000   2.6288670   2.6288670   2.6288670   0.0000000   2.6288670   2.6288670   2.6288670
 AtZNuc=   1.0000000   1.0000000   6.0000000   9.0000000   9.0000000   9.0000000   6.0000000   9.0000000   9.0000000   9.0000000
 Leave Link  101 at Tue May 28 23:47:56 2019, MaxMem=  6442450944 cpu:              17.3 elap:               0.7
 (Enter /home/ekwan/sw/g16/l103.exe)

 GradGradGradGradGradGradGradGradGradGradGradGradGradGradGradGradGradGrad
 Berny optimization.
 Initialization pass.
                           ----------------------------
                           !    Initial Parameters    !
                           ! (Angstroms and Degrees)  !
 --------------------------                            --------------------------
 ! Name  Definition              Value          Derivative Info.                !
 --------------------------------------------------------------------------------
 ! R1    R(1,2)                  1.5281         calculate D2E/DX2 analytically  !
 ! R2    R(1,5)                  1.5262         calculate D2E/DX2 analytically  !
 ! R3    R(1,8)                  1.0978         calculate D2E/DX2 analytically  !
 ! R4    R(1,14)                 1.4295         calculate D2E/DX2 analytically  !
 ! R5    R(2,3)                  1.5318         calculate D2E/DX2 analytically  !
 ! R6    R(2,7)                  1.0951         calculate D2E/DX2 analytically  !
 ! R7    R(2,13)                 1.4248         calculate D2E/DX2 analytically  !
 ! R8    R(3,6)                  1.0968         calculate D2E/DX2 analytically  !
 ! R9    R(3,11)                 1.4105         calculate D2E/DX2 analytically  !
 ! R10   R(3,12)                 1.4085         calculate D2E/DX2 analytically  !
 ! R11   R(4,5)                  1.5347         calculate D2E/DX2 analytically  !
 ! R12   R(4,9)                  1.0997         calculate D2E/DX2 analytically  !
 ! R13   R(4,11)                 1.4475         calculate D2E/DX2 analytically  !
 ! R14   R(4,16)                 1.5414         calculate D2E/DX2 analytically  !
 ! R15   R(5,10)                 1.0916         calculate D2E/DX2 analytically  !
 ! R16   R(5,15)                 1.4271         calculate D2E/DX2 analytically  !
 ! R17   R(12,79)                1.4206         calculate D2E/DX2 analytically  !
 ! R18   R(13,20)                1.4159         calculate D2E/DX2 analytically  !
 ! R19   R(14,24)                1.4186         calculate D2E/DX2 analytically  !
 ! R20   R(15,28)                1.4234         calculate D2E/DX2 analytically  !
 ! R21   R(16,17)                1.1194         calculate D2E/DX2 analytically  !
 ! R22   R(16,18)                1.1214         calculate D2E/DX2 analytically  !
 ! R23   R(16,19)                1.3601         calculate D2E/DX2 analytically  !
 ! R24   R(18,88)                2.2804         calculate D2E/DX2 analytically  !
 ! R25   R(19,37)                2.0777         calculate D2E/DX2 analytically  !
 ! R26   R(19,64)                2.1265         calculate D2E/DX2 analytically  !
 ! R27   R(19,88)                2.3137         calculate D2E/DX2 analytically  !
 ! R28   R(20,21)                1.0996         calculate D2E/DX2 analytically  !
 ! R29   R(20,22)                1.0987         calculate D2E/DX2 analytically  !
 ! R30   R(20,23)                1.0933         calculate D2E/DX2 analytically  !
 ! R31   R(24,25)                1.1            calculate D2E/DX2 analytically  !
 ! R32   R(24,26)                1.0953         calculate D2E/DX2 analytically  !
 ! R33   R(24,27)                1.094          calculate D2E/DX2 analytically  !
 ! R34   R(28,29)                1.0979         calculate D2E/DX2 analytically  !
 ! R35   R(28,30)                1.0964         calculate D2E/DX2 analytically  !
 ! R36   R(28,31)                1.0945         calculate D2E/DX2 analytically  !
 ! R37   R(32,33)                1.5234         calculate D2E/DX2 analytically  !
 ! R38   R(32,36)                1.5249         calculate D2E/DX2 analytically  !
 ! R39   R(32,39)                1.0958         calculate D2E/DX2 analytically  !
 ! R40   R(32,45)                1.4184         calculate D2E/DX2 analytically  !
 ! R41   R(33,34)                1.511          calculate D2E/DX2 analytically  !
 ! R42   R(33,38)                1.096          calculate D2E/DX2 analytically  !
 ! R43   R(33,44)                1.4179         calculate D2E/DX2 analytically  !
 ! R44   R(34,37)                1.0831         calculate D2E/DX2 analytically  !
 ! R45   R(34,42)                1.3179         calculate D2E/DX2 analytically  !
 ! R46   R(34,53)                1.8172         calculate D2E/DX2 analytically  !
 ! R47   R(35,36)                1.5328         calculate D2E/DX2 analytically  !
 ! R48   R(35,40)                1.0847         calculate D2E/DX2 analytically  !
 ! R49   R(35,42)                1.463          calculate D2E/DX2 analytically  !
 ! R50   R(35,47)                1.5168         calculate D2E/DX2 analytically  !
 ! R51   R(36,41)                1.0933         calculate D2E/DX2 analytically  !
 ! R52   R(36,46)                1.4234         calculate D2E/DX2 analytically  !
 ! R53   R(37,88)                2.1954         calculate D2E/DX2 analytically  !
 ! R54   R(43,51)                1.4736         calculate D2E/DX2 analytically  !
 ! R55   R(44,63)                1.441          calculate D2E/DX2 analytically  !
 ! R56   R(44,83)                2.3069         calculate D2E/DX2 analytically  !
 ! R57   R(45,67)                1.4225         calculate D2E/DX2 analytically  !
 ! R58   R(46,71)                1.4226         calculate D2E/DX2 analytically  !
 ! R59   R(47,48)                1.1011         calculate D2E/DX2 analytically  !
 ! R60   R(47,49)                1.0972         calculate D2E/DX2 analytically  !
 ! R61   R(47,50)                1.413          calculate D2E/DX2 analytically  !
 ! R62   R(50,75)                1.4201         calculate D2E/DX2 analytically  !
 ! R63   R(51,52)                1.4672         calculate D2E/DX2 analytically  !
 ! R64   R(51,53)                1.5624         calculate D2E/DX2 analytically  !
 ! R65   R(51,54)                1.7904         calculate D2E/DX2 analytically  !
 ! R66   R(53,83)                2.3163         calculate D2E/DX2 analytically  !
 ! R67   R(54,55)                1.3876         calculate D2E/DX2 analytically  !
 ! R68   R(54,56)                1.3958         calculate D2E/DX2 analytically  !
 ! R69   R(55,57)                1.3973         calculate D2E/DX2 analytically  !
 ! R70   R(55,58)                1.0821         calculate D2E/DX2 analytically  !
 ! R71   R(56,59)                1.3909         calculate D2E/DX2 analytically  !
 ! R72   R(56,60)                1.0828         calculate D2E/DX2 analytically  !
 ! R73   R(57,61)                1.3925         calculate D2E/DX2 analytically  !
 ! R74   R(57,93)                1.5047         calculate D2E/DX2 analytically  !
 ! R75   R(59,61)                1.3979         calculate D2E/DX2 analytically  !
 ! R76   R(59,97)                1.5066         calculate D2E/DX2 analytically  !
 ! R77   R(61,62)                1.0831         calculate D2E/DX2 analytically  !
 ! R78   R(63,64)                1.0961         calculate D2E/DX2 analytically  !
 ! R79   R(63,65)                1.0957         calculate D2E/DX2 analytically  !
 ! R80   R(63,66)                1.0927         calculate D2E/DX2 analytically  !
 ! R81   R(67,68)                1.0951         calculate D2E/DX2 analytically  !
 ! R82   R(67,69)                1.1001         calculate D2E/DX2 analytically  !
 ! R83   R(67,70)                1.0925         calculate D2E/DX2 analytically  !
 ! R84   R(71,72)                1.0972         calculate D2E/DX2 analytically  !
 ! R85   R(71,73)                1.0975         calculate D2E/DX2 analytically  !
 ! R86   R(71,74)                1.0919         calculate D2E/DX2 analytically  !
 ! R87   R(75,76)                1.0923         calculate D2E/DX2 analytically  !
 ! R88   R(75,77)                1.0952         calculate D2E/DX2 analytically  !
 ! R89   R(75,78)                1.1006         calculate D2E/DX2 analytically  !
 ! R90   R(79,80)                1.0924         calculate D2E/DX2 analytically  !
 ! R91   R(79,81)                1.0964         calculate D2E/DX2 analytically  !
 ! R92   R(79,82)                1.1003         calculate D2E/DX2 analytically  !
 ! R93   R(83,84)                2.2975         calculate D2E/DX2 analytically  !
 ! R94   R(84,85)                1.4375         calculate D2E/DX2 analytically  !
 ! R95   R(84,89)                1.4211         calculate D2E/DX2 analytically  !
 ! R96   R(85,86)                1.0974         calculate D2E/DX2 analytically  !
 ! R97   R(85,87)                1.0899         calculate D2E/DX2 analytically  !
 ! R98   R(85,88)                1.0975         calculate D2E/DX2 analytically  !
 ! R99   R(89,90)                1.0984         calculate D2E/DX2 analytically  !
 ! R100  R(89,91)                1.0931         calculate D2E/DX2 analytically  !
 ! R101  R(89,92)                1.0984         calculate D2E/DX2 analytically  !
 ! R102  R(93,94)                1.349          calculate D2E/DX2 analytically  !
 ! R103  R(93,95)                1.3592         calculate D2E/DX2 analytically  !
 ! R104  R(93,96)                1.3452         calculate D2E/DX2 analytically  !
 ! R105  R(97,98)                1.3484         calculate D2E/DX2 analytically  !
 ! R106  R(97,99)                1.3504         calculate D2E/DX2 analytically  !
 ! R107  R(97,100)               1.3521         calculate D2E/DX2 analytically  !
 ! A1    A(2,1,5)              110.1421         calculate D2E/DX2 analytically  !
 ! A2    A(2,1,8)              109.5466         calculate D2E/DX2 analytically  !
 ! A3    A(2,1,14)             109.475          calculate D2E/DX2 analytically  !
 ! A4    A(5,1,8)              109.0379         calculate D2E/DX2 analytically  !
 ! A5    A(5,1,14)             108.9568         calculate D2E/DX2 analytically  !
 ! A6    A(8,1,14)             109.6671         calculate D2E/DX2 analytically  !
 ! A7    A(1,2,3)              111.4801         calculate D2E/DX2 analytically  !
 ! A8    A(1,2,7)              107.5531         calculate D2E/DX2 analytically  !
 ! A9    A(1,2,13)             109.6481         calculate D2E/DX2 analytically  !
 ! A10   A(3,2,7)              106.737          calculate D2E/DX2 analytically  !
 ! A11   A(3,2,13)             111.1463         calculate D2E/DX2 analytically  !
 ! A12   A(7,2,13)             110.1742         calculate D2E/DX2 analytically  !
 ! A13   A(2,3,6)              110.6147         calculate D2E/DX2 analytically  !
 ! A14   A(2,3,11)             110.1476         calculate D2E/DX2 analytically  !
 ! A15   A(2,3,12)             108.2353         calculate D2E/DX2 analytically  !
 ! A16   A(6,3,11)             104.9517         calculate D2E/DX2 analytically  !
 ! A17   A(6,3,12)             110.21           calculate D2E/DX2 analytically  !
 ! A18   A(11,3,12)            112.6805         calculate D2E/DX2 analytically  !
 ! A19   A(5,4,9)              108.5848         calculate D2E/DX2 analytically  !
 ! A20   A(5,4,11)             109.6108         calculate D2E/DX2 analytically  !
 ! A21   A(5,4,16)             113.4582         calculate D2E/DX2 analytically  !
 ! A22   A(9,4,11)             108.7887         calculate D2E/DX2 analytically  !
 ! A23   A(9,4,16)             109.503          calculate D2E/DX2 analytically  !
 ! A24   A(11,4,16)            106.8027         calculate D2E/DX2 analytically  !
 ! A25   A(1,5,4)              111.1881         calculate D2E/DX2 analytically  !
 ! A26   A(1,5,10)             108.5772         calculate D2E/DX2 analytically  !
 ! A27   A(1,5,15)             108.8292         calculate D2E/DX2 analytically  !
 ! A28   A(4,5,10)             108.7775         calculate D2E/DX2 analytically  !
 ! A29   A(4,5,15)             109.5855         calculate D2E/DX2 analytically  !
 ! A30   A(10,5,15)            109.8678         calculate D2E/DX2 analytically  !
 ! A31   A(3,11,4)             114.383          calculate D2E/DX2 analytically  !
 ! A32   A(3,12,79)            112.7633         calculate D2E/DX2 analytically  !
 ! A33   A(2,13,20)            113.5426         calculate D2E/DX2 analytically  !
 ! A34   A(1,14,24)            114.167          calculate D2E/DX2 analytically  !
 ! A35   A(5,15,28)            112.5187         calculate D2E/DX2 analytically  !
 ! A36   A(4,16,17)            104.6293         calculate D2E/DX2 analytically  !
 ! A37   A(4,16,18)            104.0713         calculate D2E/DX2 analytically  !
 ! A38   A(4,16,19)            114.2934         calculate D2E/DX2 analytically  !
 ! A39   A(17,16,18)           104.1744         calculate D2E/DX2 analytically  !
 ! A40   A(17,16,19)           114.4045         calculate D2E/DX2 analytically  !
 ! A41   A(18,16,19)           114.066          calculate D2E/DX2 analytically  !
 ! A42   A(16,18,88)            95.9729         calculate D2E/DX2 analytically  !
 ! A43   A(16,19,37)           108.6108         calculate D2E/DX2 analytically  !
 ! A44   A(16,19,64)           136.3875         calculate D2E/DX2 analytically  !
 ! A45   A(16,19,88)            88.0606         calculate D2E/DX2 analytically  !
 ! A46   A(37,19,64)            95.308          calculate D2E/DX2 analytically  !
 ! A47   A(64,19,88)            72.995          calculate D2E/DX2 analytically  !
 ! A48   A(13,20,21)           111.8447         calculate D2E/DX2 analytically  !
 ! A49   A(13,20,22)           111.2342         calculate D2E/DX2 analytically  !
 ! A50   A(13,20,23)           107.1472         calculate D2E/DX2 analytically  !
 ! A51   A(21,20,22)           109.0499         calculate D2E/DX2 analytically  !
 ! A52   A(21,20,23)           108.7299         calculate D2E/DX2 analytically  !
 ! A53   A(22,20,23)           108.7448         calculate D2E/DX2 analytically  !
 ! A54   A(14,24,25)           111.1            calculate D2E/DX2 analytically  !
 ! A55   A(14,24,26)           111.607          calculate D2E/DX2 analytically  !
 ! A56   A(14,24,27)           106.8016         calculate D2E/DX2 analytically  !
 ! A57   A(25,24,26)           109.0286         calculate D2E/DX2 analytically  !
 ! A58   A(25,24,27)           108.7518         calculate D2E/DX2 analytically  !
 ! A59   A(26,24,27)           109.485          calculate D2E/DX2 analytically  !
 ! A60   A(15,28,29)           110.8486         calculate D2E/DX2 analytically  !
 ! A61   A(15,28,30)           111.2679         calculate D2E/DX2 analytically  !
 ! A62   A(15,28,31)           106.9732         calculate D2E/DX2 analytically  !
 ! A63   A(29,28,30)           108.282          calculate D2E/DX2 analytically  !
 ! A64   A(29,28,31)           109.3156         calculate D2E/DX2 analytically  !
 ! A65   A(30,28,31)           110.1428         calculate D2E/DX2 analytically  !
 ! A66   A(33,32,36)           109.0452         calculate D2E/DX2 analytically  !
 ! A67   A(33,32,39)           109.162          calculate D2E/DX2 analytically  !
 ! A68   A(33,32,45)           109.0736         calculate D2E/DX2 analytically  !
 ! A69   A(36,32,39)           109.6164         calculate D2E/DX2 analytically  !
 ! A70   A(36,32,45)           109.7607         calculate D2E/DX2 analytically  !
 ! A71   A(39,32,45)           110.1609         calculate D2E/DX2 analytically  !
 ! A72   A(32,33,34)           111.4152         calculate D2E/DX2 analytically  !
 ! A73   A(32,33,38)           110.7419         calculate D2E/DX2 analytically  !
 ! A74   A(32,33,44)           111.0277         calculate D2E/DX2 analytically  !
 ! A75   A(34,33,38)           102.7274         calculate D2E/DX2 analytically  !
 ! A76   A(34,33,44)           111.1552         calculate D2E/DX2 analytically  !
 ! A77   A(38,33,44)           109.4807         calculate D2E/DX2 analytically  !
 ! A78   A(33,34,37)           116.3566         calculate D2E/DX2 analytically  !
 ! A79   A(33,34,42)           118.1595         calculate D2E/DX2 analytically  !
 ! A80   A(33,34,53)            97.0162         calculate D2E/DX2 analytically  !
 ! A81   A(37,34,42)           112.5239         calculate D2E/DX2 analytically  !
 ! A82   A(37,34,53)            99.9896         calculate D2E/DX2 analytically  !
 ! A83   A(42,34,53)           109.4922         calculate D2E/DX2 analytically  !
 ! A84   A(36,35,40)           107.5302         calculate D2E/DX2 analytically  !
 ! A85   A(36,35,42)           114.5456         calculate D2E/DX2 analytically  !
 ! A86   A(36,35,47)           113.4335         calculate D2E/DX2 analytically  !
 ! A87   A(40,35,42)           105.598          calculate D2E/DX2 analytically  !
 ! A88   A(40,35,47)           108.1499         calculate D2E/DX2 analytically  !
 ! A89   A(42,35,47)           107.1466         calculate D2E/DX2 analytically  !
 ! A90   A(32,36,35)           112.9043         calculate D2E/DX2 analytically  !
 ! A91   A(32,36,41)           107.9532         calculate D2E/DX2 analytically  !
 ! A92   A(32,36,46)           109.8787         calculate D2E/DX2 analytically  !
 ! A93   A(35,36,41)           109.5847         calculate D2E/DX2 analytically  !
 ! A94   A(35,36,46)           105.7944         calculate D2E/DX2 analytically  !
 ! A95   A(41,36,46)           110.7445         calculate D2E/DX2 analytically  !
 ! A96   A(19,37,34)           113.1918         calculate D2E/DX2 analytically  !
 ! A97   A(34,37,88)           138.7125         calculate D2E/DX2 analytically  !
 ! A98   A(34,42,35)           122.3317         calculate D2E/DX2 analytically  !
 ! A99   A(33,44,63)           113.1197         calculate D2E/DX2 analytically  !
 ! A100  A(33,44,83)           121.9013         calculate D2E/DX2 analytically  !
 ! A101  A(63,44,83)           121.4015         calculate D2E/DX2 analytically  !
 ! A102  A(32,45,67)           113.5614         calculate D2E/DX2 analytically  !
 ! A103  A(36,46,71)           114.6733         calculate D2E/DX2 analytically  !
 ! A104  A(35,47,48)           107.9175         calculate D2E/DX2 analytically  !
 ! A105  A(35,47,49)           109.5487         calculate D2E/DX2 analytically  !
 ! A106  A(35,47,50)           109.5646         calculate D2E/DX2 analytically  !
 ! A107  A(48,47,49)           108.2467         calculate D2E/DX2 analytically  !
 ! A108  A(48,47,50)           110.6027         calculate D2E/DX2 analytically  !
 ! A109  A(49,47,50)           110.8981         calculate D2E/DX2 analytically  !
 ! A110  A(47,50,75)           111.9676         calculate D2E/DX2 analytically  !
 ! A111  A(43,51,52)           118.5653         calculate D2E/DX2 analytically  !
 ! A112  A(43,51,53)           106.4045         calculate D2E/DX2 analytically  !
 ! A113  A(43,51,54)           108.8623         calculate D2E/DX2 analytically  !
 ! A114  A(52,51,53)           112.5234         calculate D2E/DX2 analytically  !
 ! A115  A(52,51,54)           107.845          calculate D2E/DX2 analytically  !
 ! A116  A(53,51,54)           101.2242         calculate D2E/DX2 analytically  !
 ! A117  A(34,53,51)           125.9933         calculate D2E/DX2 analytically  !
 ! A118  A(34,53,83)           111.3273         calculate D2E/DX2 analytically  !
 ! A119  A(51,53,83)           114.2565         calculate D2E/DX2 analytically  !
 ! A120  A(51,54,55)           119.2662         calculate D2E/DX2 analytically  !
 ! A121  A(51,54,56)           118.5655         calculate D2E/DX2 analytically  !
 ! A122  A(55,54,56)           121.5948         calculate D2E/DX2 analytically  !
 ! A123  A(54,55,57)           118.6991         calculate D2E/DX2 analytically  !
 ! A124  A(54,55,58)           119.9214         calculate D2E/DX2 analytically  !
 ! A125  A(57,55,58)           121.3017         calculate D2E/DX2 analytically  !
 ! A126  A(54,56,59)           118.9074         calculate D2E/DX2 analytically  !
 ! A127  A(54,56,60)           120.5161         calculate D2E/DX2 analytically  !
 ! A128  A(59,56,60)           120.478          calculate D2E/DX2 analytically  !
 ! A129  A(55,57,61)           120.7161         calculate D2E/DX2 analytically  !
 ! A130  A(55,57,93)           118.5781         calculate D2E/DX2 analytically  !
 ! A131  A(61,57,93)           120.3866         calculate D2E/DX2 analytically  !
 ! A132  A(56,59,61)           120.4818         calculate D2E/DX2 analytically  !
 ! A133  A(56,59,97)           119.9697         calculate D2E/DX2 analytically  !
 ! A134  A(61,59,97)           119.5378         calculate D2E/DX2 analytically  !
 ! A135  A(57,61,59)           119.5534         calculate D2E/DX2 analytically  !
 ! A136  A(57,61,62)           120.2066         calculate D2E/DX2 analytically  !
 ! A137  A(59,61,62)           120.2205         calculate D2E/DX2 analytically  !
 ! A138  A(44,63,64)           108.5158         calculate D2E/DX2 analytically  !
 ! A139  A(44,63,65)           109.6307         calculate D2E/DX2 analytically  !
 ! A140  A(44,63,66)           106.246          calculate D2E/DX2 analytically  !
 ! A141  A(64,63,65)           111.5684         calculate D2E/DX2 analytically  !
 ! A142  A(64,63,66)           111.4366         calculate D2E/DX2 analytically  !
 ! A143  A(65,63,66)           109.29           calculate D2E/DX2 analytically  !
 ! A144  A(19,64,63)           139.9571         calculate D2E/DX2 analytically  !
 ! A145  A(45,67,68)           111.5074         calculate D2E/DX2 analytically  !
 ! A146  A(45,67,69)           111.0037         calculate D2E/DX2 analytically  !
 ! A147  A(45,67,70)           106.7105         calculate D2E/DX2 analytically  !
 ! A148  A(68,67,69)           108.9256         calculate D2E/DX2 analytically  !
 ! A149  A(68,67,70)           109.68           calculate D2E/DX2 analytically  !
 ! A150  A(69,67,70)           108.9624         calculate D2E/DX2 analytically  !
 ! A151  A(46,71,72)           111.1713         calculate D2E/DX2 analytically  !
 ! A152  A(46,71,73)           111.3426         calculate D2E/DX2 analytically  !
 ! A153  A(46,71,74)           106.1377         calculate D2E/DX2 analytically  !
 ! A154  A(72,71,73)           109.0609         calculate D2E/DX2 analytically  !
 ! A155  A(72,71,74)           109.5131         calculate D2E/DX2 analytically  !
 ! A156  A(73,71,74)           109.5643         calculate D2E/DX2 analytically  !
 ! A157  A(50,75,76)           106.9098         calculate D2E/DX2 analytically  !
 ! A158  A(50,75,77)           110.6214         calculate D2E/DX2 analytically  !
 ! A159  A(50,75,78)           111.0123         calculate D2E/DX2 analytically  !
 ! A160  A(76,75,77)           109.4873         calculate D2E/DX2 analytically  !
 ! A161  A(76,75,78)           109.1174         calculate D2E/DX2 analytically  !
 ! A162  A(77,75,78)           109.6355         calculate D2E/DX2 analytically  !
 ! A163  A(12,79,80)           106.8967         calculate D2E/DX2 analytically  !
 ! A164  A(12,79,81)           111.5945         calculate D2E/DX2 analytically  !
 ! A165  A(12,79,82)           110.9349         calculate D2E/DX2 analytically  !
 ! A166  A(80,79,81)           109.5105         calculate D2E/DX2 analytically  !
 ! A167  A(80,79,82)           109.247          calculate D2E/DX2 analytically  !
 ! A168  A(81,79,82)           108.6205         calculate D2E/DX2 analytically  !
 ! A169  A(44,83,53)            70.8174         calculate D2E/DX2 analytically  !
 ! A170  A(44,83,84)            96.2345         calculate D2E/DX2 analytically  !
 ! A171  A(53,83,84)           104.099          calculate D2E/DX2 analytically  !
 ! A172  A(83,84,85)           110.955          calculate D2E/DX2 analytically  !
 ! A173  A(83,84,89)           120.3322         calculate D2E/DX2 analytically  !
 ! A174  A(85,84,89)           111.7181         calculate D2E/DX2 analytically  !
 ! A175  A(84,85,86)           110.0398         calculate D2E/DX2 analytically  !
 ! A176  A(84,85,87)           107.1675         calculate D2E/DX2 analytically  !
 ! A177  A(84,85,88)           111.083          calculate D2E/DX2 analytically  !
 ! A178  A(86,85,87)           108.8599         calculate D2E/DX2 analytically  !
 ! A179  A(86,85,88)           110.4966         calculate D2E/DX2 analytically  !
 ! A180  A(87,85,88)           109.1048         calculate D2E/DX2 analytically  !
 ! A181  A(18,88,19)            54.0012         calculate D2E/DX2 analytically  !
 ! A182  A(18,88,37)            93.6592         calculate D2E/DX2 analytically  !
 ! A183  A(18,88,85)           124.3718         calculate D2E/DX2 analytically  !
 ! A184  A(19,88,85)           159.8059         calculate D2E/DX2 analytically  !
 ! A185  A(37,88,85)           108.0334         calculate D2E/DX2 analytically  !
 ! A186  A(84,89,90)           111.1459         calculate D2E/DX2 analytically  !
 ! A187  A(84,89,91)           107.6233         calculate D2E/DX2 analytically  !
 ! A188  A(84,89,92)           110.648          calculate D2E/DX2 analytically  !
 ! A189  A(90,89,91)           109.5474         calculate D2E/DX2 analytically  !
 ! A190  A(90,89,92)           108.712          calculate D2E/DX2 analytically  !
 ! A191  A(91,89,92)           109.1358         calculate D2E/DX2 analytically  !
 ! A192  A(57,93,94)           111.6608         calculate D2E/DX2 analytically  !
 ! A193  A(57,93,95)           110.5893         calculate D2E/DX2 analytically  !
 ! A194  A(57,93,96)           112.3897         calculate D2E/DX2 analytically  !
 ! A195  A(94,93,95)           106.6502         calculate D2E/DX2 analytically  !
 ! A196  A(94,93,96)           108.0823         calculate D2E/DX2 analytically  !
 ! A197  A(95,93,96)           107.1948         calculate D2E/DX2 analytically  !
 ! A198  A(59,97,98)           111.542          calculate D2E/DX2 analytically  !
 ! A199  A(59,97,99)           111.7144         calculate D2E/DX2 analytically  !
 ! A200  A(59,97,100)          111.3831         calculate D2E/DX2 analytically  !
 ! A201  A(98,97,99)           107.8763         calculate D2E/DX2 analytically  !
 ! A202  A(98,97,100)          107.0057         calculate D2E/DX2 analytically  !
 ! A203  A(99,97,100)          107.0697         calculate D2E/DX2 analytically  !
 ! D1    D(5,1,2,3)            -51.4737         calculate D2E/DX2 analytically  !
 ! D2    D(5,1,2,7)             65.2097         calculate D2E/DX2 analytically  !
 ! D3    D(5,1,2,13)          -174.9876         calculate D2E/DX2 analytically  !
 ! D4    D(8,1,2,3)             68.4542         calculate D2E/DX2 analytically  !
 ! D5    D(8,1,2,7)           -174.8624         calculate D2E/DX2 analytically  !
 ! D6    D(8,1,2,13)           -55.0597         calculate D2E/DX2 analytically  !
 ! D7    D(14,1,2,3)          -171.257          calculate D2E/DX2 analytically  !
 ! D8    D(14,1,2,7)           -54.5736         calculate D2E/DX2 analytically  !
 ! D9    D(14,1,2,13)           65.2291         calculate D2E/DX2 analytically  !
 ! D10   D(2,1,5,4)             51.6558         calculate D2E/DX2 analytically  !
 ! D11   D(2,1,5,10)           -67.9804         calculate D2E/DX2 analytically  !
 ! D12   D(2,1,5,15)           172.4547         calculate D2E/DX2 analytically  !
 ! D13   D(8,1,5,4)            -68.5795         calculate D2E/DX2 analytically  !
 ! D14   D(8,1,5,10)           171.7843         calculate D2E/DX2 analytically  !
 ! D15   D(8,1,5,15)            52.2194         calculate D2E/DX2 analytically  !
 ! D16   D(14,1,5,4)           171.7527         calculate D2E/DX2 analytically  !
 ! D17   D(14,1,5,10)           52.1165         calculate D2E/DX2 analytically  !
 ! D18   D(14,1,5,15)          -67.4485         calculate D2E/DX2 analytically  !
 ! D19   D(2,1,14,24)          -98.9315         calculate D2E/DX2 analytically  !
 ! D20   D(5,1,14,24)          140.5605         calculate D2E/DX2 analytically  !
 ! D21   D(8,1,14,24)           21.2838         calculate D2E/DX2 analytically  !
 ! D22   D(1,2,3,6)            170.4794         calculate D2E/DX2 analytically  !
 ! D23   D(1,2,3,11)            54.9081         calculate D2E/DX2 analytically  !
 ! D24   D(1,2,3,12)           -68.6869         calculate D2E/DX2 analytically  !
 ! D25   D(7,2,3,6)             53.3004         calculate D2E/DX2 analytically  !
 ! D26   D(7,2,3,11)           -62.2709         calculate D2E/DX2 analytically  !
 ! D27   D(7,2,3,12)           174.1341         calculate D2E/DX2 analytically  !
 ! D28   D(13,2,3,6)           -66.8617         calculate D2E/DX2 analytically  !
 ! D29   D(13,2,3,11)          177.5669         calculate D2E/DX2 analytically  !
 ! D30   D(13,2,3,12)           53.9719         calculate D2E/DX2 analytically  !
 ! D31   D(1,2,13,20)         -133.8759         calculate D2E/DX2 analytically  !
 ! D32   D(3,2,13,20)          102.4143         calculate D2E/DX2 analytically  !
 ! D33   D(7,2,13,20)          -15.6893         calculate D2E/DX2 analytically  !
 ! D34   D(2,3,11,4)           -60.2804         calculate D2E/DX2 analytically  !
 ! D35   D(6,3,11,4)          -179.3682         calculate D2E/DX2 analytically  !
 ! D36   D(12,3,11,4)           60.6888         calculate D2E/DX2 analytically  !
 ! D37   D(2,3,12,79)         -174.705          calculate D2E/DX2 analytically  !
 ! D38   D(6,3,12,79)          -53.6203         calculate D2E/DX2 analytically  !
 ! D39   D(11,3,12,79)          63.24           calculate D2E/DX2 analytically  !
 ! D40   D(9,4,5,1)             64.1213         calculate D2E/DX2 analytically  !
 ! D41   D(9,4,5,10)          -176.3619         calculate D2E/DX2 analytically  !
 ! D42   D(9,4,5,15)           -56.2316         calculate D2E/DX2 analytically  !
 ! D43   D(11,4,5,1)           -54.5983         calculate D2E/DX2 analytically  !
 ! D44   D(11,4,5,10)           64.9185         calculate D2E/DX2 analytically  !
 ! D45   D(11,4,5,15)         -174.9512         calculate D2E/DX2 analytically  !
 ! D46   D(16,4,5,1)          -173.8823         calculate D2E/DX2 analytically  !
 ! D47   D(16,4,5,10)          -54.3654         calculate D2E/DX2 analytically  !
 ! D48   D(16,4,5,15)           65.7648         calculate D2E/DX2 analytically  !
 ! D49   D(5,4,11,3)            60.3011         calculate D2E/DX2 analytically  !
 ! D50   D(9,4,11,3)           -58.2924         calculate D2E/DX2 analytically  !
 ! D51   D(16,4,11,3)         -176.3985         calculate D2E/DX2 analytically  !
 ! D52   D(5,4,16,17)          -70.2215         calculate D2E/DX2 analytically  !
 ! D53   D(5,4,16,18)         -179.268          calculate D2E/DX2 analytically  !
 ! D54   D(5,4,16,19)           55.6754         calculate D2E/DX2 analytically  !
 ! D55   D(9,4,16,17)           51.2626         calculate D2E/DX2 analytically  !
 ! D56   D(9,4,16,18)          -57.7839         calculate D2E/DX2 analytically  !
 ! D57   D(9,4,16,19)          177.1595         calculate D2E/DX2 analytically  !
 ! D58   D(11,4,16,17)         168.8998         calculate D2E/DX2 analytically  !
 ! D59   D(11,4,16,18)          59.8533         calculate D2E/DX2 analytically  !
 ! D60   D(11,4,16,19)         -65.2033         calculate D2E/DX2 analytically  !
 ! D61   D(1,5,15,28)          135.4846         calculate D2E/DX2 analytically  !
 ! D62   D(4,5,15,28)         -102.7366         calculate D2E/DX2 analytically  !
 ! D63   D(10,5,15,28)          16.7261         calculate D2E/DX2 analytically  !
 ! D64   D(3,12,79,80)         175.9219         calculate D2E/DX2 analytically  !
 ! D65   D(3,12,79,81)         -64.3669         calculate D2E/DX2 analytically  !
 ! D66   D(3,12,79,82)          56.9048         calculate D2E/DX2 analytically  !
 ! D67   D(2,13,20,21)         -57.5058         calculate D2E/DX2 analytically  !
 ! D68   D(2,13,20,22)          64.7039         calculate D2E/DX2 analytically  !
 ! D69   D(2,13,20,23)        -176.566          calculate D2E/DX2 analytically  !
 ! D70   D(1,14,24,25)         -61.771          calculate D2E/DX2 analytically  !
 ! D71   D(1,14,24,26)          60.1477         calculate D2E/DX2 analytically  !
 ! D72   D(1,14,24,27)         179.7753         calculate D2E/DX2 analytically  !
 ! D73   D(5,15,28,29)         -70.4851         calculate D2E/DX2 analytically  !
 ! D74   D(5,15,28,30)          50.075          calculate D2E/DX2 analytically  !
 ! D75   D(5,15,28,31)         170.417          calculate D2E/DX2 analytically  !
 ! D76   D(4,16,18,88)         -97.6367         calculate D2E/DX2 analytically  !
 ! D77   D(17,16,18,88)        152.9816         calculate D2E/DX2 analytically  !
 ! D78   D(19,16,18,88)         27.565          calculate D2E/DX2 analytically  !
 ! D79   D(4,16,19,37)          35.5527         calculate D2E/DX2 analytically  !
 ! D80   D(4,16,19,64)         155.2212         calculate D2E/DX2 analytically  !
 ! D81   D(4,16,19,88)          92.5935         calculate D2E/DX2 analytically  !
 ! D82   D(17,16,19,37)        156.1558         calculate D2E/DX2 analytically  !
 ! D83   D(17,16,19,64)        -84.1758         calculate D2E/DX2 analytically  !
 ! D84   D(17,16,19,88)       -146.8035         calculate D2E/DX2 analytically  !
 ! D85   D(18,16,19,37)        -84.0337         calculate D2E/DX2 analytically  !
 ! D86   D(18,16,19,64)         35.6348         calculate D2E/DX2 analytically  !
 ! D87   D(18,16,19,88)        -26.9929         calculate D2E/DX2 analytically  !
 ! D88   D(16,18,88,19)        -17.8787         calculate D2E/DX2 analytically  !
 ! D89   D(16,18,88,37)         22.6193         calculate D2E/DX2 analytically  !
 ! D90   D(16,18,88,85)        137.4267         calculate D2E/DX2 analytically  !
 ! D91   D(16,19,37,34)       -149.0993         calculate D2E/DX2 analytically  !
 ! D92   D(64,19,37,34)         67.9091         calculate D2E/DX2 analytically  !
 ! D93   D(16,19,64,63)       -149.2823         calculate D2E/DX2 analytically  !
 ! D94   D(37,19,64,63)        -25.0755         calculate D2E/DX2 analytically  !
 ! D95   D(88,19,64,63)        -81.1407         calculate D2E/DX2 analytically  !
 ! D96   D(16,19,88,18)         14.5899         calculate D2E/DX2 analytically  !
 ! D97   D(16,19,88,85)        -78.0625         calculate D2E/DX2 analytically  !
 ! D98   D(64,19,88,18)       -125.5769         calculate D2E/DX2 analytically  !
 ! D99   D(64,19,88,85)        141.7706         calculate D2E/DX2 analytically  !
 ! D100  D(36,32,33,34)        -54.2466         calculate D2E/DX2 analytically  !
 ! D101  D(36,32,33,38)         59.4305         calculate D2E/DX2 analytically  !
 ! D102  D(36,32,33,44)       -178.7244         calculate D2E/DX2 analytically  !
 ! D103  D(39,32,33,34)         65.486          calculate D2E/DX2 analytically  !
 ! D104  D(39,32,33,38)        179.1631         calculate D2E/DX2 analytically  !
 ! D105  D(39,32,33,44)        -58.9918         calculate D2E/DX2 analytically  !
 ! D106  D(45,32,33,34)       -174.1017         calculate D2E/DX2 analytically  !
 ! D107  D(45,32,33,38)        -60.4246         calculate D2E/DX2 analytically  !
 ! D108  D(45,32,33,44)         61.4205         calculate D2E/DX2 analytically  !
 ! D109  D(33,32,36,35)         52.018          calculate D2E/DX2 analytically  !
 ! D110  D(33,32,36,41)        -69.2749         calculate D2E/DX2 analytically  !
 ! D111  D(33,32,36,46)        169.8559         calculate D2E/DX2 analytically  !
 ! D112  D(39,32,36,35)        -67.4329         calculate D2E/DX2 analytically  !
 ! D113  D(39,32,36,41)        171.2741         calculate D2E/DX2 analytically  !
 ! D114  D(39,32,36,46)         50.405          calculate D2E/DX2 analytically  !
 ! D115  D(45,32,36,35)        171.4476         calculate D2E/DX2 analytically  !
 ! D116  D(45,32,36,41)         50.1546         calculate D2E/DX2 analytically  !
 ! D117  D(45,32,36,46)        -70.7145         calculate D2E/DX2 analytically  !
 ! D118  D(33,32,45,67)       -136.4091         calculate D2E/DX2 analytically  !
 ! D119  D(36,32,45,67)        104.1788         calculate D2E/DX2 analytically  !
 ! D120  D(39,32,45,67)        -16.6123         calculate D2E/DX2 analytically  !
 ! D121  D(32,33,34,37)       -176.1485         calculate D2E/DX2 analytically  !
 ! D122  D(32,33,34,42)         45.251          calculate D2E/DX2 analytically  !
 ! D123  D(32,33,34,53)        -71.3138         calculate D2E/DX2 analytically  !
 ! D124  D(38,33,34,37)         65.2582         calculate D2E/DX2 analytically  !
 ! D125  D(38,33,34,42)        -73.3423         calculate D2E/DX2 analytically  !
 ! D126  D(38,33,34,53)        170.0929         calculate D2E/DX2 analytically  !
 ! D127  D(44,33,34,37)        -51.7424         calculate D2E/DX2 analytically  !
 ! D128  D(44,33,34,42)        169.6571         calculate D2E/DX2 analytically  !
 ! D129  D(44,33,34,53)         53.0923         calculate D2E/DX2 analytically  !
 ! D130  D(32,33,44,63)       -116.5941         calculate D2E/DX2 analytically  !
 ! D131  D(32,33,44,83)         84.4848         calculate D2E/DX2 analytically  !
 ! D132  D(34,33,44,63)        118.7809         calculate D2E/DX2 analytically  !
 ! D133  D(34,33,44,83)        -40.1401         calculate D2E/DX2 analytically  !
 ! D134  D(38,33,44,63)          5.984          calculate D2E/DX2 analytically  !
 ! D135  D(38,33,44,83)       -152.9371         calculate D2E/DX2 analytically  !
 ! D136  D(33,34,37,19)        -42.1842         calculate D2E/DX2 analytically  !
 ! D137  D(33,34,37,88)         36.52           calculate D2E/DX2 analytically  !
 ! D138  D(42,34,37,19)         98.6787         calculate D2E/DX2 analytically  !
 ! D139  D(42,34,37,88)        177.3829         calculate D2E/DX2 analytically  !
 ! D140  D(53,34,37,19)       -145.2277         calculate D2E/DX2 analytically  !
 ! D141  D(53,34,37,88)        -66.5235         calculate D2E/DX2 analytically  !
 ! D142  D(33,34,42,35)        -31.8839         calculate D2E/DX2 analytically  !
 ! D143  D(37,34,42,35)       -171.9805         calculate D2E/DX2 analytically  !
 ! D144  D(53,34,42,35)         77.7765         calculate D2E/DX2 analytically  !
 ! D145  D(33,34,53,51)        164.5515         calculate D2E/DX2 analytically  !
 ! D146  D(33,34,53,83)        -49.4844         calculate D2E/DX2 analytically  !
 ! D147  D(37,34,53,51)        -77.0325         calculate D2E/DX2 analytically  !
 ! D148  D(37,34,53,83)         68.9316         calculate D2E/DX2 analytically  !
 ! D149  D(42,34,53,51)         41.3243         calculate D2E/DX2 analytically  !
 ! D150  D(42,34,53,83)       -172.7116         calculate D2E/DX2 analytically  !
 ! D151  D(40,35,36,32)         79.0189         calculate D2E/DX2 analytically  !
 ! D152  D(40,35,36,41)       -160.6172         calculate D2E/DX2 analytically  !
 ! D153  D(40,35,36,46)        -41.1884         calculate D2E/DX2 analytically  !
 ! D154  D(42,35,36,32)        -37.998          calculate D2E/DX2 analytically  !
 ! D155  D(42,35,36,41)         82.366          calculate D2E/DX2 analytically  !
 ! D156  D(42,35,36,46)       -158.2052         calculate D2E/DX2 analytically  !
 ! D157  D(47,35,36,32)       -161.4463         calculate D2E/DX2 analytically  !
 ! D158  D(47,35,36,41)        -41.0823         calculate D2E/DX2 analytically  !
 ! D159  D(47,35,36,46)         78.3464         calculate D2E/DX2 analytically  !
 ! D160  D(36,35,42,34)         27.9075         calculate D2E/DX2 analytically  !
 ! D161  D(40,35,42,34)        -90.2102         calculate D2E/DX2 analytically  !
 ! D162  D(47,35,42,34)        154.6651         calculate D2E/DX2 analytically  !
 ! D163  D(36,35,47,48)        -74.8524         calculate D2E/DX2 analytically  !
 ! D164  D(36,35,47,49)        167.5019         calculate D2E/DX2 analytically  !
 ! D165  D(36,35,47,50)         45.6377         calculate D2E/DX2 analytically  !
 ! D166  D(40,35,47,48)         44.3279         calculate D2E/DX2 analytically  !
 ! D167  D(40,35,47,49)        -73.3179         calculate D2E/DX2 analytically  !
 ! D168  D(40,35,47,50)        164.8179         calculate D2E/DX2 analytically  !
 ! D169  D(42,35,47,48)        157.7353         calculate D2E/DX2 analytically  !
 ! D170  D(42,35,47,49)         40.0896         calculate D2E/DX2 analytically  !
 ! D171  D(42,35,47,50)        -81.7746         calculate D2E/DX2 analytically  !
 ! D172  D(32,36,46,71)        120.4549         calculate D2E/DX2 analytically  !
 ! D173  D(35,36,46,71)       -117.3795         calculate D2E/DX2 analytically  !
 ! D174  D(41,36,46,71)          1.2823         calculate D2E/DX2 analytically  !
 ! D175  D(34,37,88,18)       -137.8822         calculate D2E/DX2 analytically  !
 ! D176  D(34,37,88,85)         94.1106         calculate D2E/DX2 analytically  !
 ! D177  D(33,44,63,64)        -55.5009         calculate D2E/DX2 analytically  !
 ! D178  D(33,44,63,65)         66.5761         calculate D2E/DX2 analytically  !
 ! D179  D(33,44,63,66)       -175.4376         calculate D2E/DX2 analytically  !
 ! D180  D(83,44,63,64)        103.5386         calculate D2E/DX2 analytically  !
 ! D181  D(83,44,63,65)       -134.3844         calculate D2E/DX2 analytically  !
 ! D182  D(83,44,63,66)        -16.3981         calculate D2E/DX2 analytically  !
 ! D183  D(33,44,83,53)          5.0188         calculate D2E/DX2 analytically  !
 ! D184  D(33,44,83,84)        107.8129         calculate D2E/DX2 analytically  !
 ! D185  D(63,44,83,53)       -152.1805         calculate D2E/DX2 analytically  !
 ! D186  D(63,44,83,84)        -49.3864         calculate D2E/DX2 analytically  !
 ! D187  D(32,45,67,68)        -55.6444         calculate D2E/DX2 analytically  !
 ! D188  D(32,45,67,69)         66.0049         calculate D2E/DX2 analytically  !
 ! D189  D(32,45,67,70)       -175.3955         calculate D2E/DX2 analytically  !
 ! D190  D(36,46,71,72)        -64.0973         calculate D2E/DX2 analytically  !
 ! D191  D(36,46,71,73)         57.7279         calculate D2E/DX2 analytically  !
 ! D192  D(36,46,71,74)        176.8931         calculate D2E/DX2 analytically  !
 ! D193  D(35,47,50,75)        179.5659         calculate D2E/DX2 analytically  !
 ! D194  D(48,47,50,75)        -61.5914         calculate D2E/DX2 analytically  !
 ! D195  D(49,47,50,75)         58.5143         calculate D2E/DX2 analytically  !
 ! D196  D(47,50,75,76)        176.6386         calculate D2E/DX2 analytically  !
 ! D197  D(47,50,75,77)        -64.2216         calculate D2E/DX2 analytically  !
 ! D198  D(47,50,75,78)         57.7269         calculate D2E/DX2 analytically  !
 ! D199  D(43,51,53,34)        165.3155         calculate D2E/DX2 analytically  !
 ! D200  D(43,51,53,83)         20.1962         calculate D2E/DX2 analytically  !
 ! D201  D(52,51,53,34)         33.886          calculate D2E/DX2 analytically  !
 ! D202  D(52,51,53,83)       -111.2333         calculate D2E/DX2 analytically  !
 ! D203  D(54,51,53,34)        -80.9808         calculate D2E/DX2 analytically  !
 ! D204  D(54,51,53,83)        133.8999         calculate D2E/DX2 analytically  !
 ! D205  D(43,51,54,55)       -128.6995         calculate D2E/DX2 analytically  !
 ! D206  D(43,51,54,56)         59.8427         calculate D2E/DX2 analytically  !
 ! D207  D(52,51,54,55)          1.1535         calculate D2E/DX2 analytically  !
 ! D208  D(52,51,54,56)       -170.3044         calculate D2E/DX2 analytically  !
 ! D209  D(53,51,54,55)        119.4578         calculate D2E/DX2 analytically  !
 ! D210  D(53,51,54,56)        -52.0001         calculate D2E/DX2 analytically  !
 ! D211  D(34,53,83,44)         24.7742         calculate D2E/DX2 analytically  !
 ! D212  D(34,53,83,84)        -67.0122         calculate D2E/DX2 analytically  !
 ! D213  D(51,53,83,44)        174.9918         calculate D2E/DX2 analytically  !
 ! D214  D(51,53,83,84)         83.2054         calculate D2E/DX2 analytically  !
 ! D215  D(51,54,55,57)       -169.5129         calculate D2E/DX2 analytically  !
 ! D216  D(51,54,55,58)          7.3216         calculate D2E/DX2 analytically  !
 ! D217  D(56,54,55,57)          1.6771         calculate D2E/DX2 analytically  !
 ! D218  D(56,54,55,58)        178.5116         calculate D2E/DX2 analytically  !
 ! D219  D(51,54,56,59)        168.6492         calculate D2E/DX2 analytically  !
 ! D220  D(51,54,56,60)         -7.7592         calculate D2E/DX2 analytically  !
 ! D221  D(55,54,56,59)         -2.6006         calculate D2E/DX2 analytically  !
 ! D222  D(55,54,56,60)       -179.0091         calculate D2E/DX2 analytically  !
 ! D223  D(54,55,57,61)          0.2211         calculate D2E/DX2 analytically  !
 ! D224  D(54,55,57,93)        173.7581         calculate D2E/DX2 analytically  !
 ! D225  D(58,55,57,61)       -176.5679         calculate D2E/DX2 analytically  !
 ! D226  D(58,55,57,93)         -3.0309         calculate D2E/DX2 analytically  !
 ! D227  D(54,56,59,61)          1.6309         calculate D2E/DX2 analytically  !
 ! D228  D(54,56,59,97)       -177.1804         calculate D2E/DX2 analytically  !
 ! D229  D(60,56,59,61)        178.0408         calculate D2E/DX2 analytically  !
 ! D230  D(60,56,59,97)         -0.7706         calculate D2E/DX2 analytically  !
 ! D231  D(55,57,61,59)         -1.1444         calculate D2E/DX2 analytically  !
 ! D232  D(55,57,61,62)        177.252          calculate D2E/DX2 analytically  !
 ! D233  D(93,57,61,59)       -174.5645         calculate D2E/DX2 analytically  !
 ! D234  D(93,57,61,62)          3.8319         calculate D2E/DX2 analytically  !
 ! D235  D(55,57,93,94)         40.6518         calculate D2E/DX2 analytically  !
 ! D236  D(55,57,93,95)        -77.9377         calculate D2E/DX2 analytically  !
 ! D237  D(55,57,93,96)        162.3069         calculate D2E/DX2 analytically  !
 ! D238  D(61,57,93,94)       -145.7893         calculate D2E/DX2 analytically  !
 ! D239  D(61,57,93,95)         95.6212         calculate D2E/DX2 analytically  !
 ! D240  D(61,57,93,96)        -24.1341         calculate D2E/DX2 analytically  !
 ! D241  D(56,59,61,57)          0.2001         calculate D2E/DX2 analytically  !
 ! D242  D(56,59,61,62)       -178.1961         calculate D2E/DX2 analytically  !
 ! D243  D(97,59,61,57)        179.0165         calculate D2E/DX2 analytically  !
 ! D244  D(97,59,61,62)          0.6203         calculate D2E/DX2 analytically  !
 ! D245  D(56,59,97,98)        142.9138         calculate D2E/DX2 analytically  !
 ! D246  D(56,59,97,99)         22.0879         calculate D2E/DX2 analytically  !
 ! D247  D(56,59,97,100)       -97.598          calculate D2E/DX2 analytically  !
 ! D248  D(61,59,97,98)        -35.9089         calculate D2E/DX2 analytically  !
 ! D249  D(61,59,97,99)       -156.7347         calculate D2E/DX2 analytically  !
 ! D250  D(61,59,97,100)        83.5793         calculate D2E/DX2 analytically  !
 ! D251  D(44,63,64,19)         13.8667         calculate D2E/DX2 analytically  !
 ! D252  D(65,63,64,19)       -107.0209         calculate D2E/DX2 analytically  !
 ! D253  D(66,63,64,19)        130.5113         calculate D2E/DX2 analytically  !
 ! D254  D(44,83,84,85)        -56.8122         calculate D2E/DX2 analytically  !
 ! D255  D(44,83,84,89)         76.2794         calculate D2E/DX2 analytically  !
 ! D256  D(53,83,84,85)         14.9258         calculate D2E/DX2 analytically  !
 ! D257  D(53,83,84,89)        148.0174         calculate D2E/DX2 analytically  !
 ! D258  D(83,84,85,86)       -168.4232         calculate D2E/DX2 analytically  !
 ! D259  D(83,84,85,87)        -50.2059         calculate D2E/DX2 analytically  !
 ! D260  D(83,84,85,88)         68.8876         calculate D2E/DX2 analytically  !
 ! D261  D(89,84,85,86)         54.3001         calculate D2E/DX2 analytically  !
 ! D262  D(89,84,85,87)        172.5174         calculate D2E/DX2 analytically  !
 ! D263  D(89,84,85,88)        -68.3891         calculate D2E/DX2 analytically  !
 ! D264  D(83,84,89,90)        -75.0833         calculate D2E/DX2 analytically  !
 ! D265  D(83,84,89,91)         44.869          calculate D2E/DX2 analytically  !
 ! D266  D(83,84,89,92)        164.0302         calculate D2E/DX2 analytically  !
 ! D267  D(85,84,89,90)         57.6879         calculate D2E/DX2 analytically  !
 ! D268  D(85,84,89,91)        177.6402         calculate D2E/DX2 analytically  !
 ! D269  D(85,84,89,92)        -63.1987         calculate D2E/DX2 analytically  !
 ! D270  D(84,85,88,18)        146.3752         calculate D2E/DX2 analytically  !
 ! D271  D(84,85,88,19)       -135.3518         calculate D2E/DX2 analytically  !
 ! D272  D(84,85,88,37)       -105.9266         calculate D2E/DX2 analytically  !
 ! D273  D(86,85,88,18)         23.9503         calculate D2E/DX2 analytically  !
 ! D274  D(86,85,88,19)        102.2232         calculate D2E/DX2 analytically  !
 ! D275  D(86,85,88,37)        131.6484         calculate D2E/DX2 analytically  !
 ! D276  D(87,85,88,18)        -95.6996         calculate D2E/DX2 analytically  !
 ! D277  D(87,85,88,19)        -17.4267         calculate D2E/DX2 analytically  !
 ! D278  D(87,85,88,37)         11.9985         calculate D2E/DX2 analytically  !
 --------------------------------------------------------------------------------
 Trust Radius=5.00D-02 FncErr=1.00D-07 GrdErr=1.00D-06 EigMax=2.50D+02 EigMin=1.00D-04
 Number of steps in this run=    598 maximum allowed number of steps=    600.
 Search for a saddle point of order  1.
 Step   0 in ReCalcFC=30 IGetFC= 4 compute analytic Hessian.
 GradGradGradGradGradGradGradGradGradGradGradGradGradGradGradGradGradGrad

 Leave Link  103 at Tue May 28 23:47:57 2019, MaxMem=  6442450944 cpu:               4.4 elap:               0.2
 (Enter /home/ekwan/sw/g16/l202.exe)
 Stoichiometry    C30H47F6NaO15S
 Framework group  C1[X(C30H47F6NaO15S)]
 Deg. of freedom   294
 Full point group                 C1      NOp   1
 Largest Abelian subgroup         C1      NOp   1
 Largest concise Abelian subgroup C1      NOp   1
                         Standard orientation:                         
 ---------------------------------------------------------------------
 Center     Atomic      Atomic             Coordinates (Angstroms)
 Number     Number       Type             X           Y           Z
 ---------------------------------------------------------------------
      1          6           0       -3.111324   -2.428750    0.738892
      2          6           0       -2.612462   -2.179276   -0.683771
      3          6           0       -3.470480   -1.134516   -1.403898
      4          6           0       -4.101396   -0.106401    0.673393
      5          6           0       -3.262307   -1.104614    1.482641
      6          1           0       -3.006566   -0.842070   -2.353774
      7          1           0       -1.602524   -1.762214   -0.611234
      8          1           0       -4.086017   -2.932624    0.703271
      9          1           0       -5.120147   -0.507538    0.570201
     10          1           0       -2.269291   -0.680421    1.642647
     11          8           0       -3.527481    0.053502   -0.645775
     12          8           0       -4.742778   -1.692694   -1.635281
     13          8           0       -2.586070   -3.408029   -1.404571
     14          8           0       -2.171072   -3.248724    1.436703
     15          8           0       -3.892518   -1.351298    2.739028
     16          6           0       -4.162909    1.297914    1.305759
     17          1           0       -4.792316    1.167951    2.222241
     18          1           0       -4.814514    1.883752    0.605943
     19          8           0       -2.946804    1.862276    1.534617
     20          6           0       -1.389885   -3.609748   -2.134862
     21          1           0       -1.203481   -2.793910   -2.848206
     22          1           0       -0.525073   -3.703942   -1.463824
     23          1           0       -1.505783   -4.543367   -2.691754
     24          6           0       -2.521552   -4.622513    1.484358
     25          1           0       -3.472552   -4.770320    2.016982
     26          1           0       -2.603846   -5.052806    0.480540
     27          1           0       -1.726496   -5.132748    2.036042
     28          6           0       -3.264050   -0.655590    3.810081
     29          1           0       -2.278263   -1.085847    4.030430
     30          1           0       -3.130269    0.405906    3.570602
     31          1           0       -3.911093   -0.765725    4.685908
     32          6           0        1.360177    2.158527    1.536223
     33          6           0       -0.124605    2.321534    1.237040
     34          6           0       -0.625667    1.230192    0.320027
     35          6           0        1.024553   -0.342604    1.181723
     36          6           0        1.607264    0.755083    2.078918
     37          1           0       -1.658465    1.305346    0.002634
     38          1           0       -0.722159    2.168914    2.143034
     39          1           0        1.931137    2.301334    0.611899
     40          1           0        1.708818   -0.483929    0.352040
     41          1           0        1.156124    0.693866    3.072908
     42          8           0       -0.265213   -0.011368    0.575870
     43          8           0        0.809997    1.936616   -3.540227
     44          8           0       -0.397665    3.605597    0.701229
     45          8           0        1.746603    3.121545    2.503259
     46          8           0        3.006253    0.500529    2.143645
     47          6           0        0.857726   -1.674215    1.888691
     48          1           0        1.855129   -2.128344    1.995498
     49          1           0        0.240529   -2.341366    1.274103
     50          8           0        0.267658   -1.466616    3.155684
     51         16           0        0.424740    0.974475   -2.492655
     52          8           0       -0.684667    0.052418   -2.760613
     53          8           0        0.210035    1.805814   -1.187389
     54          6           0        1.857174   -0.004411   -2.050700
     55          6           0        1.756823   -1.388317   -2.042720
     56          6           0        2.984481    0.649930   -1.551418
     57          6           0        2.800334   -2.133574   -1.487526
     58          1           0        0.860221   -1.866647   -2.414596
     59          6           0        4.005123   -0.106404   -0.985053
     60          1           0        3.037603    1.731388   -1.551631
     61          6           0        3.917533   -1.501108   -0.948262
     62          1           0        4.701033   -2.084407   -0.480194
     63          6           0       -1.256709    4.399093    1.543262
     64          1           0       -2.177387    3.834889    1.731352
     65          1           0       -0.735531    4.642084    2.475978
     66          1           0       -1.458654    5.320639    0.991968
     67          6           0        2.982747    3.760211    2.207317
     68          1           0        3.789119    3.031522    2.073126
     69          1           0        2.901633    4.374140    1.298014
     70          1           0        3.211469    4.410095    3.055212
     71          6           0        3.495777    0.201194    3.445360
     72          1           0        3.375426    1.057563    4.120585
     73          1           0        2.982623   -0.668731    3.874809
     74          1           0        4.557803   -0.022831    3.326133
     75          6           0        0.078489   -2.685292    3.859705
     76          1           0       -0.321903   -2.425734    4.842278
     77          1           0       -0.634516   -3.328441    3.332879
     78          1           0        1.032476   -3.218725    3.988661
     79          6           0       -5.582393   -0.845871   -2.407288
     80          1           0       -6.507558   -1.397213   -2.590117
     81          1           0       -5.810500    0.087017   -1.878403
     82          1           0       -5.111728   -0.597680   -3.370339
     83         11           0       -0.162825    4.063332   -1.547558
     84          8           0       -2.409218    4.192475   -2.011810
     85          6           0       -3.082233    2.978803   -1.637059
     86          1           0       -4.100145    2.971231   -2.047132
     87          1           0       -2.520937    2.152159   -2.072255
     88          1           0       -3.106543    2.861538   -0.546079
     89          6           0       -3.154155    5.343637   -1.638566
     90          1           0       -3.348694    5.356411   -0.557591
     91          1           0       -2.565702    6.222521   -1.914703
     92          1           0       -4.115106    5.372229   -2.169922
     93          6           0        2.628126   -3.622079   -1.350338
     94          9           0        2.023297   -4.155133   -2.431914
     95          9           0        1.842728   -3.915805   -0.280643
     96          9           0        3.799269   -4.258965   -1.170617
     97          6           0        5.203591    0.578728   -0.381601
     98          9           0        5.634201   -0.060354    0.724927
     99          9           0        4.930088    1.856836   -0.042133
    100          9           0        6.240931    0.611544   -1.248229
 ---------------------------------------------------------------------
 Rotational constants (GHZ):           0.0620781           0.0493805           0.0407337
 Leave Link  202 at Tue May 28 23:47:57 2019, MaxMem=  6442450944 cpu:               8.5 elap:               0.4
 (Enter /home/ekwan/sw/g16/l301.exe)
 Standard basis: 6-31G(d) (6D, 7F)
 Ernie: Thresh=  0.10000D-02 Tol=  0.10000D-05 Strict=F.
 There are   897 symmetry adapted cartesian basis functions of A   symmetry.
[...]
 0.00010416,-0.00003176,0.00000388,-0.00004381,0.00003978,0.00004287,-0
 .00000398,-0.00008467,0.00002468,0.00018516,0.00151321,-0.00221108,0.0
 0023191,-0.00070745,0.00033818,-0.00019435,-0.00056911,0.00087130,0.00
 073861,-0.00127891,0.00028733,-0.00001472,-0.00039568,-0.00005096,-0.0
 0021169,0.00260805,-0.00239855,0.00218399,-0.00006996,-0.00203306,0.00
 099343,0.00004062,0.00014774,-0.00002083,0.00424771,-0.03816689,-0.013
 48072,-0.00134784,0.00105295,-0.00148372,-0.00584342,0.00059907,-0.004
 44772,0.00049098,0.00081702,0.00002089,-0.00002702,0.00003644,0.000028
 15,-0.00000944,-0.00003110,-0.00000649,-0.00001860,0.00001208,0.000021
 50,-0.00000391,-0.00000809,0.00000138,-0.00193916,0.00063935,-0.000270
 82,0.00063022,-0.00054612,0.00117381,-0.00004239,0.00010567,-0.0000153
 8,0.00043971,-0.00025254,-0.00020741,0.00045094,-0.00016689,0.00023110
 ,-0.00010072,0.00002637,0.00003293,-0.00002167,0.00007906,-0.00010942,
 -0.00009461,-0.00002822,-0.00031242,0.00003139,0.00003441,-0.00000851,
 -0.00001048,-0.00000575,0.00001904,0.00000306,-0.00000210,-0.00000418,
 -0.00000774,-0.00000327,-0.00000700,0.00002597,-0.00002828,0.00001576,
 -0.00000631,0.00000033,-0.00000357,-0.00000276,0.00000797,0.00000120,0
 .00000010,0.00000249,-0.00000157,-0.00023713,-0.00016845,-0.00012676,0
 .00001170,0.00007598,0.00001750,-0.00000790,-0.00007024,-0.00000915,0.
 00000074,0.00001249,0.00000080,0.00001080,0.00000858,0.00001204,0.0000
 0119,0.00000090,-0.00000203,0.00000893,-0.00003463,-0.00001920,-0.0000
 0789,0.00000082,0.00000410,-0.00000523,0.00001236,-0.00000457,0.000002
 38,0.00000546,0.00000579,-0.00016801,0.00217109,-0.00034688,-0.0003056
 0,-0.00082513,-0.00042367,-0.00033775,-0.00065603,0.00051173,0.0001142
 4,-0.00054046,0.00003957,0.00902972,-0.24238607,-0.05645433,0.02412378
 ,-0.05688568,0.02563952,-0.06109782,0.35150651,-0.00000413,0.00000740,
 -0.00001907,0.00002140,-0.00001784,-0.00002136,0.00003113,-0.00001854,
 -0.00003303,0.00001303,0.00000594,-0.00002400,-0.00000258,-0.00001191,
 -0.00001723,0.00000767,-0.00000171,0.00001551,-0.00000196,0.00000115,-
 0.00001262,-0.00000045,-0.00000111,0.00000410,-0.00000015,0.00000011,0
 .00000387,-0.00000053,0.00000051,0.00000066,-0.00001919,0.00002071,0.0
 0004240,-0.00002467,0.00000623,0.00000841,-0.00007050,0.00001737,0.000
 04979,0.00000571,0.00000100,0.00002086,0.00000690,0.00001262,0.0000351
 7,-0.00002443,-0.00001821,-0.00000492,0.00000089,0.00000322,0.00000166
 ,0.00001032,0.00000057,0.00000623,0.00004754,0.00004284,0.00003593,0.0
 0007366,0.00000552,-0.00002957,0.00000823,-0.00001287,0.00002729,-0.00
 000159,0.00001735,-0.00002379,-0.00001247,-0.00000947,0.00000033,0.000
 00282,-0.00000225,-0.00000657,-0.00000286,0.00000080,0.00000183,0.0000
 0183,0.00000456,0.00000191,0.00000123,-0.00000161,-0.00000123,-0.00001
 753,-0.00001143,-0.00001714,0.00000389,-0.00000548,0.00000262,-0.00000
 454,0.00000295,-0.00000188,0.00000171,0.00000077,0.00000201,-0.0002163
 4,-0.00015511,0.00016977,-0.00018302,0.00006783,-0.00013913,0.00018954
 ,0.00003576,-0.00053407,-0.00007014,-0.00013652,-0.00031316,-0.0008240
 7,0.00013262,-0.00033420,0.00000421,0.00000610,0.00006489,0.00002694,0
 .00000640,0.00002822,-0.00010701,0.00002593,-0.00019020,0.00003683,-0.
 00002467,-0.00007912,0.00019248,-0.00001308,0.00001674,0.00010413,0.00
 000539,0.00025416,-0.00021190,0.00033175,-0.00009367,0.00012605,-0.000
 08659,0.00007264,0.00063566,0.00010131,-0.00002070,0.00120483,0.000668
 76,-0.00073922,0.00000033,0.00000142,-0.00000179,-0.00000177,-0.000029
 58,-0.00002254,0.00003528,0.00002866,-0.00000989,0.00003101,0.00006615
 ,0.00003709,0.00100426,-0.00093409,-0.00006495,-0.00037345,0.00010579,
 -0.00004685,-0.00037220,0.00041349,0.00058265,0.00000674,-0.00046319,0
 .00018599,-0.00033381,-0.00007340,-0.00009399,-0.00031865,-0.00057125,
 -0.00089969,0.00028881,-0.00149412,0.00030434,0.00002777,-0.00002643,0
 .00000336,0.00156176,-0.02250741,0.00314414,-0.00073368,-0.00118142,-0
 .00106603,-0.00390992,0.00009975,-0.00187766,0.00006113,-0.00009749,-0
 .00000542,-0.00002975,0.00003553,0.00003461,-0.00000336,-0.00001427,-0
 .00000536,-0.00000885,0.00001019,0.00000766,0.00000663,-0.00001461,0.0
 0000020,-0.00117562,0.00056186,-0.00015125,0.00071904,-0.00061057,-0.0
 0043417,0.00005246,-0.00006926,0.00004349,0.00024654,-0.00020227,-0.00
 007679,0.00028742,-0.00010260,0.00064382,-0.00001566,-0.00002877,-0.00
 007540,0.00001489,0.00009080,-0.00018015,0.00000503,-0.00009228,0.0001
 1628,-0.00001401,-0.00002775,0.00002899,-0.00000169,-0.00000067,-0.000
 00107,0.00000550,0.00001261,-0.00000290,-0.00000153,0.00000169,-0.0000
 0470,0.00000888,-0.00000682,-0.00000200,-0.00000216,-0.00000032,-0.000
 00087,-0.00000109,0.00000314,0.00000036,-0.00000073,0.00000035,0.00000
 221,-0.00002526,-0.00007111,-0.00008940,-0.00000549,0.00002214,0.00001
 947,0.00000441,-0.00001997,-0.00001221,-0.00000060,0.00000328,0.000002
 15,0.00000523,0.00000395,0.00000195,-0.00000391,0.00000447,-0.00000313
 ,0.00000682,-0.00001314,-0.00001352,-0.00000507,0.00000105,0.00000486,
 -0.00000133,0.00000230,-0.00000181,0.00000034,0.00000210,0.00000274,-0
 .00009693,0.00104771,-0.00039163,-0.00015467,-0.00045868,-0.00018302,-
 0.00017827,-0.00030864,0.00027953,0.00009177,-0.00027187,0.00005225,-0
 .00090976,-0.05202881,-0.08929849,-0.00960252,0.03887098,0.00865994,-0
 .01588150,0.07525657,0.09882875,0.00000508,0.00004103,-0.00004598,0.00
 012482,0.00005325,-0.00000845,0.00017204,0.00004914,0.00004131,0.00006
 687,0.00000005,-0.00005882,0.00007521,0.00002214,-0.00005840,0.0000261
 7,-0.00000923,0.00003681,-0.00002416,0.00002426,-0.00001101,-0.0000215
 5,-0.00002157,0.00001528,-0.00003521,-0.00001802,-0.00000045,-0.000000
 70,-0.00000348,-0.00003604,-0.00014992,-0.00003956,0.00002677,-0.00018
 216,-0.00001234,-0.00006167,-0.00020241,-0.00005507,0.00005052,-0.0000
 5762,-0.00011680,0.00004386,-0.00005764,-0.00001468,0.00009556,0.00025
 291,0.00008650,0.00005245,-0.00008281,-0.00002428,0.00004081,-0.000064
 60,0.00001443,-0.00004107,-0.00038986,0.00001170,0.00008697,0.00018094
 ,0.00002787,-0.00003693,0.00004079,-0.00002755,0.00009451,-0.00000226,
 0.00007528,-0.00008765,-0.00004802,-0.00005170,-0.00000873,0.00003154,
 0.00010479,-0.00001910,-0.00002405,-0.00001407,0.00000842,-0.00000348,
 -0.00000303,-0.00000732,0.00000796,-0.00000392,0.00000309,0.00000850,-
 0.00001298,-0.00003198,-0.00000097,0.00001617,-0.00000371,0.00001858,0
 .00000162,-0.00000907,-0.00001467,-0.00000193,0.00001873,0.00013717,-0
 .00013178,-0.00053057,0.00012515,-0.00027138,0.00018125,0.00053014,-0.
 00018029,-0.00071041,0.00047166,-0.00017840,-0.00037916,0.00015336,-0.
 00009911,-0.00007577,0.00016582,-0.00002024,0.00004579,0.00000120,0.00
 006265,-0.00001726,0.00006538,-0.00019014,0.00013057,0.00010135,0.0000
 6075,-0.00015129,-0.00002871,0.00005720,0.00008618,-0.00043944,0.00024
 231,0.00020094,-0.00040396,0.00111446,-0.00072646,-0.00020771,0.000379
 87,0.00004514,-0.00006004,0.00030004,0.00033229,-0.00023622,-0.0001544
 2,0.00084932,0.00006662,0.00020243,-0.00032580,-0.00001034,0.00001384,
 -0.00002105,0.00003199,-0.00000037,0.00004995,-0.00018297,-0.00026114,
 0.00041803,0.00262820,-0.00264171,0.00108938,-0.00127581,0.00024077,-0
 .00042829,-0.00097520,0.00092199,0.00060387,-0.00018897,-0.00043701,-0
 .00234569,-0.00106449,-0.00048019,0.00006159,-0.00012779,-0.00327793,0
 .00033778,-0.00016572,-0.00102216,-0.00208238,0.00002124,0.00002030,0.
 00031112,-0.03981063,-0.00786661,0.02525609,-0.00034701,0.00021163,0.0
 0124979,-0.00225314,0.00264670,-0.00098473,-0.00042711,-0.00018488,0.0
 0114250,0.00014915,-0.00017281,-0.00014320,-0.00001216,-0.00000370,0.0
 0001463,-0.00000114,0.00001650,0.00003426,-0.00002144,0.00004443,-0.00
 000669,0.00021288,-0.00032722,0.00010800,-0.00014600,0.00002451,-0.000
 35880,0.00002245,0.00002436,-0.00004455,-0.00007898,0.00011228,0.00007
 325,-0.00024155,0.00012602,-0.00061044,-0.00001267,0.00003864,0.000134
 68,-0.00001775,-0.00005529,0.00011965,-0.00000227,0.00000132,-0.000110
 80,0.00002957,0.00024660,-0.00012334,-0.00001704,-0.00002490,0.0000490
 2,-0.00000325,-0.00004263,-0.00000243,0.00001983,-0.00004051,0.0000059
 5,0.00005335,-0.00004916,0.00005025,-0.00001727,-0.00000127,-0.0000084
 0,0.00000126,0.00001231,-0.00000137,0.00000182,0.00000919,-0.00000676,
 0.00008628,-0.00037797,0.00004433,-0.00006465,0.00011825,-0.00002309,0
 .00002032,-0.00007625,0.00000129,-0.00002742,0.00002980,-0.00001618,0.
 00003513,0.00002268,0.00004162,0.00002576,-0.00001497,-0.00000009,0.00
 004564,-0.00008085,-0.00000737,-0.00000151,0.00000283,0.00000750,0.000
 00473,0.00001559,0.00000044,-0.00001779,0.00000912,-0.00000294,-0.0000
 8952,0.00295800,-0.00038435,-0.00031866,-0.00103602,-0.00039774,-0.000
 30703,-0.00077849,0.00042716,0.00039833,-0.00084649,0.00008803,-0.2021
 4353,-0.01529831,0.08513152,0.01387583,-0.00706002,0.01857565,-0.01866
 777,0.03068842,0.02873264,0.25128379,0.00000421,0.00000507,-0.00001272
 ,0.00003587,0.00000386,-0.00000961,0.00004843,-0.00000245,-0.00000305,
 0.00001915,0.00000157,-0.00001778,0.00001622,-0.00000048,-0.00001597,0
 .00000787,-0.00000234,0.00001270,-0.00000607,0.00000522,-0.00000583,-0
 .00000560,-0.00000458,0.00000433,-0.00000718,-0.00000266,0.00000117,0.
 00000011,-0.00000242,-0.00000708,-0.00003858,0.00000516,0.00001932,-0.
 00004841,0.00000358,-0.00001199,-0.00006785,-0.00000216,0.00002714,-0.
 00001759,-0.00001797,0.00001186,-0.00001149,0.00000394,0.00002934,0.00
 003552,0.00000477,0.00000820,-0.00001410,-0.00000272,0.00000767,-0.000
 00915,0.00000431,-0.00000615,-0.00005144,0.00003089,0.00002755,0.00006
 379,0.00000631,-0.00001804,0.00001164,-0.00000964,0.00002881,-0.000001
 22,0.00002122,-0.00002702,-0.00001410,-0.00001404,-0.00000087,0.000009
 42,0.00001838,-0.00000503,-0.00000687,-0.00000232,0.00000267,0.0000002
 1,0.00000077,-0.00000072,0.00000174,0.00000001,-0.00000099,-0.00000079
 ,-0.00000889,-0.00001047,-0.00000007,0.00000230,-0.00000084,0.00000190
 ,0.00000173,-0.00000178,-0.00000265,-0.00000001,0.00000444,-0.00011259
 ,-0.00015155,0.00004737,-0.00001941,-0.00002636,-0.00003286,0.00016636
 ,-0.00011323,-0.00027730,0.00009303,-0.00008288,-0.00017539,-0.0000987
 0,-0.00006888,-0.00002926,0.00003481,0.00000332,0.00002908,0.00001798,
 0.00001272,0.00000721,-0.00013289,0.00000906,-0.00008269,0.00004460,0.
 00000592,-0.00006740,0.00001560,0.00002351,0.00001282,-0.00010437,0.00
 011610,0.00009734,-0.00011712,0.00044137,-0.00021428,0.00000953,0.0000
 7031,0.00002191,0.00029122,0.00016587,0.00000181,0.00005192,0.00020149
 ,-0.00002249,0.00004497,0.00003815,-0.00006621,-0.00000871,0.00000220,
 -0.00001255,0.00001282,0.00001173,0.00000515,-0.00004693,-0.00002911,0
 .00010403,0.00085838,-0.00116376,0.00012429,-0.00043390,0.00014778,-0.
 00009665,-0.00028263,0.00037126,0.00030535,-0.00082210,-0.00043540,-0.
 00129332,-0.00074648,0.00059832,-0.00024199,-0.00052534,-0.00232837,0.
 00109920,0.00075851,0.00043781,-0.00005497,0.00001004,0.00003566,0.000
 08510,-0.01721732,0.00937023,0.00708643,-0.00040760,0.00012135,0.00015
 979,0.00073017,0.00011348,-0.00062292,0.00013341,0.00026330,0.00014054
 ,0.00001446,-0.00001521,-0.00001181,-0.00000457,-0.00000947,0.00000021
 ,-0.00000526,0.00000537,0.00001072,-0.00000465,0.00000443,-0.00000080,
 -0.00044883,0.00008365,-0.00003313,0.00011064,-0.00003755,0.00033425,-
 0.00000054,0.00002395,-0.00001508,0.00008595,-0.00004415,-0.00003753,0
 .00016527,-0.00003983,0.00002788,-0.00003936,0.00001275,0.00002219,-0.
 00001881,0.00002002,-0.00002293,-0.00004931,-0.00000296,-0.00016393,0.
 00001278,0.00004101,-0.00001760,-0.00000512,-0.00000490,0.00001169,0.0
 0000029,-0.00000608,-0.00000151,0.00000027,-0.00000604,-0.00000107,0.0
 0001507,-0.00001542,0.00001199,-0.00000418,-0.00000005,-0.00000220,-0.
 00000061,0.00000402,0.00000021,0.00000039,0.00000202,-0.00000154,-0.00
 005511,-0.00010368,-0.00002564,-0.00000401,0.00004052,0.00000049,-0.00
 000024,-0.00003348,-0.00000217,-0.00000357,0.00000822,-0.00000203,0.00
 000820,0.00000580,0.00000955,0.00000414,-0.00000186,-0.00000046,0.0000
 0837,-0.00002176,-0.00000599,-0.00000236,0.00000057,0.00000188,-0.0000
 0082,0.00000636,-0.00000152,-0.00000162,0.00000302,0.00000133,0.000150
 98,0.00074726,0.00002595,-0.00007333,-0.00019646,-0.00009027,-0.000114
 27,-0.00020509,0.00011185,0.00004142,-0.00021512,0.00001638,-0.0149450
 9,-0.07222979,0.00746932,-0.01307150,0.00394472,0.02795190,0.04347394,
 -0.01295223,-0.03593029,0.00261078,0.07297961,-0.00001068,-0.00000028,
 -0.00000478,-0.00002278,-0.00002915,-0.00001405,-0.00003462,-0.0000271
 6,-0.00003795,-0.00001185,0.00000515,-0.00000269,-0.00002553,-0.000015
 23,0.00000247,-0.00000322,0.00000089,-0.00000053,0.00000702,-0.0000063
 5,-0.00000680,0.00000759,0.00000540,-0.00000125,0.00001089,0.00000478,
 0.00000297,-0.00000072,0.00000335,0.00001119,0.00003331,0.00002462,0.0
 0002519,0.00004245,0.00000658,0.00002858,0.00001266,0.00002700,0.00002
 610,0.00003138,0.00003135,0.00000763,0.00002500,0.00001210,0.00000131,
 -0.00008987,-0.00003459,-0.00002019,0.00002382,0.00000899,-0.00001001,
 0.00002639,-0.00000519,0.00001696,0.00014375,0.00001551,0.00000035,-0.
 00000655,-0.00000248,-0.00001817,-0.00000509,-0.00000445,-0.00000682,0
 .00000110,-0.00000812,0.00001007,0.00000524,0.00000998,0.00000255,-0.0
 0001065,-0.00003214,-0.00000126,0.00000652,0.00000444,-0.00000154,0.00
 000204,0.00000469,0.00000382,-0.00000121,-0.00000183,-0.00000024,-0.00
 002020,-0.00000296,-0.00000614,0.00000464,-0.00000991,0.00000412,-0.00
 000871,0.00000137,0.00000043,0.00000596,0.00000100,-0.00000402,-0.0000
 7764,0.00003522,0.00021272,-0.00014298,0.00009827,-0.00011111,-0.00005
 532,0.00011766,-0.00010235,-0.00021577,-0.00003664,-0.00011012,-0.0005
 7217,0.00008498,-0.00022408,-0.00004852,0.00000310,0.00002259,0.000007
 23,-0.00001331,0.00001927,-0.00012465,0.00007185,-0.00010692,0.0000322
 6,-0.00000454,-0.00002438,0.00013391,-0.00003361,-0.00000812,0.0002318
 2,-0.00010125,0.00011404,-0.00000577,-0.00021365,0.00023550,0.00013648
 ,-0.00017345,0.00003548,0.00022472,-0.00007705,-0.00008962,0.00071288,
 0.00008037,-0.00048625,-0.00007503,-0.00003974,0.00009000,0.00001528,-
 0.00003519,-0.00000289,0.00001953,0.00001521,-0.00001723,0.00010670,0.
 00011276,-0.00010976,-0.00030973,0.00037111,-0.00046975,0.00023691,0.0
 0000710,0.00014947,0.00008974,-0.00008765,0.00015317,0.00064465,-0.000
 11155,0.00027875,-0.00002533,-0.00018358,-0.00006653,0.00047805,0.0009
 5897,-0.00011762,0.00009550,0.00034919,-0.00002555,0.00002720,0.000012
 01,-0.00001698,0.00449757,-0.00063866,0.00678274,-0.00012855,0.0000368
 9,-0.00024306,-0.00009444,-0.00018211,0.00036819,-0.00005056,-0.000227
 64,-0.00028340,-0.00005913,0.00006942,0.00005909,0.00000190,-0.0000062
 2,-0.00000798,-0.00000257,0.00000057,-0.00000633,0.00001086,-0.0000220
 9,0.00000189,-0.00039367,0.00026177,-0.00007696,0.00015308,-0.00001697
 ,0.00029992,0.00000768,-0.00002494,0.00002881,0.00008847,-0.00008454,-
 0.00005457,-0.00014205,-0.00002736,0.00044594,0.00007401,-0.00004800,-
 0.00010332,0.00007510,0.00004678,-0.00010713,0.00012221,-0.00005266,0.
 00046744,-0.00003472,-0.00009177,0.00005686,0.00000525,0.00000599,-0.0
 0001755,0.00000627,0.00002271,-0.00000056,-0.00000229,0.00000979,-0.00
 000335,-0.00001096,0.00001301,-0.00002085,0.00000390,-0.00000015,0.000
 00205,-0.00000098,-0.00000168,0.00000081,-0.00000161,-0.00000309,0.000
 00501,-0.00002086,0.00007916,-0.00007631,0.00001182,-0.00002555,0.0000
 2336,-0.00000118,0.00001602,-0.00000954,0.00000788,-0.00000815,0.00000
 576,-0.00000813,-0.00000439,-0.00001234,-0.00001037,0.00000812,-0.0000
 0234,-0.00000763,0.00001561,-0.00000799,-0.00000274,-0.00000013,0.0000
 0216,-0.00000197,-0.00000444,-0.00000138,0.00000530,-0.00000160,0.0000
 0212,0.00008354,-0.00040725,-0.00015129,0.00005133,0.00015021,0.000138
 40,0.00002107,0.00011428,-0.00001669,-0.00006477,0.00011796,0.00002636
 ,0.08417599,0.00767981,-0.12719283,0.03315889,0.02519863,-0.06605632,0
 .03189184,-0.02745456,-0.01618130,-0.15509277,-0.00570670,0.20268742\\
 0.00000207,-0.00000047,-0.00000292,0.00000170,-0.00000049,-0.00000166,
 0.00000048,0.00000088,-0.00000101,-0.00000012,-0.00000206,-0.00000108,
 -0.00000029,-0.00000233,-0.00000152,0.00000090,0.00000173,-0.00000130,
 0.00000101,0.00000091,-0.00000179,0.00000096,-0.00000184,-0.00000271,0
 .00000003,-0.00000112,-0.00000033,0.00000069,-0.00000145,0.00000074,0.
 00000023,-0.00000115,-0.00000056,0.00000045,0.00000027,-0.00000211,-0.
 00000010,0.00000085,-0.00000395,0.00000167,-0.00000134,-0.00000274,-0.
 00000043,-0.00000309,-0.00000173,-0.00000367,-0.00000260,-0.00000086,-
 0.00000035,-0.00000295,0.00000054,-0.00000039,-0.00000186,0.00000195,0
 .00000387,-0.00000339,0.00000541,0.00000371,0.00000271,-0.00000253,0.0
 0000136,0.00000287,-0.00000248,0.00000060,0.00000139,-0.00000400,0.000
 00146,0.00000194,-0.00000420,0.00000125,-0.00000175,-0.00000452,0.0000
 0137,-0.00000267,-0.00000446,0.00000179,-0.00000093,-0.00000473,0.0000
 0207,-0.00000200,-0.00000441,-0.00000008,-0.00000495,-0.00000218,-0.00
 000138,-0.00000312,-0.00000226,0.00000054,-0.00000373,-0.00000105,-0.0
 0000035,-0.00000469,-0.00000090,-0.00000112,-0.00000025,0.00000109,-0.
 00000109,-0.00000246,0.00000068,-0.00000228,0.00000164,-0.00000060,-0.
 00000151,0.00000029,0.00000011,-0.00000052,-0.00000160,0.00000066,-0.0
 0000051,0.00000327,0.00000105,-0.00000105,0.00000004,0.00000339,-0.000
 00072,0.00000088,0.00000259,0.00000133,0.00000067,-0.00000049,-0.00000
 022,-0.00000175,0.00000094,0.00000105,-0.00000306,-0.00000110,-0.00000
 058,0.00000483,0.00000269,0.00000030,0.00000273,0.00000412,-0.00000107
 ,-0.00000095,0.00000323,-0.00000004,0.00000113,0.00000080,0.00000177,-
 0.00000078,-0.00000067,0.00000092,-0.00000011,-0.00000184,0.00000078,-
 0.00000064,-0.00000131,-0.00000042,-0.00000170,-0.00000179,-0.00000037
 ,0.00000137,0.00000024,-0.00000021,0.00000251,0.00000024,-0.00000223,0
 .00000083,0.00000323,0.00000020,0.00000268,-0.00000002,0.00000092,0.00
 000428,-0.00000119,0.00000065,0.00000338,0.00000148,0.00000106,0.00000
 219,-0.00000247,0.00000078,0.00000225,-0.00000071,-0.00000051,0.000002
 73,-0.00000002,-0.00000038,0.00000255,0.00000174,0.00000114,0.00000372
 ,-0.00000057,0.00000089,0.00000259,-0.00000146,-0.00000304,-0.00000353
 ,0.00000406,-0.00000074,-0.00000085,0.00000150,-0.00000195,-0.00000218
 ,0.00000401,-0.00000212,-0.00000064,0.00000478,-0.00000230,0.00000012,
 0.00000375,-0.00000082,-0.00000041,0.00000297,-0.00000175,0.00000017,0
 .00000422,-0.00000178,-0.00000125,0.00000391,-0.00000098,-0.00000191,0
 .00000039,-0.00000056,-0.00000197,0.00000137,-0.00000008,-0.00000165,-
 0.00000049,-0.00000017,-0.00000081,0.00000065,0.00000074,-0.00000362,-
 0.00000225,0.00000086,-0.00000365,-0.00000195,0.00000142,-0.00000268,-
 0.00000221,0.00000093,-0.00000291,-0.00000323,0.00000028,0.00000072,-0
 .00000075,0.00000079,0.00000043,-0.00000185,0.00000024,-0.00000018,-0.
 00000061,0.00000071,0.00000170,-0.00000121,-0.00000184,0.00000070,0.00
 000376,-0.00000080,0.00000300,0.00000441,0.00000059,0.00000168,0.00000
 207,-0.00000089,0.00000081,0.00000235,-0.00000071,0.00000161,0.0000015
 3,-0.00000236,-0.00000275,0.00000206,-0.00000056,-0.00000012,0.0000036
 7,-0.00000195,-0.00000030,0.00000424,-0.00000232,0.00000151,0.00000533
 ,-0.00000208,0.00000102,0.00000406,0.00000202,0.00000251,-0.00000225,0
 .00000146,0.00000353,-0.00000376,0.00000114,0.00000117,-0.00000401,0.0
 0000129,0.00000324,-0.00000333,-0.00000009,0.00000223,0.00000026,-0.00
 000005,0.00000185,0.00000036,-0.00000053,0.00000241,0.00000258,0.,0.00
 000414,0.00000091\\\@


 MY DESCRIPTION OF EXPERIENCE IS NOT WHAT HAPPENS
 TO A MAN.  EXPERIENCE IS WHAT A MAN DOES WITH WHAT
 HAPPENS TO HIM.
                         - CHUCK KNOX, SEATTLE SEAHAWKS, 1985
 Job cpu time:       5 days  1 hours 41 minutes 35.0 seconds.
 Elapsed time:       0 days  3 hours 52 minutes 42.5 seconds.
 File lengths (MBytes):  RWF=   9684 Int=      0 D2E=      0 Chk=     85 Scr=      1
 Normal termination of Gaussian 16 at Wed May 29 04:48:16 2019.
