 Entering Gaussian System, Link 0=g16
 Input=clay_new-glu_gluC6-AAUR-Na3_1Me2O-bisCF3-ts-b3lyp_d3bj-631gd-pcm_thf.gjf
 Output=clay_new-glu_gluC6-AAUR-Na3_1Me2O-bisCF3-ts-b3lyp_d3bj-631gd-pcm_thf.out
 Initial command:
 /home/ekwan/sw/g16/l1.exe "/scratch/users/ekwan/clay_new-glu_gluC6-AAUR-Na3_1Me2O-bisCF3-ts-b3lyp_d3bj-631gd-pcm_thf/Gau-5883.inp" -scrdir="/scratch/users/ekwan/clay_new-glu_gluC6-AAUR-Na3_1Me2O-bisCF3-ts-b3lyp_d3bj-631gd-pcm_thf/"
 Entering Link 1 = /home/ekwan/sw/g16/l1.exe PID=      5884.
  
 Copyright (c) 1988,1990,1992,1993,1995,1998,2003,2009,2016,
            Gaussian, Inc.  All Rights Reserved.
  
 This is part of the Gaussian(R) 16 program.  It is based on
 the Gaussian(R) 09 system (copyright 2009, Gaussian, Inc.),
 the Gaussian(R) 03 system (copyright 2003, Gaussian, Inc.),
 the Gaussian(R) 98 system (copyright 1998, Gaussian, Inc.),
 the Gaussian(R) 94 system (copyright 1995, Gaussian, Inc.),
 the Gaussian 92(TM) system (copyright 1992, Gaussian, Inc.),
 the Gaussian 90(TM) system (copyright 1990, Gaussian, Inc.),
 the Gaussian 88(TM) system (copyright 1988, Gaussian, Inc.),
 the Gaussian 86(TM) system (copyright 1986, Carnegie Mellon
 University), and the Gaussian 82(TM) system (copyright 1983,
 Carnegie Mellon University). Gaussian is a federally registered
 trademark of Gaussian, Inc.
  
 This software contains proprietary and confidential information,
 including trade secrets, belonging to Gaussian, Inc.
  
 This software is provided under written license and may be
 used, copied, transmitted, or stored only in accord with that
 written license.
  
 The following legend is applicable only to US Government
 contracts under FAR:
  
                    RESTRICTED RIGHTS LEGEND
  
 Use, reproduction and disclosure by the US Government is
 subject to restrictions as set forth in subparagraphs (a)
 and (c) of the Commercial Computer Software - Restricted
 Rights clause in FAR 52.227-19.
  
 Gaussian, Inc.
 340 Quinnipiac St., Bldg. 40, Wallingford CT 06492
  
  
 ---------------------------------------------------------------
 Warning -- This program may not be used in any manner that
 competes with the business of Gaussian, Inc. or will provide
 assistance to any competitor of Gaussian, Inc.  The licensee
 of this program is prohibited from giving any competitor of
 Gaussian, Inc. access to this program.  By using this program,
 the user acknowledges that Gaussian, Inc. is engaged in the
 business of creating and licensing software in the field of
 computational chemistry and represents and warrants to the
 licensee that it is not a competitor of Gaussian, Inc. and that
 it will not use this program in any manner prohibited above.
 ---------------------------------------------------------------
  

 Cite this work as:
 Gaussian 16, Revision A.03,
 M. J. Frisch, G. W. Trucks, H. B. Schlegel, G. E. Scuseria, 
 M. A. Robb, J. R. Cheeseman, G. Scalmani, V. Barone, 
 G. A. Petersson, H. Nakatsuji, X. Li, M. Caricato, A. V. Marenich, 
 J. Bloino, B. G. Janesko, R. Gomperts, B. Mennucci, H. P. Hratchian, 
 J. V. Ortiz, A. F. Izmaylov, J. L. Sonnenberg, D. Williams-Young, 
 F. Ding, F. Lipparini, F. Egidi, J. Goings, B. Peng, A. Petrone, 
 T. Henderson, D. Ranasinghe, V. G. Zakrzewski, J. Gao, N. Rega, 
 G. Zheng, W. Liang, M. Hada, M. Ehara, K. Toyota, R. Fukuda, 
 J. Hasegawa, M. Ishida, T. Nakajima, Y. Honda, O. Kitao, H. Nakai, 
 T. Vreven, K. Throssell, J. A. Montgomery, Jr., J. E. Peralta, 
 F. Ogliaro, M. J. Bearpark, J. J. Heyd, E. N. Brothers, K. N. Kudin, 
 V. N. Staroverov, T. A. Keith, R. Kobayashi, J. Normand, 
 K. Raghavachari, A. P. Rendell, J. C. Burant, S. S. Iyengar, 
 J. Tomasi, M. Cossi, J. M. Millam, M. Klene, C. Adamo, R. Cammi, 
 J. W. Ochterski, R. L. Martin, K. Morokuma, O. Farkas, 
 J. B. Foresman, and D. J. Fox, Gaussian, Inc., Wallingford CT, 2016.
 
 ******************************************
 Gaussian 16:  AS64L-G16RevA.03 25-Dec-2016
                 6-Jun-2019 
 ******************************************
 %mem=48GB
 %nprocshared=32
 Will use up to   32 processors via shared memory.
 ----------------------------------------------------------------------
 #p opt=(ts,noeigentest,calcfc,maxstep=10) freq=noraman b3lyp 6-31g* po
 p=none scrf=(solvent=tetrahydrofuran,pcm) empiricaldispersion=gd3bj
 ----------------------------------------------------------------------
 1/5=1,8=10,10=4,11=1,18=20,26=3,38=1/1,3;
 2/9=110,12=2,17=6,18=5,40=1/2;
 3/5=1,6=6,7=1,11=2,25=1,30=1,70=2201,71=2,72=20,74=-5,124=41,140=1/1,2,3;
 4//1;
 5/5=2,38=5,53=20/2;
 8/6=4,10=90,11=11/1;
 11/6=1,8=1,9=11,15=111,16=1/1,2,10;
 10/6=1,13=1/2;
 7/10=1,18=20,25=1/1,2,3,16;
 1/5=1,8=10,10=4,11=1,18=20,26=3/3(2);
 2/9=110/2;
 99//99;
 2/9=110/2;
 3/5=1,6=6,7=1,11=2,25=1,30=1,70=2205,71=1,72=20,74=-5,124=41/1,2,3;
 4/5=5,16=3,69=1/1;
 5/5=2,38=5,53=20/2;
 7//1,2,3,16;
 1/5=1,8=10,11=1,18=20,26=3/3(-5);
 2/9=110/2;
 99/9=1/99;
 Leave Link    1 at Thu Jun  6 22:38:54 2019, MaxMem=  6442450944 cpu:               7.6 elap:               0.3
 (Enter /home/ekwan/sw/g16/l101.exe)
 -----
 title
 -----
 Symbolic Z-matrix:
 Charge =  0 Multiplicity = 1
 C                     6.22283  -0.50643   0.41983 
 C                     6.57164   0.98265   0.42534 
 C                     6.47945   1.58021  -0.98663 
 C                     4.91008  -0.08277  -1.70928 
 C                     4.92155  -0.77155  -0.34252 
 H                     6.54386   2.67744  -0.95773 
 H                     5.82135   1.50439   1.04001 
 H                     7.03261  -1.05969  -0.07334 
 H                     5.67489  -0.54015  -2.35352 
 H                     4.0717   -0.37361   0.22648 
 O                     5.21643   1.31888  -1.54168 
 O                     7.549     1.06539  -1.7447 
 O                     7.85566   1.1257    1.01258 
 O                     6.0643   -0.96908   1.76285 
 O                     4.73707  -2.16697  -0.57721 
 C                     3.52803  -0.16556  -2.39743 
 H                     3.49029  -1.20277  -2.82402 
 H                     3.63361   0.49527  -3.2978 
 O                     2.48933   0.15989  -1.59419 
 C                     8.2105    2.46384   1.31185 
 H                     8.40923   3.05144   0.40514 
 H                     7.42403   2.96797   1.89341 
 H                     9.12488   2.42369   1.90926 
 C                     7.2129   -1.59855   2.3076 
 H                     7.49722  -2.48581   1.72127 
 H                     8.06603  -0.91369   2.35313 
 H                     6.94672  -1.91786   3.31955 
 C                     4.19179  -2.90145   0.5109 
 H                     4.94486  -3.12735   1.27336 
 H                     3.36544  -2.35726   0.9839 
 H                     3.80978  -3.84      0.09494 
 C                     0.21296  -1.18868   1.20503 
 C                     0.6107   -1.21741  -0.26341 
 C                    -0.11971  -0.20663  -1.09916 
 C                    -0.73618   1.11767   0.78064 
 C                     0.16018   0.26177   1.67861 
 H                     0.07837  -0.19515  -2.16086 
 H                     1.65849  -0.8465   -0.42962 
 H                    -0.77468  -1.64392   1.35529 
 H                    -1.7716    0.77067   0.8606 
 H                     1.173     0.67596   1.65758 
 O                    -0.36875   0.99356  -0.62651 
 O                    -3.36698  -2.162    -2.62892 
 O                     0.48162  -2.53668  -0.78663 
 O                     1.16486  -1.85914   2.01956 
 O                    -0.39663   0.33706   2.98126 
 C                    -0.69159   2.59194   1.12759 
 H                    -1.22571   2.73552   2.0776 
 H                    -1.2213    3.16561   0.35384 
 O                     0.65253   3.00593   1.23012 
 S                    -2.78293  -0.84182  -2.30749 
 O                    -2.18976  -0.0557   -3.39508 
 O                    -1.78376  -1.04402  -1.13335 
 C                    -4.04592   0.13784  -1.50292 
 C                    -5.2275   -0.4645   -1.09279 
 C                    -3.7409    1.45789  -1.1712 
 C                    -6.12222   0.27377  -0.31434 
 H                    -5.43415  -1.49318  -1.36309 
 C                    -4.64319   2.17582  -0.39261 
 H                    -2.81166   1.90492  -1.50489 
 C                    -5.83463   1.58802   0.0425 
 H                    -6.53031   2.15244   0.65167 
 C                     1.40358  -2.84125  -1.84838 
 H                     1.18742  -2.24797  -2.74238 
 H                     2.43057  -2.64242  -1.53816 
 H                     1.26534  -3.90262  -2.06833 
 C                     0.89267  -3.23614   2.23789 
 H                    -0.12019  -3.37693   2.64157 
 H                     0.99645  -3.81993   1.31674 
 H                     1.62114  -3.58567   2.9732 
 C                     0.55696   0.63942   3.996 
 H                     1.32271  -0.14124   4.05988 
 H                     1.03726   1.6076    3.8037 
 H                     0.00463   0.68971   4.93753 
 C                     0.76781   4.38719   1.52112 
 H                     1.83432   4.61234   1.58585 
 H                     0.31537   5.00201   0.72916 
 H                     0.28485   4.63727   2.47788 
 C                     7.63126   1.63473  -3.04481 
 H                     8.52955   1.22557  -3.51261 
 H                     6.75443   1.3832   -3.6525 
 H                     7.71813   2.72996  -2.98924 
 Na                   -1.72322  -3.33134  -0.79752 
 O                    -2.90377  -3.09212   1.17379 
 C                    -3.09656  -4.17327   2.08059 
 H                    -4.16519  -4.38449   2.21536 
 H                    -2.60386  -5.04888   1.65174 
 H                    -2.64905  -3.94514   3.0569 
 C                    -3.49831  -1.88436   1.64457 
 H                    -3.08134  -1.6036    2.6205 
 H                    -3.26265  -1.112     0.91436 
 H                    -4.58725  -1.98911   1.72673 
 C                    -7.3587   -0.40678   0.20772 
 F                    -7.91274  -1.21152  -0.72188 
 F                    -8.29568   0.47415   0.60626 
 F                    -7.06514  -1.18947   1.27749 
 C                    -4.30018   3.56782   0.06593 
 F                    -3.79547   3.54914   1.32487 
 F                    -5.38129   4.37089   0.08752 
 F                    -3.36882   4.14464  -0.72224 
 
 Add virtual bond connecting atoms H38        and O19        Dist= 3.31D+00.
 Add virtual bond connecting atoms O53        and C34        Dist= 3.52D+00.
 Add virtual bond connecting atoms O84        and Na83       Dist= 4.37D+00.
 Add virtual bond connecting atoms Na83       and O44        Dist= 4.43D+00.
 Add virtual bond connecting atoms Na83       and O53        Dist= 4.37D+00.
 Add virtual bond connecting atoms H91        and H40        Dist= 4.54D+00.
 ITRead=  0  0  0  0  0  0  0  0  0  0  0  0  0  0  0  0  0  0  0  0
 ITRead=  0  0  0  0  0  0  0  0  0  0  0  0  0  0  0  0  0  0  0  0
 ITRead=  0  0  0  0  0  0  0  0  0  0  0  0  0  0  0  0  0  0  0  0
 ITRead=  0  0  0  0  0  0  0  0  0  0  0  0  0  0  0  0  0  0  0  0
 ITRead=  0  0  0  0  0  0  0  0  0  0  0  0  0  0  0  0  0  0  0  0
 MicOpt= -1 -1 -1 -1 -1 -1 -1 -1 -1 -1 -1 -1 -1 -1 -1 -1 -1 -1 -1 -1
 MicOpt= -1 -1 -1 -1 -1 -1 -1 -1 -1 -1 -1 -1 -1 -1 -1 -1 -1 -1 -1 -1
 MicOpt= -1 -1 -1 -1 -1 -1 -1 -1 -1 -1 -1 -1 -1 -1 -1 -1 -1 -1 -1 -1
 MicOpt= -1 -1 -1 -1 -1 -1 -1 -1 -1 -1 -1 -1 -1 -1 -1 -1 -1 -1 -1 -1
 MicOpt= -1 -1 -1 -1 -1 -1 -1 -1 -1 -1 -1 -1 -1 -1 -1 -1 -1 -1 -1 -1
 NAtoms=    100 NQM=      100 NQMF=       0 NMMI=      0 NMMIF=      0
                NMic=       0 NMicF=      0.
                    Isotopes and Nuclear Properties:
 (Nuclear quadrupole moments (NQMom) in fm**2, nuclear magnetic moments (NMagM)
  in nuclear magnetons)

  Atom         1           2           3           4           5           6           7           8           9          10
 IAtWgt=          12          12          12          12          12           1           1           1           1           1
 AtmWgt=  12.0000000  12.0000000  12.0000000  12.0000000  12.0000000   1.0078250   1.0078250   1.0078250   1.0078250   1.0078250
 NucSpn=           0           0           0           0           0           1           1           1           1           1
 AtZEff=   0.0000000   0.0000000   0.0000000   0.0000000   0.0000000   0.0000000   0.0000000   0.0000000   0.0000000   0.0000000
 NQMom=    0.0000000   0.0000000   0.0000000   0.0000000   0.0000000   0.0000000   0.0000000   0.0000000   0.0000000   0.0000000
 NMagM=    0.0000000   0.0000000   0.0000000   0.0000000   0.0000000   2.7928460   2.7928460   2.7928460   2.7928460   2.7928460
 AtZNuc=   6.0000000   6.0000000   6.0000000   6.0000000   6.0000000   1.0000000   1.0000000   1.0000000   1.0000000   1.0000000

  Atom        11          12          13          14          15          16          17          18          19          20
 IAtWgt=          16          16          16          16          16          12           1           1          16          12
 AtmWgt=  15.9949146  15.9949146  15.9949146  15.9949146  15.9949146  12.0000000   1.0078250   1.0078250  15.9949146  12.0000000
 NucSpn=           0           0           0           0           0           0           1           1           0           0
 AtZEff=   0.0000000   0.0000000   0.0000000   0.0000000   0.0000000   0.0000000   0.0000000   0.0000000   0.0000000   0.0000000
 NQMom=    0.0000000   0.0000000   0.0000000   0.0000000   0.0000000   0.0000000   0.0000000   0.0000000   0.0000000   0.0000000
 NMagM=    0.0000000   0.0000000   0.0000000   0.0000000   0.0000000   0.0000000   2.7928460   2.7928460   0.0000000   0.0000000
 AtZNuc=   8.0000000   8.0000000   8.0000000   8.0000000   8.0000000   6.0000000   1.0000000   1.0000000   8.0000000   6.0000000

  Atom        21          22          23          24          25          26          27          28          29          30
 IAtWgt=           1           1           1          12           1           1           1          12           1           1
 AtmWgt=   1.0078250   1.0078250   1.0078250  12.0000000   1.0078250   1.0078250   1.0078250  12.0000000   1.0078250   1.0078250
 NucSpn=           1           1           1           0           1           1           1           0           1           1
 AtZEff=   0.0000000   0.0000000   0.0000000   0.0000000   0.0000000   0.0000000   0.0000000   0.0000000   0.0000000   0.0000000
 NQMom=    0.0000000   0.0000000   0.0000000   0.0000000   0.0000000   0.0000000   0.0000000   0.0000000   0.0000000   0.0000000
 NMagM=    2.7928460   2.7928460   2.7928460   0.0000000   2.7928460   2.7928460   2.7928460   0.0000000   2.7928460   2.7928460
 AtZNuc=   1.0000000   1.0000000   1.0000000   6.0000000   1.0000000   1.0000000   1.0000000   6.0000000   1.0000000   1.0000000

  Atom        31          32          33          34          35          36          37          38          39          40
 IAtWgt=           1          12          12          12          12          12           1           1           1           1
 AtmWgt=   1.0078250  12.0000000  12.0000000  12.0000000  12.0000000  12.0000000   1.0078250   1.0078250   1.0078250   1.0078250
 NucSpn=           1           0           0           0           0           0           1           1           1           1
 AtZEff=   0.0000000   0.0000000   0.0000000   0.0000000   0.0000000   0.0000000   0.0000000   0.0000000   0.0000000   0.0000000
 NQMom=    0.0000000   0.0000000   0.0000000   0.0000000   0.0000000   0.0000000   0.0000000   0.0000000   0.0000000   0.0000000
 NMagM=    2.7928460   0.0000000   0.0000000   0.0000000   0.0000000   0.0000000   2.7928460   2.7928460   2.7928460   2.7928460
 AtZNuc=   1.0000000   6.0000000   6.0000000   6.0000000   6.0000000   6.0000000   1.0000000   1.0000000   1.0000000   1.0000000

  Atom        41          42          43          44          45          46          47          48          49          50
 IAtWgt=           1          16          16          16          16          16          12           1           1          16
 AtmWgt=   1.0078250  15.9949146  15.9949146  15.9949146  15.9949146  15.9949146  12.0000000   1.0078250   1.0078250  15.9949146
 NucSpn=           1           0           0           0           0           0           0           1           1           0
 AtZEff=   0.0000000   0.0000000   0.0000000   0.0000000   0.0000000   0.0000000   0.0000000   0.0000000   0.0000000   0.0000000
 NQMom=    0.0000000   0.0000000   0.0000000   0.0000000   0.0000000   0.0000000   0.0000000   0.0000000   0.0000000   0.0000000
 NMagM=    2.7928460   0.0000000   0.0000000   0.0000000   0.0000000   0.0000000   0.0000000   2.7928460   2.7928460   0.0000000
 AtZNuc=   1.0000000   8.0000000   8.0000000   8.0000000   8.0000000   8.0000000   6.0000000   1.0000000   1.0000000   8.0000000

  Atom        51          52          53          54          55          56          57          58          59          60
 IAtWgt=          32          16          16          12          12          12          12           1          12           1
 AtmWgt=  31.9720718  15.9949146  15.9949146  12.0000000  12.0000000  12.0000000  12.0000000   1.0078250  12.0000000   1.0078250
 NucSpn=           0           0           0           0           0           0           0           1           0           1
 AtZEff=   0.0000000   0.0000000   0.0000000   0.0000000   0.0000000   0.0000000   0.0000000   0.0000000   0.0000000   0.0000000
 NQMom=    0.0000000   0.0000000   0.0000000   0.0000000   0.0000000   0.0000000   0.0000000   0.0000000   0.0000000   0.0000000
 NMagM=    0.0000000   0.0000000   0.0000000   0.0000000   0.0000000   0.0000000   0.0000000   2.7928460   0.0000000   2.7928460
 AtZNuc=  16.0000000   8.0000000   8.0000000   6.0000000   6.0000000   6.0000000   6.0000000   1.0000000   6.0000000   1.0000000

  Atom        61          62          63          64          65          66          67          68          69          70
 IAtWgt=          12           1          12           1           1           1          12           1           1           1
 AtmWgt=  12.0000000   1.0078250  12.0000000   1.0078250   1.0078250   1.0078250  12.0000000   1.0078250   1.0078250   1.0078250
 NucSpn=           0           1           0           1           1           1           0           1           1           1
 AtZEff=   0.0000000   0.0000000   0.0000000   0.0000000   0.0000000   0.0000000   0.0000000   0.0000000   0.0000000   0.0000000
 NQMom=    0.0000000   0.0000000   0.0000000   0.0000000   0.0000000   0.0000000   0.0000000   0.0000000   0.0000000   0.0000000
 NMagM=    0.0000000   2.7928460   0.0000000   2.7928460   2.7928460   2.7928460   0.0000000   2.7928460   2.7928460   2.7928460
 AtZNuc=   6.0000000   1.0000000   6.0000000   1.0000000   1.0000000   1.0000000   6.0000000   1.0000000   1.0000000   1.0000000

  Atom        71          72          73          74          75          76          77          78          79          80
 IAtWgt=          12           1           1           1          12           1           1           1          12           1
 AtmWgt=  12.0000000   1.0078250   1.0078250   1.0078250  12.0000000   1.0078250   1.0078250   1.0078250  12.0000000   1.0078250
 NucSpn=           0           1           1           1           0           1           1           1           0           1
 AtZEff=   0.0000000   0.0000000   0.0000000   0.0000000   0.0000000   0.0000000   0.0000000   0.0000000   0.0000000   0.0000000
 NQMom=    0.0000000   0.0000000   0.0000000   0.0000000   0.0000000   0.0000000   0.0000000   0.0000000   0.0000000   0.0000000
 NMagM=    0.0000000   2.7928460   2.7928460   2.7928460   0.0000000   2.7928460   2.7928460   2.7928460   0.0000000   2.7928460
 AtZNuc=   6.0000000   1.0000000   1.0000000   1.0000000   6.0000000   1.0000000   1.0000000   1.0000000   6.0000000   1.0000000

  Atom        81          82          83          84          85          86          87          88          89          90
 IAtWgt=           1           1          23          16          12           1           1           1          12           1
 AtmWgt=   1.0078250   1.0078250  22.9897697  15.9949146  12.0000000   1.0078250   1.0078250   1.0078250  12.0000000   1.0078250
 NucSpn=           1           1           3           0           0           1           1           1           0           1
 AtZEff=   0.0000000   0.0000000   0.0000000   0.0000000   0.0000000   0.0000000   0.0000000   0.0000000   0.0000000   0.0000000
 NQMom=    0.0000000   0.0000000  10.4000000   0.0000000   0.0000000   0.0000000   0.0000000   0.0000000   0.0000000   0.0000000
 NMagM=    2.7928460   2.7928460   2.2175200   0.0000000   0.0000000   2.7928460   2.7928460   2.7928460   0.0000000   2.7928460
 AtZNuc=   1.0000000   1.0000000  11.0000000   8.0000000   6.0000000   1.0000000   1.0000000   1.0000000   6.0000000   1.0000000

  Atom        91          92          93          94          95          96          97          98          99         100
 IAtWgt=           1           1          12          19          19          19          12          19          19          19
 AtmWgt=   1.0078250   1.0078250  12.0000000  18.9984033  18.9984033  18.9984033  12.0000000  18.9984033  18.9984033  18.9984033
 NucSpn=           1           1           0           1           1           1           0           1           1           1
 AtZEff=   0.0000000   0.0000000   0.0000000   0.0000000   0.0000000   0.0000000   0.0000000   0.0000000   0.0000000   0.0000000
 NQMom=    0.0000000   0.0000000   0.0000000   0.0000000   0.0000000   0.0000000   0.0000000   0.0000000   0.0000000   0.0000000
 NMagM=    2.7928460   2.7928460   0.0000000   2.6288670   2.6288670   2.6288670   0.0000000   2.6288670   2.6288670   2.6288670
 AtZNuc=   1.0000000   1.0000000   6.0000000   9.0000000   9.0000000   9.0000000   6.0000000   9.0000000   9.0000000   9.0000000
 Leave Link  101 at Thu Jun  6 22:38:55 2019, MaxMem=  6442450944 cpu:              17.2 elap:               0.6
 (Enter /home/ekwan/sw/g16/l103.exe)

 GradGradGradGradGradGradGradGradGradGradGradGradGradGradGradGradGradGrad
 Berny optimization.
 Initialization pass.
                           ----------------------------
                           !    Initial Parameters    !
                           ! (Angstroms and Degrees)  !
 --------------------------                            --------------------------
 ! Name  Definition              Value          Derivative Info.                !
 --------------------------------------------------------------------------------
 ! R1    R(1,2)                  1.5294         calculate D2E/DX2 analytically  !
 ! R2    R(1,5)                  1.5313         calculate D2E/DX2 analytically  !
 ! R3    R(1,8)                  1.0977         calculate D2E/DX2 analytically  !
 ! R4    R(1,14)                 1.4293         calculate D2E/DX2 analytically  !
 ! R5    R(2,3)                  1.536          calculate D2E/DX2 analytically  !
 ! R6    R(2,7)                  1.1013         calculate D2E/DX2 analytically  !
 ! R7    R(2,13)                 1.4192         calculate D2E/DX2 analytically  !
 ! R8    R(3,6)                  1.0995         calculate D2E/DX2 analytically  !
 ! R9    R(3,11)                 1.4041         calculate D2E/DX2 analytically  !
 ! R10   R(3,12)                 1.4084         calculate D2E/DX2 analytically  !
 ! R11   R(4,5)                  1.5305         calculate D2E/DX2 analytically  !
 ! R12   R(4,9)                  1.0996         calculate D2E/DX2 analytically  !
 ! R13   R(4,11)                 1.4445         calculate D2E/DX2 analytically  !
 ! R14   R(4,16)                 1.5461         calculate D2E/DX2 analytically  !
 ! R15   R(5,10)                 1.0974         calculate D2E/DX2 analytically  !
 ! R16   R(5,15)                 1.427          calculate D2E/DX2 analytically  !
 ! R17   R(12,79)                1.4217         calculate D2E/DX2 analytically  !
 ! R18   R(13,20)                1.4164         calculate D2E/DX2 analytically  !
 ! R19   R(14,24)                1.4185         calculate D2E/DX2 analytically  !
 ! R20   R(15,28)                1.4215         calculate D2E/DX2 analytically  !
 ! R21   R(16,17)                1.1221         calculate D2E/DX2 analytically  !
 ! R22   R(16,18)                1.1218         calculate D2E/DX2 analytically  !
 ! R23   R(16,19)                1.3528         calculate D2E/DX2 analytically  !
 ! R24   R(19,38)                1.7491         calculate D2E/DX2 analytically  !
 ! R25   R(20,21)                1.0986         calculate D2E/DX2 analytically  !
 ! R26   R(20,22)                1.1004         calculate D2E/DX2 analytically  !
 ! R27   R(20,23)                1.093          calculate D2E/DX2 analytically  !
 ! R28   R(24,25)                1.1008         calculate D2E/DX2 analytically  !
 ! R29   R(24,26)                1.095          calculate D2E/DX2 analytically  !
 ! R30   R(24,27)                1.094          calculate D2E/DX2 analytically  !
 ! R31   R(28,29)                1.0952         calculate D2E/DX2 analytically  !
 ! R32   R(28,30)                1.0967         calculate D2E/DX2 analytically  !
 ! R33   R(28,31)                1.0954         calculate D2E/DX2 analytically  !
 ! R34   R(32,33)                1.5216         calculate D2E/DX2 analytically  !
 ! R35   R(32,36)                1.5267         calculate D2E/DX2 analytically  !
 ! R36   R(32,39)                1.0978         calculate D2E/DX2 analytically  !
 ! R37   R(32,45)                1.4209         calculate D2E/DX2 analytically  !
 ! R38   R(33,34)                1.5012         calculate D2E/DX2 analytically  !
 ! R39   R(33,38)                1.1239         calculate D2E/DX2 analytically  !
 ! R40   R(33,44)                1.4251         calculate D2E/DX2 analytically  !
 ! R41   R(34,37)                1.0801         calculate D2E/DX2 analytically  !
 ! R42   R(34,42)                1.3137         calculate D2E/DX2 analytically  !
 ! R43   R(34,53)                1.8632         calculate D2E/DX2 analytically  !
 ! R44   R(35,36)                1.5305         calculate D2E/DX2 analytically  !
 ! R45   R(35,40)                1.0949         calculate D2E/DX2 analytically  !
 ! R46   R(35,42)                1.4596         calculate D2E/DX2 analytically  !
 ! R47   R(35,47)                1.5152         calculate D2E/DX2 analytically  !
 ! R48   R(36,41)                1.0944         calculate D2E/DX2 analytically  !
 ! R49   R(36,46)                1.4187         calculate D2E/DX2 analytically  !
 ! R50   R(40,91)                2.4022         calculate D2E/DX2 analytically  !
 ! R51   R(43,51)                1.479          calculate D2E/DX2 analytically  !
 ! R52   R(44,63)                1.4388         calculate D2E/DX2 analytically  !
 ! R53   R(44,83)                2.3437         calculate D2E/DX2 analytically  !
 ! R54   R(45,67)                1.4205         calculate D2E/DX2 analytically  !
 ! R55   R(46,71)                1.4249         calculate D2E/DX2 analytically  !
 ! R56   R(47,48)                1.0993         calculate D2E/DX2 analytically  !
 ! R57   R(47,49)                1.0993         calculate D2E/DX2 analytically  !
 ! R58   R(47,50)                1.4102         calculate D2E/DX2 analytically  !
 ! R59   R(50,75)                1.4163         calculate D2E/DX2 analytically  !
 ! R60   R(51,52)                1.4672         calculate D2E/DX2 analytically  !
 ! R61   R(51,53)                1.5549         calculate D2E/DX2 analytically  !
 ! R62   R(51,54)                1.7895         calculate D2E/DX2 analytically  !
 ! R63   R(53,83)                2.3126         calculate D2E/DX2 analytically  !
 ! R64   R(54,55)                1.3882         calculate D2E/DX2 analytically  !
 ! R65   R(54,56)                1.3949         calculate D2E/DX2 analytically  !
 ! R66   R(55,57)                1.397          calculate D2E/DX2 analytically  !
 ! R67   R(55,58)                1.0835         calculate D2E/DX2 analytically  !
 ! R68   R(56,59)                1.3913         calculate D2E/DX2 analytically  !
 ! R69   R(56,60)                1.0838         calculate D2E/DX2 analytically  !
 ! R70   R(57,61)                1.3919         calculate D2E/DX2 analytically  !
 ! R71   R(57,93)                1.5049         calculate D2E/DX2 analytically  !
 ! R72   R(59,61)                1.398          calculate D2E/DX2 analytically  !
 ! R73   R(59,97)                1.5052         calculate D2E/DX2 analytically  !
 ! R74   R(61,62)                1.0833         calculate D2E/DX2 analytically  !
 ! R75   R(63,64)                1.0945         calculate D2E/DX2 analytically  !
 ! R76   R(63,65)                1.0911         calculate D2E/DX2 analytically  !
 ! R77   R(63,66)                1.0927         calculate D2E/DX2 analytically  !
 ! R78   R(67,68)                1.0994         calculate D2E/DX2 analytically  !
 ! R79   R(67,69)                1.0955         calculate D2E/DX2 analytically  !
 ! R80   R(67,70)                1.0925         calculate D2E/DX2 analytically  !
 ! R81   R(71,72)                1.0954         calculate D2E/DX2 analytically  !
 ! R82   R(71,73)                1.0977         calculate D2E/DX2 analytically  !
 ! R83   R(71,74)                1.0927         calculate D2E/DX2 analytically  !
 ! R84   R(75,76)                1.0919         calculate D2E/DX2 analytically  !
 ! R85   R(75,77)                1.1            calculate D2E/DX2 analytically  !
 ! R86   R(75,78)                1.1005         calculate D2E/DX2 analytically  !
 ! R87   R(79,80)                1.0923         calculate D2E/DX2 analytically  !
 ! R88   R(79,81)                1.0961         calculate D2E/DX2 analytically  !
 ! R89   R(79,82)                1.1001         calculate D2E/DX2 analytically  !
 ! R90   R(83,84)                2.3102         calculate D2E/DX2 analytically  !
 ! R91   R(84,85)                1.4242         calculate D2E/DX2 analytically  !
 ! R92   R(84,89)                1.4261         calculate D2E/DX2 analytically  !
 ! R93   R(85,86)                1.0976         calculate D2E/DX2 analytically  !
 ! R94   R(85,87)                1.0924         calculate D2E/DX2 analytically  !
 ! R95   R(85,88)                1.0979         calculate D2E/DX2 analytically  !
 ! R96   R(89,90)                1.0978         calculate D2E/DX2 analytically  !
 ! R97   R(89,91)                1.0887         calculate D2E/DX2 analytically  !
 ! R98   R(89,92)                1.0971         calculate D2E/DX2 analytically  !
 ! R99   R(93,94)                1.3486         calculate D2E/DX2 analytically  !
 ! R100  R(93,95)                1.3464         calculate D2E/DX2 analytically  !
 ! R101  R(93,96)                1.3576         calculate D2E/DX2 analytically  !
 ! R102  R(97,98)                1.3565         calculate D2E/DX2 analytically  !
 ! R103  R(97,99)                1.3469         calculate D2E/DX2 analytically  !
 ! R104  R(97,100)               1.3496         calculate D2E/DX2 analytically  !
 ! A1    A(2,1,5)              111.3572         calculate D2E/DX2 analytically  !
 ! A2    A(2,1,8)              108.9103         calculate D2E/DX2 analytically  !
 ! A3    A(2,1,14)             109.6982         calculate D2E/DX2 analytically  !
 ! A4    A(5,1,8)              108.4183         calculate D2E/DX2 analytically  !
 ! A5    A(5,1,14)             108.5122         calculate D2E/DX2 analytically  !
 ! A6    A(8,1,14)             109.9267         calculate D2E/DX2 analytically  !
 ! A7    A(1,2,3)              111.2098         calculate D2E/DX2 analytically  !
 ! A8    A(1,2,7)              107.9317         calculate D2E/DX2 analytically  !
 ! A9    A(1,2,13)             107.8175         calculate D2E/DX2 analytically  !
 ! A10   A(3,2,7)              106.7301         calculate D2E/DX2 analytically  !
 ! A11   A(3,2,13)             113.2951         calculate D2E/DX2 analytically  !
 ! A12   A(7,2,13)             109.7356         calculate D2E/DX2 analytically  !
 ! A13   A(2,3,6)              111.1347         calculate D2E/DX2 analytically  !
 ! A14   A(2,3,11)             110.1795         calculate D2E/DX2 analytically  !
 ! A15   A(2,3,12)             107.8785         calculate D2E/DX2 analytically  !
 ! A16   A(6,3,11)             104.4077         calculate D2E/DX2 analytically  !
 ! A17   A(6,3,12)             109.5383         calculate D2E/DX2 analytically  !
 ! A18   A(11,3,12)            113.7206         calculate D2E/DX2 analytically  !
 ! A19   A(5,4,9)              109.3158         calculate D2E/DX2 analytically  !
 ! A20   A(5,4,11)             109.3586         calculate D2E/DX2 analytically  !
 ! A21   A(5,4,16)             112.3372         calculate D2E/DX2 analytically  !
 ! A22   A(9,4,11)             108.9094         calculate D2E/DX2 analytically  !
 ! A23   A(9,4,16)             109.7963         calculate D2E/DX2 analytically  !
 ! A24   A(11,4,16)            107.0486         calculate D2E/DX2 analytically  !
 ! A25   A(1,5,4)              111.9029         calculate D2E/DX2 analytically  !
 ! A26   A(1,5,10)             109.7046         calculate D2E/DX2 analytically  !
 ! A27   A(1,5,15)             111.1648         calculate D2E/DX2 analytically  !
 ! A28   A(4,5,10)             107.098          calculate D2E/DX2 analytically  !
 ! A29   A(4,5,15)             106.9917         calculate D2E/DX2 analytically  !
 ! A30   A(10,5,15)            109.8612         calculate D2E/DX2 analytically  !
 ! A31   A(3,11,4)             114.6602         calculate D2E/DX2 analytically  !
 ! A32   A(3,12,79)            112.9403         calculate D2E/DX2 analytically  !
 ! A33   A(2,13,20)            114.1633         calculate D2E/DX2 analytically  !
 ! A34   A(1,14,24)            114.4984         calculate D2E/DX2 analytically  !
 ! A35   A(5,15,28)            115.401          calculate D2E/DX2 analytically  !
 ! A36   A(4,16,17)            104.4047         calculate D2E/DX2 analytically  !
 ! A37   A(4,16,18)            103.9782         calculate D2E/DX2 analytically  !
 ! A38   A(4,16,19)            114.1542         calculate D2E/DX2 analytically  !
 ! A39   A(17,16,18)           104.0357         calculate D2E/DX2 analytically  !
 ! A40   A(17,16,19)           114.9778         calculate D2E/DX2 analytically  !
 ! A41   A(18,16,19)           114.0224         calculate D2E/DX2 analytically  !
 ! A42   A(16,19,38)           128.4361         calculate D2E/DX2 analytically  !
 ! A43   A(13,20,21)           112.1016         calculate D2E/DX2 analytically  !
 ! A44   A(13,20,22)           111.4347         calculate D2E/DX2 analytically  !
 ! A45   A(13,20,23)           106.8805         calculate D2E/DX2 analytically  !
 ! A46   A(21,20,22)           108.6899         calculate D2E/DX2 analytically  !
 ! A47   A(21,20,23)           108.6283         calculate D2E/DX2 analytically  !
 ! A48   A(22,20,23)           109.0195         calculate D2E/DX2 analytically  !
 ! A49   A(14,24,25)           111.2372         calculate D2E/DX2 analytically  !
 ! A50   A(14,24,26)           111.6726         calculate D2E/DX2 analytically  !
 ! A51   A(14,24,27)           106.7219         calculate D2E/DX2 analytically  !
 ! A52   A(25,24,26)           108.9672         calculate D2E/DX2 analytically  !
 ! A53   A(25,24,27)           108.679          calculate D2E/DX2 analytically  !
 ! A54   A(26,24,27)           109.4917         calculate D2E/DX2 analytically  !
 ! A55   A(15,28,29)           112.0676         calculate D2E/DX2 analytically  !
 ! A56   A(15,28,30)           111.271          calculate D2E/DX2 analytically  !
 ! A57   A(15,28,31)           106.6073         calculate D2E/DX2 analytically  !
 ! A58   A(29,28,30)           108.6744         calculate D2E/DX2 analytically  !
 ! A59   A(29,28,31)           109.1138         calculate D2E/DX2 analytically  !
 ! A60   A(30,28,31)           109.0369         calculate D2E/DX2 analytically  !
 ! A61   A(33,32,36)           109.0464         calculate D2E/DX2 analytically  !
 ! A62   A(33,32,39)           111.0639         calculate D2E/DX2 analytically  !
 ! A63   A(33,32,45)           111.6646         calculate D2E/DX2 analytically  !
 ! A64   A(36,32,39)           108.6868         calculate D2E/DX2 analytically  !
 ! A65   A(36,32,45)           107.0746         calculate D2E/DX2 analytically  !
 ! A66   A(39,32,45)           109.1806         calculate D2E/DX2 analytically  !
 ! A67   A(32,33,34)           113.4133         calculate D2E/DX2 analytically  !
 ! A68   A(32,33,38)           112.3454         calculate D2E/DX2 analytically  !
 ! A69   A(32,33,44)           110.3726         calculate D2E/DX2 analytically  !
 ! A70   A(34,33,38)            98.5725         calculate D2E/DX2 analytically  !
 ! A71   A(34,33,44)           112.0144         calculate D2E/DX2 analytically  !
 ! A72   A(38,33,44)           109.6138         calculate D2E/DX2 analytically  !
 ! A73   A(33,34,37)           117.7209         calculate D2E/DX2 analytically  !
 ! A74   A(33,34,42)           120.4683         calculate D2E/DX2 analytically  !
 ! A75   A(33,34,53)            98.1721         calculate D2E/DX2 analytically  !
 ! A76   A(37,34,42)           112.2542         calculate D2E/DX2 analytically  !
 ! A77   A(37,34,53)            98.6574         calculate D2E/DX2 analytically  !
 ! A78   A(42,34,53)           104.3527         calculate D2E/DX2 analytically  !
 ! A79   A(36,35,40)           109.4972         calculate D2E/DX2 analytically  !
 ! A80   A(36,35,42)           111.756          calculate D2E/DX2 analytically  !
 ! A81   A(36,35,47)           113.1127         calculate D2E/DX2 analytically  !
 ! A82   A(40,35,42)           106.3498         calculate D2E/DX2 analytically  !
 ! A83   A(40,35,47)           108.6303         calculate D2E/DX2 analytically  !
 ! A84   A(42,35,47)           107.2217         calculate D2E/DX2 analytically  !
 ! A85   A(32,36,35)           111.6876         calculate D2E/DX2 analytically  !
 ! A86   A(32,36,41)           108.7592         calculate D2E/DX2 analytically  !
 ! A87   A(32,36,46)           110.4155         calculate D2E/DX2 analytically  !
 ! A88   A(35,36,41)           108.6066         calculate D2E/DX2 analytically  !
 ! A89   A(35,36,46)           106.2121         calculate D2E/DX2 analytically  !
 ! A90   A(41,36,46)           111.148          calculate D2E/DX2 analytically  !
 ! A91   A(19,38,33)           136.9888         calculate D2E/DX2 analytically  !
 ! A92   A(35,40,91)           146.8214         calculate D2E/DX2 analytically  !
 ! A93   A(34,42,35)           118.1801         calculate D2E/DX2 analytically  !
 ! A94   A(33,44,63)           114.1332         calculate D2E/DX2 analytically  !
 ! A95   A(33,44,83)           113.6284         calculate D2E/DX2 analytically  !
 ! A96   A(63,44,83)           121.8454         calculate D2E/DX2 analytically  !
 ! A97   A(32,45,67)           114.653          calculate D2E/DX2 analytically  !
 ! A98   A(36,46,71)           113.7346         calculate D2E/DX2 analytically  !
 ! A99   A(35,47,48)           108.0997         calculate D2E/DX2 analytically  !
 ! A100  A(35,47,49)           109.415          calculate D2E/DX2 analytically  !
 ! A101  A(35,47,50)           109.2899         calculate D2E/DX2 analytically  !
 ! A102  A(48,47,49)           107.8185         calculate D2E/DX2 analytically  !
 ! A103  A(48,47,50)           111.2201         calculate D2E/DX2 analytically  !
 ! A104  A(49,47,50)           110.9331         calculate D2E/DX2 analytically  !
 ! A105  A(47,50,75)           112.262          calculate D2E/DX2 analytically  !
 ! A106  A(43,51,52)           118.4784         calculate D2E/DX2 analytically  !
 ! A107  A(43,51,53)           107.5653         calculate D2E/DX2 analytically  !
 ! A108  A(43,51,54)           107.9194         calculate D2E/DX2 analytically  !
 ! A109  A(52,51,53)           111.6923         calculate D2E/DX2 analytically  !
 ! A110  A(52,51,54)           108.9838         calculate D2E/DX2 analytically  !
 ! A111  A(53,51,54)           100.6732         calculate D2E/DX2 analytically  !
 ! A112  A(34,53,51)           121.959          calculate D2E/DX2 analytically  !
 ! A113  A(34,53,83)           114.7383         calculate D2E/DX2 analytically  !
 ! A114  A(51,53,83)           104.7788         calculate D2E/DX2 analytically  !
 ! A115  A(51,54,55)           119.7377         calculate D2E/DX2 analytically  !
 ! A116  A(51,54,56)           118.079          calculate D2E/DX2 analytically  !
 ! A117  A(55,54,56)           121.7682         calculate D2E/DX2 analytically  !
 ! A118  A(54,55,57)           118.7157         calculate D2E/DX2 analytically  !
 ! A119  A(54,55,58)           120.0378         calculate D2E/DX2 analytically  !
 ! A120  A(57,55,58)           121.2388         calculate D2E/DX2 analytically  !
 ! A121  A(54,56,59)           118.6599         calculate D2E/DX2 analytically  !
 ! A122  A(54,56,60)           120.3048         calculate D2E/DX2 analytically  !
 ! A123  A(59,56,60)           121.0299         calculate D2E/DX2 analytically  !
 ! A124  A(55,57,61)           120.633          calculate D2E/DX2 analytically  !
 ! A125  A(55,57,93)           118.7228         calculate D2E/DX2 analytically  !
 ! A126  A(61,57,93)           120.5201         calculate D2E/DX2 analytically  !
 ! A127  A(56,59,61)           120.6584         calculate D2E/DX2 analytically  !
 ! A128  A(56,59,97)           119.9934         calculate D2E/DX2 analytically  !
 ! A129  A(61,59,97)           119.2248         calculate D2E/DX2 analytically  !
 ! A130  A(57,61,59)           119.558          calculate D2E/DX2 analytically  !
 ! A131  A(57,61,62)           120.2271         calculate D2E/DX2 analytically  !
 ! A132  A(59,61,62)           120.2148         calculate D2E/DX2 analytically  !
 ! A133  A(44,63,64)           111.1903         calculate D2E/DX2 analytically  !
 ! A134  A(44,63,65)           110.7783         calculate D2E/DX2 analytically  !
 ! A135  A(44,63,66)           105.8478         calculate D2E/DX2 analytically  !
 ! A136  A(64,63,65)           108.6241         calculate D2E/DX2 analytically  !
 ! A137  A(64,63,66)           109.701          calculate D2E/DX2 analytically  !
 ! A138  A(65,63,66)           110.6902         calculate D2E/DX2 analytically  !
 ! A139  A(45,67,68)           110.9224         calculate D2E/DX2 analytically  !
 ! A140  A(45,67,69)           111.6655         calculate D2E/DX2 analytically  !
 ! A141  A(45,67,70)           106.6072         calculate D2E/DX2 analytically  !
 ! A142  A(68,67,69)           109.135          calculate D2E/DX2 analytically  !
 ! A143  A(68,67,70)           109.0382         calculate D2E/DX2 analytically  !
 ! A144  A(69,67,70)           109.4077         calculate D2E/DX2 analytically  !
 ! A145  A(46,71,72)           110.9856         calculate D2E/DX2 analytically  !
 ! A146  A(46,71,73)           110.8054         calculate D2E/DX2 analytically  !
 ! A147  A(46,71,74)           106.5647         calculate D2E/DX2 analytically  !
 ! A148  A(72,71,73)           109.4456         calculate D2E/DX2 analytically  !
 ! A149  A(72,71,74)           109.6276         calculate D2E/DX2 analytically  !
 ! A150  A(73,71,74)           109.3596         calculate D2E/DX2 analytically  !
 ! A151  A(50,75,76)           107.0243         calculate D2E/DX2 analytically  !
 ! A152  A(50,75,77)           111.3282         calculate D2E/DX2 analytically  !
 ! A153  A(50,75,78)           111.378          calculate D2E/DX2 analytically  !
 ! A154  A(76,75,77)           109.2192         calculate D2E/DX2 analytically  !
 ! A155  A(76,75,78)           109.2831         calculate D2E/DX2 analytically  !
 ! A156  A(77,75,78)           108.5666         calculate D2E/DX2 analytically  !
 ! A157  A(12,79,80)           106.8112         calculate D2E/DX2 analytically  !
 ! A158  A(12,79,81)           111.6431         calculate D2E/DX2 analytically  !
 ! A159  A(12,79,82)           110.9201         calculate D2E/DX2 analytically  !
 ! A160  A(80,79,81)           109.5407         calculate D2E/DX2 analytically  !
 ! A161  A(80,79,82)           109.246          calculate D2E/DX2 analytically  !
 ! A162  A(81,79,82)           108.6417         calculate D2E/DX2 analytically  !
 ! A163  A(44,83,53)            71.9379         calculate D2E/DX2 analytically  !
 ! A164  A(44,83,84)           116.2105         calculate D2E/DX2 analytically  !
 ! A165  A(53,83,84)            90.4653         calculate D2E/DX2 analytically  !
 ! A166  A(83,84,85)           122.2682         calculate D2E/DX2 analytically  !
 ! A167  A(83,84,89)           125.6213         calculate D2E/DX2 analytically  !
 ! A168  A(85,84,89)           112.103          calculate D2E/DX2 analytically  !
 ! A169  A(84,85,86)           110.8582         calculate D2E/DX2 analytically  !
 ! A170  A(84,85,87)           107.3049         calculate D2E/DX2 analytically  !
 ! A171  A(84,85,88)           110.6869         calculate D2E/DX2 analytically  !
 ! A172  A(86,85,87)           109.4555         calculate D2E/DX2 analytically  !
 ! A173  A(86,85,88)           109.1248         calculate D2E/DX2 analytically  !
 ! A174  A(87,85,88)           109.3781         calculate D2E/DX2 analytically  !
 ! A175  A(84,89,90)           110.5924         calculate D2E/DX2 analytically  !
 ! A176  A(84,89,91)           106.8075         calculate D2E/DX2 analytically  !
 ! A177  A(84,89,92)           110.9569         calculate D2E/DX2 analytically  !
 ! A178  A(90,89,91)           109.4278         calculate D2E/DX2 analytically  !
 ! A179  A(90,89,92)           109.564          calculate D2E/DX2 analytically  !
 ! A180  A(91,89,92)           109.4404         calculate D2E/DX2 analytically  !
 ! A181  A(40,91,89)           134.8588         calculate D2E/DX2 analytically  !
 ! A182  A(57,93,94)           111.6093         calculate D2E/DX2 analytically  !
 ! A183  A(57,93,95)           112.2475         calculate D2E/DX2 analytically  !
 ! A184  A(57,93,96)           110.8797         calculate D2E/DX2 analytically  !
 ! A185  A(94,93,95)           107.9728         calculate D2E/DX2 analytically  !
 ! A186  A(94,93,96)           106.7364         calculate D2E/DX2 analytically  !
 ! A187  A(95,93,96)           107.1241         calculate D2E/DX2 analytically  !
 ! A188  A(59,97,98)           110.7809         calculate D2E/DX2 analytically  !
 ! A189  A(59,97,99)           111.9231         calculate D2E/DX2 analytically  !
 ! A190  A(59,97,100)          112.0008         calculate D2E/DX2 analytically  !
 ! A191  A(98,97,99)           106.9769         calculate D2E/DX2 analytically  !
 ! A192  A(98,97,100)          106.926          calculate D2E/DX2 analytically  !
 ! A193  A(99,97,100)          107.9656         calculate D2E/DX2 analytically  !
 ! D1    D(5,1,2,3)            -48.6982         calculate D2E/DX2 analytically  !
 ! D2    D(5,1,2,7)             68.0535         calculate D2E/DX2 analytically  !
 ! D3    D(5,1,2,13)          -173.4694         calculate D2E/DX2 analytically  !
 ! D4    D(8,1,2,3)             70.811          calculate D2E/DX2 analytically  !
 ! D5    D(8,1,2,7)           -172.4373         calculate D2E/DX2 analytically  !
 ! D6    D(8,1,2,13)           -53.9602         calculate D2E/DX2 analytically  !
 ! D7    D(14,1,2,3)          -168.8375         calculate D2E/DX2 analytically  !
 ! D8    D(14,1,2,7)           -52.0858         calculate D2E/DX2 analytically  !
 ! D9    D(14,1,2,13)           66.3913         calculate D2E/DX2 analytically  !
 ! D10   D(2,1,5,4)             48.8081         calculate D2E/DX2 analytically  !
 ! D11   D(2,1,5,10)           -69.9154         calculate D2E/DX2 analytically  !
 ! D12   D(2,1,5,15)           168.3733         calculate D2E/DX2 analytically  !
 ! D13   D(8,1,5,4)            -70.993          calculate D2E/DX2 analytically  !
 ! D14   D(8,1,5,10)           170.2836         calculate D2E/DX2 analytically  !
 ! D15   D(8,1,5,15)            48.5723         calculate D2E/DX2 analytically  !
 ! D16   D(14,1,5,4)           169.6452         calculate D2E/DX2 analytically  !
 ! D17   D(14,1,5,10)           50.9217         calculate D2E/DX2 analytically  !
 ! D18   D(14,1,5,15)          -70.7896         calculate D2E/DX2 analytically  !
 ! D19   D(2,1,14,24)          -97.1221         calculate D2E/DX2 analytically  !
 ! D20   D(5,1,14,24)          141.021          calculate D2E/DX2 analytically  !
 ! D21   D(8,1,14,24)           22.6098         calculate D2E/DX2 analytically  !
 ! D22   D(1,2,3,6)            169.3729         calculate D2E/DX2 analytically  !
 ! D23   D(1,2,3,11)            54.1412         calculate D2E/DX2 analytically  !
 ! D24   D(1,2,3,12)           -70.5314         calculate D2E/DX2 analytically  !
 ! D25   D(7,2,3,6)             51.889          calculate D2E/DX2 analytically  !
 ! D26   D(7,2,3,11)           -63.3427         calculate D2E/DX2 analytically  !
 ! D27   D(7,2,3,12)           171.9847         calculate D2E/DX2 analytically  !
 ! D28   D(13,2,3,6)           -68.9964         calculate D2E/DX2 analytically  !
 ! D29   D(13,2,3,11)          175.7718         calculate D2E/DX2 analytically  !
 ! D30   D(13,2,3,12)           51.0992         calculate D2E/DX2 analytically  !
 ! D31   D(1,2,13,20)         -168.9478         calculate D2E/DX2 analytically  !
 ! D32   D(3,2,13,20)           67.5393         calculate D2E/DX2 analytically  !
 ! D33   D(7,2,13,20)          -51.6331         calculate D2E/DX2 analytically  !
 ! D34   D(2,3,11,4)           -61.8796         calculate D2E/DX2 analytically  !
 ! D35   D(6,3,11,4)           178.712          calculate D2E/DX2 analytically  !
 ! D36   D(12,3,11,4)           59.3687         calculate D2E/DX2 analytically  !
 ! D37   D(2,3,12,79)         -175.1605         calculate D2E/DX2 analytically  !
 ! D38   D(6,3,12,79)          -54.0642         calculate D2E/DX2 analytically  !
 ! D39   D(11,3,12,79)          62.3154         calculate D2E/DX2 analytically  !
 ! D40   D(9,4,5,1)             66.3855         calculate D2E/DX2 analytically  !
 ! D41   D(9,4,5,10)          -173.3576         calculate D2E/DX2 analytically  !
 ! D42   D(9,4,5,15)           -55.6038         calculate D2E/DX2 analytically  !
 ! D43   D(11,4,5,1)           -52.7666         calculate D2E/DX2 analytically  !
 ! D44   D(11,4,5,10)           67.4904         calculate D2E/DX2 analytically  !
 ! D45   D(11,4,5,15)         -174.7559         calculate D2E/DX2 analytically  !
 ! D46   D(16,4,5,1)          -171.4732         calculate D2E/DX2 analytically  !
 ! D47   D(16,4,5,10)          -51.2162         calculate D2E/DX2 analytically  !
 ! D48   D(16,4,5,15)           66.5375         calculate D2E/DX2 analytically  !
 ! D49   D(5,4,11,3)            61.1067         calculate D2E/DX2 analytically  !
 ! D50   D(9,4,11,3)           -58.2965         calculate D2E/DX2 analytically  !
 ! D51   D(16,4,11,3)         -176.9494         calculate D2E/DX2 analytically  !
 ! D52   D(5,4,16,17)          -79.0107         calculate D2E/DX2 analytically  !
 ! D53   D(5,4,16,18)          172.207          calculate D2E/DX2 analytically  !
 ! D54   D(5,4,16,19)           47.3588         calculate D2E/DX2 analytically  !
 ! D55   D(9,4,16,17)           42.8576         calculate D2E/DX2 analytically  !
 ! D56   D(9,4,16,18)          -65.9248         calculate D2E/DX2 analytically  !
 ! D57   D(9,4,16,19)          169.2271         calculate D2E/DX2 analytically  !
 ! D58   D(11,4,16,17)         160.9334         calculate D2E/DX2 analytically  !
 ! D59   D(11,4,16,18)          52.1511         calculate D2E/DX2 analytically  !
 ! D60   D(11,4,16,19)         -72.6971         calculate D2E/DX2 analytically  !
 ! D61   D(1,5,15,28)           81.774          calculate D2E/DX2 analytically  !
 ! D62   D(4,5,15,28)         -155.7746         calculate D2E/DX2 analytically  !
 ! D63   D(10,5,15,28)         -39.8459         calculate D2E/DX2 analytically  !
 ! D64   D(3,12,79,80)         175.811          calculate D2E/DX2 analytically  !
 ! D65   D(3,12,79,81)         -64.4668         calculate D2E/DX2 analytically  !
 ! D66   D(3,12,79,82)          56.8551         calculate D2E/DX2 analytically  !
 ! D67   D(2,13,20,21)         -70.8044         calculate D2E/DX2 analytically  !
 ! D68   D(2,13,20,22)          51.2679         calculate D2E/DX2 analytically  !
 ! D69   D(2,13,20,23)         170.2805         calculate D2E/DX2 analytically  !
 ! D70   D(1,14,24,25)         -60.4397         calculate D2E/DX2 analytically  !
 ! D71   D(1,14,24,26)          61.5435         calculate D2E/DX2 analytically  !
 ! D72   D(1,14,24,27)        -178.8333         calculate D2E/DX2 analytically  !
 ! D73   D(5,15,28,29)         -78.7824         calculate D2E/DX2 analytically  !
 ! D74   D(5,15,28,30)          43.1272         calculate D2E/DX2 analytically  !
 ! D75   D(5,15,28,31)         161.902          calculate D2E/DX2 analytically  !
 ! D76   D(4,16,19,38)         -82.3375         calculate D2E/DX2 analytically  !
 ! D77   D(17,16,19,38)         38.305          calculate D2E/DX2 analytically  !
 ! D78   D(18,16,19,38)        158.3409         calculate D2E/DX2 analytically  !
 ! D79   D(16,19,38,33)       -120.3165         calculate D2E/DX2 analytically  !
 ! D80   D(36,32,33,34)        -44.9894         calculate D2E/DX2 analytically  !
 ! D81   D(36,32,33,38)         65.7192         calculate D2E/DX2 analytically  !
 ! D82   D(36,32,33,44)       -171.6111         calculate D2E/DX2 analytically  !
 ! D83   D(39,32,33,34)         74.7585         calculate D2E/DX2 analytically  !
 ! D84   D(39,32,33,38)       -174.5328         calculate D2E/DX2 analytically  !
 ! D85   D(39,32,33,44)        -51.8632         calculate D2E/DX2 analytically  !
 ! D86   D(45,32,33,34)       -163.1127         calculate D2E/DX2 analytically  !
 ! D87   D(45,32,33,38)        -52.4041         calculate D2E/DX2 analytically  !
 ! D88   D(45,32,33,44)         70.2656         calculate D2E/DX2 analytically  !
 ! D89   D(33,32,36,35)         53.4429         calculate D2E/DX2 analytically  !
 ! D90   D(33,32,36,41)        -66.4057         calculate D2E/DX2 analytically  !
 ! D91   D(33,32,36,46)        171.388          calculate D2E/DX2 analytically  !
 ! D92   D(39,32,36,35)        -67.7653         calculate D2E/DX2 analytically  !
 ! D93   D(39,32,36,41)        172.3861         calculate D2E/DX2 analytically  !
 ! D94   D(39,32,36,46)         50.1798         calculate D2E/DX2 analytically  !
 ! D95   D(45,32,36,35)        174.4138         calculate D2E/DX2 analytically  !
 ! D96   D(45,32,36,41)         54.5652         calculate D2E/DX2 analytically  !
 ! D97   D(45,32,36,46)        -67.6411         calculate D2E/DX2 analytically  !
 ! D98   D(33,32,45,67)        -91.7716         calculate D2E/DX2 analytically  !
 ! D99   D(36,32,45,67)        148.9311         calculate D2E/DX2 analytically  !
 ! D100  D(39,32,45,67)         31.4334         calculate D2E/DX2 analytically  !
 ! D101  D(32,33,34,37)       -177.4355         calculate D2E/DX2 analytically  !
 ! D102  D(32,33,34,42)         38.9058         calculate D2E/DX2 analytically  !
 ! D103  D(32,33,34,53)        -73.1208         calculate D2E/DX2 analytically  !
 ! D104  D(38,33,34,37)         63.6007         calculate D2E/DX2 analytically  !
 ! D105  D(38,33,34,42)        -80.058          calculate D2E/DX2 analytically  !
 ! D106  D(38,33,34,53)        167.9154         calculate D2E/DX2 analytically  !
 ! D107  D(44,33,34,37)        -51.6841         calculate D2E/DX2 analytically  !
 ! D108  D(44,33,34,42)        164.6573         calculate D2E/DX2 analytically  !
 ! D109  D(44,33,34,53)         52.6306         calculate D2E/DX2 analytically  !
 ! D110  D(32,33,38,19)       -139.2329         calculate D2E/DX2 analytically  !
 ! D111  D(34,33,38,19)        -19.4682         calculate D2E/DX2 analytically  !
 ! D112  D(44,33,38,19)         97.6704         calculate D2E/DX2 analytically  !
 ! D113  D(32,33,44,63)       -150.0569         calculate D2E/DX2 analytically  !
 ! D114  D(32,33,44,83)         64.1446         calculate D2E/DX2 analytically  !
 ! D115  D(34,33,44,63)         82.5446         calculate D2E/DX2 analytically  !
 ! D116  D(34,33,44,83)        -63.2539         calculate D2E/DX2 analytically  !
 ! D117  D(38,33,44,63)        -25.8022         calculate D2E/DX2 analytically  !
 ! D118  D(38,33,44,83)       -171.6008         calculate D2E/DX2 analytically  !
 ! D119  D(33,34,42,35)        -38.2754         calculate D2E/DX2 analytically  !
 ! D120  D(37,34,42,35)        176.2518         calculate D2E/DX2 analytically  !
 ! D121  D(53,34,42,35)         70.4338         calculate D2E/DX2 analytically  !
 ! D122  D(33,34,53,51)       -152.561          calculate D2E/DX2 analytically  !
 ! D123  D(33,34,53,83)        -24.3546         calculate D2E/DX2 analytically  !
 ! D124  D(37,34,53,51)        -32.7448         calculate D2E/DX2 analytically  !
 ! D125  D(37,34,53,83)         95.4616         calculate D2E/DX2 analytically  !
 ! D126  D(42,34,53,51)         83.0011         calculate D2E/DX2 analytically  !
 ! D127  D(42,34,53,83)       -148.7924         calculate D2E/DX2 analytically  !
 ! D128  D(40,35,36,32)         65.0801         calculate D2E/DX2 analytically  !
 ! D129  D(40,35,36,41)       -174.9815         calculate D2E/DX2 analytically  !
 ! D130  D(40,35,36,46)        -55.3561         calculate D2E/DX2 analytically  !
 ! D131  D(42,35,36,32)        -52.4896         calculate D2E/DX2 analytically  !
 ! D132  D(42,35,36,41)         67.4488         calculate D2E/DX2 analytically  !
 ! D133  D(42,35,36,46)       -172.9258         calculate D2E/DX2 analytically  !
 ! D134  D(47,35,36,32)       -173.6156         calculate D2E/DX2 analytically  !
 ! D135  D(47,35,36,41)        -53.6772         calculate D2E/DX2 analytically  !
 ! D136  D(47,35,36,46)         65.9482         calculate D2E/DX2 analytically  !
 ! D137  D(36,35,40,91)        -44.6121         calculate D2E/DX2 analytically  !
 ! D138  D(42,35,40,91)         76.2946         calculate D2E/DX2 analytically  !
 ! D139  D(47,35,40,91)       -168.5857         calculate D2E/DX2 analytically  !
 ! D140  D(36,35,42,34)         44.3045         calculate D2E/DX2 analytically  !
 ! D141  D(40,35,42,34)        -75.1398         calculate D2E/DX2 analytically  !
 ! D142  D(47,35,42,34)        168.7892         calculate D2E/DX2 analytically  !
 ! D143  D(36,35,47,48)        -71.9143         calculate D2E/DX2 analytically  !
 ! D144  D(36,35,47,49)        170.9217         calculate D2E/DX2 analytically  !
 ! D145  D(36,35,47,50)         49.2731         calculate D2E/DX2 analytically  !
 ! D146  D(40,35,47,48)         49.8779         calculate D2E/DX2 analytically  !
 ! D147  D(40,35,47,49)        -67.2861         calculate D2E/DX2 analytically  !
 ! D148  D(40,35,47,50)        171.0653         calculate D2E/DX2 analytically  !
 ! D149  D(42,35,47,48)        164.4294         calculate D2E/DX2 analytically  !
 ! D150  D(42,35,47,49)         47.2653         calculate D2E/DX2 analytically  !
 ! D151  D(42,35,47,50)        -74.3832         calculate D2E/DX2 analytically  !
 ! D152  D(32,36,46,71)        107.5678         calculate D2E/DX2 analytically  !
 ! D153  D(35,36,46,71)       -131.1762         calculate D2E/DX2 analytically  !
 ! D154  D(41,36,46,71)        -13.2231         calculate D2E/DX2 analytically  !
 ! D155  D(35,40,91,89)         73.2378         calculate D2E/DX2 analytically  !
 ! D156  D(33,44,63,64)        -67.0488         calculate D2E/DX2 analytically  !
 ! D157  D(33,44,63,65)         53.8446         calculate D2E/DX2 analytically  !
 ! D158  D(33,44,63,66)        173.88           calculate D2E/DX2 analytically  !
 ! D159  D(83,44,63,64)         75.6335         calculate D2E/DX2 analytically  !
 ! D160  D(83,44,63,65)       -163.473          calculate D2E/DX2 analytically  !
 ! D161  D(83,44,63,66)        -43.4377         calculate D2E/DX2 analytically  !
 ! D162  D(33,44,83,53)         32.372          calculate D2E/DX2 analytically  !
 ! D163  D(33,44,83,84)        -48.9418         calculate D2E/DX2 analytically  !
 ! D164  D(63,44,83,53)       -110.4802         calculate D2E/DX2 analytically  !
 ! D165  D(63,44,83,84)        168.206          calculate D2E/DX2 analytically  !
 ! D166  D(32,45,67,68)        -54.3132         calculate D2E/DX2 analytically  !
 ! D167  D(32,45,67,69)         67.6574         calculate D2E/DX2 analytically  !
 ! D168  D(32,45,67,70)       -172.8974         calculate D2E/DX2 analytically  !
 ! D169  D(36,46,71,72)        -61.8824         calculate D2E/DX2 analytically  !
 ! D170  D(36,46,71,73)         59.9329         calculate D2E/DX2 analytically  !
 ! D171  D(36,46,71,74)        178.814          calculate D2E/DX2 analytically  !
 ! D172  D(35,47,50,75)        178.5385         calculate D2E/DX2 analytically  !
 ! D173  D(48,47,50,75)        -62.1874         calculate D2E/DX2 analytically  !
 ! D174  D(49,47,50,75)         57.8114         calculate D2E/DX2 analytically  !
 ! D175  D(47,50,75,76)        179.7286         calculate D2E/DX2 analytically  !
 ! D176  D(47,50,75,77)        -60.9878         calculate D2E/DX2 analytically  !
 ! D177  D(47,50,75,78)         60.3388         calculate D2E/DX2 analytically  !
 ! D178  D(43,51,53,34)        137.6866         calculate D2E/DX2 analytically  !
 ! D179  D(43,51,53,83)          5.2558         calculate D2E/DX2 analytically  !
 ! D180  D(52,51,53,34)          6.0665         calculate D2E/DX2 analytically  !
 ! D181  D(52,51,53,83)       -126.3644         calculate D2E/DX2 analytically  !
 ! D182  D(54,51,53,34)       -109.479          calculate D2E/DX2 analytically  !
 ! D183  D(54,51,53,83)        118.0901         calculate D2E/DX2 analytically  !
 ! D184  D(43,51,54,55)         10.6908         calculate D2E/DX2 analytically  !
 ! D185  D(43,51,54,56)       -176.5709         calculate D2E/DX2 analytically  !
 ! D186  D(52,51,54,55)        140.5725         calculate D2E/DX2 analytically  !
 ! D187  D(52,51,54,56)        -46.6892         calculate D2E/DX2 analytically  !
 ! D188  D(53,51,54,55)       -101.8726         calculate D2E/DX2 analytically  !
 ! D189  D(53,51,54,56)         70.8657         calculate D2E/DX2 analytically  !
 ! D190  D(34,53,83,44)         -2.0245         calculate D2E/DX2 analytically  !
 ! D191  D(34,53,83,84)        115.4872         calculate D2E/DX2 analytically  !
 ! D192  D(51,53,83,44)        134.3855         calculate D2E/DX2 analytically  !
 ! D193  D(51,53,83,84)       -108.1028         calculate D2E/DX2 analytically  !
 ! D194  D(51,54,55,57)        171.7159         calculate D2E/DX2 analytically  !
 ! D195  D(51,54,55,58)         -7.2866         calculate D2E/DX2 analytically  !
 ! D196  D(56,54,55,57)         -0.7465         calculate D2E/DX2 analytically  !
 ! D197  D(56,54,55,58)       -179.749          calculate D2E/DX2 analytically  !
 ! D198  D(51,54,56,59)       -171.6877         calculate D2E/DX2 analytically  !
 ! D199  D(51,54,56,60)          7.4747         calculate D2E/DX2 analytically  !
 ! D200  D(55,54,56,59)          0.8949         calculate D2E/DX2 analytically  !
 ! D201  D(55,54,56,60)       -179.9427         calculate D2E/DX2 analytically  !
 ! D202  D(54,55,57,61)          0.03           calculate D2E/DX2 analytically  !
 ! D203  D(54,55,57,93)       -175.942          calculate D2E/DX2 analytically  !
 ! D204  D(58,55,57,61)        179.02           calculate D2E/DX2 analytically  !
 ! D205  D(58,55,57,93)          3.048          calculate D2E/DX2 analytically  !
 ! D206  D(54,56,59,61)         -0.3292         calculate D2E/DX2 analytically  !
 ! D207  D(54,56,59,97)        175.6026         calculate D2E/DX2 analytically  !
 ! D208  D(60,56,59,61)       -179.4853         calculate D2E/DX2 analytically  !
 ! D209  D(60,56,59,97)         -3.5535         calculate D2E/DX2 analytically  !
 ! D210  D(55,57,61,59)          0.513          calculate D2E/DX2 analytically  !
 ! D211  D(55,57,61,62)       -179.611          calculate D2E/DX2 analytically  !
 ! D212  D(93,57,61,59)        176.4124         calculate D2E/DX2 analytically  !
 ! D213  D(93,57,61,62)         -3.7117         calculate D2E/DX2 analytically  !
 ! D214  D(55,57,93,94)        -41.2139         calculate D2E/DX2 analytically  !
 ! D215  D(55,57,93,95)       -162.5878         calculate D2E/DX2 analytically  !
 ! D216  D(55,57,93,96)         77.642          calculate D2E/DX2 analytically  !
 ! D217  D(61,57,93,94)        142.8095         calculate D2E/DX2 analytically  !
 ! D218  D(61,57,93,95)         21.4356         calculate D2E/DX2 analytically  !
 ! D219  D(61,57,93,96)        -98.3346         calculate D2E/DX2 analytically  !
 ! D220  D(56,59,61,57)         -0.3601         calculate D2E/DX2 analytically  !
 ! D221  D(56,59,61,62)        179.7639         calculate D2E/DX2 analytically  !
 ! D222  D(97,59,61,57)       -176.3228         calculate D2E/DX2 analytically  !
 ! D223  D(97,59,61,62)          3.8012         calculate D2E/DX2 analytically  !
 ! D224  D(56,59,97,98)        -96.6386         calculate D2E/DX2 analytically  !
 ! D225  D(56,59,97,99)        144.0618         calculate D2E/DX2 analytically  !
 ! D226  D(56,59,97,100)        22.6479         calculate D2E/DX2 analytically  !
 ! D227  D(61,59,97,98)         79.3514         calculate D2E/DX2 analytically  !
 ! D228  D(61,59,97,99)        -39.9482         calculate D2E/DX2 analytically  !
 ! D229  D(61,59,97,100)      -161.362          calculate D2E/DX2 analytically  !
 ! D230  D(44,83,84,85)       -101.0948         calculate D2E/DX2 analytically  !
 ! D231  D(44,83,84,89)         77.8314         calculate D2E/DX2 analytically  !
 ! D232  D(53,83,84,85)       -171.1208         calculate D2E/DX2 analytically  !
 ! D233  D(53,83,84,89)          7.8055         calculate D2E/DX2 analytically  !
 ! D234  D(83,84,85,86)       -119.7669         calculate D2E/DX2 analytically  !
 ! D235  D(83,84,85,87)         -0.2918         calculate D2E/DX2 analytically  !
 ! D236  D(83,84,85,88)        118.9917         calculate D2E/DX2 analytically  !
 ! D237  D(89,84,85,86)         61.1751         calculate D2E/DX2 analytically  !
 ! D238  D(89,84,85,87)       -179.3498         calculate D2E/DX2 analytically  !
 ! D239  D(89,84,85,88)        -60.0663         calculate D2E/DX2 analytically  !
 ! D240  D(83,84,89,90)       -120.493          calculate D2E/DX2 analytically  !
 ! D241  D(83,84,89,91)         -1.5022         calculate D2E/DX2 analytically  !
 ! D242  D(83,84,89,92)        117.7068         calculate D2E/DX2 analytically  !
 ! D243  D(85,84,89,90)         58.5271         calculate D2E/DX2 analytically  !
 ! D244  D(85,84,89,91)        177.5179         calculate D2E/DX2 analytically  !
 ! D245  D(85,84,89,92)        -63.2731         calculate D2E/DX2 analytically  !
 ! D246  D(84,89,91,40)       -106.5784         calculate D2E/DX2 analytically  !
 ! D247  D(90,89,91,40)         13.1662         calculate D2E/DX2 analytically  !
 ! D248  D(92,89,91,40)        133.2344         calculate D2E/DX2 analytically  !
 --------------------------------------------------------------------------------
 Trust Radius=1.00D-01 FncErr=1.00D-07 GrdErr=1.00D-06 EigMax=2.50D+02 EigMin=1.00D-04
 Number of steps in this run=    555 maximum allowed number of steps=    600.
 Search for a saddle point of order  1.
 GradGradGradGradGradGradGradGradGradGradGradGradGradGradGradGradGradGrad

 Leave Link  103 at Thu Jun  6 22:38:55 2019, MaxMem=  6442450944 cpu:               5.4 elap:               0.2
 (Enter /home/ekwan/sw/g16/l202.exe)
 Stoichiometry    C30H47F6NaO15S
 Framework group  C1[X(C30H47F6NaO15S)]
 Deg. of freedom   294
 Full point group                 C1      NOp   1
 Largest Abelian subgroup         C1      NOp   1
 Largest concise Abelian subgroup C1      NOp   1
                         Standard orientation:                         
 ---------------------------------------------------------------------
 Center     Atomic      Atomic             Coordinates (Angstroms)
 Number     Number       Type             X           Y           Z
 ---------------------------------------------------------------------
      1          6           0        6.222827   -0.506433    0.419829
      2          6           0        6.571635    0.982650    0.425344
      3          6           0        6.479448    1.580212   -0.986627
      4          6           0        4.910078   -0.082767   -1.709277
      5          6           0        4.921554   -0.771552   -0.342523
      6          1           0        6.543859    2.677444   -0.957727
      7          1           0        5.821354    1.504386    1.040015
      8          1           0        7.032605   -1.059689   -0.073337
      9          1           0        5.674885   -0.540149   -2.353516
     10          1           0        4.071700   -0.373608    0.226482
     11          8           0        5.216434    1.318875   -1.541681
     12          8           0        7.548999    1.065391   -1.744697
     13          8           0        7.855656    1.125703    1.012576
     14          8           0        6.064296   -0.969081    1.762848
     15          8           0        4.737067   -2.166969   -0.577214
     16          6           0        3.528034   -0.165561   -2.397425
     17          1           0        3.490286   -1.202769   -2.824021
     18          1           0        3.633609    0.495271   -3.297802
     19          8           0        2.489330    0.159890   -1.594192
     20          6           0        8.210496    2.463844    1.311854
     21          1           0        8.409231    3.051441    0.405140
     22          1           0        7.424031    2.967967    1.893410
     23          1           0        9.124881    2.423691    1.909257
     24          6           0        7.212901   -1.598548    2.307602
     25          1           0        7.497216   -2.485806    1.721267
     26          1           0        8.066034   -0.913692    2.353130
     27          1           0        6.946719   -1.917863    3.319550
     28          6           0        4.191785   -2.901453    0.510897
     29          1           0        4.944855   -3.127349    1.273359
     30          1           0        3.365435   -2.357258    0.983900
     31          1           0        3.809775   -3.839999    0.094935
     32          6           0        0.212960   -1.188676    1.205033
     33          6           0        0.610701   -1.217412   -0.263408
     34          6           0       -0.119707   -0.206628   -1.099156
     35          6           0       -0.736183    1.117667    0.780640
     36          6           0        0.160178    0.261765    1.678614
     37          1           0        0.078369   -0.195154   -2.160858
     38          1           0        1.658491   -0.846497   -0.429618
     39          1           0       -0.774678   -1.643915    1.355294
     40          1           0       -1.771597    0.770670    0.860597
     41          1           0        1.173002    0.675964    1.657576
     42          8           0       -0.368753    0.993563   -0.626506
     43          8           0       -3.366980   -2.161999   -2.628921
     44          8           0        0.481615   -2.536678   -0.786633
     45          8           0        1.164863   -1.859139    2.019559
     46          8           0       -0.396627    0.337064    2.981260
     47          6           0       -0.691587    2.591940    1.127594
     48          1           0       -1.225708    2.735520    2.077601
     49          1           0       -1.221304    3.165612    0.353835
     50          8           0        0.652527    3.005930    1.230117
     51         16           0       -2.782930   -0.841820   -2.307493
     52          8           0       -2.189757   -0.055698   -3.395083
     53          8           0       -1.783761   -1.044020   -1.133347
     54          6           0       -4.045918    0.137837   -1.502922
     55          6           0       -5.227501   -0.464496   -1.092788
     56          6           0       -3.740903    1.457892   -1.171204
     57          6           0       -6.122216    0.273769   -0.314344
     58          1           0       -5.434150   -1.493181   -1.363092
     59          6           0       -4.643186    2.175816   -0.392612
     60          1           0       -2.811660    1.904918   -1.504892
     61          6           0       -5.834633    1.588024    0.042500
     62          1           0       -6.530312    2.152444    0.651671
     63          6           0        1.403582   -2.841245   -1.848384
     64          1           0        1.187421   -2.247973   -2.742383
     65          1           0        2.430566   -2.642415   -1.538157
     66          1           0        1.265343   -3.902623   -2.068327
     67          6           0        0.892667   -3.236142    2.237886
     68          1           0       -0.120185   -3.376927    2.641574
     69          1           0        0.996451   -3.819932    1.316737
     70          1           0        1.621135   -3.585665    2.973201
     71          6           0        0.556960    0.639417    3.996000
     72          1           0        1.322710   -0.141237    4.059876
     73          1           0        1.037256    1.607598    3.803698
     74          1           0        0.004630    0.689712    4.937530
     75          6           0        0.767811    4.387193    1.521121
     76          1           0        1.834321    4.612341    1.585853
     77          1           0        0.315367    5.002013    0.729163
     78          1           0        0.284848    4.637271    2.477876
     79          6           0        7.631259    1.634725   -3.044814
     80          1           0        8.529548    1.225570   -3.512613
     81          1           0        6.754433    1.383198   -3.652497
     82          1           0        7.718125    2.729961   -2.989235
     83         11           0       -1.723219   -3.331335   -0.797519
     84          8           0       -2.903767   -3.092122    1.173785
     85          6           0       -3.096561   -4.173273    2.080591
     86          1           0       -4.165188   -4.384486    2.215364
     87          1           0       -2.603863   -5.048882    1.651736
     88          1           0       -2.649051   -3.945137    3.056899
     89          6           0       -3.498306   -1.884355    1.644572
     90          1           0       -3.081342   -1.603602    2.620497
     91          1           0       -3.262654   -1.111995    0.914361
     92          1           0       -4.587248   -1.989111    1.726733
     93          6           0       -7.358702   -0.406778    0.207724
     94          9           0       -7.912735   -1.211516   -0.721884
     95          9           0       -8.295679    0.474147    0.606259
     96          9           0       -7.065136   -1.189469    1.277489
     97          6           0       -4.300178    3.567819    0.065933
     98          9           0       -3.795470    3.549141    1.324868
     99          9           0       -5.381290    4.370888    0.087518
    100          9           0       -3.368820    4.144644   -0.722242
 ---------------------------------------------------------------------
 Rotational constants (GHZ):           0.0858453           0.0260881           0.0241585
 Leave Link  202 at Thu Jun  6 22:38:55 2019, MaxMem=  6442450944 cpu:               6.7 elap:               0.3
 (Enter /home/ekwan/sw/g16/l301.exe)
 Standard basis: 6-31G(d) (6D, 7F)
 Ernie: Thresh=  0.10000D-02 Tol=  0.10000D-05 Strict=F.
 There are   897 symmetry adapted cartesian basis functions of A   symmetry.
 There are   897 symmetry adapted basis functions of A   symmetry.
   897 basis functions,  1720 primitive gaussians,   897 cartesian basis functions
   214 alpha electrons      214 beta electrons
       nuclear repulsion energy      9184.2180192277 Hartrees.
 IExCor=  402 DFT=T Ex+Corr=B3LYP ExCW=0 ScaHFX=  0.200000
 ScaDFX=  0.800000  0.720000  1.000000  0.810000 ScalE2=  1.000000  1.000000
 IRadAn=      5 IRanWt=     -1 IRanGd=            0 ICorTp=0 IEmpDi=141
 NAtoms=  100 NActive=  100 NUniq=  100 SFac= 1.00D+00 NAtFMM=   60 NAOKFM=T Big=T
 Integral buffers will be    131072 words long.
 Raffenetti 2 integral format.
 Two-electron integral symmetry is turned on.
 R6Disp:  Grimme-D3(BJ) Dispersion energy=       -0.2234797190 Hartrees.
 Nuclear repulsion after empirical dispersion term =     9183.9945395087 Hartrees.
 Force inversion solution in PCM.
 ------------------------------------------------------------------------------
 Polarizable Continuum Model (PCM)
 =================================
 Model                : PCM.
 Atomic radii         : UFF (Universal Force Field).
 Polarization charges : Total charges.
 Charge compensation  : None.
 Solution method      : Matrix inversion.
 Cavity type          : Scaled VdW (van der Waals Surface) (Alpha=1.100).
 Cavity algorithm     : GePol (No added spheres)
                        Default sphere list used, NSphG=  100.
                        Lebedev-Laikov grids with approx.  5.0 points / Ang**2.
                        Smoothing algorithm: York/Karplus (Gamma=1.0000).
                        Polarization charges: spherical gaussians, with
                                              point-specific exponents (IZeta= 3).
                        Self-potential: point-specific (ISelfS= 7).
                        Self-field    : sphere-specific E.n sum rule (ISelfD= 2).
 1st derivatives      : Analytical E(r).r(x)/FMM algorithm (CHGder, D1EAlg=3).
                        Cavity 1st derivative terms included.
 2nd derivatives      : Analytical E(r).r(xy)/FMM algorithm (CHGder, D2EAlg=3).
                        Cavity 2nd derivative terms included.
 Solvent              : TetraHydroFuran, Eps=   7.425700 Eps(inf)=   1.974025
 ------------------------------------------------------------------------------
 GePol: Number of generator spheres                  =     100
 GePol: Total number of spheres                      =     100
 GePol: Number of exposed spheres                    =     100 (100.00%)
 GePol: Number of points                             =    6359
 GePol: Average weight of points                     =       0.13
 GePol: Minimum weight of points                     =   0.11D-11
 GePol: Maximum weight of points                     =    0.21593
 GePol: Number of points with low weight             =     481
 GePol: Fraction of low-weight points (<1% of avg)   =       7.56%
 GePol: Cavity surface area                          =    800.675 Ang**2
 GePol: Cavity volume                                =    984.834 Ang**3
 Leave Link  301 at Thu Jun  6 22:38:55 2019, MaxMem=  6442450944 cpu:               5.6 elap:               0.2
 (Enter /home/ekwan/sw/g16/l302.exe)
 NPDir=0 NMtPBC=     1 NCelOv=     1 NCel=       1 NClECP=     1 NCelD=      1
         NCelK=      1 NCelE2=     1 NClLst=     1 CellRange=     0.0.
 One-electron integrals computed using PRISM.
 One-electron integral symmetry used in STVInt
 NBasis=   897 RedAO= T EigKep=  4.09D-04  NBF=   897
 NBsUse=   897 1.00D-06 EigRej= -1.00D+00 NBFU=   897
 Precomputing XC quadrature grid using
 IXCGrd= 4 IRadAn=           5 IRanWt=          -1 IRanGd=           0 AccXCQ= 0.00D+00.
 Generated NRdTot=       0 NPtTot=           0 NUsed=           0 NTot=          32
 NSgBfM=   841   834   834   834   841 MxSgAt=   100 MxSgA2=   100.
[...]
 ,0.00009984,-0.00015637,0.00011344,0.00007590,0.00000123,0.00021643,-0
 .00048395,-0.00004504,-0.00011415,-0.00004971,0.00004723,-0.00012852,-
 0.00000480,-0.00015305,0.00010009,0.00046899,0.00026098,0.00013444,-0.
 00309645,0.00173318,0.00120780,0.00088610,-0.00008440,-0.00083219,0.00
 163718,-0.00038940,0.00037244,0.00071418,-0.00118578,-0.00252017,0.000
 36743,-0.00089899,-0.00032092,-0.00452190,-0.00609683,0.00194802,-0.00
 022353,0.00004054,-0.00068664,-0.00001016,0.00001144,0.00011400,0.0394
 9077,-0.02997430,-0.00660813,0.00016703,0.00019374,0.00059296,0.001439
 25,-0.00048142,-0.00080514,-0.00006163,-0.00184169,0.00043757,-0.00008
 374,0.00005901,0.00010919,0.00000146,0.00000655,-0.00000411,0.00000942
 ,0.00000501,-0.00000981,0.00000156,-0.00001949,-0.00001316,0.00001883,
 0.00009238,-0.00001645,-0.00001188,-0.00000803,-0.00000859,-0.00000804
 ,-0.00000837,-0.00000774,0.00000953,-0.00001753,0.00001347,-0.00011110
 ,-0.00004070,-0.00012921,0.00002510,-0.00000513,0.00001171,0.00001472,
 0.00001133,0.00000058,-0.00000002,0.00000241,0.00002306,-0.00001127,-0
 .00031800,-0.00006766,0.00002372,0.00003748,0.00000847,-0.00002578,0.0
 0003499,-0.00001313,-0.00002281,0.00003009,0.00002839,-0.00000832,-0.0
 0001197,0.00001147,0.00000251,-0.00000042,-0.00000173,-0.00000018,0.00
 000034,0.00000008,0.00000039,0.00000464,-0.00000020,-0.00013435,0.0002
 7277,-0.00009834,0.00006721,-0.00026144,0.00013906,0.00002852,0.000134
 48,-0.00014205,-0.00001753,-0.00000887,0.00001619,0.00000277,-0.000035
 01,0.00000767,0.00000308,-0.00000628,0.00003216,-0.00001297,0.00024569
 ,-0.00005941,0.00004053,-0.00005657,0.00005500,-0.00012406,0.00000701,
 -0.00003508,0.00002518,0.00002812,-0.00005602,0.00216742,0.00093542,-0
 .00083567,-0.00066033,-0.00049291,-0.00008336,-0.00075031,0.00003368,0
 .00029189,-0.00040671,-0.00050861,0.00056966,0.09183649,-0.17035882,-0
 .00815198,0.02222433,0.00234680,0.01957723,-0.15249384,0.18843565,-0.0
 0000298,0.00000057,-0.00000950,-0.00000204,-0.00000411,-0.00000657,-0.
 00001436,-0.00000273,-0.00000899,-0.00000053,-0.00000855,-0.00000626,0
 .00000174,0.00000234,-0.00000424,0.00000108,0.00000102,0.00000048,0.00
 000005,0.00000084,0.00000044,0.00000014,0.00000020,0.00000138,0.000004
 52,0.00000009,0.00000106,-0.00000329,0.00000018,-0.00000478,0.00001320
 ,0.00000592,0.00001123,0.00000643,0.00000008,0.00000496,0.00000516,0.0
 0000415,0.00000785,0.00000397,-0.00000234,0.00001234,0.00000434,-0.000
 00331,0.00000991,-0.00003599,0.00001501,0.00002901,0.00000475,-0.00000
 750,-0.00000439,0.00000490,0.00000032,-0.00000564,0.00005124,0.0000056
 7,-0.00001403,0.00000092,-0.00000440,-0.00000407,-0.00000064,0.0000002
 4,0.00000090,-0.00000132,0.00000120,0.00000032,0.00000096,0.00000032,0
 .00000041,-0.00000354,0.00000147,-0.00000354,0.00000025,0.00000037,0.0
 0000066,0.00000109,-0.00000004,-0.00000014,0.00000043,-0.00000128,0.00
 000167,0.00000044,0.00000442,-0.00000693,0.00000257,-0.00000164,0.0000
 0161,-0.00000109,-0.00000030,-0.00000201,-0.00000082,0.00000072,0.0000
 0036,-0.00001934,-0.00000145,-0.00004052,0.00005395,0.00002390,-0.0000
 0869,-0.00030842,-0.00014755,-0.00004167,0.00000423,-0.00010744,-0.000
 15188,0.00001980,-0.00001083,-0.00004701,0.00000789,0.00001933,0.00000
 883,-0.00001729,-0.00002525,0.00001712,-0.00000155,0.00000105,-0.00000
 259,-0.00000773,-0.00004699,-0.00002676,-0.00000227,-0.00000330,0.0000
 0903,0.00003507,0.00011503,0.00015037,0.00017169,-0.00032169,-0.000059
 89,0.00001640,-0.00002055,0.00001299,0.00001147,-0.00000572,0.00003189
 ,-0.00002564,0.00002774,0.00005858,0.00013960,0.00003722,-0.00034686,0
 .00013657,-0.00008743,0.00028128,-0.00003077,0.00000565,-0.00017527,-0
 .00008784,0.00004941,0.00011175,-0.00081983,0.00055761,0.00012127,0.00
 022612,-0.00006783,-0.00014828,0.00044442,-0.00009019,0.00015642,-0.00
 071384,-0.00033870,-0.00078088,0.00031806,-0.00031577,-0.00020236,-0.0
 0054949,-0.00047414,0.00095185,-0.00038927,0.00010904,-0.00023696,-0.0
 0000177,0.00000558,0.00008056,0.00933099,-0.01092550,0.00839109,0.0000
 7671,0.00019097,0.00045489,0.00045012,-0.00013688,-0.00068847,-0.00039
 933,-0.00012503,0.00036969,-0.00000877,0.00001302,0.00001048,-0.000000
 24,0.00000018,0.00000291,0.00000129,0.00000090,-0.00000151,-0.00000118
 ,-0.00000256,-0.00000121,0.00000437,0.00000613,-0.00000597,-0.00000416
 ,-0.00000225,-0.00000165,-0.00000268,0.00000273,0.00000104,0.00000213,
 -0.00000187,0.00000161,-0.00000047,-0.00000963,-0.00000811,-0.00000377
 ,0.00000539,0.00000007,0.00000718,0.00000015,-0.00000134,0.00000212,-0
 .00000395,0.00001153,0.00001477,0.00004166,-0.00006147,-0.00001031,-0.
 00000219,0.00000569,0.00001045,-0.00001199,0.00000376,0.00000830,-0.00
 000278,0.00002768,-0.00000327,-0.00000016,-0.00000327,0.00000066,-0.00
 000046,0.00000002,0.00000101,0.00000086,0.00000048,-0.00000025,0.00000
 011,0.00000003,-0.00003614,0.00006193,-0.00004503,0.00000829,-0.000015
 39,0.00005597,-0.00000004,0.00002206,-0.00003037,-0.00000252,-0.000002
 57,0.00000074,-0.00000093,-0.00000382,0.00000204,0.00000439,-0.0000015
 1,0.00000859,0.00000184,0.00003150,-0.00002559,0.00001935,-0.00002832,
 0.00003339,-0.00004015,-0.00001027,-0.00003728,0.00000525,0.00000756,-
 0.00002092,0.00050095,0.00022065,-0.00035158,-0.00015416,-0.00010953,0
 .00003162,-0.00017334,0.00001466,0.00009311,-0.00008499,-0.00013864,0.
 00017901,0.00737570,-0.00821786,-0.07066597,-0.04714016,0.02973008,-0.
 01310100,-0.00227352,0.00078749,0.07499647,0.00000481,-0.00001214,0.00
 001474,0.00002695,-0.00000465,0.00000444,0.00004533,-0.00001615,-0.000
 00296,-0.00000030,-0.00002843,-0.00001211,0.00000605,-0.00002884,-0.00
 000684,0.00000324,0.00000788,-0.00000082,-0.00000671,0.00000465,0.0000
 0735,-0.00000342,0.00000404,-0.00000202,-0.00000554,0.00000551,0.00000
 469,0.00000012,0.00000197,0.00000781,-0.00002027,0.00002830,-0.0000049
 0,-0.00002712,0.00001421,0.00000947,-0.00002333,0.00000687,-0.00000838
 ,-0.00001475,0.00002021,-0.00002099,-0.00000235,0.00003469,-0.00000792
 ,0.00003409,-0.00003084,-0.00001422,-0.00000581,0.00002492,0.00000939,
 0.00000725,0.00000083,-0.00001527,-0.00004571,0.00007205,0.00000317,0.
 00000781,-0.00000232,-0.00000059,0.00000153,-0.00000118,-0.00000059,-0
 .00000183,-0.00000031,0.00000456,-0.00000383,0.00000038,-0.00000199,0.
 00001669,-0.00001317,0.00000804,-0.00000288,0.00000382,0.00000163,-0.0
 0000210,-0.00000021,0.00000013,-0.00000081,0.00000089,-0.00000298,-0.0
 0000088,-0.00001872,0.00001041,-0.00000288,0.00000226,-0.00000355,-0.0
 0000019,-0.00000071,-0.00000021,0.00000192,0.00000547,0.00000126,-0.00
 007525,-0.00012639,-0.00009551,0.00012204,-0.00001575,-0.00004933,-0.0
 0054427,-0.00083198,-0.00026209,-0.00028458,-0.00052782,-0.00060623,0.
 00007386,0.00014139,0.00032077,0.00003011,0.00003419,0.00003152,-0.000
 00445,-0.00003087,0.00002984,0.00000365,0.00002222,-0.00000801,0.00002
 888,-0.00000439,0.00001878,0.00002590,-0.00003885,-0.00000387,-0.00003
 241,0.00063153,0.00037237,0.00036241,-0.00030973,-0.00015883,0.0000136
 1,0.00009958,0.00004089,-0.00001607,0.00018546,-0.00004773,-0.00002969
 ,0.00011068,-0.00012455,0.00139472,-0.00101154,0.00219140,-0.00009434,
 0.00018462,-0.00037164,-0.00061602,0.00076502,-0.00128781,-0.00140641,
 -0.00003456,-0.00078682,-0.00158314,0.00043525,0.00045955,0.00045199,0
 .00009124,-0.00032283,0.00103977,-0.00000583,0.00028833,0.00033633,-0.
 00053246,-0.00098260,0.00008259,-0.00025720,0.00000965,-0.00235159,0.0
 0231756,0.00137399,-0.00131733,-0.00010553,-0.00001612,0.00013081,0.00
 002695,-0.00000044,-0.01335371,-0.01617047,0.01698510,0.00162495,-0.00
 072262,-0.00073843,0.00196341,-0.00411359,-0.00143771,0.00064107,0.000
 53459,0.00002696,0.00000952,-0.00000557,-0.00000107,-0.00000834,-0.000
 00366,-0.00000353,0.00000040,-0.00000456,0.00000188,-0.00000260,0.0000
 0968,0.00000347,-0.00004998,-0.00007294,0.00002031,0.00001379,0.000007
 60,-0.00000504,0.00000340,0.00001535,0.00000336,-0.00000066,0.00001582
 ,-0.00000554,0.00005150,-0.00001551,0.00010359,-0.00001528,0.00000736,
 -0.00001367,0.00001158,0.00000776,0.00002015,0.00000092,0.00000211,-0.
 00003152,0.00015190,0.00040319,0.00043458,-0.00006816,-0.00003652,-0.0
 0004630,0.00006203,-0.00000867,-0.00007860,0.00004249,-0.00005691,-0.0
 0008190,0.00000666,-0.00000416,-0.00000074,-0.00000479,0.00000213,0.00
 000150,-0.00000103,-0.00000417,0.00000081,0.00000288,0.00000280,0.0000
 0121,-0.00009374,0.00003308,-0.00002091,0.00008520,-0.00010393,0.00002
 843,0.00000061,0.00003524,-0.00004663,0.00000079,0.00000222,0.00000488
 ,0.00000139,-0.00001498,0.00000160,-0.00000179,-0.00000071,0.00001311,
 -0.00003852,0.00010934,0.00001299,0.00001317,-0.00002879,0.00003142,-0
 .00009434,0.00000246,-0.00002008,0.00003152,0.00004119,-0.00003900,0.0
 0107175,0.00052322,-0.00073840,-0.00055783,-0.00047627,-0.00011733,-0.
 00031581,-0.00008502,0.00011691,-0.00014928,-0.00030161,0.00033920,-0.
 15855987,-0.07162005,0.06407483,0.01539112,-0.00062988,0.01360528,-0.0
 6601320,0.00156701,0.03386271,0.22242069,-0.00000666,-0.00000993,-0.00
 000152,0.00000263,-0.00000796,-0.00000269,-0.00001391,-0.00002042,-0.0
 0000373,0.00000011,-0.00004807,-0.00002135,-0.00000975,-0.00001044,-0.
 00000663,0.00000671,0.00000948,0.00000016,-0.00000158,0.00000092,0.000
 00267,0.00000141,0.00000114,0.00000098,0.00001469,0.00000384,0.0000028
 7,-0.00000529,0.00000090,-0.00000898,0.00001982,0.00003883,0.00000729,
 0.00000576,0.00001564,-0.00000711,0.00000428,0.00001659,0.00000337,0.0
 0000771,0.00000850,0.00000136,0.00002401,0.00001736,0.00000045,-0.0001
 1064,0.00002754,0.00013862,0.00001344,-0.00001510,-0.00001563,0.000033
 26,0.00001383,-0.00005819,0.00016882,0.00009501,-0.00013217,0.00000067
 ,-0.00001322,-0.00000153,0.00000108,0.00000136,-0.00000190,-0.00000156
 ,0.00000080,0.00000261,-0.00000053,0.00000125,0.,-0.00000319,-0.000001
 58,0.00000012,-0.00000067,0.00000054,0.00000075,0.00000209,0.00000017,
 0.00000060,-0.00000005,-0.00000052,-0.00000079,-0.00001380,0.00000154,
 0.00000706,0.00000519,-0.00000255,-0.00000010,-0.00000270,-0.00000353,
 -0.00000519,-0.00000145,0.00000333,-0.00000020,-0.00008910,0.00001865,
 -0.00007949,0.00020392,0.00007583,0.00001570,-0.00093030,-0.00038758,-
 0.00011625,-0.00028365,-0.00012262,-0.00008286,0.00004211,0.00002754,-
 0.00006148,0.00003066,0.00000832,0.00003298,-0.00010729,-0.00011076,0.
 00007960,0.00000141,0.00001695,-0.00001065,0.00002408,0.00009384,-0.00
 007163,0.00002800,-0.00002444,0.00002516,0.00020372,0.00015262,0.00010
 913,0.00039543,-0.00076485,-0.00033495,0.00006885,-0.00007912,-0.00003
 426,0.00006316,-0.00004925,0.00005410,0.00004633,0.00003350,0.00009671
 ,0.00005261,0.00000888,0.00017329,-0.00006240,0.00003430,-0.00007097,0
 .00073286,-0.00082590,0.00052016,0.00019977,0.00022098,0.00004576,-0.0
 0211805,0.00150671,0.00115867,0.00068615,-0.00006700,-0.00065289,0.001
 38991,-0.00028777,0.00026643,-0.00074501,0.00000450,-0.00016842,-0.000
 25994,-0.00070021,0.00005037,-0.00070285,-0.00133034,0.00051126,-0.002
 73438,-0.00077957,0.00046153,-0.00002051,0.00000043,0.00005650,-0.0349
 4900,-0.01778465,0.02377152,-0.00083184,-0.00260441,0.00014883,0.00264
 973,-0.00687730,-0.00346780,0.00017108,0.00022851,0.00023651,-0.000054
 29,0.00003358,0.00007544,-0.00000251,0.00000308,-0.00000635,0.00000640
 ,0.00000107,-0.00000556,0.00000106,-0.00000855,-0.00000790,-0.00000414
 ,0.00003495,-0.00000221,-0.00000225,-0.00000241,-0.00000753,-0.0000038
 3,-0.00000162,-0.00000417,0.00000577,-0.00000695,0.00000703,-0.0000621
 6,-0.00003300,-0.00005543,0.00001238,-0.00000159,0.00000438,0.00001375
 ,0.00001099,0.00000453,0.00000050,0.00000152,0.00000498,0.00004237,-0.
 00027919,0.00008978,-0.00001170,0.00003803,-0.00001102,-0.00000730,0.0
 0005800,-0.00005863,-0.00000275,0.00002010,0.00000124,-0.00000106,-0.0
 0001145,0.00000916,-0.00000123,0.00000116,-0.00000042,-0.00000110,-0.0
 0000247,0.00000043,0.00000209,0.00000509,0.00000054,-0.00011415,0.0001
 7859,-0.00005228,0.00008352,-0.00021095,0.00009232,0.00001598,0.000098
 19,-0.00010727,-0.00000985,-0.00000398,0.00001230,0.00000267,-0.000028
 50,0.00000542,0.00000111,-0.00000389,0.00002516,-0.00003835,0.00019753
 ,-0.00002985,0.00003197,-0.00004372,0.00004417,-0.00010983,0.00000731,
 -0.00002793,0.00002847,0.00003808,-0.00005198,0.00215729,0.00065901,-0
 .00120148,-0.00090997,-0.00071854,-0.00017545,-0.00064436,-0.00001445,
 0.00026140,-0.00037512,-0.00054991,0.00065830,-0.06596028,-0.13254654,
 0.04562109,-0.00224813,0.00731058,0.02122718,0.01499931,0.01994810,-0.
 01028060,0.08986437,0.13606172,-0.00000226,0.00000624,-0.00001529,-0.0
 0000653,-0.00000257,-0.00000988,-0.00002123,0.00000597,-0.00001271,-0.
 00000140,0.00001101,0.00000143,0.00000768,0.00001156,-0.00000331,-0.00
 000164,-0.00000333,0.00000071,0.00000141,0.00000051,-0.00000105,-0.000
 00013,-0.00000051,0.00000191,0.00000087,-0.00000219,-0.00000005,-0.000
 00289,-0.00000031,-0.00000423,0.00001431,-0.00001105,0.00001558,0.0000
 1031,-0.00000817,0.00001043,0.00000824,-0.00000128,0.00001172,0.000003
 83,-0.00000917,0.00002040,-0.00000465,-0.00001662,0.00001638,-0.000008
 77,0.00001506,-0.00001887,0.00000202,-0.00000773,-0.00000059,-0.000009
 36,-0.00000645,0.00002098,0.00000470,-0.00004694,0.00004476,0.00000054
 ,-0.00000112,-0.00000575,-0.00000161,-0.00000010,0.00000222,-0.0000012
 5,0.00000158,-0.00000098,0.00000202,-0.00000008,0.00000084,-0.00000537
 ,0.00000399,-0.00000592,0.00000093,0.00000001,0.00000053,0.00000094,-0
 .00000015,-0.00000050,0.00000078,-0.00000181,0.00000316,0.00000783,0.0
 0000779,-0.00001542,0.00000156,-0.00000153,0.00000293,-0.00000017,0.00
 000134,-0.00000059,-0.00000078,-0.00000100,0.00000059,0.00001375,-0.00
 001181,-0.00003371,-0.00002237,0.00000017,-0.00001793,0.00000607,0.000
 02298,0.00000496,0.00010914,-0.00008742,-0.00028199,0.00000856,-0.0000
 0417,-0.00001973,-0.00000614,0.00003050,-0.00000301,0.00002699,0.00001
 702,-0.00001540,-0.00000328,-0.00000698,0.00000304,-0.00003665,-0.0000
 7708,-0.00002178,-0.00001759,0.00000576,-0.00000032,-0.00005189,0.0000
 5797,0.00016496,-0.00006601,-0.00002969,0.00008052,-0.00001066,-0.0000
 0010,0.00003672,-0.00001465,0.00001560,0.00002421,-0.00005753,0.000021
 46,0.00004671,0.00013758,0.00009215,-0.00028404,0.00018757,-0.00010997
 ,0.00032512,-0.00069048,0.00060158,-0.00091824,-0.00029008,-0.00003189
 ,0.00009617,0.00021784,0.00032937,-0.00031509,-0.00006952,-0.00017640,
 0.00012503,-0.00003378,-0.00002766,0.00009658,-0.00034008,0.00064013,0
 .00077444,-0.00051217,-0.00011921,0.00022122,0.00155923,-0.00278262,-0
 .00135608,0.00015041,-0.00047882,-0.00066640,-0.00011104,-0.00001022,0
 .00002178,0.00460893,0.00122222,0.00453204,-0.00148895,-0.00011590,0.0
 0033624,0.00025967,0.00104448,0.00121630,-0.00025742,-0.00020056,0.000
 18999,0.00001336,0.00000512,-0.00002157,0.00000174,-0.00000055,0.00000
 857,-0.00000121,0.00000138,0.00000004,-0.00000226,-0.00000087,0.000002
 15,0.00000890,-0.00000522,-0.00000844,-0.00000532,-0.00000232,0.000001
 56,-0.00000211,0.00000504,0.00000324,0.00000026,0.00000061,-0.00000082
 ,0.00002661,0.00000045,0.00001365,-0.00001072,0.00000880,-0.00000187,0
 .00000408,-0.00000496,-0.00000404,0.00000268,-0.00000631,0.00001450,0.
 00000981,0.00017075,-0.00010807,-0.00001323,-0.00001850,0.00001013,0.0
 0002943,-0.00004999,0.00001243,0.00001698,-0.00001662,0.00004949,-0.00
 000552,0.00000515,-0.00000947,0.00000213,-0.00000147,0.00000013,0.0000
 0225,0.00000298,0.00000044,-0.00000163,-0.00000236,-0.00000030,0.00001
 691,0.00000253,-0.00003879,-0.00003171,0.00008692,0.00002892,-0.000009
 02,-0.00001922,0.00001349,0.00000144,-0.00000158,-0.00000491,-0.000002
 58,0.00000975,-0.00000010,0.00000554,-0.00000014,-0.00000105,0.0000103
 2,-0.00006852,-0.00002384,0.00001031,-0.00001026,0.00001941,0.00001588
 ,-0.00001548,-0.00003502,-0.00000895,-0.00000910,0.00000096,-0.0001676
 6,-0.00000404,-0.00017704,0.00007394,0.00005487,0.00010595,0.00001466,
 0.00005417,0.00003794,0.00002740,0.00002888,-0.00001632,0.06790598,0.0
 5265039,-0.12157204,0.02629992,0.03026508,-0.07001234,0.02881729,-0.00
 426664,0.00064302,-0.12626132,-0.07862253,0.18664827\\0.00000108,-0.00
 000217,-0.00000203,-0.00000058,-0.00000205,-0.00000226,0.00000094,-0.0
 0000181,-0.00000130,-0.00000150,-0.00000103,-0.00000176,-0.00000089,-0
 .00000110,-0.00000200,0.00000199,-0.00000167,-0.00000087,0.00000066,-0
 .00000293,-0.00000076,-0.00000119,-0.00000271,-0.00000217,-0.00000164,
 -0.00000191,-0.00000196,-0.00000061,-0.00000181,-0.00000134,-0.0000000
 8,-0.00000017,-0.00000157,0.00000037,-0.00000130,-0.00000202,0.0000008
 9,-0.00000303,-0.00000199,0.00000018,-0.00000347,-0.00000303,0.0000004
 2,-0.00000118,-0.00000327,-0.00000110,0.00000144,-0.00000158,-0.000001
 31,0.00000030,-0.00000204,-0.00000093,0.00000067,0.00000036,0.00000068
 ,0.00000003,-0.00000100,0.00000134,-0.00000365,-0.00000137,0.00000135,
 -0.00000306,-0.00000147,0.00000194,-0.00000355,-0.00000103,0.00000181,
 -0.00000417,-0.00000199,0.,-0.00000325,-0.00000326,-0.00000051,-0.0000
 0339,-0.00000370,0.00000055,-0.00000414,-0.00000338,0.00000042,-0.0000
 0403,-0.00000307,-0.00000196,-0.00000064,-0.00000182,-0.00000066,-0.00
 000241,-0.00000310,-0.00000031,-0.00000211,-0.00000225,-0.00000180,-0.
 00000138,-0.00000303,0.00000075,-0.00000035,0.00000007,0.00000192,0.00
 000109,-0.00000002,-0.00000220,0.00000024,0.00000028,0.00000044,-0.000
 00006,0.00000037,0.00000053,-0.00000077,0.00000008,-0.00000013,0.00000
 179,0.00000014,-0.00000161,0.00000057,0.00000101,-0.00000016,0.0000006
 8,-0.00000010,0.00000122,0.00000177,0.00000240,0.00000095,-0.00000057,
 0.00000060,0.00000064,0.00000193,0.00000116,-0.00000200,0.00000375,0.0
 0000119,-0.00000240,0.00000027,-0.00000067,-0.00000074,-0.00000118,-0.
 00000021,0.00000105,-0.00000083,0.00000040,0.00000219,0.00000039,0.000
 00121,0.00000150,0.00000017,0.00000263,0.00000132,0.00000086,0.0000022
 8,0.00000169,-0.00000038,0.00000151,-0.00000208,0.00000379,0.00000043,
 -0.00000152,0.00000259,0.00000193,-0.00000272,-0.00000011,0.00000009,-
 0.00000023,0.00000258,0.00000234,-0.00000022,0.00000227,0.00000208,0.0
 0000048,0.00000318,0.00000240,-0.00000004,0.00000398,0.00000359,-0.000
 00118,0.00000392,0.00000185,0.00000003,0.00000210,0.00000378,0.,0.0000
 0228,0.00000251,0.00000055,0.00000295,0.00000270,0.00000127,0.00000286
 ,0.00000399,-0.00000209,0.00000110,-0.00000193,-0.00000208,0.00000126,
 -0.00000117,-0.00000141,0.00000024,-0.00000163,-0.00000252,0.00000050,
 -0.00000186,-0.00000068,-0.00000099,-0.00000274,0.,-0.00000089,-0.0000
 0062,-0.00000101,-0.00000033,-0.00000145,-0.00000069,-0.00000140,-0.00
 000188,0.00000186,-0.00000123,0.00000065,0.00000160,-0.00000206,-0.000
 00017,0.00000200,-0.00000184,0.00000079,0.00000220,-0.00000192,0.00000
 087,0.00000188,-0.00000082,0.00000290,0.00000296,-0.00000094,0.0000018
 7,0.00000219,0.00000026,0.00000245,0.00000291,-0.00000075,0.00000234,-
 0.00000179,-0.00000206,-0.00000130,-0.00000066,-0.00000116,-0.00000223
 ,-0.00000121,0.00000050,-0.00000220,-0.00000045,-0.00000123,-0.0000012
 5,-0.00000253,0.00000242,-0.00000208,0.00000084,0.00000010,0.00000254,
 -0.00000069,0.00000080,-0.00000169,-0.00000127,0.00000131,0.00000004,-
 0.00000187,0.00000048,-0.00000089,-0.00000019,0.00000031,-0.00000049,-
 0.00000147,0.00000137,0.00000060,0.00000017,0.00000054,0.00000072,-0.0
 0000081,0.00000124,0.00000085,0.00000006,0.00000165,0.00000106,0.00000
 010,0.00000319,0.00000331,-0.00000120,0.00000448,0.00000280,0.00000033
 ,0.00000389,0.00000425,0.00000006,0.00000281,0.00000204,0.00000160,0.0
 0000282,0.00000345,0.00000169,0.00000157,0.00000359,0.00000199,0.00000
 260,0.00000456,0.00000130,0.00000213,0.00000393\\\@


 ... IT IS NO ONE DREAME THAT
     CAN PLEASE THESE ALL ...

                -- BEN JONSON
 Job cpu time:       3 days 20 hours 40 minutes  3.3 seconds.
 Elapsed time:       0 days  3 hours 14 minutes 41.7 seconds.
 File lengths (MBytes):  RWF=   9816 Int=      0 D2E=      0 Chk=     86 Scr=      1
 Normal termination of Gaussian 16 at Fri Jun  7 05:12:16 2019.
