 Entering Gaussian System, Link 0=g16
 Input=clay_new-glu_gluC6-BAUR-Na3_1Me2O-bisCF3-ts-b3lyp_d3bj-631gd-pcm_thf.gjf
 Output=clay_new-glu_gluC6-BAUR-Na3_1Me2O-bisCF3-ts-b3lyp_d3bj-631gd-pcm_thf.out
 Initial command:
 /home/ekwan/sw/g16/l1.exe "/scratch/users/ekwan/clay_new-glu_gluC6-BAUR-Na3_1Me2O-bisCF3-ts-b3lyp_d3bj-631gd-pcm_thf/Gau-40734.inp" -scrdir="/scratch/users/ekwan/clay_new-glu_gluC6-BAUR-Na3_1Me2O-bisCF3-ts-b3lyp_d3bj-631gd-pcm_thf/"
 Entering Link 1 = /home/ekwan/sw/g16/l1.exe PID=     40735.
  
 Copyright (c) 1988,1990,1992,1993,1995,1998,2003,2009,2016,
            Gaussian, Inc.  All Rights Reserved.
  
 This is part of the Gaussian(R) 16 program.  It is based on
 the Gaussian(R) 09 system (copyright 2009, Gaussian, Inc.),
 the Gaussian(R) 03 system (copyright 2003, Gaussian, Inc.),
 the Gaussian(R) 98 system (copyright 1998, Gaussian, Inc.),
 the Gaussian(R) 94 system (copyright 1995, Gaussian, Inc.),
 the Gaussian 92(TM) system (copyright 1992, Gaussian, Inc.),
 the Gaussian 90(TM) system (copyright 1990, Gaussian, Inc.),
 the Gaussian 88(TM) system (copyright 1988, Gaussian, Inc.),
 the Gaussian 86(TM) system (copyright 1986, Carnegie Mellon
 University), and the Gaussian 82(TM) system (copyright 1983,
 Carnegie Mellon University). Gaussian is a federally registered
 trademark of Gaussian, Inc.
  
 This software contains proprietary and confidential information,
 including trade secrets, belonging to Gaussian, Inc.
  
 This software is provided under written license and may be
 used, copied, transmitted, or stored only in accord with that
 written license.
  
 The following legend is applicable only to US Government
 contracts under FAR:
  
                    RESTRICTED RIGHTS LEGEND
  
 Use, reproduction and disclosure by the US Government is
 subject to restrictions as set forth in subparagraphs (a)
 and (c) of the Commercial Computer Software - Restricted
 Rights clause in FAR 52.227-19.
  
 Gaussian, Inc.
 340 Quinnipiac St., Bldg. 40, Wallingford CT 06492
  
  
 ---------------------------------------------------------------
 Warning -- This program may not be used in any manner that
 competes with the business of Gaussian, Inc. or will provide
 assistance to any competitor of Gaussian, Inc.  The licensee
 of this program is prohibited from giving any competitor of
 Gaussian, Inc. access to this program.  By using this program,
 the user acknowledges that Gaussian, Inc. is engaged in the
 business of creating and licensing software in the field of
 computational chemistry and represents and warrants to the
 licensee that it is not a competitor of Gaussian, Inc. and that
 it will not use this program in any manner prohibited above.
 ---------------------------------------------------------------
  

 Cite this work as:
 Gaussian 16, Revision A.03,
 M. J. Frisch, G. W. Trucks, H. B. Schlegel, G. E. Scuseria, 
 M. A. Robb, J. R. Cheeseman, G. Scalmani, V. Barone, 
 G. A. Petersson, H. Nakatsuji, X. Li, M. Caricato, A. V. Marenich, 
 J. Bloino, B. G. Janesko, R. Gomperts, B. Mennucci, H. P. Hratchian, 
 J. V. Ortiz, A. F. Izmaylov, J. L. Sonnenberg, D. Williams-Young, 
 F. Ding, F. Lipparini, F. Egidi, J. Goings, B. Peng, A. Petrone, 
 T. Henderson, D. Ranasinghe, V. G. Zakrzewski, J. Gao, N. Rega, 
 G. Zheng, W. Liang, M. Hada, M. Ehara, K. Toyota, R. Fukuda, 
 J. Hasegawa, M. Ishida, T. Nakajima, Y. Honda, O. Kitao, H. Nakai, 
 T. Vreven, K. Throssell, J. A. Montgomery, Jr., J. E. Peralta, 
 F. Ogliaro, M. J. Bearpark, J. J. Heyd, E. N. Brothers, K. N. Kudin, 
 V. N. Staroverov, T. A. Keith, R. Kobayashi, J. Normand, 
 K. Raghavachari, A. P. Rendell, J. C. Burant, S. S. Iyengar, 
 J. Tomasi, M. Cossi, J. M. Millam, M. Klene, C. Adamo, R. Cammi, 
 J. W. Ochterski, R. L. Martin, K. Morokuma, O. Farkas, 
 J. B. Foresman, and D. J. Fox, Gaussian, Inc., Wallingford CT, 2016.
 
 ******************************************
 Gaussian 16:  AS64L-G16RevA.03 25-Dec-2016
                21-May-2019 
 ******************************************
 %mem=48GB
 %nprocshared=32
 Will use up to   32 processors via shared memory.
 ----------------------------------------------------------------------
 #p opt=(ts,noeigentest,calcfc,maxstep=3,modredundant,recalc=30) freq=n
 oraman b3lyp 6-31g* pop=none scrf=(solvent=tetrahydrofuran,pcm) empiri
 caldispersion=gd3bj
 ----------------------------------------------------------------------
 1/5=1,8=3,10=4,11=1,18=120,26=3,38=1,71=30/1,3;
 2/9=110,12=2,17=6,18=5,40=1/2;
 3/5=1,6=6,7=1,11=2,25=1,30=1,70=2201,71=2,72=20,74=-5,124=41,140=1/1,2,3;
 4//1;
 5/5=2,38=5,53=20/2;
 8/6=4,10=90,11=11/1;
 11/6=1,8=1,9=11,15=111,16=1/1,2,10;
 10/6=1,13=1/2;
 7/10=1,18=20,25=1/1,2,3,16;
 1/5=1,8=3,10=4,11=1,18=20,26=3,71=30/3(2);
 2/9=110/2;
 99//99;
 2/9=110/2;
 3/5=1,6=6,7=1,11=2,25=1,30=1,70=2205,71=1,72=20,74=-5,124=41/1,2,3;
 4/5=5,16=3,69=1/1;
 5/5=2,38=5,53=20/2;
 7//1,2,3,16;
 1/5=1,8=3,11=1,18=20,26=3,71=30/3(-5);
 2/9=110/2;
 99/9=1/99;
 Leave Link    1 at Tue May 21 07:20:16 2019, MaxMem=  6442450944 cpu:               4.9 elap:               0.2
 (Enter /home/ekwan/sw/g16/l101.exe)
 -----
 title
 -----
 Symbolic Z-matrix:
 Charge =  0 Multiplicity = 1
 C                     4.51103  -1.9027   -0.61932 
 C                     3.12703  -2.34407  -1.09392 
 C                     2.39813  -3.09768   0.02018 
 C                     3.57576  -1.88782   1.7316 
 C                     4.36546  -1.10312   0.67447 
 H                     1.36422  -3.29985  -0.28039 
 H                     2.52791  -1.45284  -1.30636 
 H                     5.12393  -2.79615  -0.44077 
 H                     4.14419  -2.78873   2.00495 
 H                     3.82087  -0.18373   0.44836 
 O                     2.29906  -2.29546   1.17914 
 O                     3.08281  -4.30531   0.25908 
 O                     3.19654  -3.17242  -2.2473 
 O                     5.10693  -1.11939  -1.65656 
 O                     5.66099  -0.77871   1.18425 
 C                     3.27644  -1.05655   2.99409 
 H                     4.26417  -0.97839   3.51741 
 H                     2.67769  -1.74674   3.64635 
 O                     2.67691   0.13582   2.74066 
 C                     2.88848  -2.48513  -3.45081 
 H                     1.87498  -2.05935  -3.41698 
 H                     3.6074   -1.68128  -3.64806 
 H                     2.93803  -3.22204  -4.25796 
 C                     6.50593  -1.31642  -1.78776 
 H                     7.03635  -1.04702  -0.86855 
 H                     6.73624  -2.36222  -2.04108 
 H                     6.84301  -0.67435  -2.60664 
 C                     5.75315   0.58217   1.59839 
 H                     5.74031   1.25355   0.72849 
 H                     4.91537   0.84845   2.25366 
 H                     6.70539   0.69205   2.12635 
 C                     0.56367   3.11887   0.77113 
 C                     0.86551   1.8432    1.54788 
 C                     1.08169   0.65688   0.64272 
 C                     1.77629   2.08149  -1.18296 
 C                     1.65866   3.30906  -0.27457 
 H                     1.25425  -0.29947   1.11949 
 H                     1.83963   1.92849   2.04202 
 H                    -0.40507   3.03927   0.26249 
 H                     0.89195   2.01723  -1.82219 
 H                     2.61283   3.46878   0.2385 
 O                     1.82335   0.82683  -0.43321 
 O                    -0.15809  -1.65665  -1.26206 
 O                    -0.12891   1.56453   2.52658 
 O                     0.57126   4.24175   1.64125 
 O                     1.36148   4.39948  -1.132 
 C                     3.01429   2.09911  -2.0538 
 H                     2.88157   2.87043  -2.82663 
 H                     3.11522   1.12398  -2.55139 
 O                     4.14849   2.37541  -1.25718 
 S                    -0.8834   -0.37903  -1.26059 
 O                    -0.73022   0.51017  -2.42188 
 O                    -0.64253   0.40764   0.07963 
 C                    -2.62996  -0.73742  -1.07511 
 C                    -3.56962   0.11645  -1.64489 
 C                    -3.00902  -1.8178   -0.28276 
 C                    -4.921    -0.11293  -1.39215 
 H                    -3.24519   0.94995  -2.25567 
 C                    -4.36422  -2.01242  -0.01853 
 H                    -2.25812  -2.47956   0.13543 
 C                    -5.32389  -1.16947  -0.57552 
 H                    -6.3742   -1.32405  -0.36102 
 C                     0.35597   1.69807   3.88007 
 H                     1.28443   1.12061   3.96655 
 H                     0.51719   2.75642   4.11228 
 H                    -0.42835   1.29809   4.52898 
 C                    -0.72199   4.68507   2.02759 
 H                    -1.3218    4.96781   1.1509 
 H                    -1.26003   3.91688   2.59582 
 H                    -0.57645   5.56521   2.65828 
 C                     2.14227   5.56171  -0.87373 
 H                     1.96487   5.93996   0.13898 
 H                     3.21284   5.35126  -1.00118 
 H                     1.8339    6.31325  -1.60466 
 C                     5.34937   2.30037  -2.00767 
 H                     6.17056   2.51391  -1.31984 
 H                     5.48077   1.29615  -2.42738 
 H                     5.35743   3.0405   -2.82219 
 C                     2.40408  -5.15651   1.17046 
 H                     2.97368  -6.08734   1.22047 
 H                     2.344    -4.71127   2.17071 
 H                     1.38415  -5.37508   0.8199 
 Na                   -1.86779   0.20346   2.07891 
 O                    -3.81011   1.21556   1.44564 
 C                    -5.0968    1.01951   2.02557 
 H                    -5.88039   1.13775   1.26723 
 H                    -5.12267  -0.00049   2.41199 
 H                    -5.27285   1.734     2.84046 
 C                    -3.68542   2.48692   0.813 
 H                    -3.80108   3.30023   1.54107 
 H                    -2.68867   2.52876   0.37107 
 H                    -4.43424   2.59955   0.02066 
 C                    -4.7723   -3.06604   0.97356 
 F                    -6.04608  -3.46391   0.80546 
 F                    -4.67177  -2.57964   2.24296 
 F                    -3.98084  -4.15337   0.9119 
 C                    -5.96426   0.78705  -1.99849 
 F                    -5.4697    2.01862  -2.2552 
 F                    -7.01986   0.94185  -1.16552 
 F                    -6.4431    0.29768  -3.15951 
 
 Add virtual bond connecting atoms O53        and C34        Dist= 3.46D+00.
 Add virtual bond connecting atoms H37        and O11        Dist= 4.26D+00.
 Add virtual bond connecting atoms H37        and O19        Dist= 4.16D+00.
 Add virtual bond connecting atoms H38        and O19        Dist= 3.97D+00.
 Add virtual bond connecting atoms H64        and O19        Dist= 3.97D+00.
 The following ModRedundant input section has been read:
 
 ITRead=  0  0  0  0  0  0  0  0  0  0  0  0  0  0  0  0  0  0  0  0
 ITRead=  0  0  0  0  0  0  0  0  0  0  0  0  0  0  0  0  0  0  0  0
 ITRead=  0  0  0  0  0  0  0  0  0  0  0  0  0  0  0  0  0  0  0  0
 ITRead=  0  0  0  0  0  0  0  0  0  0  0  0  0  0  0  0  0  0  0  0
 ITRead=  0  0  0  0  0  0  0  0  0  0  0  0  0  0  0  0  0  0  0  0
 MicOpt= -1 -1 -1 -1 -1 -1 -1 -1 -1 -1 -1 -1 -1 -1 -1 -1 -1 -1 -1 -1
 MicOpt= -1 -1 -1 -1 -1 -1 -1 -1 -1 -1 -1 -1 -1 -1 -1 -1 -1 -1 -1 -1
 MicOpt= -1 -1 -1 -1 -1 -1 -1 -1 -1 -1 -1 -1 -1 -1 -1 -1 -1 -1 -1 -1
 MicOpt= -1 -1 -1 -1 -1 -1 -1 -1 -1 -1 -1 -1 -1 -1 -1 -1 -1 -1 -1 -1
 MicOpt= -1 -1 -1 -1 -1 -1 -1 -1 -1 -1 -1 -1 -1 -1 -1 -1 -1 -1 -1 -1
 NAtoms=    100 NQM=      100 NQMF=       0 NMMI=      0 NMMIF=      0
                NMic=       0 NMicF=      0.
                    Isotopes and Nuclear Properties:
 (Nuclear quadrupole moments (NQMom) in fm**2, nuclear magnetic moments (NMagM)
  in nuclear magnetons)

  Atom         1           2           3           4           5           6           7           8           9          10
 IAtWgt=          12          12          12          12          12           1           1           1           1           1
 AtmWgt=  12.0000000  12.0000000  12.0000000  12.0000000  12.0000000   1.0078250   1.0078250   1.0078250   1.0078250   1.0078250
 NucSpn=           0           0           0           0           0           1           1           1           1           1
 AtZEff=   0.0000000   0.0000000   0.0000000   0.0000000   0.0000000   0.0000000   0.0000000   0.0000000   0.0000000   0.0000000
 NQMom=    0.0000000   0.0000000   0.0000000   0.0000000   0.0000000   0.0000000   0.0000000   0.0000000   0.0000000   0.0000000
 NMagM=    0.0000000   0.0000000   0.0000000   0.0000000   0.0000000   2.7928460   2.7928460   2.7928460   2.7928460   2.7928460
 AtZNuc=   6.0000000   6.0000000   6.0000000   6.0000000   6.0000000   1.0000000   1.0000000   1.0000000   1.0000000   1.0000000

  Atom        11          12          13          14          15          16          17          18          19          20
 IAtWgt=          16          16          16          16          16          12           1           1          16          12
 AtmWgt=  15.9949146  15.9949146  15.9949146  15.9949146  15.9949146  12.0000000   1.0078250   1.0078250  15.9949146  12.0000000
 NucSpn=           0           0           0           0           0           0           1           1           0           0
 AtZEff=   0.0000000   0.0000000   0.0000000   0.0000000   0.0000000   0.0000000   0.0000000   0.0000000   0.0000000   0.0000000
 NQMom=    0.0000000   0.0000000   0.0000000   0.0000000   0.0000000   0.0000000   0.0000000   0.0000000   0.0000000   0.0000000
 NMagM=    0.0000000   0.0000000   0.0000000   0.0000000   0.0000000   0.0000000   2.7928460   2.7928460   0.0000000   0.0000000
 AtZNuc=   8.0000000   8.0000000   8.0000000   8.0000000   8.0000000   6.0000000   1.0000000   1.0000000   8.0000000   6.0000000

  Atom        21          22          23          24          25          26          27          28          29          30
 IAtWgt=           1           1           1          12           1           1           1          12           1           1
 AtmWgt=   1.0078250   1.0078250   1.0078250  12.0000000   1.0078250   1.0078250   1.0078250  12.0000000   1.0078250   1.0078250
 NucSpn=           1           1           1           0           1           1           1           0           1           1
 AtZEff=   0.0000000   0.0000000   0.0000000   0.0000000   0.0000000   0.0000000   0.0000000   0.0000000   0.0000000   0.0000000
 NQMom=    0.0000000   0.0000000   0.0000000   0.0000000   0.0000000   0.0000000   0.0000000   0.0000000   0.0000000   0.0000000
 NMagM=    2.7928460   2.7928460   2.7928460   0.0000000   2.7928460   2.7928460   2.7928460   0.0000000   2.7928460   2.7928460
 AtZNuc=   1.0000000   1.0000000   1.0000000   6.0000000   1.0000000   1.0000000   1.0000000   6.0000000   1.0000000   1.0000000

  Atom        31          32          33          34          35          36          37          38          39          40
 IAtWgt=           1          12          12          12          12          12           1           1           1           1
 AtmWgt=   1.0078250  12.0000000  12.0000000  12.0000000  12.0000000  12.0000000   1.0078250   1.0078250   1.0078250   1.0078250
 NucSpn=           1           0           0           0           0           0           1           1           1           1
 AtZEff=   0.0000000   0.0000000   0.0000000   0.0000000   0.0000000   0.0000000   0.0000000   0.0000000   0.0000000   0.0000000
 NQMom=    0.0000000   0.0000000   0.0000000   0.0000000   0.0000000   0.0000000   0.0000000   0.0000000   0.0000000   0.0000000
 NMagM=    2.7928460   0.0000000   0.0000000   0.0000000   0.0000000   0.0000000   2.7928460   2.7928460   2.7928460   2.7928460
 AtZNuc=   1.0000000   6.0000000   6.0000000   6.0000000   6.0000000   6.0000000   1.0000000   1.0000000   1.0000000   1.0000000

  Atom        41          42          43          44          45          46          47          48          49          50
 IAtWgt=           1          16          16          16          16          16          12           1           1          16
 AtmWgt=   1.0078250  15.9949146  15.9949146  15.9949146  15.9949146  15.9949146  12.0000000   1.0078250   1.0078250  15.9949146
 NucSpn=           1           0           0           0           0           0           0           1           1           0
 AtZEff=   0.0000000   0.0000000   0.0000000   0.0000000   0.0000000   0.0000000   0.0000000   0.0000000   0.0000000   0.0000000
 NQMom=    0.0000000   0.0000000   0.0000000   0.0000000   0.0000000   0.0000000   0.0000000   0.0000000   0.0000000   0.0000000
 NMagM=    2.7928460   0.0000000   0.0000000   0.0000000   0.0000000   0.0000000   0.0000000   2.7928460   2.7928460   0.0000000
 AtZNuc=   1.0000000   8.0000000   8.0000000   8.0000000   8.0000000   8.0000000   6.0000000   1.0000000   1.0000000   8.0000000

  Atom        51          52          53          54          55          56          57          58          59          60
 IAtWgt=          32          16          16          12          12          12          12           1          12           1
 AtmWgt=  31.9720718  15.9949146  15.9949146  12.0000000  12.0000000  12.0000000  12.0000000   1.0078250  12.0000000   1.0078250
 NucSpn=           0           0           0           0           0           0           0           1           0           1
 AtZEff=   0.0000000   0.0000000   0.0000000   0.0000000   0.0000000   0.0000000   0.0000000   0.0000000   0.0000000   0.0000000
 NQMom=    0.0000000   0.0000000   0.0000000   0.0000000   0.0000000   0.0000000   0.0000000   0.0000000   0.0000000   0.0000000
 NMagM=    0.0000000   0.0000000   0.0000000   0.0000000   0.0000000   0.0000000   0.0000000   2.7928460   0.0000000   2.7928460
 AtZNuc=  16.0000000   8.0000000   8.0000000   6.0000000   6.0000000   6.0000000   6.0000000   1.0000000   6.0000000   1.0000000

  Atom        61          62          63          64          65          66          67          68          69          70
 IAtWgt=          12           1          12           1           1           1          12           1           1           1
 AtmWgt=  12.0000000   1.0078250  12.0000000   1.0078250   1.0078250   1.0078250  12.0000000   1.0078250   1.0078250   1.0078250
 NucSpn=           0           1           0           1           1           1           0           1           1           1
 AtZEff=   0.0000000   0.0000000   0.0000000   0.0000000   0.0000000   0.0000000   0.0000000   0.0000000   0.0000000   0.0000000
 NQMom=    0.0000000   0.0000000   0.0000000   0.0000000   0.0000000   0.0000000   0.0000000   0.0000000   0.0000000   0.0000000
 NMagM=    0.0000000   2.7928460   0.0000000   2.7928460   2.7928460   2.7928460   0.0000000   2.7928460   2.7928460   2.7928460
 AtZNuc=   6.0000000   1.0000000   6.0000000   1.0000000   1.0000000   1.0000000   6.0000000   1.0000000   1.0000000   1.0000000

  Atom        71          72          73          74          75          76          77          78          79          80
 IAtWgt=          12           1           1           1          12           1           1           1          12           1
 AtmWgt=  12.0000000   1.0078250   1.0078250   1.0078250  12.0000000   1.0078250   1.0078250   1.0078250  12.0000000   1.0078250
 NucSpn=           0           1           1           1           0           1           1           1           0           1
 AtZEff=   0.0000000   0.0000000   0.0000000   0.0000000   0.0000000   0.0000000   0.0000000   0.0000000   0.0000000   0.0000000
 NQMom=    0.0000000   0.0000000   0.0000000   0.0000000   0.0000000   0.0000000   0.0000000   0.0000000   0.0000000   0.0000000
 NMagM=    0.0000000   2.7928460   2.7928460   2.7928460   0.0000000   2.7928460   2.7928460   2.7928460   0.0000000   2.7928460
 AtZNuc=   6.0000000   1.0000000   1.0000000   1.0000000   6.0000000   1.0000000   1.0000000   1.0000000   6.0000000   1.0000000

  Atom        81          82          83          84          85          86          87          88          89          90
 IAtWgt=           1           1          23          16          12           1           1           1          12           1
 AtmWgt=   1.0078250   1.0078250  22.9897697  15.9949146  12.0000000   1.0078250   1.0078250   1.0078250  12.0000000   1.0078250
 NucSpn=           1           1           3           0           0           1           1           1           0           1
 AtZEff=   0.0000000   0.0000000   0.0000000   0.0000000   0.0000000   0.0000000   0.0000000   0.0000000   0.0000000   0.0000000
 NQMom=    0.0000000   0.0000000  10.4000000   0.0000000   0.0000000   0.0000000   0.0000000   0.0000000   0.0000000   0.0000000
 NMagM=    2.7928460   2.7928460   2.2175200   0.0000000   0.0000000   2.7928460   2.7928460   2.7928460   0.0000000   2.7928460
 AtZNuc=   1.0000000   1.0000000  11.0000000   8.0000000   6.0000000   1.0000000   1.0000000   1.0000000   6.0000000   1.0000000

  Atom        91          92          93          94          95          96          97          98          99         100
 IAtWgt=           1           1          12          19          19          19          12          19          19          19
 AtmWgt=   1.0078250   1.0078250  12.0000000  18.9984033  18.9984033  18.9984033  12.0000000  18.9984033  18.9984033  18.9984033
 NucSpn=           1           1           0           1           1           1           0           1           1           1
 AtZEff=   0.0000000   0.0000000   0.0000000   0.0000000   0.0000000   0.0000000   0.0000000   0.0000000   0.0000000   0.0000000
 NQMom=    0.0000000   0.0000000   0.0000000   0.0000000   0.0000000   0.0000000   0.0000000   0.0000000   0.0000000   0.0000000
 NMagM=    2.7928460   2.7928460   0.0000000   2.6288670   2.6288670   2.6288670   0.0000000   2.6288670   2.6288670   2.6288670
 AtZNuc=   1.0000000   1.0000000   6.0000000   9.0000000   9.0000000   9.0000000   6.0000000   9.0000000   9.0000000   9.0000000
 Leave Link  101 at Tue May 21 07:20:17 2019, MaxMem=  6442450944 cpu:              18.0 elap:               0.7
 (Enter /home/ekwan/sw/g16/l103.exe)

 GradGradGradGradGradGradGradGradGradGradGradGradGradGradGradGradGradGrad
 Berny optimization.
 Initialization pass.
                           ----------------------------
                           !    Initial Parameters    !
                           ! (Angstroms and Degrees)  !
 --------------------------                            --------------------------
 ! Name  Definition              Value          Derivative Info.                !
 --------------------------------------------------------------------------------
 ! R1    R(1,2)                  1.5282         calculate D2E/DX2 analytically  !
 ! R2    R(1,5)                  1.5279         calculate D2E/DX2 analytically  !
 ! R3    R(1,8)                  1.0981         calculate D2E/DX2 analytically  !
 ! R4    R(1,14)                 1.4299         calculate D2E/DX2 analytically  !
 ! R5    R(2,3)                  1.5298         calculate D2E/DX2 analytically  !
 ! R6    R(2,7)                  1.0947         calculate D2E/DX2 analytically  !
 ! R7    R(2,13)                 1.4217         calculate D2E/DX2 analytically  !
 ! R8    R(3,6)                  1.0955         calculate D2E/DX2 analytically  !
 ! R9    R(3,11)                 1.413          calculate D2E/DX2 analytically  !
 ! R10   R(3,12)                 1.4086         calculate D2E/DX2 analytically  !
 ! R11   R(4,5)                  1.5352         calculate D2E/DX2 analytically  !
 ! R12   R(4,9)                  1.0998         calculate D2E/DX2 analytically  !
 ! R13   R(4,11)                 1.4496         calculate D2E/DX2 analytically  !
 ! R14   R(4,16)                 1.5409         calculate D2E/DX2 analytically  !
 ! R15   R(5,10)                 1.0922         calculate D2E/DX2 analytically  !
 ! R16   R(5,15)                 1.4295         calculate D2E/DX2 analytically  !
 ! R17   R(11,37)                2.2537         calculate D2E/DX2 analytically  !
 ! R18   R(12,79)                1.4198         calculate D2E/DX2 analytically  !
 ! R19   R(13,20)                1.4198         calculate D2E/DX2 analytically  !
 ! R20   R(14,24)                1.4189         calculate D2E/DX2 analytically  !
 ! R21   R(15,28)                1.4255         calculate D2E/DX2 analytically  !
 ! R22   R(16,17)                1.1205         calculate D2E/DX2 analytically  !
 ! R23   R(16,18)                1.1226         calculate D2E/DX2 analytically  !
 ! R24   R(16,19)                1.3585         calculate D2E/DX2 analytically  !
 ! R25   R(19,37)                2.2004         calculate D2E/DX2 analytically  !
 ! R26   R(19,38)                2.0983         calculate D2E/DX2 analytically  !
 ! R27   R(19,64)                2.1004         calculate D2E/DX2 analytically  !
 ! R28   R(20,21)                1.0998         calculate D2E/DX2 analytically  !
 ! R29   R(20,22)                1.0963         calculate D2E/DX2 analytically  !
 ! R30   R(20,23)                1.0941         calculate D2E/DX2 analytically  !
 ! R31   R(24,25)                1.0949         calculate D2E/DX2 analytically  !
 ! R32   R(24,26)                1.1004         calculate D2E/DX2 analytically  !
 ! R33   R(24,27)                1.0938         calculate D2E/DX2 analytically  !
 ! R34   R(28,29)                1.0989         calculate D2E/DX2 analytically  !
 ! R35   R(28,30)                1.0964         calculate D2E/DX2 analytically  !
 ! R36   R(28,31)                1.0943         calculate D2E/DX2 analytically  !
 ! R37   R(32,33)                1.5237         calculate D2E/DX2 analytically  !
 ! R38   R(32,36)                1.526          calculate D2E/DX2 analytically  !
 ! R39   R(32,39)                1.0971         calculate D2E/DX2 analytically  !
 ! R40   R(32,45)                1.4206         calculate D2E/DX2 analytically  !
 ! R41   R(33,34)                1.5078         calculate D2E/DX2 analytically  !
 ! R42   R(33,38)                1.0956         calculate D2E/DX2 analytically  !
 ! R43   R(33,44)                1.4228         calculate D2E/DX2 analytically  !
 ! R44   R(34,37)                1.0825         calculate D2E/DX2 analytically  !
 ! R45   R(34,42)                1.3178         calculate D2E/DX2 analytically  !
 ! R46   R(34,53)                1.8309         calculate D2E/DX2 analytically  !
 ! R47   R(35,36)                1.5316         calculate D2E/DX2 analytically  !
 ! R48   R(35,40)                1.0931         calculate D2E/DX2 analytically  !
 ! R49   R(35,42)                1.4624         calculate D2E/DX2 analytically  !
 ! R50   R(35,47)                1.5137         calculate D2E/DX2 analytically  !
 ! R51   R(36,41)                1.0951         calculate D2E/DX2 analytically  !
 ! R52   R(36,46)                1.4186         calculate D2E/DX2 analytically  !
 ! R53   R(43,51)                1.4691         calculate D2E/DX2 analytically  !
 ! R54   R(44,63)                1.4439         calculate D2E/DX2 analytically  !
 ! R55   R(44,83)                2.2531         calculate D2E/DX2 analytically  !
 ! R56   R(45,67)                1.4207         calculate D2E/DX2 analytically  !
 ! R57   R(46,71)                1.4238         calculate D2E/DX2 analytically  !
 ! R58   R(47,48)                1.0999         calculate D2E/DX2 analytically  !
 ! R59   R(47,49)                1.0994         calculate D2E/DX2 analytically  !
 ! R60   R(47,50)                1.4133         calculate D2E/DX2 analytically  !
 ! R61   R(50,75)                1.4181         calculate D2E/DX2 analytically  !
 ! R62   R(51,52)                1.4706         calculate D2E/DX2 analytically  !
 ! R63   R(51,53)                1.5726         calculate D2E/DX2 analytically  !
 ! R64   R(51,54)                1.7926         calculate D2E/DX2 analytically  !
 ! R65   R(54,55)                1.3917         calculate D2E/DX2 analytically  !
 ! R66   R(54,56)                1.3924         calculate D2E/DX2 analytically  !
 ! R67   R(55,57)                1.3938         calculate D2E/DX2 analytically  !
 ! R68   R(55,58)                1.0831         calculate D2E/DX2 analytically  !
 ! R69   R(56,59)                1.3944         calculate D2E/DX2 analytically  !
 ! R70   R(56,60)                1.0847         calculate D2E/DX2 analytically  !
 ! R71   R(57,61)                1.3948         calculate D2E/DX2 analytically  !
 ! R72   R(57,97)                1.5053         calculate D2E/DX2 analytically  !
 ! R73   R(59,61)                1.3935         calculate D2E/DX2 analytically  !
 ! R74   R(59,93)                1.5036         calculate D2E/DX2 analytically  !
 ! R75   R(61,62)                1.0831         calculate D2E/DX2 analytically  !
 ! R76   R(63,64)                1.0968         calculate D2E/DX2 analytically  !
 ! R77   R(63,65)                1.0954         calculate D2E/DX2 analytically  !
 ! R78   R(63,66)                1.0937         calculate D2E/DX2 analytically  !
 ! R79   R(67,68)                1.0992         calculate D2E/DX2 analytically  !
 ! R80   R(67,69)                1.0966         calculate D2E/DX2 analytically  !
 ! R81   R(67,70)                1.0925         calculate D2E/DX2 analytically  !
 ! R82   R(71,72)                1.0955         calculate D2E/DX2 analytically  !
 ! R83   R(71,73)                1.0985         calculate D2E/DX2 analytically  !
 ! R84   R(71,74)                1.0928         calculate D2E/DX2 analytically  !
 ! R85   R(75,76)                1.0923         calculate D2E/DX2 analytically  !
 ! R86   R(75,77)                1.0963         calculate D2E/DX2 analytically  !
 ! R87   R(75,78)                1.1006         calculate D2E/DX2 analytically  !
 ! R88   R(79,80)                1.0924         calculate D2E/DX2 analytically  !
 ! R89   R(79,81)                1.0965         calculate D2E/DX2 analytically  !
 ! R90   R(79,82)                1.1004         calculate D2E/DX2 analytically  !
 ! R91   R(83,84)                2.2799         calculate D2E/DX2 analytically  !
 ! R92   R(84,85)                1.4249         calculate D2E/DX2 analytically  !
 ! R93   R(84,89)                1.4255         calculate D2E/DX2 analytically  !
 ! R94   R(85,86)                1.0969         calculate D2E/DX2 analytically  !
 ! R95   R(85,87)                1.091          calculate D2E/DX2 analytically  !
 ! R96   R(85,88)                1.098          calculate D2E/DX2 analytically  !
 ! R97   R(89,90)                1.0977         calculate D2E/DX2 analytically  !
 ! R98   R(89,91)                1.0911         calculate D2E/DX2 analytically  !
 ! R99   R(89,92)                1.096          calculate D2E/DX2 analytically  !
 ! R100  R(93,94)                1.345          calculate D2E/DX2 analytically  !
 ! R101  R(93,95)                1.3631         calculate D2E/DX2 analytically  !
 ! R102  R(93,96)                1.3463         calculate D2E/DX2 analytically  !
 ! R103  R(97,98)                1.3518         calculate D2E/DX2 analytically  !
 ! R104  R(97,99)                1.3535         calculate D2E/DX2 analytically  !
 ! R105  R(97,100)               1.3479         calculate D2E/DX2 analytically  !
 ! A1    A(2,1,5)              109.1369         calculate D2E/DX2 analytically  !
 ! A2    A(2,1,8)              108.7224         calculate D2E/DX2 analytically  !
 ! A3    A(2,1,14)             108.0807         calculate D2E/DX2 analytically  !
 ! A4    A(5,1,8)              109.9552         calculate D2E/DX2 analytically  !
 ! A5    A(5,1,14)             111.5486         calculate D2E/DX2 analytically  !
 ! A6    A(8,1,14)             109.3343         calculate D2E/DX2 analytically  !
 ! A7    A(1,2,3)              110.3407         calculate D2E/DX2 analytically  !
 ! A8    A(1,2,7)              108.7096         calculate D2E/DX2 analytically  !
 ! A9    A(1,2,13)             112.0814         calculate D2E/DX2 analytically  !
 ! A10   A(3,2,7)              106.3568         calculate D2E/DX2 analytically  !
 ! A11   A(3,2,13)             109.0913         calculate D2E/DX2 analytically  !
 ! A12   A(7,2,13)             110.1007         calculate D2E/DX2 analytically  !
 ! A13   A(2,3,6)              109.9235         calculate D2E/DX2 analytically  !
 ! A14   A(2,3,11)             110.5513         calculate D2E/DX2 analytically  !
 ! A15   A(2,3,12)             108.3149         calculate D2E/DX2 analytically  !
 ! A16   A(6,3,11)             105.2865         calculate D2E/DX2 analytically  !
 ! A17   A(6,3,12)             110.306          calculate D2E/DX2 analytically  !
 ! A18   A(11,3,12)            112.439          calculate D2E/DX2 analytically  !
 ! A19   A(5,4,9)              108.9044         calculate D2E/DX2 analytically  !
 ! A20   A(5,4,11)             109.5328         calculate D2E/DX2 analytically  !
 ! A21   A(5,4,16)             112.8515         calculate D2E/DX2 analytically  !
 ! A22   A(9,4,11)             108.6375         calculate D2E/DX2 analytically  !
 ! A23   A(9,4,16)             109.7962         calculate D2E/DX2 analytically  !
 ! A24   A(11,4,16)            107.0298         calculate D2E/DX2 analytically  !
 ! A25   A(1,5,4)              111.3834         calculate D2E/DX2 analytically  !
 ! A26   A(1,5,10)             108.2225         calculate D2E/DX2 analytically  !
 ! A27   A(1,5,15)             109.5354         calculate D2E/DX2 analytically  !
 ! A28   A(4,5,10)             108.4402         calculate D2E/DX2 analytically  !
 ! A29   A(4,5,15)             109.6709         calculate D2E/DX2 analytically  !
 ! A30   A(10,5,15)            109.5528         calculate D2E/DX2 analytically  !
 ! A31   A(3,11,4)             114.2364         calculate D2E/DX2 analytically  !
 ! A32   A(3,11,37)            120.9049         calculate D2E/DX2 analytically  !
 ! A33   A(4,11,37)             99.749          calculate D2E/DX2 analytically  !
 ! A34   A(3,12,79)            112.9843         calculate D2E/DX2 analytically  !
 ! A35   A(2,13,20)            113.268          calculate D2E/DX2 analytically  !
 ! A36   A(1,14,24)            113.698          calculate D2E/DX2 analytically  !
 ! A37   A(5,15,28)            112.2619         calculate D2E/DX2 analytically  !
 ! A38   A(4,16,17)            104.4206         calculate D2E/DX2 analytically  !
 ! A39   A(4,16,18)            104.3567         calculate D2E/DX2 analytically  !
 ! A40   A(4,16,19)            113.9775         calculate D2E/DX2 analytically  !
 ! A41   A(17,16,18)           103.9854         calculate D2E/DX2 analytically  !
 ! A42   A(17,16,19)           114.5152         calculate D2E/DX2 analytically  !
 ! A43   A(18,16,19)           114.3712         calculate D2E/DX2 analytically  !
 ! A44   A(16,19,37)           104.4277         calculate D2E/DX2 analytically  !
 ! A45   A(16,19,64)           126.5295         calculate D2E/DX2 analytically  !
 ! A46   A(37,19,38)            70.4703         calculate D2E/DX2 analytically  !
 ! A47   A(37,19,64)            95.4012         calculate D2E/DX2 analytically  !
 ! A48   A(38,19,64)            61.9147         calculate D2E/DX2 analytically  !
 ! A49   A(13,20,21)           111.1789         calculate D2E/DX2 analytically  !
 ! A50   A(13,20,22)           111.418          calculate D2E/DX2 analytically  !
 ! A51   A(13,20,23)           106.8278         calculate D2E/DX2 analytically  !
 ! A52   A(21,20,22)           109.0239         calculate D2E/DX2 analytically  !
 ! A53   A(21,20,23)           108.9773         calculate D2E/DX2 analytically  !
 ! A54   A(22,20,23)           109.3553         calculate D2E/DX2 analytically  !
 ! A55   A(14,24,25)           111.46           calculate D2E/DX2 analytically  !
 ! A56   A(14,24,26)           111.0768         calculate D2E/DX2 analytically  !
 ! A57   A(14,24,27)           106.9518         calculate D2E/DX2 analytically  !
 ! A58   A(25,24,26)           109.0079         calculate D2E/DX2 analytically  !
 ! A59   A(25,24,27)           109.5589         calculate D2E/DX2 analytically  !
 ! A60   A(26,24,27)           108.7252         calculate D2E/DX2 analytically  !
 ! A61   A(15,28,29)           110.6415         calculate D2E/DX2 analytically  !
 ! A62   A(15,28,30)           110.86           calculate D2E/DX2 analytically  !
 ! A63   A(15,28,31)           106.9939         calculate D2E/DX2 analytically  !
 ! A64   A(29,28,30)           108.4087         calculate D2E/DX2 analytically  !
 ! A65   A(29,28,31)           109.3124         calculate D2E/DX2 analytically  !
 ! A66   A(30,28,31)           110.62           calculate D2E/DX2 analytically  !
 ! A67   A(33,32,36)           108.1511         calculate D2E/DX2 analytically  !
 ! A68   A(33,32,39)           110.5198         calculate D2E/DX2 analytically  !
 ! A69   A(33,32,45)           110.3931         calculate D2E/DX2 analytically  !
 ! A70   A(36,32,39)           108.9631         calculate D2E/DX2 analytically  !
 ! A71   A(36,32,45)           108.5045         calculate D2E/DX2 analytically  !
 ! A72   A(39,32,45)           110.2465         calculate D2E/DX2 analytically  !
 ! A73   A(32,33,34)           112.4005         calculate D2E/DX2 analytically  !
 ! A74   A(32,33,38)           109.9297         calculate D2E/DX2 analytically  !
 ! A75   A(32,33,44)           112.0968         calculate D2E/DX2 analytically  !
 ! A76   A(34,33,38)           101.8026         calculate D2E/DX2 analytically  !
 ! A77   A(34,33,44)           111.0418         calculate D2E/DX2 analytically  !
 ! A78   A(38,33,44)           109.0513         calculate D2E/DX2 analytically  !
 ! A79   A(33,34,37)           116.9735         calculate D2E/DX2 analytically  !
 ! A80   A(33,34,42)           117.9933         calculate D2E/DX2 analytically  !
 ! A81   A(33,34,53)            99.0165         calculate D2E/DX2 analytically  !
 ! A82   A(37,34,42)           112.5715         calculate D2E/DX2 analytically  !
 ! A83   A(37,34,53)            99.5161         calculate D2E/DX2 analytically  !
 ! A84   A(42,34,53)           107.2459         calculate D2E/DX2 analytically  !
 ! A85   A(36,35,40)           109.3791         calculate D2E/DX2 analytically  !
 ! A86   A(36,35,42)           112.7078         calculate D2E/DX2 analytically  !
 ! A87   A(36,35,47)           113.2461         calculate D2E/DX2 analytically  !
 ! A88   A(40,35,42)           105.9873         calculate D2E/DX2 analytically  !
 ! A89   A(40,35,47)           109.0222         calculate D2E/DX2 analytically  !
 ! A90   A(42,35,47)           106.1781         calculate D2E/DX2 analytically  !
 ! A91   A(32,36,35)           111.2004         calculate D2E/DX2 analytically  !
 ! A92   A(32,36,41)           108.8049         calculate D2E/DX2 analytically  !
 ! A93   A(32,36,46)           111.0794         calculate D2E/DX2 analytically  !
 ! A94   A(35,36,41)           109.1385         calculate D2E/DX2 analytically  !
 ! A95   A(35,36,46)           105.8826         calculate D2E/DX2 analytically  !
 ! A96   A(41,36,46)           110.7074         calculate D2E/DX2 analytically  !
 ! A97   A(11,37,19)            81.7185         calculate D2E/DX2 analytically  !
 ! A98   A(11,37,34)           150.2319         calculate D2E/DX2 analytically  !
 ! A99   A(19,37,34)           104.6439         calculate D2E/DX2 analytically  !
 ! A100  A(19,38,33)           116.0046         calculate D2E/DX2 analytically  !
 ! A101  A(34,42,35)           120.7396         calculate D2E/DX2 analytically  !
 ! A102  A(33,44,63)           113.0772         calculate D2E/DX2 analytically  !
 ! A103  A(33,44,83)           121.4018         calculate D2E/DX2 analytically  !
 ! A104  A(63,44,83)           120.0849         calculate D2E/DX2 analytically  !
 ! A105  A(32,45,67)           114.1023         calculate D2E/DX2 analytically  !
 ! A106  A(36,46,71)           113.7616         calculate D2E/DX2 analytically  !
 ! A107  A(35,47,48)           108.2824         calculate D2E/DX2 analytically  !
 ! A108  A(35,47,49)           108.974          calculate D2E/DX2 analytically  !
 ! A109  A(35,47,50)           109.5338         calculate D2E/DX2 analytically  !
 ! A110  A(48,47,49)           108.3641         calculate D2E/DX2 analytically  !
 ! A111  A(48,47,50)           110.8421         calculate D2E/DX2 analytically  !
 ! A112  A(49,47,50)           110.7836         calculate D2E/DX2 analytically  !
 ! A113  A(47,50,75)           111.7746         calculate D2E/DX2 analytically  !
 ! A114  A(43,51,52)           118.2686         calculate D2E/DX2 analytically  !
 ! A115  A(43,51,53)           111.116          calculate D2E/DX2 analytically  !
 ! A116  A(43,51,54)           107.8945         calculate D2E/DX2 analytically  !
 ! A117  A(52,51,53)           110.766          calculate D2E/DX2 analytically  !
 ! A118  A(52,51,54)           107.7027         calculate D2E/DX2 analytically  !
 ! A119  A(53,51,54)            99.2686         calculate D2E/DX2 analytically  !
 ! A120  A(34,53,51)           118.3234         calculate D2E/DX2 analytically  !
 ! A121  A(51,54,55)           119.5277         calculate D2E/DX2 analytically  !
 ! A122  A(51,54,56)           118.6371         calculate D2E/DX2 analytically  !
 ! A123  A(55,54,56)           121.6851         calculate D2E/DX2 analytically  !
 ! A124  A(54,55,57)           118.6485         calculate D2E/DX2 analytically  !
 ! A125  A(54,55,58)           120.054          calculate D2E/DX2 analytically  !
 ! A126  A(57,55,58)           121.288          calculate D2E/DX2 analytically  !
 ! A127  A(54,56,59)           118.733          calculate D2E/DX2 analytically  !
 ! A128  A(54,56,60)           120.2844         calculate D2E/DX2 analytically  !
 ! A129  A(59,56,60)           120.97           calculate D2E/DX2 analytically  !
 ! A130  A(55,57,61)           120.7225         calculate D2E/DX2 analytically  !
 ! A131  A(55,57,97)           120.034          calculate D2E/DX2 analytically  !
 ! A132  A(61,57,97)           119.2431         calculate D2E/DX2 analytically  !
 ! A133  A(56,59,61)           120.6081         calculate D2E/DX2 analytically  !
 ! A134  A(56,59,93)           119.1182         calculate D2E/DX2 analytically  !
 ! A135  A(61,59,93)           120.0467         calculate D2E/DX2 analytically  !
 ! A136  A(57,61,59)           119.5589         calculate D2E/DX2 analytically  !
 ! A137  A(57,61,62)           120.2763         calculate D2E/DX2 analytically  !
 ! A138  A(59,61,62)           120.1561         calculate D2E/DX2 analytically  !
 ! A139  A(44,63,64)           108.0283         calculate D2E/DX2 analytically  !
 ! A140  A(44,63,65)           109.7236         calculate D2E/DX2 analytically  !
 ! A141  A(44,63,66)           106.3504         calculate D2E/DX2 analytically  !
 ! A142  A(64,63,65)           111.5536         calculate D2E/DX2 analytically  !
 ! A143  A(64,63,66)           111.575          calculate D2E/DX2 analytically  !
 ! A144  A(65,63,66)           109.4562         calculate D2E/DX2 analytically  !
 ! A145  A(19,64,63)           139.6443         calculate D2E/DX2 analytically  !
 ! A146  A(45,67,68)           111.1064         calculate D2E/DX2 analytically  !
 ! A147  A(45,67,69)           111.6514         calculate D2E/DX2 analytically  !
 ! A148  A(45,67,70)           106.6851         calculate D2E/DX2 analytically  !
 ! A149  A(68,67,69)           109.0099         calculate D2E/DX2 analytically  !
 ! A150  A(68,67,70)           109.0192         calculate D2E/DX2 analytically  !
 ! A151  A(69,67,70)           109.3045         calculate D2E/DX2 analytically  !
 ! A152  A(46,71,72)           111.1457         calculate D2E/DX2 analytically  !
 ! A153  A(46,71,73)           110.9172         calculate D2E/DX2 analytically  !
 ! A154  A(46,71,74)           106.5778         calculate D2E/DX2 analytically  !
 ! A155  A(72,71,73)           109.343          calculate D2E/DX2 analytically  !
 ! A156  A(72,71,74)           109.5834         calculate D2E/DX2 analytically  !
 ! A157  A(73,71,74)           109.2185         calculate D2E/DX2 analytically  !
 ! A158  A(50,75,76)           107.0403         calculate D2E/DX2 analytically  !
 ! A159  A(50,75,77)           110.6452         calculate D2E/DX2 analytically  !
 ! A160  A(50,75,78)           111.2404         calculate D2E/DX2 analytically  !
 ! A161  A(76,75,77)           109.2717         calculate D2E/DX2 analytically  !
 ! A162  A(76,75,78)           109.2119         calculate D2E/DX2 analytically  !
 ! A163  A(77,75,78)           109.3784         calculate D2E/DX2 analytically  !
 ! A164  A(12,79,80)           106.9156         calculate D2E/DX2 analytically  !
 ! A165  A(12,79,81)           111.6115         calculate D2E/DX2 analytically  !
 ! A166  A(12,79,82)           110.9576         calculate D2E/DX2 analytically  !
 ! A167  A(80,79,81)           109.4377         calculate D2E/DX2 analytically  !
 ! A168  A(80,79,82)           109.1844         calculate D2E/DX2 analytically  !
 ! A169  A(81,79,82)           108.6918         calculate D2E/DX2 analytically  !
 ! A170  A(44,83,84)           116.3919         calculate D2E/DX2 analytically  !
 ! A171  A(83,84,85)           126.5243         calculate D2E/DX2 analytically  !
 ! A172  A(83,84,89)           116.4016         calculate D2E/DX2 analytically  !
 ! A173  A(85,84,89)           112.4777         calculate D2E/DX2 analytically  !
 ! A174  A(84,85,86)           110.4186         calculate D2E/DX2 analytically  !
 ! A175  A(84,85,87)           107.1094         calculate D2E/DX2 analytically  !
 ! A176  A(84,85,88)           110.9359         calculate D2E/DX2 analytically  !
 ! A177  A(86,85,87)           109.1904         calculate D2E/DX2 analytically  !
 ! A178  A(86,85,88)           109.1734         calculate D2E/DX2 analytically  !
 ! A179  A(87,85,88)           109.9807         calculate D2E/DX2 analytically  !
 ! A180  A(84,89,90)           110.9297         calculate D2E/DX2 analytically  !
 ! A181  A(84,89,91)           107.0886         calculate D2E/DX2 analytically  !
 ! A182  A(84,89,92)           110.654          calculate D2E/DX2 analytically  !
 ! A183  A(90,89,91)           109.6625         calculate D2E/DX2 analytically  !
 ! A184  A(90,89,92)           109.3521         calculate D2E/DX2 analytically  !
 ! A185  A(91,89,92)           109.1101         calculate D2E/DX2 analytically  !
 ! A186  A(59,93,94)           112.4479         calculate D2E/DX2 analytically  !
 ! A187  A(59,93,95)           110.144          calculate D2E/DX2 analytically  !
 ! A188  A(59,93,96)           112.0966         calculate D2E/DX2 analytically  !
 ! A189  A(94,93,95)           106.965          calculate D2E/DX2 analytically  !
 ! A190  A(94,93,96)           108.1867         calculate D2E/DX2 analytically  !
 ! A191  A(95,93,96)           106.7074         calculate D2E/DX2 analytically  !
 ! A192  A(57,97,98)           111.5699         calculate D2E/DX2 analytically  !
 ! A193  A(57,97,99)           111.1605         calculate D2E/DX2 analytically  !
 ! A194  A(57,97,100)          112.0923         calculate D2E/DX2 analytically  !
 ! A195  A(98,97,99)           107.3377         calculate D2E/DX2 analytically  !
 ! A196  A(98,97,100)          107.2887         calculate D2E/DX2 analytically  !
 ! A197  A(99,97,100)          107.1311         calculate D2E/DX2 analytically  !
 ! A198  L(16,19,38,37,-1)     174.898          calculate D2E/DX2 analytically  !
 ! A199  L(16,19,38,37,-2)     187.5542         calculate D2E/DX2 analytically  !
 ! D1    D(5,1,2,3)            -54.196          calculate D2E/DX2 analytically  !
 ! D2    D(5,1,2,7)             62.0774         calculate D2E/DX2 analytically  !
 ! D3    D(5,1,2,13)          -175.9876         calculate D2E/DX2 analytically  !
 ! D4    D(8,1,2,3)             65.7403         calculate D2E/DX2 analytically  !
 ! D5    D(8,1,2,7)           -177.9864         calculate D2E/DX2 analytically  !
 ! D6    D(8,1,2,13)           -56.0513         calculate D2E/DX2 analytically  !
 ! D7    D(14,1,2,3)          -175.6798         calculate D2E/DX2 analytically  !
 ! D8    D(14,1,2,7)           -59.4064         calculate D2E/DX2 analytically  !
 ! D9    D(14,1,2,13)           62.5286         calculate D2E/DX2 analytically  !
 ! D10   D(2,1,5,4)             53.8327         calculate D2E/DX2 analytically  !
 ! D11   D(2,1,5,10)           -65.281          calculate D2E/DX2 analytically  !
 ! D12   D(2,1,5,15)           175.3337         calculate D2E/DX2 analytically  !
 ! D13   D(8,1,5,4)            -65.3406         calculate D2E/DX2 analytically  !
 ! D14   D(8,1,5,10)           175.5457         calculate D2E/DX2 analytically  !
 ! D15   D(8,1,5,15)            56.1605         calculate D2E/DX2 analytically  !
 ! D16   D(14,1,5,4)           173.188          calculate D2E/DX2 analytically  !
 ! D17   D(14,1,5,10)           54.0743         calculate D2E/DX2 analytically  !
 ! D18   D(14,1,5,15)          -65.3109         calculate D2E/DX2 analytically  !
 ! D19   D(2,1,14,24)         -143.4608         calculate D2E/DX2 analytically  !
 ! D20   D(5,1,14,24)           96.5596         calculate D2E/DX2 analytically  !
 ! D21   D(8,1,14,24)          -25.2714         calculate D2E/DX2 analytically  !
 ! D22   D(1,2,3,6)            172.8839         calculate D2E/DX2 analytically  !
 ! D23   D(1,2,3,11)            57.0747         calculate D2E/DX2 analytically  !
 ! D24   D(1,2,3,12)           -66.5321         calculate D2E/DX2 analytically  !
 ! D25   D(7,2,3,6)             55.1518         calculate D2E/DX2 analytically  !
 ! D26   D(7,2,3,11)           -60.6575         calculate D2E/DX2 analytically  !
 ! D27   D(7,2,3,12)           175.7357         calculate D2E/DX2 analytically  !
 ! D28   D(13,2,3,6)           -63.5726         calculate D2E/DX2 analytically  !
 ! D29   D(13,2,3,11)         -179.3819         calculate D2E/DX2 analytically  !
 ! D30   D(13,2,3,12)           57.0113         calculate D2E/DX2 analytically  !
 ! D31   D(1,2,13,20)         -101.6184         calculate D2E/DX2 analytically  !
 ! D32   D(3,2,13,20)          135.8775         calculate D2E/DX2 analytically  !
 ! D33   D(7,2,13,20)           19.518          calculate D2E/DX2 analytically  !
 ! D34   D(2,3,11,4)           -60.1703         calculate D2E/DX2 analytically  !
 ! D35   D(2,3,11,37)           58.9017         calculate D2E/DX2 analytically  !
 ! D36   D(6,3,11,4)          -178.8388         calculate D2E/DX2 analytically  !
 ! D37   D(6,3,11,37)          -59.7667         calculate D2E/DX2 analytically  !
 ! D38   D(12,3,11,4)           61.022          calculate D2E/DX2 analytically  !
 ! D39   D(12,3,11,37)        -179.906          calculate D2E/DX2 analytically  !
 ! D40   D(2,3,12,79)         -173.2132         calculate D2E/DX2 analytically  !
 ! D41   D(6,3,12,79)          -52.8675         calculate D2E/DX2 analytically  !
 ! D42   D(11,3,12,79)          64.3232         calculate D2E/DX2 analytically  !
 ! D43   D(9,4,5,1)             64.0416         calculate D2E/DX2 analytically  !
 ! D44   D(9,4,5,10)          -176.9745         calculate D2E/DX2 analytically  !
 ! D45   D(9,4,5,15)           -57.3806         calculate D2E/DX2 analytically  !
 ! D46   D(11,4,5,1)           -54.6386         calculate D2E/DX2 analytically  !
 ! D47   D(11,4,5,10)           64.3453         calculate D2E/DX2 analytically  !
 ! D48   D(11,4,5,15)         -176.0607         calculate D2E/DX2 analytically  !
 ! D49   D(16,4,5,1)          -173.764          calculate D2E/DX2 analytically  !
 ! D50   D(16,4,5,10)          -54.7801         calculate D2E/DX2 analytically  !
 ! D51   D(16,4,5,15)           64.8139         calculate D2E/DX2 analytically  !
 ! D52   D(5,4,11,3)            58.5872         calculate D2E/DX2 analytically  !
 ! D53   D(5,4,11,37)          -71.8686         calculate D2E/DX2 analytically  !
 ! D54   D(9,4,11,3)           -60.2583         calculate D2E/DX2 analytically  !
 ! D55   D(9,4,11,37)          169.286          calculate D2E/DX2 analytically  !
 ! D56   D(16,4,11,3)         -178.7552         calculate D2E/DX2 analytically  !
 ! D57   D(16,4,11,37)          50.789          calculate D2E/DX2 analytically  !
 ! D58   D(5,4,16,17)          -72.7803         calculate D2E/DX2 analytically  !
 ! D59   D(5,4,16,18)          178.3513         calculate D2E/DX2 analytically  !
 ! D60   D(5,4,16,19)           52.8999         calculate D2E/DX2 analytically  !
 ! D61   D(9,4,16,17)           48.9118         calculate D2E/DX2 analytically  !
 ! D62   D(9,4,16,18)          -59.9566         calculate D2E/DX2 analytically  !
 ! D63   D(9,4,16,19)          174.592          calculate D2E/DX2 analytically  !
 ! D64   D(11,4,16,17)         166.653          calculate D2E/DX2 analytically  !
 ! D65   D(11,4,16,18)          57.7846         calculate D2E/DX2 analytically  !
 ! D66   D(11,4,16,19)         -67.6668         calculate D2E/DX2 analytically  !
 ! D67   D(1,5,15,28)          134.6343         calculate D2E/DX2 analytically  !
 ! D68   D(4,5,15,28)         -102.8389         calculate D2E/DX2 analytically  !
 ! D69   D(10,5,15,28)          16.0711         calculate D2E/DX2 analytically  !
 ! D70   D(3,11,37,19)        -151.3723         calculate D2E/DX2 analytically  !
 ! D71   D(3,11,37,34)         -46.2974         calculate D2E/DX2 analytically  !
 ! D72   D(4,11,37,19)         -25.3367         calculate D2E/DX2 analytically  !
 ! D73   D(4,11,37,34)          79.7382         calculate D2E/DX2 analytically  !
 ! D74   D(3,12,79,80)         175.513          calculate D2E/DX2 analytically  !
 ! D75   D(3,12,79,81)         -64.8428         calculate D2E/DX2 analytically  !
 ! D76   D(3,12,79,82)          56.5474         calculate D2E/DX2 analytically  !
 ! D77   D(2,13,20,21)         -59.2254         calculate D2E/DX2 analytically  !
 ! D78   D(2,13,20,22)          62.6104         calculate D2E/DX2 analytically  !
 ! D79   D(2,13,20,23)        -178.0112         calculate D2E/DX2 analytically  !
 ! D80   D(1,14,24,25)         -60.5221         calculate D2E/DX2 analytically  !
 ! D81   D(1,14,24,26)          61.2509         calculate D2E/DX2 analytically  !
 ! D82   D(1,14,24,27)         179.7504         calculate D2E/DX2 analytically  !
 ! D83   D(5,15,28,29)         -70.5921         calculate D2E/DX2 analytically  !
 ! D84   D(5,15,28,30)          49.7177         calculate D2E/DX2 analytically  !
 ! D85   D(5,15,28,31)         170.4172         calculate D2E/DX2 analytically  !
 ! D86   D(4,16,19,37)          39.1715         calculate D2E/DX2 analytically  !
 ! D87   D(4,16,19,64)         147.3231         calculate D2E/DX2 analytically  !
 ! D88   D(17,16,19,37)        159.33           calculate D2E/DX2 analytically  !
 ! D89   D(17,16,19,64)        -92.5184         calculate D2E/DX2 analytically  !
 ! D90   D(18,16,19,37)        -80.7891         calculate D2E/DX2 analytically  !
 ! D91   D(18,16,19,64)         27.3625         calculate D2E/DX2 analytically  !
 ! D92   D(4,16,38,33)          63.9006         calculate D2E/DX2 analytically  !
 ! D93   D(17,16,38,33)       -178.9069         calculate D2E/DX2 analytically  !
 ! D94   D(18,16,38,33)        -54.6606         calculate D2E/DX2 analytically  !
 ! D95   D(16,19,37,11)         -7.0987         calculate D2E/DX2 analytically  !
 ! D96   D(16,19,37,34)       -157.396          calculate D2E/DX2 analytically  !
 ! D97   D(38,19,37,11)        165.3471         calculate D2E/DX2 analytically  !
 ! D98   D(38,19,37,34)         15.0499         calculate D2E/DX2 analytically  !
 ! D99   D(64,19,37,11)       -137.0164         calculate D2E/DX2 analytically  !
 ! D100  D(64,19,37,34)         72.6864         calculate D2E/DX2 analytically  !
 ! D101  D(37,19,38,33)         23.6365         calculate D2E/DX2 analytically  !
 ! D102  D(64,19,38,33)        -83.9702         calculate D2E/DX2 analytically  !
 ! D103  D(16,19,64,63)       -139.7002         calculate D2E/DX2 analytically  !
 ! D104  D(37,19,64,63)        -27.274          calculate D2E/DX2 analytically  !
 ! D105  D(38,19,64,63)         37.1913         calculate D2E/DX2 analytically  !
 ! D106  D(36,32,33,34)        -52.4925         calculate D2E/DX2 analytically  !
 ! D107  D(36,32,33,38)         60.1373         calculate D2E/DX2 analytically  !
 ! D108  D(36,32,33,44)       -178.4003         calculate D2E/DX2 analytically  !
 ! D109  D(39,32,33,34)         66.7066         calculate D2E/DX2 analytically  !
 ! D110  D(39,32,33,38)        179.3365         calculate D2E/DX2 analytically  !
 ! D111  D(39,32,33,44)        -59.2012         calculate D2E/DX2 analytically  !
 ! D112  D(45,32,33,34)       -171.0611         calculate D2E/DX2 analytically  !
 ! D113  D(45,32,33,38)        -58.4312         calculate D2E/DX2 analytically  !
 ! D114  D(45,32,33,44)         63.0311         calculate D2E/DX2 analytically  !
 ! D115  D(33,32,36,35)         55.9125         calculate D2E/DX2 analytically  !
 ! D116  D(33,32,36,41)        -64.3235         calculate D2E/DX2 analytically  !
 ! D117  D(33,32,36,46)        173.5642         calculate D2E/DX2 analytically  !
 ! D118  D(39,32,36,35)        -64.2665         calculate D2E/DX2 analytically  !
 ! D119  D(39,32,36,41)        175.4974         calculate D2E/DX2 analytically  !
 ! D120  D(39,32,36,46)         53.3851         calculate D2E/DX2 analytically  !
 ! D121  D(45,32,36,35)        175.676          calculate D2E/DX2 analytically  !
 ! D122  D(45,32,36,41)         55.44           calculate D2E/DX2 analytically  !
 ! D123  D(45,32,36,46)        -66.6723         calculate D2E/DX2 analytically  !
 ! D124  D(33,32,45,67)       -100.8222         calculate D2E/DX2 analytically  !
 ! D125  D(36,32,45,67)        140.8252         calculate D2E/DX2 analytically  !
 ! D126  D(39,32,45,67)         21.5707         calculate D2E/DX2 analytically  !
 ! D127  D(32,33,34,37)       -177.1231         calculate D2E/DX2 analytically  !
 ! D128  D(32,33,34,42)         43.5634         calculate D2E/DX2 analytically  !
 ! D129  D(32,33,34,53)        -71.5432         calculate D2E/DX2 analytically  !
 ! D130  D(38,33,34,37)         65.3104         calculate D2E/DX2 analytically  !
 ! D131  D(38,33,34,42)        -74.0031         calculate D2E/DX2 analytically  !
 ! D132  D(38,33,34,53)        170.8903         calculate D2E/DX2 analytically  !
 ! D133  D(44,33,34,37)        -50.6453         calculate D2E/DX2 analytically  !
 ! D134  D(44,33,34,42)        170.0412         calculate D2E/DX2 analytically  !
 ! D135  D(44,33,34,53)         54.9346         calculate D2E/DX2 analytically  !
 ! D136  D(32,33,38,19)       -164.5966         calculate D2E/DX2 analytically  !
 ! D137  D(34,33,38,19)        -45.2642         calculate D2E/DX2 analytically  !
 ! D138  D(44,33,38,19)         72.137          calculate D2E/DX2 analytically  !
 ! D139  D(32,33,44,63)       -112.0121         calculate D2E/DX2 analytically  !
 ! D140  D(32,33,44,83)         94.0292         calculate D2E/DX2 analytically  !
 ! D141  D(34,33,44,63)        121.3426         calculate D2E/DX2 analytically  !
 ! D142  D(34,33,44,83)        -32.6161         calculate D2E/DX2 analytically  !
 ! D143  D(38,33,44,63)          9.9534         calculate D2E/DX2 analytically  !
 ! D144  D(38,33,44,83)       -144.0054         calculate D2E/DX2 analytically  !
 ! D145  D(33,34,37,11)       -143.0648         calculate D2E/DX2 analytically  !
 ! D146  D(33,34,37,19)        -44.0323         calculate D2E/DX2 analytically  !
 ! D147  D(42,34,37,11)         -1.6295         calculate D2E/DX2 analytically  !
 ! D148  D(42,34,37,19)         97.403          calculate D2E/DX2 analytically  !
 ! D149  D(53,34,37,11)        111.6505         calculate D2E/DX2 analytically  !
 ! D150  D(53,34,37,19)       -149.317          calculate D2E/DX2 analytically  !
 ! D151  D(33,34,42,35)        -36.2832         calculate D2E/DX2 analytically  !
 ! D152  D(37,34,42,35)       -177.2922         calculate D2E/DX2 analytically  !
 ! D153  D(53,34,42,35)         74.2562         calculate D2E/DX2 analytically  !
 ! D154  D(33,34,53,51)        158.4964         calculate D2E/DX2 analytically  !
 ! D155  D(37,34,53,51)        -82.0144         calculate D2E/DX2 analytically  !
 ! D156  D(42,34,53,51)         35.3437         calculate D2E/DX2 analytically  !
 ! D157  D(40,35,36,32)         69.5618         calculate D2E/DX2 analytically  !
 ! D158  D(40,35,36,41)       -170.3996         calculate D2E/DX2 analytically  !
 ! D159  D(40,35,36,46)        -51.1983         calculate D2E/DX2 analytically  !
 ! D160  D(42,35,36,32)        -48.0639         calculate D2E/DX2 analytically  !
 ! D161  D(42,35,36,41)         71.9747         calculate D2E/DX2 analytically  !
 ! D162  D(42,35,36,46)       -168.824          calculate D2E/DX2 analytically  !
 ! D163  D(47,35,36,32)       -168.6263         calculate D2E/DX2 analytically  !
 ! D164  D(47,35,36,41)        -48.5878         calculate D2E/DX2 analytically  !
 ! D165  D(47,35,36,46)         70.6135         calculate D2E/DX2 analytically  !
 ! D166  D(36,35,42,34)         38.3957         calculate D2E/DX2 analytically  !
 ! D167  D(40,35,42,34)        -81.2124         calculate D2E/DX2 analytically  !
 ! D168  D(47,35,42,34)        162.9293         calculate D2E/DX2 analytically  !
 ! D169  D(36,35,47,48)        -71.3919         calculate D2E/DX2 analytically  !
 ! D170  D(36,35,47,49)        170.933          calculate D2E/DX2 analytically  !
 ! D171  D(36,35,47,50)         49.5925         calculate D2E/DX2 analytically  !
 ! D172  D(40,35,47,48)         50.6195         calculate D2E/DX2 analytically  !
 ! D173  D(40,35,47,49)        -67.0556         calculate D2E/DX2 analytically  !
 ! D174  D(40,35,47,50)        171.6039         calculate D2E/DX2 analytically  !
 ! D175  D(42,35,47,48)        164.4082         calculate D2E/DX2 analytically  !
 ! D176  D(42,35,47,49)         46.7331         calculate D2E/DX2 analytically  !
 ! D177  D(42,35,47,50)        -74.6074         calculate D2E/DX2 analytically  !
 ! D178  D(32,36,46,71)        105.347          calculate D2E/DX2 analytically  !
 ! D179  D(35,36,46,71)       -133.8145         calculate D2E/DX2 analytically  !
 ! D180  D(41,36,46,71)        -15.6526         calculate D2E/DX2 analytically  !
 ! D181  D(33,44,63,64)        -50.5728         calculate D2E/DX2 analytically  !
 ! D182  D(33,44,63,65)         71.2371         calculate D2E/DX2 analytically  !
 ! D183  D(33,44,63,66)       -170.4727         calculate D2E/DX2 analytically  !
 ! D184  D(83,44,63,64)        103.7655         calculate D2E/DX2 analytically  !
 ! D185  D(83,44,63,65)       -134.4247         calculate D2E/DX2 analytically  !
 ! D186  D(83,44,63,66)        -16.1344         calculate D2E/DX2 analytically  !
 ! D187  D(33,44,83,84)        -96.4439         calculate D2E/DX2 analytically  !
 ! D188  D(63,44,83,84)        111.3808         calculate D2E/DX2 analytically  !
 ! D189  D(32,45,67,68)        -59.2688         calculate D2E/DX2 analytically  !
 ! D190  D(32,45,67,69)         62.6615         calculate D2E/DX2 analytically  !
 ! D191  D(32,45,67,70)       -177.9782         calculate D2E/DX2 analytically  !
 ! D192  D(36,46,71,72)        -61.6933         calculate D2E/DX2 analytically  !
 ! D193  D(36,46,71,73)         60.1786         calculate D2E/DX2 analytically  !
 ! D194  D(36,46,71,74)        178.9592         calculate D2E/DX2 analytically  !
 ! D195  D(35,47,50,75)        175.4158         calculate D2E/DX2 analytically  !
 ! D196  D(48,47,50,75)        -65.1626         calculate D2E/DX2 analytically  !
 ! D197  D(49,47,50,75)         55.1734         calculate D2E/DX2 analytically  !
 ! D198  D(47,50,75,76)       -179.3545         calculate D2E/DX2 analytically  !
 ! D199  D(47,50,75,77)        -60.383          calculate D2E/DX2 analytically  !
 ! D200  D(47,50,75,78)         61.4108         calculate D2E/DX2 analytically  !
 ! D201  D(43,51,53,34)         50.9654         calculate D2E/DX2 analytically  !
 ! D202  D(52,51,53,34)        -82.6178         calculate D2E/DX2 analytically  !
 ! D203  D(54,51,53,34)        164.3414         calculate D2E/DX2 analytically  !
 ! D204  D(43,51,54,55)       -149.7229         calculate D2E/DX2 analytically  !
 ! D205  D(43,51,54,56)         34.6531         calculate D2E/DX2 analytically  !
 ! D206  D(52,51,54,55)        -21.0053         calculate D2E/DX2 analytically  !
 ! D207  D(52,51,54,56)        163.3707         calculate D2E/DX2 analytically  !
 ! D208  D(53,51,54,55)         94.4108         calculate D2E/DX2 analytically  !
 ! D209  D(53,51,54,56)        -81.2132         calculate D2E/DX2 analytically  !
 ! D210  D(51,54,55,57)       -174.4733         calculate D2E/DX2 analytically  !
 ! D211  D(51,54,55,58)          4.4158         calculate D2E/DX2 analytically  !
 ! D212  D(56,54,55,57)          1.013          calculate D2E/DX2 analytically  !
 ! D213  D(56,54,55,58)        179.9022         calculate D2E/DX2 analytically  !
 ! D214  D(51,54,56,59)        173.1319         calculate D2E/DX2 analytically  !
 ! D215  D(51,54,56,60)         -5.5861         calculate D2E/DX2 analytically  !
 ! D216  D(55,54,56,59)         -2.3934         calculate D2E/DX2 analytically  !
 ! D217  D(55,54,56,60)        178.8887         calculate D2E/DX2 analytically  !
 ! D218  D(54,55,57,61)          0.5499         calculate D2E/DX2 analytically  !
 ! D219  D(54,55,57,97)       -179.6795         calculate D2E/DX2 analytically  !
 ! D220  D(58,55,57,61)       -178.325          calculate D2E/DX2 analytically  !
 ! D221  D(58,55,57,97)          1.4457         calculate D2E/DX2 analytically  !
 ! D222  D(54,56,59,61)          2.2359         calculate D2E/DX2 analytically  !
 ! D223  D(54,56,59,93)       -172.292          calculate D2E/DX2 analytically  !
 ! D224  D(60,56,59,61)       -179.0553         calculate D2E/DX2 analytically  !
 ! D225  D(60,56,59,93)          6.4168         calculate D2E/DX2 analytically  !
 ! D226  D(55,57,61,59)         -0.6829         calculate D2E/DX2 analytically  !
 ! D227  D(55,57,61,62)        178.2454         calculate D2E/DX2 analytically  !
 ! D228  D(97,57,61,59)        179.5446         calculate D2E/DX2 analytically  !
 ! D229  D(97,57,61,62)         -1.5271         calculate D2E/DX2 analytically  !
 ! D230  D(55,57,97,98)        -26.0825         calculate D2E/DX2 analytically  !
 ! D231  D(55,57,97,99)       -145.8601         calculate D2E/DX2 analytically  !
 ! D232  D(55,57,97,100)        94.272          calculate D2E/DX2 analytically  !
 ! D233  D(61,57,97,98)        153.6916         calculate D2E/DX2 analytically  !
 ! D234  D(61,57,97,99)         33.914          calculate D2E/DX2 analytically  !
 ! D235  D(61,57,97,100)       -85.9539         calculate D2E/DX2 analytically  !
 ! D236  D(56,59,61,57)         -0.736          calculate D2E/DX2 analytically  !
 ! D237  D(56,59,61,62)       -179.6656         calculate D2E/DX2 analytically  !
 ! D238  D(93,59,61,57)        173.7411         calculate D2E/DX2 analytically  !
 ! D239  D(93,59,61,62)         -5.1885         calculate D2E/DX2 analytically  !
 ! D240  D(56,59,93,94)       -158.6925         calculate D2E/DX2 analytically  !
 ! D241  D(56,59,93,95)         82.1095         calculate D2E/DX2 analytically  !
 ! D242  D(56,59,93,96)        -36.5377         calculate D2E/DX2 analytically  !
 ! D243  D(61,59,93,94)         26.7483         calculate D2E/DX2 analytically  !
 ! D244  D(61,59,93,95)        -92.4498         calculate D2E/DX2 analytically  !
 ! D245  D(61,59,93,96)        148.903          calculate D2E/DX2 analytically  !
 ! D246  D(44,63,64,19)         11.3603         calculate D2E/DX2 analytically  !
 ! D247  D(65,63,64,19)       -109.3133         calculate D2E/DX2 analytically  !
 ! D248  D(66,63,64,19)        127.9146         calculate D2E/DX2 analytically  !
 ! D249  D(44,83,84,85)       -127.1375         calculate D2E/DX2 analytically  !
 ! D250  D(44,83,84,89)         26.8675         calculate D2E/DX2 analytically  !
 ! D251  D(83,84,85,86)       -148.3171         calculate D2E/DX2 analytically  !
 ! D252  D(83,84,85,87)        -29.5285         calculate D2E/DX2 analytically  !
 ! D253  D(83,84,85,88)         90.5088         calculate D2E/DX2 analytically  !
 ! D254  D(89,84,85,86)         56.8244         calculate D2E/DX2 analytically  !
 ! D255  D(89,84,85,87)        175.6129         calculate D2E/DX2 analytically  !
 ! D256  D(89,84,85,88)        -64.3498         calculate D2E/DX2 analytically  !
 ! D257  D(83,84,89,90)        -95.1846         calculate D2E/DX2 analytically  !
 ! D258  D(83,84,89,91)         24.4497         calculate D2E/DX2 analytically  !
 ! D259  D(83,84,89,92)        143.2602         calculate D2E/DX2 analytically  !
 ! D260  D(85,84,89,90)         62.4091         calculate D2E/DX2 analytically  !
 ! D261  D(85,84,89,91)       -177.9566         calculate D2E/DX2 analytically  !
 ! D262  D(85,84,89,92)        -59.146          calculate D2E/DX2 analytically  !
 --------------------------------------------------------------------------------
 Trust Radius=3.00D-02 FncErr=1.00D-07 GrdErr=1.00D-06 EigMax=2.50D+02 EigMin=1.00D-04
 Number of steps in this run=    576 maximum allowed number of steps=    600.
 Search for a saddle point of order  1.
 Step   0 in ReCalcFC=30 IGetFC= 4 compute analytic Hessian.
 GradGradGradGradGradGradGradGradGradGradGradGradGradGradGradGradGradGrad

 Leave Link  103 at Tue May 21 07:20:17 2019, MaxMem=  6442450944 cpu:               4.2 elap:               0.2
 (Enter /home/ekwan/sw/g16/l202.exe)
 Stoichiometry    C30H47F6NaO15S
 Framework group  C1[X(C30H47F6NaO15S)]
 Deg. of freedom   294
 Full point group                 C1      NOp   1
 Largest Abelian subgroup         C1      NOp   1
 Largest concise Abelian subgroup C1      NOp   1
                         Standard orientation:                         
 ---------------------------------------------------------------------
 Center     Atomic      Atomic             Coordinates (Angstroms)
 Number     Number       Type             X           Y           Z
 ---------------------------------------------------------------------
      1          6           0        4.511033   -1.902696   -0.619324
      2          6           0        3.127025   -2.344066   -1.093916
      3          6           0        2.398127   -3.097675    0.020177
      4          6           0        3.575761   -1.887816    1.731596
      5          6           0        4.365463   -1.103119    0.674473
      6          1           0        1.364224   -3.299855   -0.280390
      7          1           0        2.527912   -1.452835   -1.306360
      8          1           0        5.123932   -2.796152   -0.440766
      9          1           0        4.144194   -2.788730    2.004947
     10          1           0        3.820865   -0.183727    0.448357
     11          8           0        2.299063   -2.295461    1.179137
     12          8           0        3.082809   -4.305313    0.259081
     13          8           0        3.196543   -3.172422   -2.247302
     14          8           0        5.106928   -1.119391   -1.656561
     15          8           0        5.660994   -0.778713    1.184253
     16          6           0        3.276437   -1.056545    2.994094
     17          1           0        4.264170   -0.978387    3.517413
     18          1           0        2.677689   -1.746742    3.646345
     19          8           0        2.676910    0.135817    2.740660
     20          6           0        2.888476   -2.485133   -3.450813
     21          1           0        1.874975   -2.059351   -3.416975
     22          1           0        3.607401   -1.681277   -3.648062
     23          1           0        2.938032   -3.222036   -4.257957
     24          6           0        6.505926   -1.316419   -1.787764
     25          1           0        7.036350   -1.047016   -0.868554
     26          1           0        6.736240   -2.362223   -2.041079
     27          1           0        6.843008   -0.674353   -2.606636
     28          6           0        5.753147    0.582172    1.598392
     29          1           0        5.740312    1.253550    0.728490
     30          1           0        4.915372    0.848448    2.253664
     31          1           0        6.705388    0.692049    2.126347
     32          6           0        0.563671    3.118867    0.771131
     33          6           0        0.865513    1.843196    1.547880
     34          6           0        1.081688    0.656880    0.642717
     35          6           0        1.776287    2.081493   -1.182962
     36          6           0        1.658657    3.309062   -0.274568
     37          1           0        1.254254   -0.299472    1.119490
     38          1           0        1.839625    1.928489    2.042023
     39          1           0       -0.405074    3.039268    0.262486
     40          1           0        0.891949    2.017234   -1.822187
     41          1           0        2.612833    3.468784    0.238503
     42          8           0        1.823346    0.826829   -0.433206
     43          8           0       -0.158087   -1.656649   -1.262061
     44          8           0       -0.128908    1.564525    2.526583
     45          8           0        0.571259    4.241746    1.641252
     46          8           0        1.361482    4.399476   -1.131997
     47          6           0        3.014288    2.099115   -2.053795
     48          1           0        2.881569    2.870425   -2.826626
     49          1           0        3.115218    1.123975   -2.551385
     50          8           0        4.148492    2.375405   -1.257181
     51         16           0       -0.883400   -0.379033   -1.260591
     52          8           0       -0.730223    0.510171   -2.421877
     53          8           0       -0.642529    0.407640    0.079630
     54          6           0       -2.629961   -0.737418   -1.075107
     55          6           0       -3.569620    0.116449   -1.644894
     56          6           0       -3.009018   -1.817796   -0.282758
     57          6           0       -4.921000   -0.112934   -1.392151
     58          1           0       -3.245187    0.949954   -2.255672
     59          6           0       -4.364219   -2.012421   -0.018527
     60          1           0       -2.258115   -2.479557    0.135430
     61          6           0       -5.323888   -1.169473   -0.575517
     62          1           0       -6.374198   -1.324051   -0.361019
     63          6           0        0.355973    1.698071    3.880069
     64          1           0        1.284429    1.120607    3.966553
     65          1           0        0.517188    2.756417    4.112283
     66          1           0       -0.428352    1.298090    4.528980
     67          6           0       -0.721990    4.685070    2.027593
     68          1           0       -1.321801    4.967810    1.150898
     69          1           0       -1.260029    3.916880    2.595815
     70          1           0       -0.576448    5.565211    2.658277
     71          6           0        2.142266    5.561714   -0.873725
     72          1           0        1.964872    5.939961    0.138980
     73          1           0        3.212840    5.351260   -1.001176
     74          1           0        1.833898    6.313250   -1.604660
     75          6           0        5.349367    2.300367   -2.007675
     76          1           0        6.170559    2.513908   -1.319840
     77          1           0        5.480770    1.296146   -2.427378
     78          1           0        5.357425    3.040502   -2.822186
     79          6           0        2.404075   -5.156506    1.170458
     80          1           0        2.973678   -6.087335    1.220474
     81          1           0        2.344004   -4.711272    2.170706
     82          1           0        1.384150   -5.375083    0.819902
     83         11           0       -1.867785    0.203456    2.078912
     84          8           0       -3.810113    1.215559    1.445635
     85          6           0       -5.096795    1.019506    2.025574
     86          1           0       -5.880385    1.137747    1.267229
     87          1           0       -5.122669   -0.000485    2.411993
     88          1           0       -5.272847    1.734001    2.840459
     89          6           0       -3.685420    2.486919    0.812999
     90          1           0       -3.801080    3.300229    1.541073
     91          1           0       -2.688668    2.528762    0.371068
     92          1           0       -4.434241    2.599554    0.020655
     93          6           0       -4.772302   -3.066045    0.973558
     94          9           0       -6.046082   -3.463912    0.805458
     95          9           0       -4.671770   -2.579644    2.242958
     96          9           0       -3.980840   -4.153374    0.911903
     97          6           0       -5.964264    0.787053   -1.998492
     98          9           0       -5.469700    2.018616   -2.255199
     99          9           0       -7.019856    0.941852   -1.165520
    100          9           0       -6.443103    0.297682   -3.159510
 ---------------------------------------------------------------------
 Rotational constants (GHZ):           0.0701550           0.0360363           0.0309311
 Leave Link  202 at Tue May 21 07:20:17 2019, MaxMem=  6442450944 cpu:               5.4 elap:               0.2
 (Enter /home/ekwan/sw/g16/l301.exe)
 Standard basis: 6-31G(d) (6D, 7F)
 Ernie: Thresh=  0.10000D-02 Tol=  0.10000D-05 Strict=F.
 There are   897 symmetry adapted cartesian basis functions of A   symmetry.
 There are   897 symmetry adapted basis functions of A   symmetry.
   897 basis functions,  1720 primitive gaussians,   897 cartesian basis functions
   214 alpha electrons      214 beta electrons
       nuclear repulsion energy      9565.4788537704 Hartrees.
 IExCor=  402 DFT=T Ex+Corr=B3LYP ExCW=0 ScaHFX=  0.200000
 ScaDFX=  0.800000  0.720000  1.000000  0.810000 ScalE2=  1.000000  1.000000
 IRadAn=      5 IRanWt=     -1 IRanGd=            0 ICorTp=0 IEmpDi=141
 NAtoms=  100 NActive=  100 NUniq=  100 SFac= 1.00D+00 NAtFMM=   60 NAOKFM=T Big=T
 Integral buffers will be    131072 words long.
 Raffenetti 2 integral format.
 Two-electron integral symmetry is turned on.
 R6Disp:  Grimme-D3(BJ) Dispersion energy=       -0.2333433152 Hartrees.
 Nuclear repulsion after empirical dispersion term =     9565.2455104552 Hartrees.
 Force inversion solution in PCM.
 ------------------------------------------------------------------------------
 Polarizable Continuum Model (PCM)
 =================================
 Model                : PCM.
 Atomic radii         : UFF (Universal Force Field).
 Polarization charges : Total charges.
 Charge compensation  : None.
 Solution method      : Matrix inversion.
 Cavity type          : Scaled VdW (van der Waals Surface) (Alpha=1.100).
 Cavity algorithm     : GePol (No added spheres)
                        Default sphere list used, NSphG=  100.
                        Lebedev-Laikov grids with approx.  5.0 points / Ang**2.
                        Smoothing algorithm: York/Karplus (Gamma=1.0000).
                        Polarization charges: spherical gaussians, with
                                              point-specific exponents (IZeta= 3).
                        Self-potential: point-specific (ISelfS= 7).
                        Self-field    : sphere-specific E.n sum rule (ISelfD= 2).
 1st derivatives      : Analytical E(r).r(x)/FMM algorithm (CHGder, D1EAlg=3).
                        Cavity 1st derivative terms included.
 2nd derivatives      : Analytical E(r).r(xy)/FMM algorithm (CHGder, D2EAlg=3).
[...]
 351,0.00005935,-0.00004871,0.00007708,0.00003215,-0.00000233,0.0000675
 2,-0.00001652,-0.00002648,-0.00000421,0.00001134,0.00000981,0.00000623
 ,-0.00000624,-0.00000250,0.00000288,0.00000529,0.00003620,0.00001427,-
 0.00000959,-0.00163072,-0.00086072,0.00016051,0.00041982,0.00033127,-0
 .00025628,0.00083575,0.00052912,0.00063263,0.00165742,0.00051071,0.000
 04132,0.00075365,-0.00394682,0.00202466,0.00060179,-0.00006545,0.00018
 490,0.02368943,0.00475622,-0.01183597,0.00019163,-0.00001277,-0.000123
 76,0.00027369,0.00043743,-0.00046899,0.00005363,0.00002301,-0.00001204
 ,0.00075316,-0.00189434,-0.00003459,0.00173254,-0.00059435,-0.00037961
 ,-0.00001104,-0.00000421,-0.00004805,0.00001173,-0.00000666,-0.0000055
 4,0.00000369,0.00000959,0.00000878,-0.00000272,-0.00000344,0.00000645,
 0.00006124,-0.00002510,0.00000057,-0.00001054,0.00000207,-0.00001228,-
 0.00000153,-0.00000431,0.00000184,-0.00000462,0.00000485,0.00000250,-0
 .00001426,-0.00002671,-0.00000505,0.00000362,0.00000279,0.00000457,0.0
 0000046,0.00000278,0.00000143,0.00000326,0.00000737,-0.00000386,-0.000
 01751,-0.00000348,0.00001324,0.00000431,0.00000001,0.00000037,0.000000
 84,-0.00000056,-0.00000072,0.00000186,0.00000239,-0.00000520,-0.000004
 93,0.00000928,-0.00001500,0.00000308,-0.00000546,0.00000085,-0.0000027
 4,0.00000161,0.00000162,0.00000198,0.00000256,0.00000408,-0.00000992,-
 0.00017651,-0.00022691,-0.00019493,0.00037504,0.00002463,0.00037415,0.
 00009626,0.00008052,-0.00011883,-0.00030925,0.00011692,-0.00005063,0.0
 0000614,-0.00011146,-0.00002023,0.00003089,-0.00001388,0.00024274,-0.0
 0034783,0.00041566,-0.00004966,0.00003214,-0.00003290,-0.00005232,-0.0
 0001971,-0.00004728,0.00018389,0.00022450,0.00013458,0.00021305,0.0008
 3071,-0.00096298,-0.00019267,-0.00024184,0.00019002,-0.00004971,-0.000
 07417,0.00047216,0.00007308,-0.00036034,0.00019291,0.02988227,-0.08128
 860,-0.01321377,-0.04245873,-0.00270512,0.02864435,-0.02767204,0.08089
 522,-0.00000043,0.00000007,-0.00000522,-0.00000756,-0.00000542,-0.0000
 1739,-0.00000711,-0.00000161,-0.00002630,-0.00000687,0.00000118,-0.000
 00364,-0.00000118,0.00000083,-0.00000566,0.00000380,0.00000313,-0.0000
 0234,-0.00000134,-0.00000260,0.00000036,0.00000137,-0.00000061,0.00000
 087,0.00000073,-0.00000069,0.00000071,0.00000066,-0.00000077,-0.000001
 54,0.00000462,0.00000392,0.00002231,0.00000029,-0.00000741,0.00001727,
 0.00001234,-0.00000287,0.00003238,0.00000482,-0.00000220,0.00001016,0.
 00000356,0.00000421,0.00000869,0.00000765,0.00000286,-0.00000945,0.000
 00026,-0.00000024,0.00000224,-0.00000205,-0.00000492,0.00000526,-0.000
 00969,0.00000361,0.00002106,-0.00001797,0.00001442,-0.00001922,0.00000
 706,-0.00000412,-0.00000101,0.00000057,-0.00000089,-0.00000080,-0.0000
 0095,0.00000073,0.00000206,-0.00000438,0.00000099,-0.00000170,0.000001
 73,0.00000037,0.00000127,-0.00000011,-0.00000019,-0.00000060,-0.000001
 05,-0.00000087,0.00000011,0.00000015,-0.00000247,-0.00000484,-0.000000
 83,-0.00000113,0.00000063,0.00000045,0.00000070,0.00000058,0.00000116,
 0.00000051,0.00000065,-0.00000707,-0.00001390,-0.00001404,0.00003247,0
 .00001514,-0.00003536,-0.00000005,-0.00001152,-0.00005190,-0.00000955,
 0.00001202,-0.00002905,-0.00000164,0.00000883,-0.00002142,0.00000199,0
 .00000477,-0.00000414,-0.00000579,-0.00000096,0.00000395,0.00000970,0.
 00000351,-0.00000866,-0.00000231,-0.00000124,-0.00000166,0.00000193,0.
 00000059,0.00000451,-0.00001606,-0.00000937,0.00005389,0.00008299,-0.0
 0005226,0.00005360,-0.00003969,-0.00001487,0.00003571,-0.00002672,0.00
 001287,0.00003358,0.00001221,-0.00000167,0.00002348,-0.00001591,-0.000
 00046,-0.00001276,-0.00000134,-0.00000533,0.00000337,-0.00000258,0.000
 00331,0.00000110,0.00001881,0.00000310,0.00001516,0.00000760,-0.000026
 54,-0.00036662,0.00005617,-0.00005288,0.00011419,-0.00004486,0.0000333
 1,0.00016058,-0.00018518,0.00049462,-0.00073938,0.00102289,-0.00069225
 ,0.00097837,-0.00064391,-0.00028475,0.00018811,0.00233920,0.00140156,0
 .00536388,-0.00039911,0.00005242,0.00014182,0.00023117,-0.00068429,0.0
 0088920,-0.00008964,-0.00006441,0.00001394,-0.00014097,0.00327887,-0.0
 0095171,-0.00131298,-0.00096412,0.00018065,0.00000185,0.00000861,-0.00
 001070,0.00000567,-0.00000428,-0.00000282,0.00000147,-0.00000041,-0.00
 000025,-0.00000211,-0.00000659,0.00000797,0.00002840,0.00000736,-0.000
 03013,0.00000367,0.00000288,0.00000069,-0.00000078,-0.00000610,0.00001
 504,-0.00000186,0.00000001,0.00000243,-0.00000703,-0.00001004,-0.00000
 733,0.00000064,0.00000338,0.00000369,0.00000216,0.00000027,-0.00000011
 ,-0.00000056,-0.00000373,0.00000065,-0.00000541,0.00000138,-0.00000113
 ,0.00000283,0.00000065,0.00000164,-0.00000039,0.00000071,-0.00000125,-
 0.00000010,-0.00000232,-0.00000005,0.00000253,0.00000396,-0.00001182,-
 0.00000058,-0.00000072,0.00000040,0.00000122,0.00000102,0.00000408,0.0
 0000081,-0.00000057,-0.00000084,0.00018658,-0.00005899,-0.00000741,-0.
 00113488,-0.00032262,0.00031033,0.00229897,-0.00025111,0.00053085,-0.0
 0106216,0.00025556,-0.00044550,-0.00020281,0.00003383,-0.00020084,-0.0
 0036023,0.00002636,-0.00039608,0.00013281,0.00049706,0.00006625,0.0000
 1880,-0.00006427,0.00001499,-0.00010145,-0.00004223,-0.00003209,0.0001
 6921,0.00000406,-0.00017346,0.00029941,-0.00025108,-0.00010854,-0.0000
 7931,0.00003930,0.00000847,-0.00004521,0.00007610,0.00010551,-0.000065
 77,0.00006112,0.00004252,0.07864177,-0.01863767,-0.12079324,0.03262230
 ,0.02149094,-0.01047970,-0.14555465,0.02037106,0.19237600,0.00002926,0
 .00001652,-0.00002389,0.00002608,-0.00004646,-0.00003053,0.00008889,-0
 .00006655,0.00000004,0.00004895,0.00000815,0.00001857,0.00003766,0.000
 00814,0.00000698,-0.00001314,-0.00003125,0.00000313,0.00001333,0.00002
 213,-0.00001335,-0.00001179,0.00000217,0.00000230,-0.00001579,0.000014
 59,0.00000056,0.00001341,0.00000653,-0.00000622,-0.00006601,0.00003285
 ,-0.00000576,-0.00004750,0.00006720,-0.00002179,-0.00002855,0.00002313
 ,0.00004122,-0.00005401,-0.00000515,0.00002890,-0.00004786,-0.00001800
 ,-0.00000845,0.00005821,-0.00013327,0.00003988,-0.00004692,0.00002909,
 -0.00002734,0.00000533,0.00002882,-0.00000927,-0.00011858,0.00006930,-
 0.00012297,0.00002904,-0.00000483,-0.00001850,-0.00001122,0.00000220,-
 0.00001192,-0.00000473,-0.00000371,0.00000469,-0.00000487,0.00000637,0
 .00000775,0.00003614,-0.00000908,-0.00000718,-0.00000348,0.00000115,-0
 .00000332,-0.00000442,0.00000562,0.00000062,-0.00000441,-0.00000247,0.
 00000378,0.00000772,0.00001787,0.00000085,0.00000108,-0.00000244,0.000
 00359,0.00001404,0.00000396,0.00000339,-0.00000920,-0.00000206,-0.0000
 0235,0.00004006,0.00008771,0.00004816,-0.00012993,0.00002689,-0.000001
 90,0.00101193,0.00020189,0.00023906,0.00006580,0.00012799,-0.00005635,
 0.00000924,0.00006073,-0.00002033,-0.00004780,-0.00008316,0.00001420,0
 .00002617,-0.00002801,-0.00001304,-0.00001671,0.00001685,-0.00000843,0
 .00002706,0.00001508,-0.00000194,-0.00000560,-0.00001300,-0.00000203,-
 0.00031338,-0.00014333,0.00017529,-0.00083044,0.00024266,0.00006556,-0
 .00001201,-0.00004006,-0.00010398,-0.00000491,-0.00008492,-0.00005210,
 -0.00003302,-0.00010233,0.00002379,0.00005461,0.00000274,-0.00002026,-
 0.00001344,-0.00000808,0.00000554,-0.00000158,-0.00000071,-0.00000532,
 -0.00007889,-0.00001279,0.00001976,0.00225196,0.00065767,-0.00003978,-
 0.00062888,-0.00032709,0.00033933,-0.00108607,-0.00052647,-0.00071048,
 0.00003301,0.00089045,0.00107015,0.00086727,0.00115408,-0.00057936,-0.
 00025601,0.00043087,-0.00100013,-0.00827734,-0.00459503,-0.03329683,0.
 00014514,-0.00056052,-0.00058975,-0.00073301,0.00187320,0.00059478,0.0
 0003612,-0.00011200,-0.00014609,-0.00291228,-0.00151750,0.00031962,0.0
 0006775,-0.00031235,-0.00087337,0.00001876,0.00001064,0.00009571,-0.00
 001487,0.00000479,0.00000338,-0.00000377,-0.00001523,-0.00001350,0.000
 00629,0.00000012,-0.00000815,-0.00001907,0.00002011,0.00001437,0.00000
 650,0.00000564,-0.00000702,0.00000611,0.00000315,0.00001546,-0.0000035
 7,-0.00001276,-0.00000878,0.00004137,0.00005746,0.00000918,-0.00000326
 ,-0.00000460,-0.00000598,-0.00001062,-0.00000387,-0.00000248,-0.000000
 84,-0.00000968,0.00000307,0.00003947,0.00000013,-0.00002829,-0.0000083
 2,-0.00000056,-0.00000046,-0.00000290,0.00000297,0.00000381,-0.0000037
 5,-0.00000343,0.00000897,0.00000173,-0.00001847,0.00001802,-0.00000576
 ,0.00000897,-0.00000153,0.00000594,-0.00000184,0.00000053,0.00000047,-
 0.00000441,-0.00000674,0.00016919,0.00023256,0.00043044,0.00018499,-0.
 00020901,-0.00043494,-0.00039706,-0.00001092,0.00017532,-0.00004919,0.
 00004474,-0.00011870,0.00002229,0.00002995,0.00007748,0.00001686,-0.00
 007799,-0.00006620,0.00022422,0.00007830,0.00012633,-0.00004869,-0.000
 05565,-0.00013900,0.00002703,0.00004731,0.00001075,-0.00010841,0.00009
 666,0.00020836,-0.00090645,-0.00130680,0.00138816,0.00046890,0.0004028
 2,-0.00022111,0.00012812,0.00016246,-0.00064116,-0.00006264,0.00071354
 ,-0.00038760,-0.10673774,-0.02051046,-0.07363123,-0.00642745,-0.031351
 00,-0.01939775,0.01441439,0.01028369,0.03334271,0.10986026,-0.00000862
 ,-0.00000748,0.00000419,-0.00000676,0.00000073,-0.00000203,-0.00002847
 ,-0.00000499,-0.00001641,-0.00001832,-0.00000445,-0.00000600,-0.000007
 65,-0.00000689,-0.00000432,0.00000632,0.00000877,-0.00000102,-0.000003
 97,-0.00000610,0.00000202,0.00000168,0.00000050,-0.00000022,0.00000314
 ,-0.00000086,0.00000013,-0.00000090,-0.00000088,0.00000078,0.00002081,
 0.00000984,0.00001622,0.00001500,-0.00000252,0.00000895,0.00001273,0.0
 0000415,0.00000343,0.00001318,0.00000774,-0.00000400,0.00001257,0.0000
 1414,0.00000631,-0.00000259,0.00000464,-0.00000572,0.00000645,-0.00000
 233,0.00000489,-0.00000032,-0.00000042,-0.00000082,0.00000542,0.000014
 63,0.00002297,-0.00001374,0.00000142,-0.00000095,0.00000293,-0.0000053
 4,0.00000230,0.00000506,0.00000147,-0.00000132,-0.00000112,0.00000037,
 0.00000099,-0.00000762,-0.00000045,0.00000083,0.00000151,-0.00000023,0
 .00000115,0.00000044,0.00000038,-0.00000013,0.00000141,0.00000032,-0.0
 0000157,-0.00000090,-0.00001210,-0.00000144,0.00000077,0.00000155,-0.0
 0000157,-0.00000290,-0.00000079,0.00000027,0.00000173,0.00000116,0.000
 00051,0.00004200,-0.00003144,0.00001420,0.00003059,-0.00002111,-0.0000
 0048,-0.00022500,-0.00006339,-0.00005952,-0.00000747,-0.00004997,0.000
 02655,0.00000976,-0.00002602,0.00000078,0.00001308,0.00001415,0.000000
 79,-0.00000371,0.00000743,0.00000441,-0.00000524,-0.00000052,-0.000002
 73,-0.00000232,-0.00001205,-0.00000428,-0.00000442,0.00000150,-0.00000
 009,0.00006569,0.00005519,-0.00004430,0.00024992,0.00004025,0.00000801
 ,-0.00001507,0.00002410,0.00000697,-0.00005478,0.00003943,0.00000564,-
 0.00002103,0.00002125,-0.00000763,0.00000084,-0.00000450,0.00000242,0.
 00000361,0.00000281,-0.00000427,-0.00000373,0.00000301,0.00000304,-0.0
 0000331,0.00000970,-0.00000044,-0.00055915,-0.00048478,-0.00006731,0.0
 0013195,0.00018126,-0.00008674,0.00023327,0.00021468,0.00020329,0.0002
 8971,-0.00079472,-0.00027930,-0.00066001,-0.00041669,0.00127495,0.0006
 7479,0.00009540,0.00004522,0.00728830,0.01141303,0.00904152,0.00034205
 ,0.00009315,0.00013572,-0.00029665,0.00032325,-0.00071809,-0.00001533,
 0.00004998,0.00001336,-0.00020985,-0.00005333,-0.00042451,-0.00003832,
 -0.00004138,0.00004991,-0.00000281,-0.00000082,-0.00000228,0.00000514,
 -0.00000521,-0.00000478,0.00000204,0.00000349,0.00000273,0.00000103,-0
 .00000305,0.00000160,0.00005590,-0.00001825,0.00001036,-0.00000849,0.0
 0000566,-0.00001768,0.00000209,-0.00000308,0.00000977,-0.00000711,-0.0
 0000148,-0.00000206,0.00000681,0.00000078,-0.00000004,0.00000232,0.000
 00042,0.00000169,-0.00000541,0.00000117,0.00000032,0.00000320,0.000003
 46,-0.00000286,0.00000224,-0.00000443,-0.00000041,0.00000012,-0.000000
 33,0.00000011,-0.00000066,0.00000099,0.00000149,0.,0.00000100,-0.00000
 110,-0.00000899,-0.00000091,-0.00000659,0.00000133,-0.00000162,-0.0000
 0014,-0.00000022,0.00000113,0.00000168,0.00000369,0.00000136,0.0000018
 4,0.00004096,-0.00016818,-0.00008895,-0.00015276,0.00038137,-0.0001789
 6,0.00021171,-0.00002758,0.00018997,-0.00004510,-0.00000535,0.00007290
 ,-0.00002089,0.00002261,-0.00007452,-0.00002934,0.00000414,-0.00004976
 ,0.00043829,-0.00042725,0.00046449,-0.00011021,0.00001666,-0.00013205,
 -0.00006121,-0.00000156,-0.00004412,-0.00008012,0.00019882,0.00028291,
 0.00000824,0.00022302,-0.00034975,-0.00003616,-0.00005707,0.00007816,-
 0.00000249,-0.00000632,0.00016337,-0.00000082,-0.00004408,0.00006613,-
 0.02022896,-0.08542682,-0.04399413,-0.03671825,-0.04425463,-0.04261161
 ,0.00544882,0.00406194,-0.02566553,0.04402867,0.11492435,0.00003458,0.
 00002193,-0.00003292,0.00002677,-0.00007021,-0.00005657,0.00010208,-0.
 00008715,-0.00002112,0.00005196,0.00001054,0.00001986,0.00004412,0.000
 00834,0.00000346,-0.00001328,-0.00003820,0.00000314,0.00001647,0.00002
 790,-0.00001751,-0.00001407,0.00000198,0.00000330,-0.00001842,0.000017
 15,0.00000095,0.00001710,0.00000744,-0.00000847,-0.00007531,0.00004774
 ,0.00001202,-0.00005679,0.00008071,-0.00001355,-0.00002192,0.00002925,
 0.00008526,-0.00006008,-0.00000669,0.00004418,-0.00005352,-0.00001541,
 -0.00000223,0.00007604,-0.00016170,0.00004116,-0.00005571,0.00003479,-
 0.00003075,0.00000485,0.00003218,-0.00000825,-0.00015301,0.00009283,-0
 .00013500,0.00001727,0.00000756,-0.00004258,-0.00000739,-0.00000235,-0
 .00001748,-0.00000438,-0.00000499,0.00000482,-0.00000834,0.00000949,0.
 00001242,0.00003968,-0.00001058,-0.00001029,-0.00000254,0.00000170,-0.
 00000262,-0.00000561,0.00000696,0.00000014,-0.00000624,-0.00000385,0.0
 0000436,0.00000937,0.00001726,-0.00000291,0.00000090,-0.00000365,0.000
 00427,0.00001669,0.00000516,0.00000466,-0.00000994,-0.00000186,-0.0000
 0231,0.00005350,0.00009253,0.00005014,-0.00014188,0.00003858,-0.000023
 31,0.00124016,0.00023077,0.00025261,0.00007264,0.00016276,-0.00009135,
 0.00001254,0.00007580,-0.00003900,-0.00005731,-0.00009994,0.00001639,0
 .00002939,-0.00003644,-0.00001430,-0.00001604,0.00002297,-0.00001629,0
 .00003369,0.00001664,-0.00000484,-0.00000621,-0.00001534,0.00000051,-0
 .00039523,-0.00018100,0.00025391,-0.00115601,0.00034604,0.00014517,-0.
 00003904,-0.00005060,-0.00010403,-0.00003595,-0.00008653,-0.00003972,-
 0.00003698,-0.00012247,0.00004623,0.00005478,0.00000105,-0.00003798,-0
 .00001740,-0.00001473,0.00000879,-0.00000527,0.00000328,-0.00000534,-0
 .00008373,-0.00001048,0.00003920,0.00283878,0.00104581,-0.00034469,-0.
 00075175,-0.00046932,0.00056115,-0.00134958,-0.00064585,-0.00079068,-0
 .00135411,0.00159468,0.00080734,0.00111598,0.00207078,-0.00273107,-0.0
 0089646,-0.00017725,-0.00060657,-0.02220102,-0.00756965,-0.02599420,0.
 00006794,-0.00060047,-0.00072529,-0.00010429,0.00121468,0.00068660,0.0
 0000428,-0.00011302,-0.00014895,-0.00177297,-0.00061553,0.00128614,0.0
 0017503,-0.00074283,-0.00056500,0.00002273,0.00001671,0.00010901,-0.00
 001326,0.00000199,0.00000112,-0.00000319,-0.00001766,-0.00001621,0.000
 00643,-0.00000469,-0.00000510,0.00000717,0.00002332,0.00000183,0.00000
 827,0.00000945,-0.00001218,0.00000642,-0.00000144,0.00002900,-0.000006
 33,-0.00001527,-0.00000948,0.00004751,0.00006275,0.00000531,-0.0000029
 7,-0.00000321,-0.00000370,-0.00001307,-0.00000411,-0.00000321,-0.00000
 053,-0.00001424,0.00000318,0.00004534,0.00000003,-0.00003689,-0.000008
 03,-0.00000018,0.00000107,-0.00000421,0.00000472,0.00000398,-0.0000048
 7,-0.00000631,0.00001085,-0.00000070,-0.00002127,0.00001285,-0.0000068
 2,0.00001024,-0.00000196,0.00000819,-0.00000101,0.00000397,0.00000292,
 -0.00000531,-0.00000826,0.00029633,0.00020020,0.00049259,-0.00023693,-
 0.00029645,-0.00046871,0.00039861,-0.00008368,0.00053410,-0.00010713,0
 .00014807,0.00026050,-0.00004337,0.00005085,0.00000268,-0.00010037,-0.
 00009354,-0.00022051,0.00039268,0.00019668,0.00028260,-0.00008098,-0.0
 0008613,-0.00019338,-0.00003575,0.00004849,-0.00001606,-0.00006310,0.0
 0016987,0.00009152,-0.00080476,-0.00167409,0.00134921,0.00047020,0.000
 48401,-0.00023871,0.00011487,0.00023425,-0.00069834,-0.00011723,0.0008
 0934,-0.00034738,-0.07308296,-0.04441272,-0.21742352,-0.01359909,-0.02
 809225,0.00265536,0.01739778,-0.02576890,-0.06683755,0.09394138,0.1027
 1227,0.30897944\\0.00000031,0.00000105,-0.00000318,0.00000165,0.000001
 77,-0.00000342,-0.00000011,-0.00000102,-0.00000226,0.00000317,-0.00000
 262,-0.00000408,-0.00000058,0.00000012,-0.00000137,0.00000079,0.000000
 91,-0.00000291,-0.00000067,0.00000118,-0.00000234,0.00000044,0.0000019
 2,-0.00000511,0.00000072,-0.00000106,-0.00000414,0.00000051,-0.0000002
 2,-0.00000260,0.00000436,0.00000045,-0.00000466,0.00000096,0.00000059,
 -0.00000438,-0.00000194,0.00000186,-0.00000323,-0.00000063,0.00000384,
 -0.00000295,0.00000099,0.00000142,-0.00000506,0.00000688,0.00000020,0.
 00000082,0.00000182,-0.00000160,-0.00000163,0.00000295,-0.00000236,-0.
 00000222,-0.00000241,0.00000214,-0.00000160,-0.00000094,0.00000354,-0.
 00000210,-0.00000194,0.00000265,-0.00000157,-0.00000197,0.00000336,-0.
 00000283,-0.00000124,0.00000325,-0.00000395,-0.00000004,0.00000323,-0.
 00000568,-0.00000049,0.00000216,-0.00000473,-0.00000043,0.00000309,-0.
 00000505,-0.00000113,0.00000321,-0.00000410,0.00000144,0.00000009,-0.0
 0000374,0.00000011,0.00000244,0.00000001,0.00000057,-0.00000012,-0.000
 00254,0.00000068,0.00000044,-0.00000250,-0.00000097,-0.00000023,0.0000
 0190,-0.00000298,-0.00000380,-0.00000136,-0.00000144,0.00000029,-0.000
 01577,-0.00000097,-0.00000013,0.00000040,-0.00000008,0.00000163,0.0000
 0284,0.00000934,0.00000870,0.00000381,0.00000737,-0.00000375,0.0000005
 7,0.00000012,0.00000013,0.00000203,-0.00000184,0.00000279,0.00000033,-
 0.00000131,0.00000164,0.00000040,-0.00000511,-0.00000099,0.00001613,0.
 00000091,-0.00000034,-0.00000095,0.00000146,-0.00000370,-0.00000009,-0
 .00000092,-0.00000143,0.00000291,-0.00000282,0.00000062,0.00000222,-0.
 00000199,0.00000405,-0.00000162,-0.00000254,0.00000129,0.00000027,-0.0
 0000140,0.00000184,-0.00000015,-0.00000076,0.00000027,0.00000004,-0.00
 000175,0.00000728,0.00000666,-0.00000115,0.00000102,-0.00000002,-0.000
 00594,-0.00000635,-0.00001100,-0.00000088,-0.00000002,0.00000359,-0.00
 000073,-0.00000112,0.00000203,0.00000007,-0.00000188,-0.00000117,-0.00
 000069,-0.00000054,0.00000382,-0.00000155,0.00000073,0.00000269,0.0000
 0104,-0.00000166,0.00000238,0.00000088,-0.00000068,0.00000020,-0.00000
 066,-0.00000079,0.00000302,0.00000048,-0.00000185,0.00000307,0.0000036
 0,0.00000222,0.00000122,-0.00000002,-0.00000968,0.00000200,0.00000161,
 -0.00000246,0.00000048,0.00000156,-0.00000262,0.00000086,0.00000033,-0
 .00000215,0.00000475,-0.00000073,-0.00000135,0.00000372,0.00000042,-0.
 00000230,0.00000293,-0.00000012,-0.00000227,0.00000406,-0.00000216,0.0
 0000093,0.00000290,-0.00000148,0.00000040,0.00000277,-0.00000227,0.000
 00142,0.00000176,-0.00000280,0.00000145,0.00000312,-0.00000145,0.00000
 411,-0.00000248,-0.00000147,0.00000262,-0.00000226,-0.00000198,0.00000
 301,-0.00000206,-0.00000258,0.00000311,-0.00000081,0.00000241,0.000000
 10,-0.00000420,0.00000257,-0.00000009,-0.00000545,0.00000268,-0.000000
 97,-0.00000437,0.00000188,-0.00000031,-0.00000404,-0.00000076,-0.00000
 116,0.00000383,0.00000156,-0.00000120,0.00000650,0.00000080,-0.0000036
 8,0.00000239,0.00000021,-0.00000332,0.00000404,0.00000146,-0.00000287,
 0.00000359,0.00000078,-0.00000299,0.00000417,-0.00000042,-0.00000256,0
 .00000324,0.,-0.00000194,0.00000466,-0.00000051,-0.00000046,0.00000355
 ,-0.00000079,-0.00000167,0.00000384,0.00000228,-0.00000163,0.00000052,
 0.00000110,-0.00000262,0.00000165,0.00000216,-0.00000341,0.00000120,0.
 00000156,-0.00000221,-0.00000024,-0.00000180,-0.00000014,0.00000428,-0
 .00000193,-0.00000038,0.00000538,-0.00000106,-0.00000203,0.00000458,-0
 .00000167,0.00000020,0.00000384\\\@


 IT MATTERS NOT HOW DEEP YOU PLOW,
 BUT HOW LONG YOU STAY IN THE FURROW.
 Job cpu time:       4 days 11 hours 41 minutes 53.5 seconds.
 Elapsed time:       0 days  3 hours 39 minutes 31.8 seconds.
 File lengths (MBytes):  RWF=   9770 Int=      0 D2E=      0 Chk=     85 Scr=      1
 Normal termination of Gaussian 16 at Tue May 21 14:37:12 2019.
