 Entering Gaussian System, Link 0=g16
 Input=clay_new-glu_gluC6-CDDR-Na3_1Me2O-bisCF3-ts-b3lyp_d3bj-631gd-pcm_thf.gjf
 Output=clay_new-glu_gluC6-CDDR-Na3_1Me2O-bisCF3-ts-b3lyp_d3bj-631gd-pcm_thf.out
 Initial command:
 /home/ekwan/sw/g16/l1.exe "/scratch/users/ekwan/clay_new-glu_gluC6-CDDR-Na3_1Me2O-bisCF3-ts-b3lyp_d3bj-631gd-pcm_thf/Gau-33397.inp" -scrdir="/scratch/users/ekwan/clay_new-glu_gluC6-CDDR-Na3_1Me2O-bisCF3-ts-b3lyp_d3bj-631gd-pcm_thf/"
 Entering Link 1 = /home/ekwan/sw/g16/l1.exe PID=     33398.
  
 Copyright (c) 1988,1990,1992,1993,1995,1998,2003,2009,2016,
            Gaussian, Inc.  All Rights Reserved.
  
 This is part of the Gaussian(R) 16 program.  It is based on
 the Gaussian(R) 09 system (copyright 2009, Gaussian, Inc.),
 the Gaussian(R) 03 system (copyright 2003, Gaussian, Inc.),
 the Gaussian(R) 98 system (copyright 1998, Gaussian, Inc.),
 the Gaussian(R) 94 system (copyright 1995, Gaussian, Inc.),
 the Gaussian 92(TM) system (copyright 1992, Gaussian, Inc.),
 the Gaussian 90(TM) system (copyright 1990, Gaussian, Inc.),
 the Gaussian 88(TM) system (copyright 1988, Gaussian, Inc.),
 the Gaussian 86(TM) system (copyright 1986, Carnegie Mellon
 University), and the Gaussian 82(TM) system (copyright 1983,
 Carnegie Mellon University). Gaussian is a federally registered
 trademark of Gaussian, Inc.
  
 This software contains proprietary and confidential information,
 including trade secrets, belonging to Gaussian, Inc.
  
 This software is provided under written license and may be
 used, copied, transmitted, or stored only in accord with that
 written license.
  
 The following legend is applicable only to US Government
 contracts under FAR:
  
                    RESTRICTED RIGHTS LEGEND
  
 Use, reproduction and disclosure by the US Government is
 subject to restrictions as set forth in subparagraphs (a)
 and (c) of the Commercial Computer Software - Restricted
 Rights clause in FAR 52.227-19.
  
 Gaussian, Inc.
 340 Quinnipiac St., Bldg. 40, Wallingford CT 06492
  
  
 ---------------------------------------------------------------
 Warning -- This program may not be used in any manner that
 competes with the business of Gaussian, Inc. or will provide
 assistance to any competitor of Gaussian, Inc.  The licensee
 of this program is prohibited from giving any competitor of
 Gaussian, Inc. access to this program.  By using this program,
 the user acknowledges that Gaussian, Inc. is engaged in the
 business of creating and licensing software in the field of
 computational chemistry and represents and warrants to the
 licensee that it is not a competitor of Gaussian, Inc. and that
 it will not use this program in any manner prohibited above.
 ---------------------------------------------------------------
  

 Cite this work as:
 Gaussian 16, Revision A.03,
 M. J. Frisch, G. W. Trucks, H. B. Schlegel, G. E. Scuseria, 
 M. A. Robb, J. R. Cheeseman, G. Scalmani, V. Barone, 
 G. A. Petersson, H. Nakatsuji, X. Li, M. Caricato, A. V. Marenich, 
 J. Bloino, B. G. Janesko, R. Gomperts, B. Mennucci, H. P. Hratchian, 
 J. V. Ortiz, A. F. Izmaylov, J. L. Sonnenberg, D. Williams-Young, 
 F. Ding, F. Lipparini, F. Egidi, J. Goings, B. Peng, A. Petrone, 
 T. Henderson, D. Ranasinghe, V. G. Zakrzewski, J. Gao, N. Rega, 
 G. Zheng, W. Liang, M. Hada, M. Ehara, K. Toyota, R. Fukuda, 
 J. Hasegawa, M. Ishida, T. Nakajima, Y. Honda, O. Kitao, H. Nakai, 
 T. Vreven, K. Throssell, J. A. Montgomery, Jr., J. E. Peralta, 
 F. Ogliaro, M. J. Bearpark, J. J. Heyd, E. N. Brothers, K. N. Kudin, 
 V. N. Staroverov, T. A. Keith, R. Kobayashi, J. Normand, 
 K. Raghavachari, A. P. Rendell, J. C. Burant, S. S. Iyengar, 
 J. Tomasi, M. Cossi, J. M. Millam, M. Klene, C. Adamo, R. Cammi, 
 J. W. Ochterski, R. L. Martin, K. Morokuma, O. Farkas, 
 J. B. Foresman, and D. J. Fox, Gaussian, Inc., Wallingford CT, 2016.
 
 ******************************************
 Gaussian 16:  AS64L-G16RevA.03 25-Dec-2016
                30-May-2019 
 ******************************************
 %mem=48GB
 %nprocshared=32
 Will use up to   32 processors via shared memory.
 ----------------------------------------------------------------------
 #p opt=(ts,noeigentest,calcfc,maxstep=5,modredundant,recalc=30) freq=n
 oraman b3lyp 6-31g* pop=none scrf=(solvent=tetrahydrofuran,pcm) empiri
 caldispersion=gd3bj
 ----------------------------------------------------------------------
 1/5=1,8=5,10=4,11=1,18=120,26=3,38=1,71=30/1,3;
 2/9=110,12=2,17=6,18=5,40=1/2;
 3/5=1,6=6,7=1,11=2,25=1,30=1,70=2201,71=2,72=20,74=-5,124=41,140=1/1,2,3;
 4//1;
 5/5=2,38=5,53=20/2;
 8/6=4,10=90,11=11/1;
 11/6=1,8=1,9=11,15=111,16=1/1,2,10;
 10/6=1,13=1/2;
 7/10=1,18=20,25=1/1,2,3,16;
 1/5=1,8=5,10=4,11=1,18=20,26=3,71=30/3(2);
 2/9=110/2;
 99//99;
 2/9=110/2;
 3/5=1,6=6,7=1,11=2,25=1,30=1,70=2205,71=1,72=20,74=-5,124=41/1,2,3;
 4/5=5,16=3,69=1/1;
 5/5=2,38=5,53=20/2;
 7//1,2,3,16;
 1/5=1,8=5,11=1,18=20,26=3,71=30/3(-5);
 2/9=110/2;
 99/9=1/99;
 Leave Link    1 at Thu May 30 18:50:06 2019, MaxMem=  6442450944 cpu:               4.6 elap:               0.2
 (Enter /home/ekwan/sw/g16/l101.exe)
 -----
 title
 -----
 Symbolic Z-matrix:
 Charge =  0 Multiplicity = 1
 C                     6.08054   0.90722  -0.30802 
 C                     6.62844  -0.10314  -1.30821 
 C                     6.69157  -1.4916   -0.6585 
 C                     4.79904  -1.0377    0.78543 
 C                     4.78239   0.44391   0.36339 
 H                     6.97608  -2.26462  -1.38728 
 H                     5.93344  -0.1764   -2.15943 
 H                     6.82956   1.04986   0.47989 
 H                     5.3746   -1.11313   1.71697 
 H                     3.96246   0.60058  -0.35285 
 O                     5.40989  -1.87167  -0.2286 
 O                     7.64242  -1.44368   0.37671 
 O                     7.89071   0.36658  -1.75497 
 O                     5.79912   2.14985  -0.94927 
 O                     4.62375   1.29568   1.49426 
 C                     3.38891  -1.65769   0.98277 
 H                     3.59057  -2.7382    1.2152 
 H                     2.98287  -1.69914  -0.08225 
 O                     2.58062  -1.03555   1.86114 
 C                     8.39285  -0.31072  -2.89312 
 H                     8.68786  -1.34463  -2.66625 
 H                     7.65426  -0.32738  -3.70864 
 H                     9.27733   0.23902  -3.22469 
 C                     6.80411   3.13554  -0.78437 
 H                     6.96941   3.36086   0.27966 
 H                     7.75425   2.82663  -1.23492 
 H                     6.44364   4.04009  -1.2836 
 C                     3.34821   1.91354   1.60348 
 H                     3.12972   2.5267    0.71715 
 H                     2.57672   1.15359   1.7364 
 H                     3.39481   2.56996   2.47864 
 C                    -1.61768  -0.12483   1.76 
 C                    -0.25842  -0.79305   1.58138 
 C                     0.44803  -0.30353   0.33933 
 C                    -0.64736   1.81862   0.42063 
 C                    -1.4323    1.39526   1.67511 
 H                     1.3712   -0.80538   0.09984 
 H                     0.41265  -0.49662   2.39104 
 H                    -2.302    -0.45041   0.96609 
 H                    -1.31474   1.7074   -0.43023 
 H                    -0.90607   1.72672   2.57559 
 O                     0.51502   0.99677   0.13106 
 O                    -1.23705  -1.90121  -3.03008 
 O                    -0.36303  -2.20862   1.54752 
 O                    -2.10964  -0.54019   3.02082 
 O                    -2.70626   2.02455   1.56789 
 C                    -0.16642   3.25423   0.44713 
 H                    -1.03517   3.91771   0.32534 
 H                     0.50344   3.41348  -0.41042 
 O                     0.50168   3.50416   1.6658 
 S                    -1.11435  -0.65512  -2.25552 
 O                    -0.36163   0.47171  -2.80961 
 O                    -0.59105  -1.07683  -0.83708 
 C                    -2.76791  -0.08783  -1.85677 
 C                    -3.70318  -1.00911  -1.38675 
 C                    -3.03842   1.27596  -1.88253 
 C                    -4.93094  -0.53495  -0.92763 
 H                    -3.46715  -2.06653  -1.35164 
 C                    -4.23917   1.73505  -1.34301 
 H                    -2.30548   1.96658  -2.28092 
 C                    -5.19267   0.83567  -0.8746 
 H                    -6.12805   1.19649  -0.46402 
 C                     0.26416  -2.85092   2.67599 
 H                     1.2943   -2.48018   2.7451 
 H                    -0.30715  -2.63893   3.58575 
 H                     0.23537  -3.9244    2.47001 
 C                    -3.51901  -0.43603   3.19157 
 H                    -3.83759   0.5964    3.36696 
 H                    -4.05392  -0.82382   2.31695 
 H                    -3.77024  -1.04445   4.06413 
 C                    -2.9123    3.12308   2.45036 
 H                    -3.00434   2.7839    3.49083 
 H                    -2.09624   3.85186   2.38864 
 H                    -3.84557   3.59365   2.13565 
 C                     1.08737   4.79479   1.7062 
 H                     1.56519   4.89759   2.6825 
 H                     1.84521   4.91148   0.91867 
 H                     0.32851   5.58226   1.58751 
 C                     7.86017  -2.70707   0.99094 
 H                     8.6557   -2.56778   1.72614 
 H                     6.95718  -3.07219   1.49345 
 H                     8.17846  -3.45486   0.24945 
 Na                   -0.54265  -3.3264   -0.49019 
 O                    -2.72678  -3.96391  -0.06196 
 C                    -3.38962  -5.00383  -0.77822 
 H                    -4.46691  -4.80961  -0.82774 
 H                    -2.97542  -5.01329  -1.78885 
 H                    -3.21835  -5.97743  -0.30001 
 C                    -3.20734  -3.83529   1.27857 
 H                    -3.05708  -4.77222   1.8318 
 H                    -2.63096  -3.03709   1.74637 
 H                    -4.27282  -3.5828    1.27982 
 C                    -4.49157   3.21583  -1.24871 
 F                    -5.22987   3.51992  -0.15875 
 F                    -5.15861   3.68684  -2.3239 
 F                    -3.33437   3.90929  -1.16312 
 C                    -5.96178  -1.50274  -0.41287 
 F                    -5.83556  -1.71139   0.92386 
 F                    -5.85263  -2.71126  -1.00562 
 F                    -7.21462  -1.05476  -0.61809 
 
 Add virtual bond connecting atoms O53        and C34        Dist= 3.31D+00.
 Add virtual bond connecting atoms H37        and H18        Dist= 3.50D+00.
 Add virtual bond connecting atoms O84        and H58        Dist= 4.56D+00.
 Add virtual bond connecting atoms O84        and Na83       Dist= 4.38D+00.
 Add virtual bond connecting atoms H91        and O44        Dist= 4.58D+00.
 Add virtual bond connecting atoms H92        and F98        Dist= 4.66D+00.
 The following ModRedundant input section has been read:
 
 ITRead=  0  0  0  0  0  0  0  0  0  0  0  0  0  0  0  0  0  0  0  0
 ITRead=  0  0  0  0  0  0  0  0  0  0  0  0  0  0  0  0  0  0  0  0
 ITRead=  0  0  0  0  0  0  0  0  0  0  0  0  0  0  0  0  0  0  0  0
 ITRead=  0  0  0  0  0  0  0  0  0  0  0  0  0  0  0  0  0  0  0  0
 ITRead=  0  0  0  0  0  0  0  0  0  0  0  0  0  0  0  0  0  0  0  0
 MicOpt= -1 -1 -1 -1 -1 -1 -1 -1 -1 -1 -1 -1 -1 -1 -1 -1 -1 -1 -1 -1
 MicOpt= -1 -1 -1 -1 -1 -1 -1 -1 -1 -1 -1 -1 -1 -1 -1 -1 -1 -1 -1 -1
 MicOpt= -1 -1 -1 -1 -1 -1 -1 -1 -1 -1 -1 -1 -1 -1 -1 -1 -1 -1 -1 -1
 MicOpt= -1 -1 -1 -1 -1 -1 -1 -1 -1 -1 -1 -1 -1 -1 -1 -1 -1 -1 -1 -1
 MicOpt= -1 -1 -1 -1 -1 -1 -1 -1 -1 -1 -1 -1 -1 -1 -1 -1 -1 -1 -1 -1
 NAtoms=    100 NQM=      100 NQMF=       0 NMMI=      0 NMMIF=      0
                NMic=       0 NMicF=      0.
                    Isotopes and Nuclear Properties:
 (Nuclear quadrupole moments (NQMom) in fm**2, nuclear magnetic moments (NMagM)
  in nuclear magnetons)

  Atom         1           2           3           4           5           6           7           8           9          10
 IAtWgt=          12          12          12          12          12           1           1           1           1           1
 AtmWgt=  12.0000000  12.0000000  12.0000000  12.0000000  12.0000000   1.0078250   1.0078250   1.0078250   1.0078250   1.0078250
 NucSpn=           0           0           0           0           0           1           1           1           1           1
 AtZEff=   0.0000000   0.0000000   0.0000000   0.0000000   0.0000000   0.0000000   0.0000000   0.0000000   0.0000000   0.0000000
 NQMom=    0.0000000   0.0000000   0.0000000   0.0000000   0.0000000   0.0000000   0.0000000   0.0000000   0.0000000   0.0000000
 NMagM=    0.0000000   0.0000000   0.0000000   0.0000000   0.0000000   2.7928460   2.7928460   2.7928460   2.7928460   2.7928460
 AtZNuc=   6.0000000   6.0000000   6.0000000   6.0000000   6.0000000   1.0000000   1.0000000   1.0000000   1.0000000   1.0000000

  Atom        11          12          13          14          15          16          17          18          19          20
 IAtWgt=          16          16          16          16          16          12           1           1          16          12
 AtmWgt=  15.9949146  15.9949146  15.9949146  15.9949146  15.9949146  12.0000000   1.0078250   1.0078250  15.9949146  12.0000000
 NucSpn=           0           0           0           0           0           0           1           1           0           0
 AtZEff=   0.0000000   0.0000000   0.0000000   0.0000000   0.0000000   0.0000000   0.0000000   0.0000000   0.0000000   0.0000000
 NQMom=    0.0000000   0.0000000   0.0000000   0.0000000   0.0000000   0.0000000   0.0000000   0.0000000   0.0000000   0.0000000
 NMagM=    0.0000000   0.0000000   0.0000000   0.0000000   0.0000000   0.0000000   2.7928460   2.7928460   0.0000000   0.0000000
 AtZNuc=   8.0000000   8.0000000   8.0000000   8.0000000   8.0000000   6.0000000   1.0000000   1.0000000   8.0000000   6.0000000

  Atom        21          22          23          24          25          26          27          28          29          30
 IAtWgt=           1           1           1          12           1           1           1          12           1           1
 AtmWgt=   1.0078250   1.0078250   1.0078250  12.0000000   1.0078250   1.0078250   1.0078250  12.0000000   1.0078250   1.0078250
 NucSpn=           1           1           1           0           1           1           1           0           1           1
 AtZEff=   0.0000000   0.0000000   0.0000000   0.0000000   0.0000000   0.0000000   0.0000000   0.0000000   0.0000000   0.0000000
 NQMom=    0.0000000   0.0000000   0.0000000   0.0000000   0.0000000   0.0000000   0.0000000   0.0000000   0.0000000   0.0000000
 NMagM=    2.7928460   2.7928460   2.7928460   0.0000000   2.7928460   2.7928460   2.7928460   0.0000000   2.7928460   2.7928460
 AtZNuc=   1.0000000   1.0000000   1.0000000   6.0000000   1.0000000   1.0000000   1.0000000   6.0000000   1.0000000   1.0000000

  Atom        31          32          33          34          35          36          37          38          39          40
 IAtWgt=           1          12          12          12          12          12           1           1           1           1
 AtmWgt=   1.0078250  12.0000000  12.0000000  12.0000000  12.0000000  12.0000000   1.0078250   1.0078250   1.0078250   1.0078250
 NucSpn=           1           0           0           0           0           0           1           1           1           1
 AtZEff=   0.0000000   0.0000000   0.0000000   0.0000000   0.0000000   0.0000000   0.0000000   0.0000000   0.0000000   0.0000000
 NQMom=    0.0000000   0.0000000   0.0000000   0.0000000   0.0000000   0.0000000   0.0000000   0.0000000   0.0000000   0.0000000
 NMagM=    2.7928460   0.0000000   0.0000000   0.0000000   0.0000000   0.0000000   2.7928460   2.7928460   2.7928460   2.7928460
 AtZNuc=   1.0000000   6.0000000   6.0000000   6.0000000   6.0000000   6.0000000   1.0000000   1.0000000   1.0000000   1.0000000

  Atom        41          42          43          44          45          46          47          48          49          50
 IAtWgt=           1          16          16          16          16          16          12           1           1          16
 AtmWgt=   1.0078250  15.9949146  15.9949146  15.9949146  15.9949146  15.9949146  12.0000000   1.0078250   1.0078250  15.9949146
 NucSpn=           1           0           0           0           0           0           0           1           1           0
 AtZEff=   0.0000000   0.0000000   0.0000000   0.0000000   0.0000000   0.0000000   0.0000000   0.0000000   0.0000000   0.0000000
 NQMom=    0.0000000   0.0000000   0.0000000   0.0000000   0.0000000   0.0000000   0.0000000   0.0000000   0.0000000   0.0000000
 NMagM=    2.7928460   0.0000000   0.0000000   0.0000000   0.0000000   0.0000000   0.0000000   2.7928460   2.7928460   0.0000000
 AtZNuc=   1.0000000   8.0000000   8.0000000   8.0000000   8.0000000   8.0000000   6.0000000   1.0000000   1.0000000   8.0000000

  Atom        51          52          53          54          55          56          57          58          59          60
 IAtWgt=          32          16          16          12          12          12          12           1          12           1
 AtmWgt=  31.9720718  15.9949146  15.9949146  12.0000000  12.0000000  12.0000000  12.0000000   1.0078250  12.0000000   1.0078250
 NucSpn=           0           0           0           0           0           0           0           1           0           1
 AtZEff=   0.0000000   0.0000000   0.0000000   0.0000000   0.0000000   0.0000000   0.0000000   0.0000000   0.0000000   0.0000000
 NQMom=    0.0000000   0.0000000   0.0000000   0.0000000   0.0000000   0.0000000   0.0000000   0.0000000   0.0000000   0.0000000
 NMagM=    0.0000000   0.0000000   0.0000000   0.0000000   0.0000000   0.0000000   0.0000000   2.7928460   0.0000000   2.7928460
 AtZNuc=  16.0000000   8.0000000   8.0000000   6.0000000   6.0000000   6.0000000   6.0000000   1.0000000   6.0000000   1.0000000

  Atom        61          62          63          64          65          66          67          68          69          70
 IAtWgt=          12           1          12           1           1           1          12           1           1           1
 AtmWgt=  12.0000000   1.0078250  12.0000000   1.0078250   1.0078250   1.0078250  12.0000000   1.0078250   1.0078250   1.0078250
 NucSpn=           0           1           0           1           1           1           0           1           1           1
 AtZEff=   0.0000000   0.0000000   0.0000000   0.0000000   0.0000000   0.0000000   0.0000000   0.0000000   0.0000000   0.0000000
 NQMom=    0.0000000   0.0000000   0.0000000   0.0000000   0.0000000   0.0000000   0.0000000   0.0000000   0.0000000   0.0000000
 NMagM=    0.0000000   2.7928460   0.0000000   2.7928460   2.7928460   2.7928460   0.0000000   2.7928460   2.7928460   2.7928460
 AtZNuc=   6.0000000   1.0000000   6.0000000   1.0000000   1.0000000   1.0000000   6.0000000   1.0000000   1.0000000   1.0000000

  Atom        71          72          73          74          75          76          77          78          79          80
 IAtWgt=          12           1           1           1          12           1           1           1          12           1
 AtmWgt=  12.0000000   1.0078250   1.0078250   1.0078250  12.0000000   1.0078250   1.0078250   1.0078250  12.0000000   1.0078250
 NucSpn=           0           1           1           1           0           1           1           1           0           1
 AtZEff=   0.0000000   0.0000000   0.0000000   0.0000000   0.0000000   0.0000000   0.0000000   0.0000000   0.0000000   0.0000000
 NQMom=    0.0000000   0.0000000   0.0000000   0.0000000   0.0000000   0.0000000   0.0000000   0.0000000   0.0000000   0.0000000
 NMagM=    0.0000000   2.7928460   2.7928460   2.7928460   0.0000000   2.7928460   2.7928460   2.7928460   0.0000000   2.7928460
 AtZNuc=   6.0000000   1.0000000   1.0000000   1.0000000   6.0000000   1.0000000   1.0000000   1.0000000   6.0000000   1.0000000

  Atom        81          82          83          84          85          86          87          88          89          90
 IAtWgt=           1           1          23          16          12           1           1           1          12           1
 AtmWgt=   1.0078250   1.0078250  22.9897697  15.9949146  12.0000000   1.0078250   1.0078250   1.0078250  12.0000000   1.0078250
 NucSpn=           1           1           3           0           0           1           1           1           0           1
 AtZEff=   0.0000000   0.0000000   0.0000000   0.0000000   0.0000000   0.0000000   0.0000000   0.0000000   0.0000000   0.0000000
 NQMom=    0.0000000   0.0000000  10.4000000   0.0000000   0.0000000   0.0000000   0.0000000   0.0000000   0.0000000   0.0000000
 NMagM=    2.7928460   2.7928460   2.2175200   0.0000000   0.0000000   2.7928460   2.7928460   2.7928460   0.0000000   2.7928460
 AtZNuc=   1.0000000   1.0000000  11.0000000   8.0000000   6.0000000   1.0000000   1.0000000   1.0000000   6.0000000   1.0000000

  Atom        91          92          93          94          95          96          97          98          99         100
 IAtWgt=           1           1          12          19          19          19          12          19          19          19
 AtmWgt=   1.0078250   1.0078250  12.0000000  18.9984033  18.9984033  18.9984033  12.0000000  18.9984033  18.9984033  18.9984033
 NucSpn=           1           1           0           1           1           1           0           1           1           1
 AtZEff=   0.0000000   0.0000000   0.0000000   0.0000000   0.0000000   0.0000000   0.0000000   0.0000000   0.0000000   0.0000000
 NQMom=    0.0000000   0.0000000   0.0000000   0.0000000   0.0000000   0.0000000   0.0000000   0.0000000   0.0000000   0.0000000
 NMagM=    2.7928460   2.7928460   0.0000000   2.6288670   2.6288670   2.6288670   0.0000000   2.6288670   2.6288670   2.6288670
 AtZNuc=   1.0000000   1.0000000   6.0000000   9.0000000   9.0000000   9.0000000   6.0000000   9.0000000   9.0000000   9.0000000
 Leave Link  101 at Thu May 30 18:50:06 2019, MaxMem=  6442450944 cpu:              16.2 elap:               0.7
 (Enter /home/ekwan/sw/g16/l103.exe)

 GradGradGradGradGradGradGradGradGradGradGradGradGradGradGradGradGradGrad
 Berny optimization.
 Initialization pass.
                           ----------------------------
                           !    Initial Parameters    !
                           ! (Angstroms and Degrees)  !
 --------------------------                            --------------------------
 ! Name  Definition              Value          Derivative Info.                !
 --------------------------------------------------------------------------------
 ! R1    R(1,2)                  1.5236         calculate D2E/DX2 analytically  !
 ! R2    R(1,5)                  1.5332         calculate D2E/DX2 analytically  !
 ! R3    R(1,8)                  1.0964         calculate D2E/DX2 analytically  !
 ! R4    R(1,14)                 1.4264         calculate D2E/DX2 analytically  !
 ! R5    R(2,3)                  1.5343         calculate D2E/DX2 analytically  !
 ! R6    R(2,7)                  1.1013         calculate D2E/DX2 analytically  !
 ! R7    R(2,13)                 1.419          calculate D2E/DX2 analytically  !
 ! R8    R(3,6)                  1.0998         calculate D2E/DX2 analytically  !
 ! R9    R(3,11)                 1.4043         calculate D2E/DX2 analytically  !
 ! R10   R(3,12)                 1.4064         calculate D2E/DX2 analytically  !
 ! R11   R(4,5)                  1.5406         calculate D2E/DX2 analytically  !
 ! R12   R(4,9)                  1.0976         calculate D2E/DX2 analytically  !
 ! R13   R(4,11)                 1.4481         calculate D2E/DX2 analytically  !
 ! R14   R(4,16)                 1.553          calculate D2E/DX2 analytically  !
 ! R15   R(5,10)                 1.0999         calculate D2E/DX2 analytically  !
 ! R16   R(5,15)                 1.4246         calculate D2E/DX2 analytically  !
 ! R17   R(12,79)                1.4216         calculate D2E/DX2 analytically  !
 ! R18   R(13,20)                1.4164         calculate D2E/DX2 analytically  !
 ! R19   R(14,24)                1.4173         calculate D2E/DX2 analytically  !
 ! R20   R(15,28)                1.4215         calculate D2E/DX2 analytically  !
 ! R21   R(16,17)                1.1235         calculate D2E/DX2 analytically  !
 ! R22   R(16,18)                1.1406         calculate D2E/DX2 analytically  !
 ! R23   R(16,19)                1.3461         calculate D2E/DX2 analytically  !
 ! R24   R(18,37)                1.8519         calculate D2E/DX2 analytically  !
 ! R25   R(20,21)                1.0988         calculate D2E/DX2 analytically  !
 ! R26   R(20,22)                1.1004         calculate D2E/DX2 analytically  !
 ! R27   R(20,23)                1.0929         calculate D2E/DX2 analytically  !
 ! R28   R(24,25)                1.1001         calculate D2E/DX2 analytically  !
 ! R29   R(24,26)                1.096          calculate D2E/DX2 analytically  !
 ! R30   R(24,27)                1.0942         calculate D2E/DX2 analytically  !
 ! R31   R(28,29)                1.0997         calculate D2E/DX2 analytically  !
 ! R32   R(28,30)                1.091          calculate D2E/DX2 analytically  !
 ! R33   R(28,31)                1.095          calculate D2E/DX2 analytically  !
 ! R34   R(32,33)                1.5251         calculate D2E/DX2 analytically  !
 ! R35   R(32,36)                1.5337         calculate D2E/DX2 analytically  !
 ! R36   R(32,39)                1.0975         calculate D2E/DX2 analytically  !
 ! R37   R(32,45)                1.4157         calculate D2E/DX2 analytically  !
 ! R38   R(33,34)                1.5104         calculate D2E/DX2 analytically  !
 ! R39   R(33,38)                1.0926         calculate D2E/DX2 analytically  !
 ! R40   R(33,44)                1.4198         calculate D2E/DX2 analytically  !
 ! R41   R(34,37)                1.0777         calculate D2E/DX2 analytically  !
 ! R42   R(34,42)                1.3186         calculate D2E/DX2 analytically  !
 ! R43   R(34,53)                1.7498         calculate D2E/DX2 analytically  !
 ! R44   R(35,36)                1.5392         calculate D2E/DX2 analytically  !
 ! R45   R(35,40)                1.0871         calculate D2E/DX2 analytically  !
 ! R46   R(35,42)                1.4527         calculate D2E/DX2 analytically  !
 ! R47   R(35,47)                1.5143         calculate D2E/DX2 analytically  !
 ! R48   R(36,41)                1.0944         calculate D2E/DX2 analytically  !
 ! R49   R(36,46)                1.4249         calculate D2E/DX2 analytically  !
 ! R50   R(43,51)                1.4723         calculate D2E/DX2 analytically  !
 ! R51   R(44,63)                1.442          calculate D2E/DX2 analytically  !
 ! R52   R(44,91)                2.4227         calculate D2E/DX2 analytically  !
 ! R53   R(45,67)                1.4235         calculate D2E/DX2 analytically  !
 ! R54   R(46,71)                1.4241         calculate D2E/DX2 analytically  !
 ! R55   R(47,48)                1.0999         calculate D2E/DX2 analytically  !
 ! R56   R(47,49)                1.0998         calculate D2E/DX2 analytically  !
 ! R57   R(47,50)                1.4121         calculate D2E/DX2 analytically  !
 ! R58   R(50,75)                1.4179         calculate D2E/DX2 analytically  !
 ! R59   R(51,52)                1.464          calculate D2E/DX2 analytically  !
 ! R60   R(51,53)                1.5696         calculate D2E/DX2 analytically  !
 ! R61   R(51,54)                1.7931         calculate D2E/DX2 analytically  !
 ! R62   R(53,83)                2.2767         calculate D2E/DX2 analytically  !
 ! R63   R(54,55)                1.3944         calculate D2E/DX2 analytically  !
 ! R64   R(54,56)                1.3906         calculate D2E/DX2 analytically  !
 ! R65   R(55,57)                1.3939         calculate D2E/DX2 analytically  !
 ! R66   R(55,58)                1.084          calculate D2E/DX2 analytically  !
 ! R67   R(56,59)                1.3941         calculate D2E/DX2 analytically  !
 ! R68   R(56,60)                1.083          calculate D2E/DX2 analytically  !
 ! R69   R(57,61)                1.3964         calculate D2E/DX2 analytically  !
 ! R70   R(57,97)                1.5047         calculate D2E/DX2 analytically  !
 ! R71   R(58,84)                2.4107         calculate D2E/DX2 analytically  !
 ! R72   R(59,61)                1.3919         calculate D2E/DX2 analytically  !
 ! R73   R(59,93)                1.5051         calculate D2E/DX2 analytically  !
 ! R74   R(61,62)                1.0834         calculate D2E/DX2 analytically  !
 ! R75   R(63,64)                1.097          calculate D2E/DX2 analytically  !
 ! R76   R(63,65)                1.095          calculate D2E/DX2 analytically  !
 ! R77   R(63,66)                1.0934         calculate D2E/DX2 analytically  !
 ! R78   R(67,68)                1.0946         calculate D2E/DX2 analytically  !
 ! R79   R(67,69)                1.0961         calculate D2E/DX2 analytically  !
 ! R80   R(67,70)                1.093          calculate D2E/DX2 analytically  !
 ! R81   R(71,72)                1.0982         calculate D2E/DX2 analytically  !
 ! R82   R(71,73)                1.0959         calculate D2E/DX2 analytically  !
 ! R83   R(71,74)                1.0915         calculate D2E/DX2 analytically  !
 ! R84   R(75,76)                1.0918         calculate D2E/DX2 analytically  !
 ! R85   R(75,77)                1.0992         calculate D2E/DX2 analytically  !
 ! R86   R(75,78)                1.1            calculate D2E/DX2 analytically  !
 ! R87   R(79,80)                1.0921         calculate D2E/DX2 analytically  !
 ! R88   R(79,81)                1.096          calculate D2E/DX2 analytically  !
 ! R89   R(79,82)                1.1001         calculate D2E/DX2 analytically  !
 ! R90   R(83,84)                2.3152         calculate D2E/DX2 analytically  !
 ! R91   R(84,85)                1.4261         calculate D2E/DX2 analytically  !
 ! R92   R(84,89)                1.4299         calculate D2E/DX2 analytically  !
 ! R93   R(85,86)                1.0958         calculate D2E/DX2 analytically  !
 ! R94   R(85,87)                1.0923         calculate D2E/DX2 analytically  !
 ! R95   R(85,88)                1.0981         calculate D2E/DX2 analytically  !
 ! R96   R(89,90)                1.0984         calculate D2E/DX2 analytically  !
 ! R97   R(89,91)                1.09           calculate D2E/DX2 analytically  !
 ! R98   R(89,92)                1.095          calculate D2E/DX2 analytically  !
 ! R99   R(92,98)                2.4639         calculate D2E/DX2 analytically  !
 ! R100  R(93,94)                1.3511         calculate D2E/DX2 analytically  !
 ! R101  R(93,95)                1.3501         calculate D2E/DX2 analytically  !
 ! R102  R(93,96)                1.3518         calculate D2E/DX2 analytically  !
 ! R103  R(97,98)                1.3588         calculate D2E/DX2 analytically  !
 ! R104  R(97,99)                1.3505         calculate D2E/DX2 analytically  !
 ! R105  R(97,100)               1.3463         calculate D2E/DX2 analytically  !
 ! A1    A(2,1,5)              113.0524         calculate D2E/DX2 analytically  !
 ! A2    A(2,1,8)              108.2008         calculate D2E/DX2 analytically  !
 ! A3    A(2,1,14)             110.704          calculate D2E/DX2 analytically  !
 ! A4    A(5,1,8)              107.6398         calculate D2E/DX2 analytically  !
 ! A5    A(5,1,14)             107.0426         calculate D2E/DX2 analytically  !
 ! A6    A(8,1,14)             110.1512         calculate D2E/DX2 analytically  !
 ! A7    A(1,2,3)              109.6893         calculate D2E/DX2 analytically  !
 ! A8    A(1,2,7)              108.9386         calculate D2E/DX2 analytically  !
 ! A9    A(1,2,13)             107.8821         calculate D2E/DX2 analytically  !
 ! A10   A(3,2,7)              107.0413         calculate D2E/DX2 analytically  !
 ! A11   A(3,2,13)             113.3465         calculate D2E/DX2 analytically  !
 ! A12   A(7,2,13)             109.8787         calculate D2E/DX2 analytically  !
 ! A13   A(2,3,6)              111.4754         calculate D2E/DX2 analytically  !
 ! A14   A(2,3,11)             109.6954         calculate D2E/DX2 analytically  !
 ! A15   A(2,3,12)             107.9798         calculate D2E/DX2 analytically  !
 ! A16   A(6,3,11)             104.4023         calculate D2E/DX2 analytically  !
 ! A17   A(6,3,12)             109.681          calculate D2E/DX2 analytically  !
 ! A18   A(11,3,12)            113.6372         calculate D2E/DX2 analytically  !
 ! A19   A(5,4,9)              107.7129         calculate D2E/DX2 analytically  !
 ! A20   A(5,4,11)             111.505          calculate D2E/DX2 analytically  !
 ! A21   A(5,4,16)             114.1371         calculate D2E/DX2 analytically  !
 ! A22   A(9,4,11)             109.4835         calculate D2E/DX2 analytically  !
 ! A23   A(9,4,16)             109.9296         calculate D2E/DX2 analytically  !
 ! A24   A(11,4,16)            104.0103         calculate D2E/DX2 analytically  !
 ! A25   A(1,5,4)              113.667          calculate D2E/DX2 analytically  !
 ! A26   A(1,5,10)             107.6356         calculate D2E/DX2 analytically  !
 ! A27   A(1,5,15)             105.1434         calculate D2E/DX2 analytically  !
 ! A28   A(4,5,10)             108.8696         calculate D2E/DX2 analytically  !
 ! A29   A(4,5,15)             111.0227         calculate D2E/DX2 analytically  !
 ! A30   A(10,5,15)            110.4098         calculate D2E/DX2 analytically  !
 ! A31   A(3,11,4)             116.3284         calculate D2E/DX2 analytically  !
 ! A32   A(3,12,79)            113.0364         calculate D2E/DX2 analytically  !
 ! A33   A(2,13,20)            114.2085         calculate D2E/DX2 analytically  !
 ! A34   A(1,14,24)            114.436          calculate D2E/DX2 analytically  !
 ! A35   A(5,15,28)            114.8845         calculate D2E/DX2 analytically  !
 ! A36   A(4,16,17)            104.3152         calculate D2E/DX2 analytically  !
 ! A37   A(4,16,18)            102.6569         calculate D2E/DX2 analytically  !
 ! A38   A(4,16,19)            116.3364         calculate D2E/DX2 analytically  !
 ! A39   A(17,16,18)           102.8341         calculate D2E/DX2 analytically  !
 ! A40   A(17,16,19)           114.6639         calculate D2E/DX2 analytically  !
 ! A41   A(18,16,19)           114.3529         calculate D2E/DX2 analytically  !
 ! A42   A(16,18,37)           101.5645         calculate D2E/DX2 analytically  !
 ! A43   A(13,20,21)           112.284          calculate D2E/DX2 analytically  !
 ! A44   A(13,20,22)           111.3953         calculate D2E/DX2 analytically  !
 ! A45   A(13,20,23)           106.8677         calculate D2E/DX2 analytically  !
 ! A46   A(21,20,22)           108.5997         calculate D2E/DX2 analytically  !
 ! A47   A(21,20,23)           108.5814         calculate D2E/DX2 analytically  !
 ! A48   A(22,20,23)           109.0242         calculate D2E/DX2 analytically  !
 ! A49   A(14,24,25)           111.1932         calculate D2E/DX2 analytically  !
 ! A50   A(14,24,26)           111.7694         calculate D2E/DX2 analytically  !
 ! A51   A(14,24,27)           106.7518         calculate D2E/DX2 analytically  !
 ! A52   A(25,24,26)           108.9695         calculate D2E/DX2 analytically  !
 ! A53   A(25,24,27)           108.7515         calculate D2E/DX2 analytically  !
 ! A54   A(26,24,27)           109.3313         calculate D2E/DX2 analytically  !
 ! A55   A(15,28,29)           111.0208         calculate D2E/DX2 analytically  !
 ! A56   A(15,28,30)           109.9445         calculate D2E/DX2 analytically  !
 ! A57   A(15,28,31)           106.4867         calculate D2E/DX2 analytically  !
 ! A58   A(29,28,30)           110.2474         calculate D2E/DX2 analytically  !
 ! A59   A(29,28,31)           108.5651         calculate D2E/DX2 analytically  !
 ! A60   A(30,28,31)           110.5049         calculate D2E/DX2 analytically  !
 ! A61   A(33,32,36)           108.6658         calculate D2E/DX2 analytically  !
 ! A62   A(33,32,39)           109.9384         calculate D2E/DX2 analytically  !
 ! A63   A(33,32,45)           106.5869         calculate D2E/DX2 analytically  !
 ! A64   A(36,32,39)           109.2283         calculate D2E/DX2 analytically  !
 ! A65   A(36,32,45)           112.4629         calculate D2E/DX2 analytically  !
 ! A66   A(39,32,45)           109.908          calculate D2E/DX2 analytically  !
 ! A67   A(32,33,34)           111.7871         calculate D2E/DX2 analytically  !
 ! A68   A(32,33,38)           109.9831         calculate D2E/DX2 analytically  !
 ! A69   A(32,33,44)           111.9596         calculate D2E/DX2 analytically  !
 ! A70   A(34,33,38)           103.5431         calculate D2E/DX2 analytically  !
 ! A71   A(34,33,44)           109.7533         calculate D2E/DX2 analytically  !
 ! A72   A(38,33,44)           109.4762         calculate D2E/DX2 analytically  !
 ! A73   A(33,34,37)           115.6242         calculate D2E/DX2 analytically  !
 ! A74   A(33,34,42)           118.2453         calculate D2E/DX2 analytically  !
 ! A75   A(33,34,53)            97.5786         calculate D2E/DX2 analytically  !
 ! A76   A(37,34,42)           112.3704         calculate D2E/DX2 analytically  !
 ! A77   A(37,34,53)            98.8285         calculate D2E/DX2 analytically  !
 ! A78   A(42,34,53)           111.0881         calculate D2E/DX2 analytically  !
 ! A79   A(36,35,40)           107.26           calculate D2E/DX2 analytically  !
 ! A80   A(36,35,42)           114.5127         calculate D2E/DX2 analytically  !
 ! A81   A(36,35,47)           114.1093         calculate D2E/DX2 analytically  !
 ! A82   A(40,35,42)           106.1007         calculate D2E/DX2 analytically  !
 ! A83   A(40,35,47)           107.7994         calculate D2E/DX2 analytically  !
 ! A84   A(42,35,47)           106.6007         calculate D2E/DX2 analytically  !
 ! A85   A(32,36,35)           112.2946         calculate D2E/DX2 analytically  !
 ! A86   A(32,36,41)           108.2257         calculate D2E/DX2 analytically  !
 ! A87   A(32,36,46)           109.5003         calculate D2E/DX2 analytically  !
 ! A88   A(35,36,41)           110.0047         calculate D2E/DX2 analytically  !
 ! A89   A(35,36,46)           105.851          calculate D2E/DX2 analytically  !
 ! A90   A(41,36,46)           110.9808         calculate D2E/DX2 analytically  !
 ! A91   A(34,42,35)           119.0618         calculate D2E/DX2 analytically  !
 ! A92   A(33,44,63)           113.1649         calculate D2E/DX2 analytically  !
 ! A93   A(33,44,91)           114.0761         calculate D2E/DX2 analytically  !
 ! A94   A(63,44,91)           100.9885         calculate D2E/DX2 analytically  !
 ! A95   A(32,45,67)           115.4308         calculate D2E/DX2 analytically  !
 ! A96   A(36,46,71)           115.0496         calculate D2E/DX2 analytically  !
 ! A97   A(35,47,48)           108.6077         calculate D2E/DX2 analytically  !
 ! A98   A(35,47,49)           108.4871         calculate D2E/DX2 analytically  !
 ! A99   A(35,47,50)           109.4619         calculate D2E/DX2 analytically  !
 ! A100  A(48,47,49)           107.9024         calculate D2E/DX2 analytically  !
 ! A101  A(48,47,50)           111.2536         calculate D2E/DX2 analytically  !
 ! A102  A(49,47,50)           111.0483         calculate D2E/DX2 analytically  !
 ! A103  A(47,50,75)           112.4043         calculate D2E/DX2 analytically  !
 ! A104  A(43,51,52)           119.6802         calculate D2E/DX2 analytically  !
 ! A105  A(43,51,53)           106.0101         calculate D2E/DX2 analytically  !
 ! A106  A(43,51,54)           107.933          calculate D2E/DX2 analytically  !
 ! A107  A(52,51,53)           112.1729         calculate D2E/DX2 analytically  !
 ! A108  A(52,51,54)           108.3486         calculate D2E/DX2 analytically  !
 ! A109  A(53,51,54)           101.0398         calculate D2E/DX2 analytically  !
 ! A110  A(34,53,51)           133.3792         calculate D2E/DX2 analytically  !
 ! A111  A(34,53,83)           108.761          calculate D2E/DX2 analytically  !
 ! A112  A(51,53,83)           114.2211         calculate D2E/DX2 analytically  !
 ! A113  A(51,54,55)           118.9776         calculate D2E/DX2 analytically  !
 ! A114  A(51,54,56)           119.0488         calculate D2E/DX2 analytically  !
 ! A115  A(55,54,56)           121.5825         calculate D2E/DX2 analytically  !
 ! A116  A(54,55,57)           118.4926         calculate D2E/DX2 analytically  !
 ! A117  A(54,55,58)           120.6214         calculate D2E/DX2 analytically  !
 ! A118  A(57,55,58)           120.8596         calculate D2E/DX2 analytically  !
 ! A119  A(54,56,59)           118.9028         calculate D2E/DX2 analytically  !
 ! A120  A(54,56,60)           120.0377         calculate D2E/DX2 analytically  !
 ! A121  A(59,56,60)           121.0143         calculate D2E/DX2 analytically  !
 ! A122  A(55,57,61)           120.7628         calculate D2E/DX2 analytically  !
 ! A123  A(55,57,97)           119.8209         calculate D2E/DX2 analytically  !
 ! A124  A(61,57,97)           119.3342         calculate D2E/DX2 analytically  !
 ! A125  A(55,58,84)           148.4253         calculate D2E/DX2 analytically  !
 ! A126  A(56,59,61)           120.494          calculate D2E/DX2 analytically  !
 ! A127  A(56,59,93)           119.5156         calculate D2E/DX2 analytically  !
 ! A128  A(61,59,93)           119.9831         calculate D2E/DX2 analytically  !
 ! A129  A(57,61,59)           119.5409         calculate D2E/DX2 analytically  !
 ! A130  A(57,61,62)           120.2068         calculate D2E/DX2 analytically  !
 ! A131  A(59,61,62)           120.2504         calculate D2E/DX2 analytically  !
 ! A132  A(44,63,64)           107.8907         calculate D2E/DX2 analytically  !
 ! A133  A(44,63,65)           109.6959         calculate D2E/DX2 analytically  !
 ! A134  A(44,63,66)           106.1663         calculate D2E/DX2 analytically  !
 ! A135  A(64,63,65)           111.8496         calculate D2E/DX2 analytically  !
 ! A136  A(64,63,66)           111.6156         calculate D2E/DX2 analytically  !
 ! A137  A(65,63,66)           109.4415         calculate D2E/DX2 analytically  !
 ! A138  A(45,67,68)           112.11           calculate D2E/DX2 analytically  !
 ! A139  A(45,67,69)           111.1968         calculate D2E/DX2 analytically  !
 ! A140  A(45,67,70)           106.4156         calculate D2E/DX2 analytically  !
 ! A141  A(68,67,69)           108.633          calculate D2E/DX2 analytically  !
 ! A142  A(68,67,70)           109.2822         calculate D2E/DX2 analytically  !
 ! A143  A(69,67,70)           109.1409         calculate D2E/DX2 analytically  !
 ! A144  A(46,71,72)           111.1602         calculate D2E/DX2 analytically  !
 ! A145  A(46,71,73)           111.7379         calculate D2E/DX2 analytically  !
 ! A146  A(46,71,74)           106.1174         calculate D2E/DX2 analytically  !
 ! A147  A(72,71,73)           108.7331         calculate D2E/DX2 analytically  !
 ! A148  A(72,71,74)           109.5507         calculate D2E/DX2 analytically  !
 ! A149  A(73,71,74)           109.4973         calculate D2E/DX2 analytically  !
 ! A150  A(50,75,76)           106.9754         calculate D2E/DX2 analytically  !
 ! A151  A(50,75,77)           111.1634         calculate D2E/DX2 analytically  !
 ! A152  A(50,75,78)           111.3203         calculate D2E/DX2 analytically  !
 ! A153  A(76,75,77)           109.205          calculate D2E/DX2 analytically  !
 ! A154  A(76,75,78)           109.3289         calculate D2E/DX2 analytically  !
 ! A155  A(77,75,78)           108.8036         calculate D2E/DX2 analytically  !
 ! A156  A(12,79,80)           106.8038         calculate D2E/DX2 analytically  !
 ! A157  A(12,79,81)           111.5906         calculate D2E/DX2 analytically  !
 ! A158  A(12,79,82)           110.9273         calculate D2E/DX2 analytically  !
 ! A159  A(80,79,81)           109.5103         calculate D2E/DX2 analytically  !
 ! A160  A(80,79,82)           109.2487         calculate D2E/DX2 analytically  !
 ! A161  A(81,79,82)           108.7202         calculate D2E/DX2 analytically  !
 ! A162  A(53,83,84)           106.2722         calculate D2E/DX2 analytically  !
 ! A163  A(58,84,83)            88.5136         calculate D2E/DX2 analytically  !
 ! A164  A(58,84,85)            99.3516         calculate D2E/DX2 analytically  !
 ! A165  A(58,84,89)           109.1194         calculate D2E/DX2 analytically  !
 ! A166  A(83,84,85)           123.1182         calculate D2E/DX2 analytically  !
 ! A167  A(83,84,89)           117.7555         calculate D2E/DX2 analytically  !
 ! A168  A(85,84,89)           112.3485         calculate D2E/DX2 analytically  !
 ! A169  A(84,85,86)           110.5116         calculate D2E/DX2 analytically  !
 ! A170  A(84,85,87)           107.1433         calculate D2E/DX2 analytically  !
 ! A171  A(84,85,88)           110.8115         calculate D2E/DX2 analytically  !
 ! A172  A(86,85,87)           109.4228         calculate D2E/DX2 analytically  !
 ! A173  A(86,85,88)           109.2788         calculate D2E/DX2 analytically  !
 ! A174  A(87,85,88)           109.6395         calculate D2E/DX2 analytically  !
 ! A175  A(84,89,90)           110.4564         calculate D2E/DX2 analytically  !
 ! A176  A(84,89,91)           106.8878         calculate D2E/DX2 analytically  !
 ! A177  A(84,89,92)           110.4167         calculate D2E/DX2 analytically  !
 ! A178  A(90,89,91)           109.6416         calculate D2E/DX2 analytically  !
 ! A179  A(90,89,92)           109.2217         calculate D2E/DX2 analytically  !
 ! A180  A(91,89,92)           110.1932         calculate D2E/DX2 analytically  !
 ! A181  A(44,91,89)           135.2497         calculate D2E/DX2 analytically  !
 ! A182  A(89,92,98)           142.3838         calculate D2E/DX2 analytically  !
 ! A183  A(59,93,94)           111.3213         calculate D2E/DX2 analytically  !
 ! A184  A(59,93,95)           112.0979         calculate D2E/DX2 analytically  !
 ! A185  A(59,93,96)           111.4146         calculate D2E/DX2 analytically  !
 ! A186  A(94,93,95)           107.0942         calculate D2E/DX2 analytically  !
 ! A187  A(94,93,96)           107.5325         calculate D2E/DX2 analytically  !
 ! A188  A(95,93,96)           107.1213         calculate D2E/DX2 analytically  !
 ! A189  A(57,97,98)           111.8185         calculate D2E/DX2 analytically  !
 ! A190  A(57,97,99)           111.7177         calculate D2E/DX2 analytically  !
 ! A191  A(57,97,100)          111.799          calculate D2E/DX2 analytically  !
 ! A192  A(98,97,99)           106.671          calculate D2E/DX2 analytically  !
 ! A193  A(98,97,100)          106.7088         calculate D2E/DX2 analytically  !
 ! A194  A(99,97,100)          107.8237         calculate D2E/DX2 analytically  !
 ! A195  A(92,98,97)           108.5216         calculate D2E/DX2 analytically  !
 ! A196  L(18,37,34,27,-1)     181.5588         calculate D2E/DX2 analytically  !
 ! A197  L(18,37,34,27,-2)     187.4398         calculate D2E/DX2 analytically  !
 ! D1    D(5,1,2,3)            -50.0751         calculate D2E/DX2 analytically  !
 ! D2    D(5,1,2,7)             66.7879         calculate D2E/DX2 analytically  !
 ! D3    D(5,1,2,13)          -173.9734         calculate D2E/DX2 analytically  !
 ! D4    D(8,1,2,3)             69.0421         calculate D2E/DX2 analytically  !
 ! D5    D(8,1,2,7)           -174.0949         calculate D2E/DX2 analytically  !
 ! D6    D(8,1,2,13)           -54.8562         calculate D2E/DX2 analytically  !
 ! D7    D(14,1,2,3)          -170.1642         calculate D2E/DX2 analytically  !
 ! D8    D(14,1,2,7)           -53.3012         calculate D2E/DX2 analytically  !
 ! D9    D(14,1,2,13)           65.9375         calculate D2E/DX2 analytically  !
 ! D10   D(2,1,5,4)             42.7388         calculate D2E/DX2 analytically  !
 ! D11   D(2,1,5,10)           -77.9157         calculate D2E/DX2 analytically  !
 ! D12   D(2,1,5,15)           164.3657         calculate D2E/DX2 analytically  !
 ! D13   D(8,1,5,4)            -76.7019         calculate D2E/DX2 analytically  !
 ! D14   D(8,1,5,10)           162.6435         calculate D2E/DX2 analytically  !
 ! D15   D(8,1,5,15)            44.9249         calculate D2E/DX2 analytically  !
 ! D16   D(14,1,5,4)           164.9012         calculate D2E/DX2 analytically  !
 ! D17   D(14,1,5,10)           44.2467         calculate D2E/DX2 analytically  !
 ! D18   D(14,1,5,15)          -73.472          calculate D2E/DX2 analytically  !
 ! D19   D(2,1,14,24)          -99.2107         calculate D2E/DX2 analytically  !
 ! D20   D(5,1,14,24)          137.1687         calculate D2E/DX2 analytically  !
 ! D21   D(8,1,14,24)           20.4181         calculate D2E/DX2 analytically  !
 ! D22   D(1,2,3,6)            173.6267         calculate D2E/DX2 analytically  !
 ! D23   D(1,2,3,11)            58.4937         calculate D2E/DX2 analytically  !
 ! D24   D(1,2,3,12)           -65.8316         calculate D2E/DX2 analytically  !
 ! D25   D(7,2,3,6)             55.5779         calculate D2E/DX2 analytically  !
 ! D26   D(7,2,3,11)           -59.5551         calculate D2E/DX2 analytically  !
 ! D27   D(7,2,3,12)           176.1196         calculate D2E/DX2 analytically  !
 ! D28   D(13,2,3,6)           -65.7318         calculate D2E/DX2 analytically  !
 ! D29   D(13,2,3,11)          179.1353         calculate D2E/DX2 analytically  !
 ! D30   D(13,2,3,12)           54.8099         calculate D2E/DX2 analytically  !
 ! D31   D(1,2,13,20)         -167.1191         calculate D2E/DX2 analytically  !
 ! D32   D(3,2,13,20)           71.2223         calculate D2E/DX2 analytically  !
 ! D33   D(7,2,13,20)          -48.4795         calculate D2E/DX2 analytically  !
 ! D34   D(2,3,11,4)           -62.3591         calculate D2E/DX2 analytically  !
 ! D35   D(6,3,11,4)           178.0772         calculate D2E/DX2 analytically  !
 ! D36   D(12,3,11,4)           58.6086         calculate D2E/DX2 analytically  !
 ! D37   D(2,3,12,79)         -175.623          calculate D2E/DX2 analytically  !
 ! D38   D(6,3,12,79)          -53.9644         calculate D2E/DX2 analytically  !
 ! D39   D(11,3,12,79)          62.4522         calculate D2E/DX2 analytically  !
 ! D40   D(9,4,5,1)             78.5166         calculate D2E/DX2 analytically  !
 ! D41   D(9,4,5,10)          -161.5251         calculate D2E/DX2 analytically  !
 ! D42   D(9,4,5,15)           -39.7779         calculate D2E/DX2 analytically  !
 ! D43   D(11,4,5,1)           -41.6273         calculate D2E/DX2 analytically  !
 ! D44   D(11,4,5,10)           78.3309         calculate D2E/DX2 analytically  !
 ! D45   D(11,4,5,15)         -159.9218         calculate D2E/DX2 analytically  !
 ! D46   D(16,4,5,1)          -159.1239         calculate D2E/DX2 analytically  !
 ! D47   D(16,4,5,10)          -39.1656         calculate D2E/DX2 analytically  !
 ! D48   D(16,4,5,15)           82.5816         calculate D2E/DX2 analytically  !
 ! D49   D(5,4,11,3)            53.4265         calculate D2E/DX2 analytically  !
 ! D50   D(9,4,11,3)           -65.6694         calculate D2E/DX2 analytically  !
 ! D51   D(16,4,11,3)          176.8832         calculate D2E/DX2 analytically  !
 ! D52   D(5,4,16,17)          176.324          calculate D2E/DX2 analytically  !
 ! D53   D(5,4,16,18)           69.3305         calculate D2E/DX2 analytically  !
 ! D54   D(5,4,16,19)          -56.313          calculate D2E/DX2 analytically  !
 ! D55   D(9,4,16,17)          -62.5377         calculate D2E/DX2 analytically  !
 ! D56   D(9,4,16,18)         -169.5312         calculate D2E/DX2 analytically  !
 ! D57   D(9,4,16,19)           64.8253         calculate D2E/DX2 analytically  !
 ! D58   D(11,4,16,17)          54.5999         calculate D2E/DX2 analytically  !
 ! D59   D(11,4,16,18)         -52.3936         calculate D2E/DX2 analytically  !
 ! D60   D(11,4,16,19)        -178.037          calculate D2E/DX2 analytically  !
 ! D61   D(1,5,15,28)          129.0901         calculate D2E/DX2 analytically  !
 ! D62   D(4,5,15,28)         -107.5755         calculate D2E/DX2 analytically  !
 ! D63   D(10,5,15,28)          13.2676         calculate D2E/DX2 analytically  !
 ! D64   D(3,12,79,80)         176.3329         calculate D2E/DX2 analytically  !
 ! D65   D(3,12,79,81)         -64.0167         calculate D2E/DX2 analytically  !
 ! D66   D(3,12,79,82)          57.3743         calculate D2E/DX2 analytically  !
 ! D67   D(2,13,20,21)         -69.6749         calculate D2E/DX2 analytically  !
 ! D68   D(2,13,20,22)          52.3828         calculate D2E/DX2 analytically  !
 ! D69   D(2,13,20,23)         171.371          calculate D2E/DX2 analytically  !
 ! D70   D(1,14,24,25)         -59.1263         calculate D2E/DX2 analytically  !
 ! D71   D(1,14,24,26)          62.8969         calculate D2E/DX2 analytically  !
 ! D72   D(1,14,24,27)        -177.6011         calculate D2E/DX2 analytically  !
 ! D73   D(5,15,28,29)         -59.0703         calculate D2E/DX2 analytically  !
 ! D74   D(5,15,28,30)          63.1955         calculate D2E/DX2 analytically  !
 ! D75   D(5,15,28,31)        -177.0681         calculate D2E/DX2 analytically  !
 ! D76   D(4,16,18,37)        -126.3166         calculate D2E/DX2 analytically  !
 ! D77   D(17,16,18,37)        125.5598         calculate D2E/DX2 analytically  !
 ! D78   D(19,16,18,37)          0.6066         calculate D2E/DX2 analytically  !
 ! D79   D(16,18,34,33)        -45.14           calculate D2E/DX2 analytically  !
 ! D80   D(16,18,34,42)         91.922          calculate D2E/DX2 analytically  !
 ! D81   D(16,18,34,53)       -148.3845         calculate D2E/DX2 analytically  !
 ! D82   D(36,32,33,34)        -51.9638         calculate D2E/DX2 analytically  !
 ! D83   D(36,32,33,38)         62.4734         calculate D2E/DX2 analytically  !
 ! D84   D(36,32,33,44)       -175.5786         calculate D2E/DX2 analytically  !
 ! D85   D(39,32,33,34)         67.5297         calculate D2E/DX2 analytically  !
 ! D86   D(39,32,33,38)       -178.033          calculate D2E/DX2 analytically  !
 ! D87   D(39,32,33,44)        -56.085          calculate D2E/DX2 analytically  !
 ! D88   D(45,32,33,34)       -173.3922         calculate D2E/DX2 analytically  !
 ! D89   D(45,32,33,38)        -58.955          calculate D2E/DX2 analytically  !
 ! D90   D(45,32,33,44)         62.993          calculate D2E/DX2 analytically  !
 ! D91   D(33,32,36,35)         51.0659         calculate D2E/DX2 analytically  !
 ! D92   D(33,32,36,41)        -70.5537         calculate D2E/DX2 analytically  !
 ! D93   D(33,32,36,46)        168.3476         calculate D2E/DX2 analytically  !
 ! D94   D(39,32,36,35)        -68.8703         calculate D2E/DX2 analytically  !
 ! D95   D(39,32,36,41)        169.51           calculate D2E/DX2 analytically  !
 ! D96   D(39,32,36,46)         48.4114         calculate D2E/DX2 analytically  !
 ! D97   D(45,32,36,35)        168.8233         calculate D2E/DX2 analytically  !
 ! D98   D(45,32,36,41)         47.2037         calculate D2E/DX2 analytically  !
 ! D99   D(45,32,36,46)        -73.8949         calculate D2E/DX2 analytically  !
 ! D100  D(33,32,45,67)       -158.6128         calculate D2E/DX2 analytically  !
 ! D101  D(36,32,45,67)         82.4065         calculate D2E/DX2 analytically  !
 ! D102  D(39,32,45,67)        -39.5149         calculate D2E/DX2 analytically  !
 ! D103  D(32,33,34,37)       -174.217          calculate D2E/DX2 analytically  !
 ! D104  D(32,33,34,42)         48.3209         calculate D2E/DX2 analytically  !
 ! D105  D(32,33,34,53)        -70.5939         calculate D2E/DX2 analytically  !
 ! D106  D(38,33,34,37)         67.4342         calculate D2E/DX2 analytically  !
 ! D107  D(38,33,34,42)        -70.0279         calculate D2E/DX2 analytically  !
 ! D108  D(38,33,34,53)        171.0572         calculate D2E/DX2 analytically  !
 ! D109  D(44,33,34,37)        -49.3667         calculate D2E/DX2 analytically  !
 ! D110  D(44,33,34,42)        173.1712         calculate D2E/DX2 analytically  !
 ! D111  D(44,33,34,53)         54.2563         calculate D2E/DX2 analytically  !
 ! D112  D(32,33,44,63)       -113.7964         calculate D2E/DX2 analytically  !
 ! D113  D(32,33,44,91)          0.9288         calculate D2E/DX2 analytically  !
 ! D114  D(34,33,44,63)        121.4529         calculate D2E/DX2 analytically  !
 ! D115  D(34,33,44,91)       -123.8219         calculate D2E/DX2 analytically  !
 ! D116  D(38,33,44,63)          8.4414         calculate D2E/DX2 analytically  !
 ! D117  D(38,33,44,91)        123.1667         calculate D2E/DX2 analytically  !
 ! D118  D(33,34,42,35)        -40.5971         calculate D2E/DX2 analytically  !
 ! D119  D(37,34,42,35)       -179.3586         calculate D2E/DX2 analytically  !
 ! D120  D(53,34,42,35)         70.972          calculate D2E/DX2 analytically  !
 ! D121  D(33,34,53,51)        144.1092         calculate D2E/DX2 analytically  !
 ! D122  D(33,34,53,83)        -59.3845         calculate D2E/DX2 analytically  !
 ! D123  D(37,34,53,51)        -98.3634         calculate D2E/DX2 analytically  !
 ! D124  D(37,34,53,83)         58.1429         calculate D2E/DX2 analytically  !
 ! D125  D(42,34,53,51)         19.8462         calculate D2E/DX2 analytically  !
 ! D126  D(42,34,53,83)        176.3524         calculate D2E/DX2 analytically  !
 ! D127  D(40,35,36,32)         73.9125         calculate D2E/DX2 analytically  !
 ! D128  D(40,35,36,41)       -165.4896         calculate D2E/DX2 analytically  !
 ! D129  D(40,35,36,46)        -45.5242         calculate D2E/DX2 analytically  !
 ! D130  D(42,35,36,32)        -43.5293         calculate D2E/DX2 analytically  !
 ! D131  D(42,35,36,41)         77.0686         calculate D2E/DX2 analytically  !
 ! D132  D(42,35,36,46)       -162.966          calculate D2E/DX2 analytically  !
 ! D133  D(47,35,36,32)       -166.7643         calculate D2E/DX2 analytically  !
 ! D134  D(47,35,36,41)        -46.1664         calculate D2E/DX2 analytically  !
 ! D135  D(47,35,36,46)         73.799          calculate D2E/DX2 analytically  !
 ! D136  D(36,35,42,34)         37.917          calculate D2E/DX2 analytically  !
 ! D137  D(40,35,42,34)        -80.1844         calculate D2E/DX2 analytically  !
 ! D138  D(47,35,42,34)        165.1036         calculate D2E/DX2 analytically  !
 ! D139  D(36,35,47,48)        -71.3263         calculate D2E/DX2 analytically  !
 ! D140  D(36,35,47,49)        171.6364         calculate D2E/DX2 analytically  !
 ! D141  D(36,35,47,50)         50.3179         calculate D2E/DX2 analytically  !
 ! D142  D(40,35,47,48)         47.6916         calculate D2E/DX2 analytically  !
 ! D143  D(40,35,47,49)        -69.3457         calculate D2E/DX2 analytically  !
 ! D144  D(40,35,47,50)        169.3358         calculate D2E/DX2 analytically  !
 ! D145  D(42,35,47,48)        161.248          calculate D2E/DX2 analytically  !
 ! D146  D(42,35,47,49)         44.2107         calculate D2E/DX2 analytically  !
 ! D147  D(42,35,47,50)        -77.1077         calculate D2E/DX2 analytically  !
 ! D148  D(32,36,46,71)        132.0007         calculate D2E/DX2 analytically  !
 ! D149  D(35,36,46,71)       -106.7401         calculate D2E/DX2 analytically  !
 ! D150  D(41,36,46,71)         12.5843         calculate D2E/DX2 analytically  !
 ! D151  D(33,44,63,64)        -52.8405         calculate D2E/DX2 analytically  !
 ! D152  D(33,44,63,65)         69.2286         calculate D2E/DX2 analytically  !
 ! D153  D(33,44,63,66)       -172.6166         calculate D2E/DX2 analytically  !
 ! D154  D(91,44,63,64)       -175.1908         calculate D2E/DX2 analytically  !
 ! D155  D(91,44,63,65)        -53.1216         calculate D2E/DX2 analytically  !
 ! D156  D(91,44,63,66)         65.0331         calculate D2E/DX2 analytically  !
 ! D157  D(33,44,91,89)        139.607          calculate D2E/DX2 analytically  !
 ! D158  D(63,44,91,89)        -98.6797         calculate D2E/DX2 analytically  !
 ! D159  D(32,45,67,68)        -76.5567         calculate D2E/DX2 analytically  !
 ! D160  D(32,45,67,69)         45.2761         calculate D2E/DX2 analytically  !
 ! D161  D(32,45,67,70)        164.0193         calculate D2E/DX2 analytically  !
 ! D162  D(36,46,71,72)        -70.2428         calculate D2E/DX2 analytically  !
 ! D163  D(36,46,71,73)         51.4306         calculate D2E/DX2 analytically  !
 ! D164  D(36,46,71,74)        170.7206         calculate D2E/DX2 analytically  !
 ! D165  D(35,47,50,75)        174.4995         calculate D2E/DX2 analytically  !
 ! D166  D(48,47,50,75)        -65.4632         calculate D2E/DX2 analytically  !
 ! D167  D(49,47,50,75)         54.7415         calculate D2E/DX2 analytically  !
 ! D168  D(47,50,75,76)        179.3245         calculate D2E/DX2 analytically  !
 ! D169  D(47,50,75,77)        -61.5328         calculate D2E/DX2 analytically  !
 ! D170  D(47,50,75,78)         59.9422         calculate D2E/DX2 analytically  !
 ! D171  D(43,51,53,34)        147.2837         calculate D2E/DX2 analytically  !
 ! D172  D(43,51,53,83)         -8.266          calculate D2E/DX2 analytically  !
 ! D173  D(52,51,53,34)         14.968          calculate D2E/DX2 analytically  !
 ! D174  D(52,51,53,83)       -140.5816         calculate D2E/DX2 analytically  !
 ! D175  D(54,51,53,34)       -100.2369         calculate D2E/DX2 analytically  !
 ! D176  D(54,51,53,83)        104.2134         calculate D2E/DX2 analytically  !
 ! D177  D(43,51,54,55)         45.1574         calculate D2E/DX2 analytically  !
 ! D178  D(43,51,54,56)       -141.9051         calculate D2E/DX2 analytically  !
 ! D179  D(52,51,54,55)        176.1267         calculate D2E/DX2 analytically  !
 ! D180  D(52,51,54,56)        -10.9358         calculate D2E/DX2 analytically  !
 ! D181  D(53,51,54,55)        -65.8505         calculate D2E/DX2 analytically  !
 ! D182  D(53,51,54,56)        107.087          calculate D2E/DX2 analytically  !
 ! D183  D(34,53,83,84)        120.9489         calculate D2E/DX2 analytically  !
 ! D184  D(51,53,83,84)        -77.576          calculate D2E/DX2 analytically  !
 ! D185  D(51,54,55,57)        172.3591         calculate D2E/DX2 analytically  !
 ! D186  D(51,54,55,58)         -5.7867         calculate D2E/DX2 analytically  !
 ! D187  D(56,54,55,57)         -0.3924         calculate D2E/DX2 analytically  !
 ! D188  D(56,54,55,58)       -178.5383         calculate D2E/DX2 analytically  !
 ! D189  D(51,54,56,59)       -168.4554         calculate D2E/DX2 analytically  !
 ! D190  D(51,54,56,60)          9.1246         calculate D2E/DX2 analytically  !
 ! D191  D(55,54,56,59)          4.2911         calculate D2E/DX2 analytically  !
 ! D192  D(55,54,56,60)       -178.1289         calculate D2E/DX2 analytically  !
 ! D193  D(54,55,57,61)         -3.2689         calculate D2E/DX2 analytically  !
 ! D194  D(54,55,57,97)       -179.9521         calculate D2E/DX2 analytically  !
 ! D195  D(58,55,57,61)        174.8724         calculate D2E/DX2 analytically  !
 ! D196  D(58,55,57,97)         -1.8108         calculate D2E/DX2 analytically  !
 ! D197  D(54,55,58,84)         97.7016         calculate D2E/DX2 analytically  !
 ! D198  D(57,55,58,84)        -80.4            calculate D2E/DX2 analytically  !
 ! D199  D(54,56,59,61)         -4.5943         calculate D2E/DX2 analytically  !
 ! D200  D(54,56,59,93)        174.426          calculate D2E/DX2 analytically  !
 ! D201  D(60,56,59,61)        177.8502         calculate D2E/DX2 analytically  !
 ! D202  D(60,56,59,93)         -3.1295         calculate D2E/DX2 analytically  !
 ! D203  D(55,57,61,59)          2.9589         calculate D2E/DX2 analytically  !
 ! D204  D(55,57,61,62)       -176.531          calculate D2E/DX2 analytically  !
 ! D205  D(97,57,61,59)        179.6581         calculate D2E/DX2 analytically  !
 ! D206  D(97,57,61,62)          0.1682         calculate D2E/DX2 analytically  !
 ! D207  D(55,57,97,98)         90.3659         calculate D2E/DX2 analytically  !
 ! D208  D(55,57,97,99)        -29.1116         calculate D2E/DX2 analytically  !
 ! D209  D(55,57,97,100)      -150.0525         calculate D2E/DX2 analytically  !
 ! D210  D(61,57,97,98)        -86.3649         calculate D2E/DX2 analytically  !
 ! D211  D(61,57,97,99)        154.1576         calculate D2E/DX2 analytically  !
 ! D212  D(61,57,97,100)        33.2167         calculate D2E/DX2 analytically  !
 ! D213  D(55,58,84,83)        -84.8391         calculate D2E/DX2 analytically  !
 ! D214  D(55,58,84,85)        151.8185         calculate D2E/DX2 analytically  !
 ! D215  D(55,58,84,89)         34.1117         calculate D2E/DX2 analytically  !
 ! D216  D(56,59,61,57)          1.0436         calculate D2E/DX2 analytically  !
 ! D217  D(56,59,61,62)       -179.4666         calculate D2E/DX2 analytically  !
 ! D218  D(93,59,61,57)       -177.9721         calculate D2E/DX2 analytically  !
 ! D219  D(93,59,61,62)          1.5176         calculate D2E/DX2 analytically  !
 ! D220  D(56,59,93,94)       -146.7307         calculate D2E/DX2 analytically  !
 ! D221  D(56,59,93,95)         93.3334         calculate D2E/DX2 analytically  !
 ! D222  D(56,59,93,96)        -26.7018         calculate D2E/DX2 analytically  !
 ! D223  D(61,59,93,94)         32.2947         calculate D2E/DX2 analytically  !
 ! D224  D(61,59,93,95)        -87.6412         calculate D2E/DX2 analytically  !
 ! D225  D(61,59,93,96)        152.3236         calculate D2E/DX2 analytically  !
 ! D226  D(53,83,84,58)         26.5432         calculate D2E/DX2 analytically  !
 ! D227  D(53,83,84,85)        126.7469         calculate D2E/DX2 analytically  !
 ! D228  D(53,83,84,89)        -84.3478         calculate D2E/DX2 analytically  !
 ! D229  D(58,84,85,86)        -55.5666         calculate D2E/DX2 analytically  !
 ! D230  D(58,84,85,87)         63.5742         calculate D2E/DX2 analytically  !
 ! D231  D(58,84,85,88)       -176.8532         calculate D2E/DX2 analytically  !
 ! D232  D(83,84,85,86)       -149.9276         calculate D2E/DX2 analytically  !
 ! D233  D(83,84,85,87)        -30.7868         calculate D2E/DX2 analytically  !
 ! D234  D(83,84,85,88)         88.7858         calculate D2E/DX2 analytically  !
 ! D235  D(89,84,85,86)         59.6861         calculate D2E/DX2 analytically  !
 ! D236  D(89,84,85,87)        178.8269         calculate D2E/DX2 analytically  !
 ! D237  D(89,84,85,88)        -61.6005         calculate D2E/DX2 analytically  !
 ! D238  D(58,84,89,90)        168.7877         calculate D2E/DX2 analytically  !
 ! D239  D(58,84,89,91)        -71.9917         calculate D2E/DX2 analytically  !
 ! D240  D(58,84,89,92)         47.8715         calculate D2E/DX2 analytically  !
 ! D241  D(83,84,89,90)        -92.5039         calculate D2E/DX2 analytically  !
 ! D242  D(83,84,89,91)         26.7167         calculate D2E/DX2 analytically  !
 ! D243  D(83,84,89,92)        146.5799         calculate D2E/DX2 analytically  !
 ! D244  D(85,84,89,90)         59.6121         calculate D2E/DX2 analytically  !
 ! D245  D(85,84,89,91)        178.8327         calculate D2E/DX2 analytically  !
 ! D246  D(85,84,89,92)        -61.3041         calculate D2E/DX2 analytically  !
 ! D247  D(84,89,91,44)        -32.6638         calculate D2E/DX2 analytically  !
 ! D248  D(90,89,91,44)         87.0827         calculate D2E/DX2 analytically  !
 ! D249  D(92,89,91,44)       -152.6705         calculate D2E/DX2 analytically  !
 ! D250  D(84,89,92,98)        -76.8348         calculate D2E/DX2 analytically  !
 ! D251  D(90,89,92,98)        161.5158         calculate D2E/DX2 analytically  !
 ! D252  D(91,89,92,98)         41.0163         calculate D2E/DX2 analytically  !
 ! D253  D(89,92,98,97)         77.3286         calculate D2E/DX2 analytically  !
 ! D254  D(57,97,98,92)        -89.047          calculate D2E/DX2 analytically  !
 ! D255  D(99,97,98,92)         33.3623         calculate D2E/DX2 analytically  !
 ! D256  D(100,97,98,92)       148.4179         calculate D2E/DX2 analytically  !
 --------------------------------------------------------------------------------
 Trust Radius=5.00D-02 FncErr=1.00D-07 GrdErr=1.00D-06 EigMax=2.50D+02 EigMin=1.00D-04
 Number of steps in this run=    568 maximum allowed number of steps=    600.
 Search for a saddle point of order  1.
 Step   0 in ReCalcFC=30 IGetFC= 4 compute analytic Hessian.
 GradGradGradGradGradGradGradGradGradGradGradGradGradGradGradGradGradGrad

 Leave Link  103 at Thu May 30 18:50:07 2019, MaxMem=  6442450944 cpu:               3.9 elap:               0.2
 (Enter /home/ekwan/sw/g16/l202.exe)
 Stoichiometry    C30H47F6NaO15S
 Framework group  C1[X(C30H47F6NaO15S)]
 Deg. of freedom   294
 Full point group                 C1      NOp   1
 Largest Abelian subgroup         C1      NOp   1
 Largest concise Abelian subgroup C1      NOp   1
                         Standard orientation:                         
 ---------------------------------------------------------------------
 Center     Atomic      Atomic             Coordinates (Angstroms)
 Number     Number       Type             X           Y           Z
 ---------------------------------------------------------------------
      1          6           0        6.080535    0.907215   -0.308023
      2          6           0        6.628438   -0.103137   -1.308212
      3          6           0        6.691567   -1.491598   -0.658498
      4          6           0        4.799037   -1.037699    0.785430
      5          6           0        4.782386    0.443910    0.363393
      6          1           0        6.976078   -2.264621   -1.387283
      7          1           0        5.933437   -0.176402   -2.159432
      8          1           0        6.829558    1.049862    0.479893
      9          1           0        5.374600   -1.113127    1.716965
     10          1           0        3.962458    0.600578   -0.352846
     11          8           0        5.409888   -1.871667   -0.228602
     12          8           0        7.642418   -1.443682    0.376705
     13          8           0        7.890706    0.366582   -1.754969
     14          8           0        5.799118    2.149852   -0.949266
     15          8           0        4.623747    1.295678    1.494257
     16          6           0        3.388908   -1.657687    0.982767
     17          1           0        3.590571   -2.738195    1.215196
     18          1           0        2.982865   -1.699143   -0.082253
     19          8           0        2.580618   -1.035548    1.861144
     20          6           0        8.392854   -0.310719   -2.893116
     21          1           0        8.687858   -1.344632   -2.666251
     22          1           0        7.654261   -0.327384   -3.708639
     23          1           0        9.277326    0.239020   -3.224691
     24          6           0        6.804109    3.135544   -0.784368
     25          1           0        6.969414    3.360858    0.279664
     26          1           0        7.754250    2.826634   -1.234915
     27          1           0        6.443636    4.040086   -1.283597
     28          6           0        3.348207    1.913537    1.603483
     29          1           0        3.129719    2.526703    0.717153
     30          1           0        2.576721    1.153586    1.736396
     31          1           0        3.394806    2.569956    2.478643
     32          6           0       -1.617677   -0.124829    1.759999
     33          6           0       -0.258421   -0.793047    1.581381
     34          6           0        0.448030   -0.303529    0.339331
     35          6           0       -0.647363    1.818624    0.420628
     36          6           0       -1.432304    1.395257    1.675107
     37          1           0        1.371195   -0.805382    0.099838
     38          1           0        0.412646   -0.496623    2.391039
     39          1           0       -2.301999   -0.450405    0.966094
     40          1           0       -1.314737    1.707404   -0.430234
     41          1           0       -0.906068    1.726717    2.575592
     42          8           0        0.515022    0.996774    0.131064
     43          8           0       -1.237046   -1.901214   -3.030076
     44          8           0       -0.363033   -2.208622    1.547522
     45          8           0       -2.109642   -0.540185    3.020819
     46          8           0       -2.706257    2.024550    1.567891
     47          6           0       -0.166418    3.254231    0.447134
     48          1           0       -1.035173    3.917713    0.325341
     49          1           0        0.503435    3.413484   -0.410418
     50          8           0        0.501675    3.504164    1.665803
     51         16           0       -1.114347   -0.655124   -2.255519
     52          8           0       -0.361626    0.471710   -2.809610
     53          8           0       -0.591051   -1.076835   -0.837082
     54          6           0       -2.767912   -0.087831   -1.856767
     55          6           0       -3.703179   -1.009113   -1.386747
     56          6           0       -3.038420    1.275957   -1.882525
     57          6           0       -4.930943   -0.534946   -0.927633
     58          1           0       -3.467152   -2.066531   -1.351637
     59          6           0       -4.239170    1.735050   -1.343005
     60          1           0       -2.305484    1.966579   -2.280917
     61          6           0       -5.192667    0.835670   -0.874602
     62          1           0       -6.128047    1.196490   -0.464017
     63          6           0        0.264156   -2.850922    2.675986
     64          1           0        1.294301   -2.480176    2.745098
     65          1           0       -0.307153   -2.638929    3.585754
     66          1           0        0.235374   -3.924395    2.470009
     67          6           0       -3.519009   -0.436034    3.191569
     68          1           0       -3.837590    0.596404    3.366957
     69          1           0       -4.053924   -0.823821    2.316953
     70          1           0       -3.770238   -1.044454    4.064132
     71          6           0       -2.912303    3.123077    2.450358
     72          1           0       -3.004342    2.783896    3.490830
     73          1           0       -2.096235    3.851860    2.388640
     74          1           0       -3.845568    3.593652    2.135655
     75          6           0        1.087370    4.794791    1.706202
     76          1           0        1.565193    4.897587    2.682504
     77          1           0        1.845209    4.911484    0.918668
     78          1           0        0.328514    5.582264    1.587512
     79          6           0        7.860173   -2.707072    0.990939
     80          1           0        8.655699   -2.567781    1.726142
     81          1           0        6.957179   -3.072193    1.493446
     82          1           0        8.178459   -3.454858    0.249448
     83         11           0       -0.542645   -3.326400   -0.490187
     84          8           0       -2.726776   -3.963906   -0.061964
     85          6           0       -3.389623   -5.003830   -0.778216
     86          1           0       -4.466911   -4.809605   -0.827739
     87          1           0       -2.975421   -5.013290   -1.788845
     88          1           0       -3.218347   -5.977428   -0.300009
     89          6           0       -3.207344   -3.835287    1.278574
     90          1           0       -3.057085   -4.772215    1.831799
     91          1           0       -2.630963   -3.037089    1.746371
     92          1           0       -4.272824   -3.582802    1.279823
     93          6           0       -4.491572    3.215833   -1.248708
     94          9           0       -5.229874    3.519915   -0.158752
     95          9           0       -5.158606    3.686844   -2.323896
     96          9           0       -3.334368    3.909292   -1.163119
     97          6           0       -5.961781   -1.502744   -0.412866
     98          9           0       -5.835564   -1.711390    0.923863
     99          9           0       -5.852628   -2.711257   -1.005616
    100          9           0       -7.214620   -1.054762   -0.618094
 ---------------------------------------------------------------------
 Rotational constants (GHZ):           0.0792731           0.0292276           0.0258311
 Leave Link  202 at Thu May 30 18:50:07 2019, MaxMem=  6442450944 cpu:               4.3 elap:               0.2
 (Enter /home/ekwan/sw/g16/l301.exe)
 Standard basis: 6-31G(d) (6D, 7F)
 Ernie: Thresh=  0.10000D-02 Tol=  0.10000D-05 Strict=F.
 There are   897 symmetry adapted cartesian basis functions of A   symmetry.
 There are   897 symmetry adapted basis functions of A   symmetry.
   897 basis functions,  1720 primitive gaussians,   897 cartesian basis functions
   214 alpha electrons      214 beta electrons
       nuclear repulsion energy      9346.2431114864 Hartrees.
 IExCor=  402 DFT=T Ex+Corr=B3LYP ExCW=0 ScaHFX=  0.200000
 ScaDFX=  0.800000  0.720000  1.000000  0.810000 ScalE2=  1.000000  1.000000
 IRadAn=      5 IRanWt=     -1 IRanGd=            0 ICorTp=0 IEmpDi=141
 NAtoms=  100 NActive=  100 NUniq=  100 SFac= 1.00D+00 NAtFMM=   60 NAOKFM=T Big=T
 Integral buffers will be    131072 words long.
 Raffenetti 2 integral format.
 Two-electron integral symmetry is turned on.
 R6Disp:  Grimme-D3(BJ) Dispersion energy=       -0.2290667755 Hartrees.
 Nuclear repulsion after empirical dispersion term =     9346.0140447109 Hartrees.
 Force inversion solution in PCM.
 ------------------------------------------------------------------------------
 Polarizable Continuum Model (PCM)
 =================================
 Model                : PCM.
 Atomic radii         : UFF (Universal Force Field).
 Polarization charges : Total charges.
 Charge compensation  : None.
 Solution method      : Matrix inversion.
 Cavity type          : Scaled VdW (van der Waals Surface) (Alpha=1.100).
 Cavity algorithm     : GePol (No added spheres)
                        Default sphere list used, NSphG=  100.
                        Lebedev-Laikov grids with approx.  5.0 points / Ang**2.
                        Smoothing algorithm: York/Karplus (Gamma=1.0000).
                        Polarization charges: spherical gaussians, with
                                              point-specific exponents (IZeta= 3).
                        Self-potential: point-specific (ISelfS= 7).
                        Self-field    : sphere-specific E.n sum rule (ISelfD= 2).
 1st derivatives      : Analytical E(r).r(x)/FMM algorithm (CHGder, D1EAlg=3).
                        Cavity 1st derivative terms included.
 2nd derivatives      : Analytical E(r).r(xy)/FMM algorithm (CHGder, D2EAlg=3).
                        Cavity 2nd derivative terms included.
 Solvent              : TetraHydroFuran, Eps=   7.425700 Eps(inf)=   1.974025
 ------------------------------------------------------------------------------
 GePol: Number of generator spheres                  =     100
 GePol: Total number of spheres                      =     100
 GePol: Number of exposed spheres                    =     100 (100.00%)
 GePol: Number of points                             =    6180
 GePol: Average weight of points                     =       0.12
[...]
 950,0.00035187,-0.00007696,-0.00028824,0.00005421,-0.00024599,-0.00012
 631,-0.00012200,-0.00028511,0.00011084,0.00016523,0.00002217,0.0000008
 4,0.00002339,-0.00000627,-0.00002978,-0.00001470,0.00000109,-0.0001688
 1,-0.00018522,-0.00009662,0.00241180,-0.00175970,-0.00065977,-0.000863
 35,0.00010121,0.00034499,-0.00093582,0.00052374,-0.00062576,-0.0005121
 5,-0.00006722,0.00124630,0.00291688,-0.00138998,-0.00066810,-0.0004029
 0,-0.00040958,-0.00005639,-0.00056485,-0.04341715,-0.01911085,-0.00194
 726,-0.00014681,-0.00004123,0.00098521,-0.00229667,0.00085294,-0.00008
 852,0.00009328,-0.00015929,-0.00789232,-0.00063002,0.00189973,0.000124
 31,0.00085787,-0.00041320,0.00004459,-0.00007543,0.00006212,-0.0000150
 7,-0.00001287,0.00000192,-0.00000834,-0.00000647,-0.00001239,-0.000015
 57,0.00004066,-0.00000306,0.00027045,0.00011052,0.00034323,-0.00001028
 ,-0.00001207,-0.00002229,0.00017959,-0.00006197,0.00001401,-0.00001889
 ,0.00000300,-0.00009742,-0.00004174,0.00020364,0.00017283,0.00000630,-
 0.00001108,-0.00005906,-0.00002771,-0.00004091,-0.00001215,0.00000564,
 0.00002279,0.00002666,0.00006342,0.00012217,-0.00001287,-0.00001346,-0
 .00002069,-0.00001405,-0.00001273,-0.00001563,0.00001369,0.00000241,-0
 .00001755,0.00000605,0.00000468,-0.00001697,0.00000373,-0.00000050,0.0
 0000092,-0.00000085,0.00000142,-0.00000052,-0.00000084,-0.00000185,0.0
 0000316,0.00000270,-0.00032149,-0.00037754,0.00006670,0.00069937,0.000
 62012,0.00046921,-0.00296465,-0.00117529,-0.00017094,0.00224775,0.0002
 4466,0.00024084,0.00032533,0.00001905,-0.00006155,0.00091927,-0.000220
 99,0.00009984,-0.00079782,0.00037657,-0.00047677,0.00016886,-0.0000947
 7,0.00011331,0.00017922,-0.00009046,0.00010753,0.00040551,-0.00052672,
 -0.00061584,-0.00100134,0.00244407,0.00036155,0.00023021,-0.00059784,-
 0.00024286,0.00051092,-0.00082619,0.00047741,-0.00038917,-0.00102366,-
 0.00010960,-0.01021935,-0.23559054,-0.06065110,-0.00069115,-0.00038121
 ,-0.03503325,-0.02359710,0.32287760,0.00000049,0.00000015,-0.00000353,
 -0.00000315,-0.00000147,-0.00000532,0.,-0.00000031,-0.00000838,0.00000
 184,-0.00000241,-0.00000497,-0.00000021,-0.00000284,-0.00001229,-0.000
 00182,0.00000174,0.00000174,0.00000075,0.00000005,0.00000222,0.0000011
 5,0.00000066,0.00000086,0.00000221,0.00000039,0.00000222,0.00000183,-0
 .00000006,0.00000124,-0.00000700,0.00000348,0.00001210,0.00000149,-0.0
 0000014,0.00000707,0.00000017,0.00000185,0.00000663,0.00000039,0.00000
 170,0.00000500,-0.00000842,0.00000647,0.00001263,0.00001429,-0.0000215
 2,-0.00004168,-0.00000253,0.00000617,0.00000019,0.00000338,0.00000082,
 0.00001561,-0.00003908,0.00000935,0.00004185,-0.00000129,-0.00000174,-
 0.00000552,-0.00000013,0.00000008,0.00000027,0.00000132,-0.00000010,0.
 00000149,0.00000007,0.00000037,0.00000015,-0.00000163,-0.00000198,-0.0
 0000288,0.00000059,0.00000030,0.00000191,-0.00000044,0.00000006,0.0000
 0012,0.00000012,-0.00000061,-0.00000030,0.00000921,-0.00000076,-0.0000
 0616,-0.00000059,-0.00000161,0.00000138,0.00000015,-0.00000118,-0.0000
 0192,0.00000083,0.00000292,0.00000169,0.00016859,0.00014681,-0.0001889
 7,0.00004915,-0.00004360,0.00001364,-0.00008249,-0.00005172,-0.0001752
 5,0.00002550,-0.00003583,-0.00006430,0.00003700,0.00001049,-0.00001307
 ,-0.00000122,0.00000007,0.00002307,0.00000075,-0.00000007,0.00000719,0
 .00001904,-0.00000043,-0.00002538,-0.00000964,-0.00000176,0.00000117,-
 0.00000189,-0.00000158,0.00000189,-0.00000796,0.00004226,0.00005460,0.
 00011562,0.00009889,0.00007921,-0.00006515,0.00002813,0.00002753,-0.00
 058067,-0.00014491,0.00004728,-0.00005965,-0.00005301,0.00004750,-0.00
 000335,0.00000367,0.00000547,0.00000133,0.00000287,-0.00000468,-0.0000
 1088,-0.00000938,0.00000290,-0.00001457,-0.00001046,0.00001386,-0.0002
 7781,-0.00015583,-0.00025211,0.00004576,0.00003700,0.00004759,0.000118
 72,0.00000003,0.00023616,-0.00061318,-0.00018766,0.00039347,0.00215576
 ,0.00033925,-0.00028380,-0.00026981,0.00058165,0.00008586,0.00227239,0
 .00070187,0.00802994,-0.00035056,0.00073854,-0.00017816,0.00057620,0.0
 0013743,-0.00077542,-0.00003858,0.00005130,0.00000403,-0.00034840,-0.0
 0064209,0.00101247,0.00000435,0.00017283,0.00016510,0.00001842,-0.0000
 2404,0.00000689,0.00000373,0.00000665,-0.00000370,0.00000177,0.,0.0000
 1316,0.00000050,0.00000577,-0.00000352,0.00052622,0.00020268,0.0005482
 7,-0.00005200,-0.00006112,-0.00010878,0.00036222,0.00001678,-0.0000712
 3,-0.00003414,-0.00000662,-0.00006733,0.00000567,0.00003134,0.00000543
 ,0.00000891,0.00000665,0.00001423,-0.00001330,-0.00001196,0.00000400,0
 .00000452,0.00001037,-0.00000900,0.00001027,0.00001316,-0.00000182,0.0
 0000107,-0.00000065,-0.00000006,-0.00000403,-0.00000201,0.00000350,0.0
 0000044,-0.00000117,-0.00000081,0.00000097,0.00000020,-0.00000297,0.00
 000101,-0.00000005,0.00000043,-0.00000069,-0.00000087,-0.00000029,-0.0
 0000087,0.00000043,0.00000126,-0.00006131,-0.00001571,-0.00010727,0.00
 009388,0.00022154,0.00069266,-0.00083256,-0.00046655,-0.00004460,-0.00
 006859,0.00084806,-0.00011885,0.00000476,0.00006171,0.00002553,0.00024
 878,-0.00004571,0.00004225,0.00094835,-0.00005619,-0.00082958,-0.00024
 751,0.00006333,0.00005325,0.00000912,0.00002268,0.00006429,-0.00046308
 ,-0.00024215,0.00005613,0.00004182,-0.00015265,-0.00026240,-0.00007046
 ,0.00003444,0.00009736,-0.00002687,0.00006446,0.00004570,-0.00004378,-
 0.00004583,0.00001588,-0.00128952,-0.06668415,-0.09589191,-0.00110920,
 -0.05014179,-0.06054836,-0.01155299,0.12345936,0.13767752,0.00001547,0
 .00001479,-0.00000712,0.00002658,0.00000570,-0.00000781,0.00007440,0.0
 0000792,0.00000515,0.00002197,0.00000473,-0.00000638,0.00002284,0.0000
 1149,0.00000360,-0.00000915,0.00000108,0.00000423,-0.00000191,-0.00000
 082,-0.00000404,-0.00000467,-0.00000428,-0.00000090,-0.00001228,-0.000
 00070,-0.00000461,-0.00000152,0.00000455,-0.00000840,-0.00008890,-0.00
 000128,0.00003197,-0.00004081,0.00001015,-0.00001979,-0.00003567,-0.00
 000406,0.00001772,-0.00002784,-0.00003236,0.00000478,-0.00005708,0.000
 00043,-0.00000374,0.00016620,-0.00011691,-0.00011349,-0.00003591,0.000
 05524,0.00000178,-0.00000705,-0.00000297,0.00000867,-0.00030222,0.0000
 9540,-0.00005350,0.00001000,-0.00000761,-0.00001000,-0.00000026,0.0000
 0365,0.00000116,-0.00000100,0.00000191,-0.00000029,-0.00000394,-0.0000
 0134,0.00000265,0.00002404,0.00002174,0.00000781,-0.00000327,-0.000002
 42,-0.00000423,-0.00000590,-0.00000137,0.00000062,0.00000036,-0.000002
 43,0.00000028,0.00004831,0.00000550,0.00000187,0.00000293,0.00000732,-
 0.00000603,0.00000312,0.00000579,0.00002157,-0.00000958,-0.00000889,-0
 .00000981,0.00022853,0.00014868,0.00041606,-0.00001021,-0.00019707,-0.
 00004131,0.00068569,0.00043462,0.00079739,0.00024510,-0.00004248,0.000
 25702,-0.00009418,0.00005615,0.00005420,0.00003435,-0.00007349,-0.0000
 5389,0.00000755,0.00003514,-0.00001748,-0.00000903,-0.00007619,0.00000
 727,0.00004657,0.00003206,-0.00006268,0.00000752,-0.00002137,-0.000064
 03,-0.00024825,-0.00014349,-0.00018098,-0.00077243,0.00092214,0.000443
 45,-0.00019086,0.00019054,-0.00017088,-0.00026373,-0.00012228,-0.00038
 605,0.00004935,-0.00026942,-0.00032163,0.00009775,0.00021753,0.0000377
 3,0.00000257,0.00000201,-0.00001489,-0.00003107,-0.00001803,-0.0000042
 3,-0.00017499,-0.00024681,-0.00011270,0.00323610,-0.00194777,-0.000267
 36,-0.00147482,-0.00021070,0.00051286,-0.00125800,0.00044539,-0.000977
 94,-0.00171088,0.00080004,0.00186969,-0.00227917,-0.00774883,-0.000005
 45,-0.00065287,-0.00026776,0.00007947,-0.04751937,0.01291551,-0.003419
 99,0.00068592,-0.00008265,-0.00061825,-0.00000369,-0.00069259,0.000859
 87,0.00003331,-0.00007259,-0.00020891,-0.00108384,0.00306013,0.0009268
 5,-0.00075550,-0.00194431,-0.00080541,0.00009624,-0.00015411,0.0002026
 6,-0.00001345,0.00000288,-0.00001688,0.00000415,0.00000886,-0.00003028
 ,0.00000189,0.00003244,-0.00001625,0.00027394,0.00021266,0.00056890,-0
 .00004662,-0.00011298,-0.00012216,0.00019998,0.00007136,0.00000866,-0.
 00001923,0.00000982,-0.00011087,-0.00010579,0.00029914,0.00022466,0.00
 000158,-0.00001491,-0.00007290,-0.00001728,-0.00005055,-0.00001997,0.0
 0001958,-0.00001779,0.00002550,0.00006338,0.00016489,-0.00001127,-0.00
 001711,-0.00002475,-0.00001573,-0.00001263,-0.00001958,0.00001303,0.00
 000758,-0.00002886,0.00000875,0.00001258,-0.00001484,0.00000512,-0.000
 00387,0.00000038,-0.00000328,0.00000113,0.00000109,0.00000196,0.000000
 14,0.00000328,0.00000139,0.00036373,-0.00025134,0.00005771,-0.00043010
 ,0.00059750,-0.00004408,0.00041428,-0.00037759,-0.00024231,-0.00016087
 ,-0.00039691,-0.00000065,-0.00006322,0.00000734,0.00005316,-0.00016533
 ,0.00016143,-0.00004013,0.00073335,-0.00012418,0.00009318,-0.00025801,
 0.00020715,-0.00005590,0.00003051,-0.00000419,0.00004037,-0.00020666,-
 0.00041319,0.00012163,-0.00104051,0.00231973,0.00001653,0.00041543,-0.
 00061761,-0.00034746,0.00046049,-0.00074382,0.00043100,-0.00008588,-0.
 00074098,-0.00001847,-0.26028827,0.03607645,-0.01759971,-0.02132708,0.
 01682854,-0.04005972,-0.01765177,0.04101572,0.01075015,0.35221904,0.00
 000203,-0.00000355,0.00000118,0.00000243,-0.00000081,0.00000123,0.0000
 0583,-0.00000397,0.00000285,0.00000306,-0.00000127,-0.00000094,0.00000
 659,-0.00000394,0.00000058,-0.00000144,0.00000095,0.00000053,-0.000000
 37,-0.00000037,-0.00000094,-0.00000090,-0.00000029,-0.00000048,-0.0000
 0163,0.00000060,-0.00000067,-0.00000099,0.00000041,-0.00000169,-0.0000
 0761,0.00000544,0.00000152,-0.00000403,0.00000636,-0.00000436,-0.00000
 357,0.00000288,0.00000112,-0.00000364,0.00000349,-0.00000201,-0.000012
 07,0.00000759,-0.00000070,0.00002196,-0.00002455,-0.00001507,-0.000007
 83,0.00001331,-0.00000092,-0.00000023,-0.00000127,0.00000182,-0.000034
 93,0.00003680,-0.00002523,0.00000186,-0.00000257,-0.00000073,-0.000000
 49,0.00000123,-0.00000027,-0.00000036,-0.00000022,-0.00000021,-0.00000
 001,0.,0.00000029,0.00000227,-0.00000011,0.00000119,0.00000003,-0.0000
 0028,-0.00000056,-0.00000077,0.,0.00000031,0.00000025,0.00000100,-0.00
 000056,0.00001101,-0.00000386,0.00000278,0.00000039,0.00000336,-0.0000
 0354,0.00000078,-0.00000298,0.00000415,-0.00000161,-0.00000105,-0.0000
 0076,-0.00006704,-0.00006917,0.00015592,-0.00001670,-0.00009245,-0.000
 00675,0.00014852,0.00005496,0.00024604,0.00006055,-0.00001999,0.000074
 70,0.00002332,-0.00003985,0.00002517,0.00000747,-0.00001736,-0.0000242
 7,0.00000323,0.00001634,-0.00000602,0.00000344,-0.00003059,0.00002468,
 0.00002154,0.00001253,-0.00000535,-0.00000566,0.00000337,-0.00001578,-
 0.00005912,0.00002090,-0.00006266,-0.00018645,0.00037599,0.00011143,0.
 00005567,0.00010182,-0.00002931,0.00023105,0.00011349,-0.00007265,-0.0
 0003596,0.00001770,-0.00008940,0.00003467,0.00003484,0.00000223,-0.000
 00087,0.00000697,0.00000033,-0.00000320,0.00000127,-0.00000031,-0.0000
 4035,-0.00003865,-0.00003046,0.00097158,-0.00079405,0.00001942,-0.0004
 1058,0.00001922,0.00010502,-0.00035887,0.00020639,-0.00035118,-0.00107
 496,0.00004960,0.00087371,-0.00055419,-0.00235189,-0.00025672,-0.00061
 898,0.00016269,0.00024052,-0.01439361,0.01092552,0.00089484,-0.0004215
 4,0.00001157,0.00008923,-0.00006147,0.00117739,-0.00022309,-0.00007156
 ,0.00007410,0.00004215,-0.00128571,-0.00300342,-0.00100046,-0.00192558
 ,0.00052170,0.00090864,0.00000241,-0.00000697,0.00000535,-0.00000643,-
 0.00000834,0.00000345,-0.00000479,-0.00000227,-0.00000888,-0.00000557,
 0.00001020,0.00000158,-0.00022363,-0.00008990,-0.00024028,0.00003767,0
 .00005201,0.00007931,-0.00009238,-0.00008547,0.00008036,0.00001452,0.0
 0000599,0.00001448,0.00000394,0.00002266,0.00003871,-0.00000107,-0.000
 00521,-0.00002012,-0.00000570,-0.00000361,-0.00000374,-0.00000244,0.00
 001197,0.00001100,0.00001462,0.00002308,-0.00000268,-0.00000362,-0.000
 00493,-0.00000387,-0.00000211,-0.00000291,0.00000270,-0.00000031,-0.00
 000272,0.00000152,0.00000040,-0.00000590,0.00000217,-0.00000021,0.0000
 0037,-0.00000020,0.00000074,0.,-0.00000042,-0.00000047,0.00000088,0.00
 000056,-0.00012973,-0.00012435,0.00005932,0.00031907,0.00003268,-0.000
 03346,-0.00068803,-0.00007760,0.00001231,0.00024361,0.00043254,-0.0000
 0854,0.00007360,-0.00000241,-0.00003037,0.00020172,-0.00007238,0.00003
 719,-0.00050398,0.00008496,0.00002308,0.00013883,-0.00008959,0.0000169
 0,0.00001044,-0.00001839,0.00000681,0.00010982,0.00016123,-0.00020928,
 0.00011219,0.00082751,-0.00011949,0.00001125,-0.00021033,-0.00003728,0
 .00006687,-0.00021693,0.00011158,-0.00013515,-0.00023607,-0.00000818,0
 .04465023,-0.08697743,0.00609866,0.02022405,0.00378083,0.01882745,0.05
 468959,-0.03831405,-0.00886494,-0.09906456,0.11362759,-0.00000115,0.00
 000164,-0.00000264,-0.00000365,-0.00000057,-0.00000368,-0.00000463,0.0
 0000167,-0.00000667,-0.00000106,-0.00000082,-0.00000247,-0.00000398,0.
 00000003,-0.00000790,-0.00000014,0.00000054,0.00000069,0.00000070,0.00
 000026,0.00000193,0.00000129,0.00000063,0.00000079,0.00000250,-0.00000
 008,0.00000183,0.00000165,-0.00000030,0.00000186,0.00000168,-0.0000006
 4,0.00000577,0.00000387,-0.00000354,0.00000700,0.00000266,-0.00000027,
 0.00000310,0.00000279,-0.00000004,0.00000404,0.00000269,0.,0.00000830,
 -0.00000569,0.00000229,-0.00001474,0.00000316,-0.00000411,0.00000059,0
 .00000236,0.00000112,0.00000835,0.00000123,-0.00001479,0.00003785,-0.0
 0000194,0.00000042,-0.00000279,0.00000018,-0.00000066,0.00000029,0.000
 00102,0.00000002,0.00000103,0.00000011,0.00000025,-0.00000013,-0.00000
 275,-0.00000168,-0.00000264,0.00000042,0.00000037,0.00000161,0.0000002
 6,0.00000006,-0.00000010,-0.00000006,-0.00000085,0.00000009,-0.0000014
 4,0.00000133,-0.00000548,-0.00000072,-0.00000300,0.00000301,-0.0000004
 3,0.00000075,-0.00000404,0.00000166,0.00000270,0.00000171,0.00012585,0
 .00012532,-0.00022510,0.00003503,0.00002109,0.00001543,-0.00012669,-0.
 00003631,-0.00022916,-0.00004315,0.00000765,-0.00009805,0.00003354,0.0
 0001885,-0.00002543,-0.00000628,0.00000799,0.00002476,0.00000020,-0.00
 000899,0.00000636,0.00001019,0.00001455,-0.00002451,-0.00000702,-0.000
 00537,0.00002188,-0.00000117,-0.00000065,0.00001261,0.00004244,-0.0000
 0875,0.00007148,0.00016162,-0.00017126,-0.00001733,-0.00005625,-0.0000
 3545,0.00003567,-0.00047831,-0.00014154,0.00009536,-0.00003457,-0.0000
 2675,0.00008409,-0.00002136,-0.00003202,0.00000606,0.00000131,-0.00000
 091,-0.00000279,-0.00000419,-0.00000517,0.00000208,0.00001963,0.000027
 47,0.00002993,-0.00072663,0.00037902,-0.00021141,0.00025397,-0.0000018
 3,0.00000010,0.00023899,-0.00010383,0.00029582,0.00012626,0.00060212,-
 0.00094836,-0.00022883,0.00059399,0.00113253,0.00051108,-0.00028791,-0
 .00014629,0.01045188,-0.00026075,0.00972874,-0.00008837,0.00000992,0.0
 0025263,-0.00032824,-0.00017438,-0.00002183,0.00001065,-0.00000666,0.0
 0004949,0.00058606,0.00051112,-0.00023638,0.00014281,0.00025776,-0.000
 06487,0.00000633,-0.00000599,-0.00000740,0.00000568,0.00000791,-0.0000
 0283,0.00000306,0.00000057,0.00001341,0.00000282,-0.00000192,-0.000002
 17,0.00046661,0.00011905,0.00043224,-0.00005461,-0.00005906,-0.0001055
 7,0.00021912,0.00014061,-0.00005330,-0.00002812,-0.00000634,-0.0000427
 5,0.00001041,-0.00000405,-0.00002390,0.00000690,0.00000771,0.00002242,
 -0.00000683,-0.00000402,0.00000547,0.00000323,0.00000507,-0.00001212,-
 0.00000287,-0.00001059,0.00000159,0.00000351,0.00000350,0.00000261,-0.
 00000107,0.00000114,0.00000039,0.00000015,0.00000209,-0.00000177,0.000
 00009,0.00000344,-0.00000304,0.00000082,-0.00000024,0.00000043,-0.0000
 0082,-0.00000056,-0.00000002,-0.00000029,-0.00000026,0.00000047,0.0000
 2364,0.00005411,-0.00007989,-0.00011370,0.00008768,0.00040879,-0.00016
 215,-0.00017155,-0.00006068,0.00006952,0.00011679,-0.00003014,-0.00000
 179,0.00002703,0.00002785,0.00004316,0.00000569,0.00000371,0.00057684,
 0.00004128,-0.00039962,-0.00017230,0.00008366,0.00003398,0.00004679,0.
 00000436,0.00003004,-0.00013568,-0.00045266,0.00002325,0.00008791,-0.0
 0046822,-0.00012428,-0.00006563,0.00012703,0.00010793,-0.00003848,0.00
 011818,-0.00001518,0.00003380,0.00013477,0.00002679,-0.01983714,0.0053
 4278,-0.07194850,-0.05533485,0.02239396,-0.03204084,0.01592074,-0.0114
 5174,0.01034250,0.04782215,-0.01744227,0.08382006\\-0.00000005,-0.0000
 0027,0.00000081,0.00000046,-0.00000017,0.00000047,0.00000016,-0.000000
 58,0.00000147,0.00000020,0.00000019,0.00000091,-0.00000031,-0.00000010
 ,-0.00000009,-0.00000008,-0.00000051,0.00000114,0.00000049,-0.00000086
 ,0.00000062,0.00000002,-0.00000039,0.00000032,0.00000017,0.00000079,0.
 00000055,0.00000063,-0.00000101,-0.00000028,-0.00000030,-0.00000066,0.
 00000156,0.00000041,-0.00000004,0.00000179,0.00000027,-0.00000110,0.00
 000099,-0.00000009,-0.00000016,0.00000041,-0.00000038,0.00000067,-0.00
 000010,-0.00000018,0.00000115,0.00000197,-0.00000036,0.00000011,0.0000
 0090,0.00000019,-0.00000040,0.00000092,0.00000032,-0.00000014,-0.00000
 045,0.00000026,-0.00000121,0.00000123,0.00000027,-0.00000098,0.0000014
 7,0.00000051,-0.00000126,0.00000097,0.00000057,-0.00000108,0.00000089,
 0.00000050,-0.00000028,-0.00000018,-0.00000028,-0.00000036,-0.00000049
 ,0.00000027,-0.00000051,0.00000010,0.00000020,-0.00000052,-0.00000045,
 -0.00000039,0.00000033,0.00000022,0.00000025,0.00000050,-0.00000042,0.
 00000009,0.00000096,0.00000043,-0.00000026,0.00000032,-0.00000023,-0.0
 0000053,0.00000044,0.00000007,-0.00000120,0.00000044,-0.00000010,0.000
 00043,0.00000011,0.00000043,-0.00000022,-0.00000010,-0.00000099,0.0000
 0007,0.00000083,-0.00000107,-0.00000034,0.00000041,0.00000006,0.000000
 16,0.00000034,0.00000004,-0.00000003,0.00000010,-0.00000008,0.00000040
 ,-0.00000043,-0.00000026,0.00000004,0.00000050,-0.00000058,-0.00000023
 ,0.00000026,-0.00000043,0.00000063,-0.00000063,0.00000073,0.00000054,0
 .00000035,-0.00000003,-0.00000047,0.00000089,-0.00000046,-0.00000009,0
 .00000037,-0.00000127,-0.00000064,0.00000049,-0.00000077,0.00000031,-0
 .00000022,-0.00000143,0.00000039,-0.00000022,-0.00000129,-0.00000049,0
 .00000015,-0.00000113,0.00000011,-0.00000166,0.00000078,0.00000071,-0.
 00000025,-0.00000042,0.00000003,-0.00000147,-0.00000077,0.00000052,-0.
 00000078,-0.00000019,0.00000042,0.00000005,-0.00000027,0.00000065,-0.0
 0000033,-0.00000105,-0.00000024,-0.00000100,-0.00000059,0.00000038,-0.
 00000085,-0.00000019,-0.00000025,-0.00000055,-0.00000079,0.00000021,-0
 .00000094,-0.00000093,0.00000027,-0.00000010,-0.00000148,0.00000012,-0
 .00000022,-0.00000125,-0.00000081,0.00000004,0.00000075,-0.00000028,0.
 00000101,0.00000107,-0.00000029,0.00000110,0.00000063,-0.00000037,0.00
 000084,0.00000121,-0.00000069,0.00000137,-0.00000048,-0.00000032,0.000
 00063,-0.00000076,-0.00000007,0.00000078,0.00000009,-0.00000051,0.0000
 0117,-0.00000020,-0.00000038,0.00000105,-0.00000165,-0.00000041,0.0000
 0098,-0.00000126,-0.00000023,0.00000067,-0.00000150,-0.00000015,0.0000
 0058,-0.00000161,-0.00000022,0.00000049,-0.00000195,0.,0.00000073,-0.0
 0000097,0.00000009,0.00000018,-0.00000142,-0.00000023,0.00000047,-0.00
 000177,-0.00000015,0.00000062,0.00000181,-0.00000038,0.00000027,0.0000
 0161,-0.00000010,0.00000029,0.00000181,-0.00000007,-0.00000020,0.00000
 206,-0.00000005,0.00000025,0.00000202,-0.00000059,-0.00000045,0.000000
 15,0.00000051,-0.00000010,0.00000068,-0.00000004,-0.00000025,0.0000008
 3,-0.00000003,-0.00000062,0.00000124,0.00000003,0.,0.00000134,-0.00000
 015,0.00000077,0.00000096,-0.00000016,0.00000049,0.00000104,-0.0000004
 7,0.00000022,0.00000049,-0.00000010,0.00000039,0.00000046,-0.00000005,
 -0.00000072,-0.00000233,0.00000011,0.00000007,-0.00000150,0.00000033,-
 0.00000090,-0.00000158,0.00000070,-0.00000036,-0.00000158,-0.00000015,
 0.00000015,-0.00000077,0.00000004,0.00000013,-0.00000018,0.00000014,-0
 .00000040,0.,0.00000025,-0.00000016,-0.00000049\\\@


 IF OTHER PEOPLE ARE GOING TO TALK, CONVERSATION IS SIMPLY IMPOSSIBLE.

                                               -- WHISTLER'S PRINCIPLE
 Job cpu time:       4 days  0 hours 50 minutes 25.2 seconds.
 Elapsed time:       0 days  3 hours 32 minutes  4.4 seconds.
 File lengths (MBytes):  RWF=   9778 Int=      0 D2E=      0 Chk=     86 Scr=      1
 Normal termination of Gaussian 16 at Fri May 31 01:45:20 2019.
