 Entering Gaussian System, Link 0=g16
 Input=clay_new-glu_gluC6-CCDL-Na3_1Me2O-bisCF3-ts-b3lyp_d3bj-631gd-pcm_thf.gjf
 Output=clay_new-glu_gluC6-CCDL-Na3_1Me2O-bisCF3-ts-b3lyp_d3bj-631gd-pcm_thf.out
 Initial command:
 /home/ekwan/sw/g16/l1.exe "/scratch/users/ekwan/clay_new-glu_gluC6-CCDL-Na3_1Me2O-bisCF3-ts-b3lyp_d3bj-631gd-pcm_thf/Gau-42195.inp" -scrdir="/scratch/users/ekwan/clay_new-glu_gluC6-CCDL-Na3_1Me2O-bisCF3-ts-b3lyp_d3bj-631gd-pcm_thf/"
 Entering Link 1 = /home/ekwan/sw/g16/l1.exe PID=     42228.
  
 Copyright (c) 1988,1990,1992,1993,1995,1998,2003,2009,2016,
            Gaussian, Inc.  All Rights Reserved.
  
 This is part of the Gaussian(R) 16 program.  It is based on
 the Gaussian(R) 09 system (copyright 2009, Gaussian, Inc.),
 the Gaussian(R) 03 system (copyright 2003, Gaussian, Inc.),
 the Gaussian(R) 98 system (copyright 1998, Gaussian, Inc.),
 the Gaussian(R) 94 system (copyright 1995, Gaussian, Inc.),
 the Gaussian 92(TM) system (copyright 1992, Gaussian, Inc.),
 the Gaussian 90(TM) system (copyright 1990, Gaussian, Inc.),
 the Gaussian 88(TM) system (copyright 1988, Gaussian, Inc.),
 the Gaussian 86(TM) system (copyright 1986, Carnegie Mellon
 University), and the Gaussian 82(TM) system (copyright 1983,
 Carnegie Mellon University). Gaussian is a federally registered
 trademark of Gaussian, Inc.
  
 This software contains proprietary and confidential information,
 including trade secrets, belonging to Gaussian, Inc.
  
 This software is provided under written license and may be
 used, copied, transmitted, or stored only in accord with that
 written license.
  
 The following legend is applicable only to US Government
 contracts under FAR:
  
                    RESTRICTED RIGHTS LEGEND
  
 Use, reproduction and disclosure by the US Government is
 subject to restrictions as set forth in subparagraphs (a)
 and (c) of the Commercial Computer Software - Restricted
 Rights clause in FAR 52.227-19.
  
 Gaussian, Inc.
 340 Quinnipiac St., Bldg. 40, Wallingford CT 06492
  
  
 ---------------------------------------------------------------
 Warning -- This program may not be used in any manner that
 competes with the business of Gaussian, Inc. or will provide
 assistance to any competitor of Gaussian, Inc.  The licensee
 of this program is prohibited from giving any competitor of
 Gaussian, Inc. access to this program.  By using this program,
 the user acknowledges that Gaussian, Inc. is engaged in the
 business of creating and licensing software in the field of
 computational chemistry and represents and warrants to the
 licensee that it is not a competitor of Gaussian, Inc. and that
 it will not use this program in any manner prohibited above.
 ---------------------------------------------------------------
  

 Cite this work as:
 Gaussian 16, Revision A.03,
 M. J. Frisch, G. W. Trucks, H. B. Schlegel, G. E. Scuseria, 
 M. A. Robb, J. R. Cheeseman, G. Scalmani, V. Barone, 
 G. A. Petersson, H. Nakatsuji, X. Li, M. Caricato, A. V. Marenich, 
 J. Bloino, B. G. Janesko, R. Gomperts, B. Mennucci, H. P. Hratchian, 
 J. V. Ortiz, A. F. Izmaylov, J. L. Sonnenberg, D. Williams-Young, 
 F. Ding, F. Lipparini, F. Egidi, J. Goings, B. Peng, A. Petrone, 
 T. Henderson, D. Ranasinghe, V. G. Zakrzewski, J. Gao, N. Rega, 
 G. Zheng, W. Liang, M. Hada, M. Ehara, K. Toyota, R. Fukuda, 
 J. Hasegawa, M. Ishida, T. Nakajima, Y. Honda, O. Kitao, H. Nakai, 
 T. Vreven, K. Throssell, J. A. Montgomery, Jr., J. E. Peralta, 
 F. Ogliaro, M. J. Bearpark, J. J. Heyd, E. N. Brothers, K. N. Kudin, 
 V. N. Staroverov, T. A. Keith, R. Kobayashi, J. Normand, 
 K. Raghavachari, A. P. Rendell, J. C. Burant, S. S. Iyengar, 
 J. Tomasi, M. Cossi, J. M. Millam, M. Klene, C. Adamo, R. Cammi, 
 J. W. Ochterski, R. L. Martin, K. Morokuma, O. Farkas, 
 J. B. Foresman, and D. J. Fox, Gaussian, Inc., Wallingford CT, 2016.
 
 ******************************************
 Gaussian 16:  AS64L-G16RevA.03 25-Dec-2016
                24-May-2019 
 ******************************************
 %mem=48GB
 %nprocshared=32
 Will use up to   32 processors via shared memory.
 ----------------------------------------------------------------------
 #p opt=(ts,noeigentest,calcfc,maxstep=3,modredundant,recalc=30) freq=n
 oraman b3lyp 6-31g* pop=none scrf=(solvent=tetrahydrofuran,pcm) empiri
 caldispersion=gd3bj
 ----------------------------------------------------------------------
 1/5=1,8=3,10=4,11=1,18=120,26=3,38=1,71=30/1,3;
 2/9=110,12=2,17=6,18=5,40=1/2;
 3/5=1,6=6,7=1,11=2,25=1,30=1,70=2201,71=2,72=20,74=-5,124=41,140=1/1,2,3;
 4//1;
 5/5=2,38=5,53=20/2;
 8/6=4,10=90,11=11/1;
 11/6=1,8=1,9=11,15=111,16=1/1,2,10;
 10/6=1,13=1/2;
 7/10=1,18=20,25=1/1,2,3,16;
 1/5=1,8=3,10=4,11=1,18=20,26=3,71=30/3(2);
 2/9=110/2;
 99//99;
 2/9=110/2;
 3/5=1,6=6,7=1,11=2,25=1,30=1,70=2205,71=1,72=20,74=-5,124=41/1,2,3;
 4/5=5,16=3,69=1/1;
 5/5=2,38=5,53=20/2;
 7//1,2,3,16;
 1/5=1,8=3,11=1,18=20,26=3,71=30/3(-5);
 2/9=110/2;
 99/9=1/99;
 Leave Link    1 at Fri May 24 04:06:23 2019, MaxMem=  6442450944 cpu:               4.4 elap:               0.2
 (Enter /home/ekwan/sw/g16/l101.exe)
 -----
 title
 -----
 Symbolic Z-matrix:
 Charge =  0 Multiplicity = 1
 C                     4.64604   0.4892    0.60894 
 C                     3.60129   1.05398   1.57009 
 C                     3.21158   2.48723   1.17764 
 C                     3.75129   2.13409  -1.14024 
 C                     4.24034   0.7132   -0.84834 
 H                     2.34564   2.83065   1.75732 
 H                     2.68405   0.45118   1.48246 
 H                     5.60052   0.99359   0.8106 
 H                     4.59926   2.83234  -1.09491 
 H                     3.42325   0.0325   -1.08015 
 O                     2.76806   2.52682  -0.15324 
 O                     4.31859   3.32176   1.42571 
 O                     4.12429   0.94093   2.88643 
 O                     4.77336  -0.90883   0.8955 
 O                     5.35536   0.41957  -1.69879 
 C                     3.03792   2.22869  -2.5112 
 H                     3.87193   2.20329  -3.26256 
 H                     2.66862   3.28761  -2.55097 
 O                     2.07843   1.28923  -2.70425 
 C                     3.32544   1.53542   3.89419 
 H                     3.38866   2.63099   3.87105 
 H                     2.26608   1.24937   3.8063 
 H                     3.71028   1.18024   4.8538 
 C                     6.08234  -1.42439   0.71146 
 H                     6.41661  -1.32297  -0.32594 
 H                     6.8048   -0.91444   1.36653 
 H                     6.04561  -2.48326   0.98405 
 C                     4.99215  -0.42643  -2.78701 
 H                     4.86121  -1.46306  -2.44736 
 H                     4.05416  -0.09378  -3.24631 
 H                     5.80988  -0.38638  -3.51336 
 C                    -1.05896  -1.44419  -1.53677 
 C                    -0.33893  -0.11067  -1.73842 
 C                     0.73527   0.09668  -0.69838 
 C                     1.06213  -2.27408  -0.43574 
 C                     0.00069  -2.54666  -1.50678 
 H                     1.22818   1.06084  -0.68663 
 H                     0.22626  -0.14742  -2.67834 
 H                    -1.60152  -1.4339   -0.58277 
 H                     0.59714  -2.43385   0.54016 
 H                     0.482    -2.60103  -2.48892 
 O                     1.55962  -0.9082   -0.44782 
 O                    -0.22509   2.67241   0.98459 
 O                    -1.24096   0.97107  -1.74594 
 O                    -1.9531   -1.72449  -2.59898 
 O                    -0.55904  -3.80671  -1.1606 
 C                     2.27706  -3.17567  -0.53709 
 H                     1.98271  -4.18928  -0.22841 
 H                     3.04856  -2.80336   0.15257 
 O                     2.75905  -3.18289  -1.86562 
 S                    -0.78346   1.42475   1.50078 
 O                    -0.69335   1.16195   2.96141 
 O                    -0.17273   0.14487   0.83872 
 C                    -2.50952   1.32254   1.05424 
 C                    -3.01555   2.16417   0.073 
 C                    -3.2708    0.29315   1.59607 
 C                    -4.3095    1.94299  -0.3951 
 H                    -2.40012   2.95879  -0.32701 
 C                    -4.55643   0.07497   1.10525 
 H                    -2.8644   -0.32915   2.3839 
 C                    -5.07901   0.89267   0.10359 
 H                    -6.07382   0.71249  -0.28412 
 C                    -0.95959   1.94431  -2.76723 
 H                    -1.41831   2.88253  -2.44588 
 H                     0.12791   2.04707  -2.88734 
 H                    -1.42163   1.63064  -3.71302 
 C                    -3.28629  -1.27605  -2.37599 
 H                    -3.68152  -1.67135  -1.42896 
 H                    -3.34881  -0.18433  -2.36085 
 H                    -3.88649  -1.66708  -3.20146 
 C                    -0.79746  -4.664    -2.27352 
 H                    -1.51631  -4.21713  -2.96692 
 H                     0.1389   -4.87948  -2.80565 
 H                    -1.20328  -5.59364  -1.86763 
 C                     3.86094  -4.05821  -2.02372 
 H                     4.16405  -4.00793  -3.07165 
 H                     4.70736  -3.75742  -1.38889 
 H                     3.58626  -5.09461  -1.7745 
 C                     4.02507   4.69937   1.22435 
 H                     4.92027   5.25761   1.50667 
 H                     3.77633   4.90817   0.17786 
 H                     3.18344   5.01688   1.85705 
 Na                    0.31154  -0.99004   2.91699 
 O                    -0.50501  -3.08637   2.45617 
 C                     0.25365  -4.29093   2.55226 
 H                     0.3351   -4.76921   1.56856 
 H                     1.24838  -4.02227   2.91459 
 H                    -0.21642  -4.9887    3.25669 
 C                    -1.81286  -3.32182   1.9262 
 H                    -2.38427  -3.98231   2.59037 
 H                    -2.31025  -2.3553    1.86164 
 H                    -1.74309  -3.75876   0.92454 
 C                    -4.81318   2.77343  -1.54329 
 F                    -4.43183   4.0623   -1.4326 
 F                    -6.15728   2.74565  -1.64087 
 F                    -4.31711   2.3169   -2.72025 
 C                    -5.31766  -1.12662   1.58984 
 F                    -6.6354   -1.03931   1.3366 
 F                    -5.15891  -1.31982   2.9167 
 F                    -4.86494  -2.25548   0.97908 
 
 Add virtual bond connecting atoms O53        and C34        Dist= 3.37D+00.
 Add virtual bond connecting atoms H37        and O11        Dist= 4.14D+00.
 Add virtual bond connecting atoms H37        and O19        Dist= 4.16D+00.
 Add virtual bond connecting atoms O42        and H10        Dist= 4.12D+00.
 Add virtual bond connecting atoms H65        and O19        Dist= 3.97D+00.
 The following ModRedundant input section has been read:
 
 ITRead=  0  0  0  0  0  0  0  0  0  0  0  0  0  0  0  0  0  0  0  0
 ITRead=  0  0  0  0  0  0  0  0  0  0  0  0  0  0  0  0  0  0  0  0
 ITRead=  0  0  0  0  0  0  0  0  0  0  0  0  0  0  0  0  0  0  0  0
 ITRead=  0  0  0  0  0  0  0  0  0  0  0  0  0  0  0  0  0  0  0  0
 ITRead=  0  0  0  0  0  0  0  0  0  0  0  0  0  0  0  0  0  0  0  0
 MicOpt= -1 -1 -1 -1 -1 -1 -1 -1 -1 -1 -1 -1 -1 -1 -1 -1 -1 -1 -1 -1
 MicOpt= -1 -1 -1 -1 -1 -1 -1 -1 -1 -1 -1 -1 -1 -1 -1 -1 -1 -1 -1 -1
 MicOpt= -1 -1 -1 -1 -1 -1 -1 -1 -1 -1 -1 -1 -1 -1 -1 -1 -1 -1 -1 -1
 MicOpt= -1 -1 -1 -1 -1 -1 -1 -1 -1 -1 -1 -1 -1 -1 -1 -1 -1 -1 -1 -1
 MicOpt= -1 -1 -1 -1 -1 -1 -1 -1 -1 -1 -1 -1 -1 -1 -1 -1 -1 -1 -1 -1
 NAtoms=    100 NQM=      100 NQMF=       0 NMMI=      0 NMMIF=      0
                NMic=       0 NMicF=      0.
                    Isotopes and Nuclear Properties:
 (Nuclear quadrupole moments (NQMom) in fm**2, nuclear magnetic moments (NMagM)
  in nuclear magnetons)

  Atom         1           2           3           4           5           6           7           8           9          10
 IAtWgt=          12          12          12          12          12           1           1           1           1           1
 AtmWgt=  12.0000000  12.0000000  12.0000000  12.0000000  12.0000000   1.0078250   1.0078250   1.0078250   1.0078250   1.0078250
 NucSpn=           0           0           0           0           0           1           1           1           1           1
 AtZEff=   0.0000000   0.0000000   0.0000000   0.0000000   0.0000000   0.0000000   0.0000000   0.0000000   0.0000000   0.0000000
 NQMom=    0.0000000   0.0000000   0.0000000   0.0000000   0.0000000   0.0000000   0.0000000   0.0000000   0.0000000   0.0000000
 NMagM=    0.0000000   0.0000000   0.0000000   0.0000000   0.0000000   2.7928460   2.7928460   2.7928460   2.7928460   2.7928460
 AtZNuc=   6.0000000   6.0000000   6.0000000   6.0000000   6.0000000   1.0000000   1.0000000   1.0000000   1.0000000   1.0000000

  Atom        11          12          13          14          15          16          17          18          19          20
 IAtWgt=          16          16          16          16          16          12           1           1          16          12
 AtmWgt=  15.9949146  15.9949146  15.9949146  15.9949146  15.9949146  12.0000000   1.0078250   1.0078250  15.9949146  12.0000000
 NucSpn=           0           0           0           0           0           0           1           1           0           0
 AtZEff=   0.0000000   0.0000000   0.0000000   0.0000000   0.0000000   0.0000000   0.0000000   0.0000000   0.0000000   0.0000000
 NQMom=    0.0000000   0.0000000   0.0000000   0.0000000   0.0000000   0.0000000   0.0000000   0.0000000   0.0000000   0.0000000
 NMagM=    0.0000000   0.0000000   0.0000000   0.0000000   0.0000000   0.0000000   2.7928460   2.7928460   0.0000000   0.0000000
 AtZNuc=   8.0000000   8.0000000   8.0000000   8.0000000   8.0000000   6.0000000   1.0000000   1.0000000   8.0000000   6.0000000

  Atom        21          22          23          24          25          26          27          28          29          30
 IAtWgt=           1           1           1          12           1           1           1          12           1           1
 AtmWgt=   1.0078250   1.0078250   1.0078250  12.0000000   1.0078250   1.0078250   1.0078250  12.0000000   1.0078250   1.0078250
 NucSpn=           1           1           1           0           1           1           1           0           1           1
 AtZEff=   0.0000000   0.0000000   0.0000000   0.0000000   0.0000000   0.0000000   0.0000000   0.0000000   0.0000000   0.0000000
 NQMom=    0.0000000   0.0000000   0.0000000   0.0000000   0.0000000   0.0000000   0.0000000   0.0000000   0.0000000   0.0000000
 NMagM=    2.7928460   2.7928460   2.7928460   0.0000000   2.7928460   2.7928460   2.7928460   0.0000000   2.7928460   2.7928460
 AtZNuc=   1.0000000   1.0000000   1.0000000   6.0000000   1.0000000   1.0000000   1.0000000   6.0000000   1.0000000   1.0000000

  Atom        31          32          33          34          35          36          37          38          39          40
 IAtWgt=           1          12          12          12          12          12           1           1           1           1
 AtmWgt=   1.0078250  12.0000000  12.0000000  12.0000000  12.0000000  12.0000000   1.0078250   1.0078250   1.0078250   1.0078250
 NucSpn=           1           0           0           0           0           0           1           1           1           1
 AtZEff=   0.0000000   0.0000000   0.0000000   0.0000000   0.0000000   0.0000000   0.0000000   0.0000000   0.0000000   0.0000000
 NQMom=    0.0000000   0.0000000   0.0000000   0.0000000   0.0000000   0.0000000   0.0000000   0.0000000   0.0000000   0.0000000
 NMagM=    2.7928460   0.0000000   0.0000000   0.0000000   0.0000000   0.0000000   2.7928460   2.7928460   2.7928460   2.7928460
 AtZNuc=   1.0000000   6.0000000   6.0000000   6.0000000   6.0000000   6.0000000   1.0000000   1.0000000   1.0000000   1.0000000

  Atom        41          42          43          44          45          46          47          48          49          50
 IAtWgt=           1          16          16          16          16          16          12           1           1          16
 AtmWgt=   1.0078250  15.9949146  15.9949146  15.9949146  15.9949146  15.9949146  12.0000000   1.0078250   1.0078250  15.9949146
 NucSpn=           1           0           0           0           0           0           0           1           1           0
 AtZEff=   0.0000000   0.0000000   0.0000000   0.0000000   0.0000000   0.0000000   0.0000000   0.0000000   0.0000000   0.0000000
 NQMom=    0.0000000   0.0000000   0.0000000   0.0000000   0.0000000   0.0000000   0.0000000   0.0000000   0.0000000   0.0000000
 NMagM=    2.7928460   0.0000000   0.0000000   0.0000000   0.0000000   0.0000000   0.0000000   2.7928460   2.7928460   0.0000000
 AtZNuc=   1.0000000   8.0000000   8.0000000   8.0000000   8.0000000   8.0000000   6.0000000   1.0000000   1.0000000   8.0000000

  Atom        51          52          53          54          55          56          57          58          59          60
 IAtWgt=          32          16          16          12          12          12          12           1          12           1
 AtmWgt=  31.9720718  15.9949146  15.9949146  12.0000000  12.0000000  12.0000000  12.0000000   1.0078250  12.0000000   1.0078250
 NucSpn=           0           0           0           0           0           0           0           1           0           1
 AtZEff=   0.0000000   0.0000000   0.0000000   0.0000000   0.0000000   0.0000000   0.0000000   0.0000000   0.0000000   0.0000000
 NQMom=    0.0000000   0.0000000   0.0000000   0.0000000   0.0000000   0.0000000   0.0000000   0.0000000   0.0000000   0.0000000
 NMagM=    0.0000000   0.0000000   0.0000000   0.0000000   0.0000000   0.0000000   0.0000000   2.7928460   0.0000000   2.7928460
 AtZNuc=  16.0000000   8.0000000   8.0000000   6.0000000   6.0000000   6.0000000   6.0000000   1.0000000   6.0000000   1.0000000

  Atom        61          62          63          64          65          66          67          68          69          70
 IAtWgt=          12           1          12           1           1           1          12           1           1           1
 AtmWgt=  12.0000000   1.0078250  12.0000000   1.0078250   1.0078250   1.0078250  12.0000000   1.0078250   1.0078250   1.0078250
 NucSpn=           0           1           0           1           1           1           0           1           1           1
 AtZEff=   0.0000000   0.0000000   0.0000000   0.0000000   0.0000000   0.0000000   0.0000000   0.0000000   0.0000000   0.0000000
 NQMom=    0.0000000   0.0000000   0.0000000   0.0000000   0.0000000   0.0000000   0.0000000   0.0000000   0.0000000   0.0000000
 NMagM=    0.0000000   2.7928460   0.0000000   2.7928460   2.7928460   2.7928460   0.0000000   2.7928460   2.7928460   2.7928460
 AtZNuc=   6.0000000   1.0000000   6.0000000   1.0000000   1.0000000   1.0000000   6.0000000   1.0000000   1.0000000   1.0000000

  Atom        71          72          73          74          75          76          77          78          79          80
 IAtWgt=          12           1           1           1          12           1           1           1          12           1
 AtmWgt=  12.0000000   1.0078250   1.0078250   1.0078250  12.0000000   1.0078250   1.0078250   1.0078250  12.0000000   1.0078250
 NucSpn=           0           1           1           1           0           1           1           1           0           1
 AtZEff=   0.0000000   0.0000000   0.0000000   0.0000000   0.0000000   0.0000000   0.0000000   0.0000000   0.0000000   0.0000000
 NQMom=    0.0000000   0.0000000   0.0000000   0.0000000   0.0000000   0.0000000   0.0000000   0.0000000   0.0000000   0.0000000
 NMagM=    0.0000000   2.7928460   2.7928460   2.7928460   0.0000000   2.7928460   2.7928460   2.7928460   0.0000000   2.7928460
 AtZNuc=   6.0000000   1.0000000   1.0000000   1.0000000   6.0000000   1.0000000   1.0000000   1.0000000   6.0000000   1.0000000

  Atom        81          82          83          84          85          86          87          88          89          90
 IAtWgt=           1           1          23          16          12           1           1           1          12           1
 AtmWgt=   1.0078250   1.0078250  22.9897697  15.9949146  12.0000000   1.0078250   1.0078250   1.0078250  12.0000000   1.0078250
 NucSpn=           1           1           3           0           0           1           1           1           0           1
 AtZEff=   0.0000000   0.0000000   0.0000000   0.0000000   0.0000000   0.0000000   0.0000000   0.0000000   0.0000000   0.0000000
 NQMom=    0.0000000   0.0000000  10.4000000   0.0000000   0.0000000   0.0000000   0.0000000   0.0000000   0.0000000   0.0000000
 NMagM=    2.7928460   2.7928460   2.2175200   0.0000000   0.0000000   2.7928460   2.7928460   2.7928460   0.0000000   2.7928460
 AtZNuc=   1.0000000   1.0000000  11.0000000   8.0000000   6.0000000   1.0000000   1.0000000   1.0000000   6.0000000   1.0000000

  Atom        91          92          93          94          95          96          97          98          99         100
 IAtWgt=           1           1          12          19          19          19          12          19          19          19
 AtmWgt=   1.0078250   1.0078250  12.0000000  18.9984033  18.9984033  18.9984033  12.0000000  18.9984033  18.9984033  18.9984033
 NucSpn=           1           1           0           1           1           1           0           1           1           1
 AtZEff=   0.0000000   0.0000000   0.0000000   0.0000000   0.0000000   0.0000000   0.0000000   0.0000000   0.0000000   0.0000000
 NQMom=    0.0000000   0.0000000   0.0000000   0.0000000   0.0000000   0.0000000   0.0000000   0.0000000   0.0000000   0.0000000
 NMagM=    2.7928460   2.7928460   0.0000000   2.6288670   2.6288670   2.6288670   0.0000000   2.6288670   2.6288670   2.6288670
 AtZNuc=   1.0000000   1.0000000   6.0000000   9.0000000   9.0000000   9.0000000   6.0000000   9.0000000   9.0000000   9.0000000
 Leave Link  101 at Fri May 24 04:06:24 2019, MaxMem=  6442450944 cpu:              18.0 elap:               0.7
 (Enter /home/ekwan/sw/g16/l103.exe)

 GradGradGradGradGradGradGradGradGradGradGradGradGradGradGradGradGradGrad
 Berny optimization.
 Initialization pass.
                           ----------------------------
                           !    Initial Parameters    !
                           ! (Angstroms and Degrees)  !
 --------------------------                            --------------------------
 ! Name  Definition              Value          Derivative Info.                !
 --------------------------------------------------------------------------------
 ! R1    R(1,2)                  1.5278         calculate D2E/DX2 analytically  !
 ! R2    R(1,5)                  1.5292         calculate D2E/DX2 analytically  !
 ! R3    R(1,8)                  1.0982         calculate D2E/DX2 analytically  !
 ! R4    R(1,14)                 1.4328         calculate D2E/DX2 analytically  !
 ! R5    R(2,3)                  1.5363         calculate D2E/DX2 analytically  !
 ! R6    R(2,7)                  1.1011         calculate D2E/DX2 analytically  !
 ! R7    R(2,13)                 1.4209         calculate D2E/DX2 analytically  !
 ! R8    R(3,6)                  1.0972         calculate D2E/DX2 analytically  !
 ! R9    R(3,11)                 1.4034         calculate D2E/DX2 analytically  !
 ! R10   R(3,12)                 1.4084         calculate D2E/DX2 analytically  !
 ! R11   R(4,5)                  1.5308         calculate D2E/DX2 analytically  !
 ! R12   R(4,9)                  1.0994         calculate D2E/DX2 analytically  !
 ! R13   R(4,11)                 1.4475         calculate D2E/DX2 analytically  !
 ! R14   R(4,16)                 1.5483         calculate D2E/DX2 analytically  !
 ! R15   R(5,10)                 1.0884         calculate D2E/DX2 analytically  !
 ! R16   R(5,15)                 1.4327         calculate D2E/DX2 analytically  !
 ! R17   R(10,42)                2.1813         calculate D2E/DX2 analytically  !
 ! R18   R(11,37)                2.192          calculate D2E/DX2 analytically  !
 ! R19   R(12,79)                1.4228         calculate D2E/DX2 analytically  !
 ! R20   R(13,20)                1.4167         calculate D2E/DX2 analytically  !
 ! R21   R(14,24)                1.4188         calculate D2E/DX2 analytically  !
 ! R22   R(15,28)                1.4254         calculate D2E/DX2 analytically  !
 ! R23   R(16,17)                1.1228         calculate D2E/DX2 analytically  !
 ! R24   R(16,18)                1.1222         calculate D2E/DX2 analytically  !
 ! R25   R(16,19)                1.3566         calculate D2E/DX2 analytically  !
 ! R26   R(19,37)                2.2013         calculate D2E/DX2 analytically  !
 ! R27   R(19,65)                2.1006         calculate D2E/DX2 analytically  !
 ! R28   R(20,21)                1.0976         calculate D2E/DX2 analytically  !
 ! R29   R(20,22)                1.1008         calculate D2E/DX2 analytically  !
 ! R30   R(20,23)                1.0932         calculate D2E/DX2 analytically  !
 ! R31   R(24,25)                1.0946         calculate D2E/DX2 analytically  !
 ! R32   R(24,26)                1.1005         calculate D2E/DX2 analytically  !
 ! R33   R(24,27)                1.094          calculate D2E/DX2 analytically  !
 ! R34   R(28,29)                1.0987         calculate D2E/DX2 analytically  !
 ! R35   R(28,30)                1.0961         calculate D2E/DX2 analytically  !
 ! R36   R(28,31)                1.0945         calculate D2E/DX2 analytically  !
 ! R37   R(32,33)                1.5289         calculate D2E/DX2 analytically  !
 ! R38   R(32,36)                1.5294         calculate D2E/DX2 analytically  !
 ! R39   R(32,39)                1.0975         calculate D2E/DX2 analytically  !
 ! R40   R(32,45)                1.4165         calculate D2E/DX2 analytically  !
 ! R41   R(33,34)                1.5095         calculate D2E/DX2 analytically  !
 ! R42   R(33,38)                1.0974         calculate D2E/DX2 analytically  !
 ! R43   R(33,44)                1.4085         calculate D2E/DX2 analytically  !
 ! R44   R(34,37)                1.0829         calculate D2E/DX2 analytically  !
 ! R45   R(34,42)                1.3237         calculate D2E/DX2 analytically  !
 ! R46   R(34,53)                1.7859         calculate D2E/DX2 analytically  !
 ! R47   R(35,36)                1.5323         calculate D2E/DX2 analytically  !
 ! R48   R(35,40)                1.0928         calculate D2E/DX2 analytically  !
 ! R49   R(35,42)                1.4537         calculate D2E/DX2 analytically  !
 ! R50   R(35,47)                1.5163         calculate D2E/DX2 analytically  !
 ! R51   R(36,41)                1.0951         calculate D2E/DX2 analytically  !
 ! R52   R(36,46)                1.4216         calculate D2E/DX2 analytically  !
 ! R53   R(43,51)                1.4611         calculate D2E/DX2 analytically  !
 ! R54   R(44,63)                1.4385         calculate D2E/DX2 analytically  !
 ! R55   R(45,67)                1.4242         calculate D2E/DX2 analytically  !
 ! R56   R(46,71)                1.4249         calculate D2E/DX2 analytically  !
 ! R57   R(47,48)                1.0997         calculate D2E/DX2 analytically  !
 ! R58   R(47,49)                1.0998         calculate D2E/DX2 analytically  !
 ! R59   R(47,50)                1.4133         calculate D2E/DX2 analytically  !
 ! R60   R(50,75)                1.4161         calculate D2E/DX2 analytically  !
 ! R61   R(51,52)                1.4868         calculate D2E/DX2 analytically  !
 ! R62   R(51,53)                1.5651         calculate D2E/DX2 analytically  !
 ! R63   R(51,54)                1.7858         calculate D2E/DX2 analytically  !
 ! R64   R(51,83)                3.006          calculate D2E/DX2 analytically  !
 ! R65   R(54,55)                1.3882         calculate D2E/DX2 analytically  !
 ! R66   R(54,56)                1.3902         calculate D2E/DX2 analytically  !
 ! R67   R(55,57)                1.3937         calculate D2E/DX2 analytically  !
 ! R68   R(55,58)                1.0817         calculate D2E/DX2 analytically  !
 ! R69   R(56,59)                1.3933         calculate D2E/DX2 analytically  !
 ! R70   R(56,60)                1.0831         calculate D2E/DX2 analytically  !
 ! R71   R(57,61)                1.3943         calculate D2E/DX2 analytically  !
 ! R72   R(57,93)                1.5039         calculate D2E/DX2 analytically  !
 ! R73   R(59,61)                1.3946         calculate D2E/DX2 analytically  !
 ! R74   R(59,97)                1.5027         calculate D2E/DX2 analytically  !
 ! R75   R(61,62)                1.0828         calculate D2E/DX2 analytically  !
 ! R76   R(63,64)                1.0927         calculate D2E/DX2 analytically  !
 ! R77   R(63,65)                1.0989         calculate D2E/DX2 analytically  !
 ! R78   R(63,66)                1.0984         calculate D2E/DX2 analytically  !
 ! R79   R(67,68)                1.0997         calculate D2E/DX2 analytically  !
 ! R80   R(67,69)                1.0936         calculate D2E/DX2 analytically  !
 ! R81   R(67,70)                1.093          calculate D2E/DX2 analytically  !
 ! R82   R(71,72)                1.0942         calculate D2E/DX2 analytically  !
 ! R83   R(71,73)                1.0983         calculate D2E/DX2 analytically  !
 ! R84   R(71,74)                1.0926         calculate D2E/DX2 analytically  !
 ! R85   R(75,76)                1.092          calculate D2E/DX2 analytically  !
 ! R86   R(75,77)                1.1            calculate D2E/DX2 analytically  !
 ! R87   R(75,78)                1.1008         calculate D2E/DX2 analytically  !
 ! R88   R(79,80)                1.0921         calculate D2E/DX2 analytically  !
 ! R89   R(79,81)                1.0957         calculate D2E/DX2 analytically  !
 ! R90   R(79,82)                1.0998         calculate D2E/DX2 analytically  !
 ! R91   R(83,84)                2.2965         calculate D2E/DX2 analytically  !
 ! R92   R(84,85)                1.4268         calculate D2E/DX2 analytically  !
 ! R93   R(84,89)                1.4307         calculate D2E/DX2 analytically  !
 ! R94   R(85,86)                1.0968         calculate D2E/DX2 analytically  !
 ! R95   R(85,87)                1.0922         calculate D2E/DX2 analytically  !
 ! R96   R(85,88)                1.0973         calculate D2E/DX2 analytically  !
 ! R97   R(89,90)                1.0972         calculate D2E/DX2 analytically  !
 ! R98   R(89,91)                1.0889         calculate D2E/DX2 analytically  !
 ! R99   R(89,92)                1.095          calculate D2E/DX2 analytically  !
 ! R100  R(93,94)                1.3487         calculate D2E/DX2 analytically  !
 ! R101  R(93,95)                1.3479         calculate D2E/DX2 analytically  !
 ! R102  R(93,96)                1.3564         calculate D2E/DX2 analytically  !
 ! R103  R(97,98)                1.3447         calculate D2E/DX2 analytically  !
 ! R104  R(97,99)                1.3502         calculate D2E/DX2 analytically  !
 ! R105  R(97,100)               1.361          calculate D2E/DX2 analytically  !
 ! A1    A(2,1,5)              111.3422         calculate D2E/DX2 analytically  !
 ! A2    A(2,1,8)              108.0001         calculate D2E/DX2 analytically  !
 ! A3    A(2,1,14)             107.1961         calculate D2E/DX2 analytically  !
 ! A4    A(5,1,8)              109.7725         calculate D2E/DX2 analytically  !
 ! A5    A(5,1,14)             110.9225         calculate D2E/DX2 analytically  !
 ! A6    A(8,1,14)             109.523          calculate D2E/DX2 analytically  !
 ! A7    A(1,2,3)              110.9547         calculate D2E/DX2 analytically  !
 ! A8    A(1,2,7)              108.4936         calculate D2E/DX2 analytically  !
 ! A9    A(1,2,13)             107.5587         calculate D2E/DX2 analytically  !
 ! A10   A(3,2,7)              106.2067         calculate D2E/DX2 analytically  !
 ! A11   A(3,2,13)             113.844          calculate D2E/DX2 analytically  !
 ! A12   A(7,2,13)             109.6812         calculate D2E/DX2 analytically  !
 ! A13   A(2,3,6)              110.9317         calculate D2E/DX2 analytically  !
 ! A14   A(2,3,11)             110.4107         calculate D2E/DX2 analytically  !
 ! A15   A(2,3,12)             107.9647         calculate D2E/DX2 analytically  !
 ! A16   A(6,3,11)             104.0509         calculate D2E/DX2 analytically  !
 ! A17   A(6,3,12)             109.9881         calculate D2E/DX2 analytically  !
 ! A18   A(11,3,12)            113.4995         calculate D2E/DX2 analytically  !
 ! A19   A(5,4,9)              109.5879         calculate D2E/DX2 analytically  !
 ! A20   A(5,4,11)             109.8054         calculate D2E/DX2 analytically  !
 ! A21   A(5,4,16)             111.8852         calculate D2E/DX2 analytically  !
 ! A22   A(9,4,11)             108.8745         calculate D2E/DX2 analytically  !
 ! A23   A(9,4,16)             110.6751         calculate D2E/DX2 analytically  !
 ! A24   A(11,4,16)            105.9155         calculate D2E/DX2 analytically  !
 ! A25   A(1,5,4)              113.7312         calculate D2E/DX2 analytically  !
 ! A26   A(1,5,10)             108.09           calculate D2E/DX2 analytically  !
 ! A27   A(1,5,15)             109.2187         calculate D2E/DX2 analytically  !
 ! A28   A(4,5,10)             107.461          calculate D2E/DX2 analytically  !
 ! A29   A(4,5,15)             109.006          calculate D2E/DX2 analytically  !
 ! A30   A(10,5,15)            109.2464         calculate D2E/DX2 analytically  !
 ! A31   A(5,10,42)            148.1406         calculate D2E/DX2 analytically  !
 ! A32   A(3,11,4)             115.1078         calculate D2E/DX2 analytically  !
 ! A33   A(3,11,37)            115.7158         calculate D2E/DX2 analytically  !
 ! A34   A(4,11,37)             97.4588         calculate D2E/DX2 analytically  !
 ! A35   A(3,12,79)            112.7456         calculate D2E/DX2 analytically  !
 ! A36   A(2,13,20)            114.7106         calculate D2E/DX2 analytically  !
 ! A37   A(1,14,24)            114.2428         calculate D2E/DX2 analytically  !
 ! A38   A(5,15,28)            112.1168         calculate D2E/DX2 analytically  !
 ! A39   A(4,16,17)            104.4125         calculate D2E/DX2 analytically  !
 ! A40   A(4,16,18)            103.9257         calculate D2E/DX2 analytically  !
 ! A41   A(4,16,19)            114.1761         calculate D2E/DX2 analytically  !
 ! A42   A(17,16,18)           104.0088         calculate D2E/DX2 analytically  !
 ! A43   A(17,16,19)           114.4838         calculate D2E/DX2 analytically  !
 ! A44   A(18,16,19)           114.5608         calculate D2E/DX2 analytically  !
 ! A45   A(16,19,37)           102.3917         calculate D2E/DX2 analytically  !
 ! A46   A(16,19,65)           114.7907         calculate D2E/DX2 analytically  !
 ! A47   A(37,19,65)            76.0345         calculate D2E/DX2 analytically  !
 ! A48   A(13,20,21)           111.7987         calculate D2E/DX2 analytically  !
 ! A49   A(13,20,22)           112.1358         calculate D2E/DX2 analytically  !
 ! A50   A(13,20,23)           106.8319         calculate D2E/DX2 analytically  !
 ! A51   A(21,20,22)           108.247          calculate D2E/DX2 analytically  !
 ! A52   A(21,20,23)           108.8147         calculate D2E/DX2 analytically  !
 ! A53   A(22,20,23)           108.9311         calculate D2E/DX2 analytically  !
 ! A54   A(14,24,25)           111.7762         calculate D2E/DX2 analytically  !
 ! A55   A(14,24,26)           111.1039         calculate D2E/DX2 analytically  !
 ! A56   A(14,24,27)           106.7628         calculate D2E/DX2 analytically  !
 ! A57   A(25,24,26)           108.7062         calculate D2E/DX2 analytically  !
 ! A58   A(25,24,27)           109.6376         calculate D2E/DX2 analytically  !
 ! A59   A(26,24,27)           108.7973         calculate D2E/DX2 analytically  !
 ! A60   A(15,28,29)           110.7528         calculate D2E/DX2 analytically  !
 ! A61   A(15,28,30)           110.9668         calculate D2E/DX2 analytically  !
 ! A62   A(15,28,31)           107.1312         calculate D2E/DX2 analytically  !
 ! A63   A(29,28,30)           108.2947         calculate D2E/DX2 analytically  !
 ! A64   A(29,28,31)           109.1921         calculate D2E/DX2 analytically  !
 ! A65   A(30,28,31)           110.4978         calculate D2E/DX2 analytically  !
 ! A66   A(33,32,36)           107.7596         calculate D2E/DX2 analytically  !
 ! A67   A(33,32,39)           109.8338         calculate D2E/DX2 analytically  !
 ! A68   A(33,32,45)           111.777          calculate D2E/DX2 analytically  !
 ! A69   A(36,32,39)           109.4028         calculate D2E/DX2 analytically  !
 ! A70   A(36,32,45)           108.0236         calculate D2E/DX2 analytically  !
 ! A71   A(39,32,45)           109.9762         calculate D2E/DX2 analytically  !
 ! A72   A(32,33,34)           111.3509         calculate D2E/DX2 analytically  !
 ! A73   A(32,33,38)           109.0455         calculate D2E/DX2 analytically  !
 ! A74   A(32,33,44)           111.6522         calculate D2E/DX2 analytically  !
 ! A75   A(34,33,38)           103.1931         calculate D2E/DX2 analytically  !
 ! A76   A(34,33,44)           110.7273         calculate D2E/DX2 analytically  !
 ! A77   A(38,33,44)           110.5482         calculate D2E/DX2 analytically  !
 ! A78   A(33,34,37)           116.9801         calculate D2E/DX2 analytically  !
 ! A79   A(33,34,42)           117.9905         calculate D2E/DX2 analytically  !
 ! A80   A(33,34,53)           103.5864         calculate D2E/DX2 analytically  !
 ! A81   A(37,34,42)           112.9784         calculate D2E/DX2 analytically  !
 ! A82   A(37,34,53)           101.4234         calculate D2E/DX2 analytically  !
 ! A83   A(42,34,53)           100.0322         calculate D2E/DX2 analytically  !
 ! A84   A(36,35,40)           107.6644         calculate D2E/DX2 analytically  !
 ! A85   A(36,35,42)           113.4768         calculate D2E/DX2 analytically  !
 ! A86   A(36,35,47)           113.7363         calculate D2E/DX2 analytically  !
 ! A87   A(40,35,42)           106.8827         calculate D2E/DX2 analytically  !
 ! A88   A(40,35,47)           108.2827         calculate D2E/DX2 analytically  !
 ! A89   A(42,35,47)           106.4944         calculate D2E/DX2 analytically  !
 ! A90   A(32,36,35)           111.4325         calculate D2E/DX2 analytically  !
 ! A91   A(32,36,41)           108.8271         calculate D2E/DX2 analytically  !
 ! A92   A(32,36,46)           111.7719         calculate D2E/DX2 analytically  !
 ! A93   A(35,36,41)           109.3443         calculate D2E/DX2 analytically  !
 ! A94   A(35,36,46)           105.082          calculate D2E/DX2 analytically  !
 ! A95   A(41,36,46)           110.3314         calculate D2E/DX2 analytically  !
 ! A96   A(11,37,19)            83.2406         calculate D2E/DX2 analytically  !
 ! A97   A(11,37,34)           156.6133         calculate D2E/DX2 analytically  !
 ! A98   A(19,37,34)           104.9655         calculate D2E/DX2 analytically  !
 ! A99   A(10,42,34)            98.6165         calculate D2E/DX2 analytically  !
 ! A100  A(10,42,35)           134.4272         calculate D2E/DX2 analytically  !
 ! A101  A(34,42,35)           120.1153         calculate D2E/DX2 analytically  !
 ! A102  A(33,44,63)           113.4607         calculate D2E/DX2 analytically  !
 ! A103  A(32,45,67)           114.28           calculate D2E/DX2 analytically  !
 ! A104  A(36,46,71)           114.1399         calculate D2E/DX2 analytically  !
 ! A105  A(35,47,48)           108.3507         calculate D2E/DX2 analytically  !
 ! A106  A(35,47,49)           108.5951         calculate D2E/DX2 analytically  !
 ! A107  A(35,47,50)           109.8238         calculate D2E/DX2 analytically  !
 ! A108  A(48,47,49)           108.8918         calculate D2E/DX2 analytically  !
 ! A109  A(48,47,50)           110.514          calculate D2E/DX2 analytically  !
 ! A110  A(49,47,50)           110.6083         calculate D2E/DX2 analytically  !
 ! A111  A(47,50,75)           111.9305         calculate D2E/DX2 analytically  !
 ! A112  A(43,51,52)           118.3488         calculate D2E/DX2 analytically  !
 ! A113  A(43,51,53)           113.5613         calculate D2E/DX2 analytically  !
 ! A114  A(43,51,54)           109.2628         calculate D2E/DX2 analytically  !
 ! A115  A(43,51,83)           135.4959         calculate D2E/DX2 analytically  !
 ! A116  A(52,51,53)           104.3223         calculate D2E/DX2 analytically  !
 ! A117  A(52,51,54)           107.1042         calculate D2E/DX2 analytically  !
 ! A118  A(52,51,83)            51.1779         calculate D2E/DX2 analytically  !
 ! A119  A(53,51,54)           102.9782         calculate D2E/DX2 analytically  !
 ! A120  A(53,51,83)            53.1444         calculate D2E/DX2 analytically  !
 ! A121  A(54,51,83)           115.0818         calculate D2E/DX2 analytically  !
 ! A122  A(34,53,51)           125.7719         calculate D2E/DX2 analytically  !
 ! A123  A(51,54,55)           119.6274         calculate D2E/DX2 analytically  !
 ! A124  A(51,54,56)           118.3066         calculate D2E/DX2 analytically  !
 ! A125  A(55,54,56)           121.6524         calculate D2E/DX2 analytically  !
 ! A126  A(54,55,57)           118.6603         calculate D2E/DX2 analytically  !
 ! A127  A(54,55,58)           119.955          calculate D2E/DX2 analytically  !
 ! A128  A(57,55,58)           121.3719         calculate D2E/DX2 analytically  !
 ! A129  A(54,56,59)           118.9415         calculate D2E/DX2 analytically  !
 ! A130  A(54,56,60)           120.2288         calculate D2E/DX2 analytically  !
 ! A131  A(59,56,60)           120.8291         calculate D2E/DX2 analytically  !
 ! A132  A(55,57,61)           120.786          calculate D2E/DX2 analytically  !
 ! A133  A(55,57,93)           118.6693         calculate D2E/DX2 analytically  !
 ! A134  A(61,57,93)           120.2784         calculate D2E/DX2 analytically  !
 ! A135  A(56,59,61)           120.4598         calculate D2E/DX2 analytically  !
 ! A136  A(56,59,97)           118.6221         calculate D2E/DX2 analytically  !
 ! A137  A(61,59,97)           120.7053         calculate D2E/DX2 analytically  !
 ! A138  A(57,61,59)           119.4561         calculate D2E/DX2 analytically  !
 ! A139  A(57,61,62)           120.2876         calculate D2E/DX2 analytically  !
 ! A140  A(59,61,62)           120.2563         calculate D2E/DX2 analytically  !
 ! A141  A(44,63,64)           106.8587         calculate D2E/DX2 analytically  !
 ! A142  A(44,63,65)           109.5369         calculate D2E/DX2 analytically  !
 ! A143  A(44,63,66)           109.6244         calculate D2E/DX2 analytically  !
 ! A144  A(64,63,65)           111.5489         calculate D2E/DX2 analytically  !
 ! A145  A(64,63,66)           108.775          calculate D2E/DX2 analytically  !
 ! A146  A(65,63,66)           110.4186         calculate D2E/DX2 analytically  !
 ! A147  A(19,65,63)           151.1221         calculate D2E/DX2 analytically  !
 ! A148  A(45,67,68)           110.9834         calculate D2E/DX2 analytically  !
 ! A149  A(45,67,69)           111.7175         calculate D2E/DX2 analytically  !
 ! A150  A(45,67,70)           106.4488         calculate D2E/DX2 analytically  !
 ! A151  A(68,67,69)           109.0485         calculate D2E/DX2 analytically  !
 ! A152  A(68,67,70)           108.9318         calculate D2E/DX2 analytically  !
 ! A153  A(69,67,70)           109.6463         calculate D2E/DX2 analytically  !
 ! A154  A(46,71,72)           111.0496         calculate D2E/DX2 analytically  !
 ! A155  A(46,71,73)           110.7197         calculate D2E/DX2 analytically  !
 ! A156  A(46,71,74)           106.4945         calculate D2E/DX2 analytically  !
 ! A157  A(72,71,73)           109.4616         calculate D2E/DX2 analytically  !
 ! A158  A(72,71,74)           109.8096         calculate D2E/DX2 analytically  !
 ! A159  A(73,71,74)           109.252          calculate D2E/DX2 analytically  !
 ! A160  A(50,75,76)           107.1366         calculate D2E/DX2 analytically  !
 ! A161  A(50,75,77)           111.4261         calculate D2E/DX2 analytically  !
 ! A162  A(50,75,78)           111.256          calculate D2E/DX2 analytically  !
 ! A163  A(76,75,77)           109.1261         calculate D2E/DX2 analytically  !
 ! A164  A(76,75,78)           109.2612         calculate D2E/DX2 analytically  !
 ! A165  A(77,75,78)           108.5908         calculate D2E/DX2 analytically  !
 ! A166  A(12,79,80)           106.8118         calculate D2E/DX2 analytically  !
 ! A167  A(12,79,81)           111.4996         calculate D2E/DX2 analytically  !
 ! A168  A(12,79,82)           110.8538         calculate D2E/DX2 analytically  !
 ! A169  A(80,79,81)           109.6068         calculate D2E/DX2 analytically  !
 ! A170  A(80,79,82)           109.3295         calculate D2E/DX2 analytically  !
 ! A171  A(81,79,82)           108.7058         calculate D2E/DX2 analytically  !
 ! A172  A(51,83,84)           120.6148         calculate D2E/DX2 analytically  !
 ! A173  A(83,84,85)           124.617          calculate D2E/DX2 analytically  !
 ! A174  A(83,84,89)           123.3404         calculate D2E/DX2 analytically  !
 ! A175  A(85,84,89)           111.8446         calculate D2E/DX2 analytically  !
 ! A176  A(84,85,86)           110.3171         calculate D2E/DX2 analytically  !
 ! A177  A(84,85,87)           107.3942         calculate D2E/DX2 analytically  !
 ! A178  A(84,85,88)           110.6282         calculate D2E/DX2 analytically  !
 ! A179  A(86,85,87)           109.7024         calculate D2E/DX2 analytically  !
 ! A180  A(86,85,88)           109.2856         calculate D2E/DX2 analytically  !
 ! A181  A(87,85,88)           109.4878         calculate D2E/DX2 analytically  !
 ! A182  A(84,89,90)           110.5429         calculate D2E/DX2 analytically  !
 ! A183  A(84,89,91)           107.0649         calculate D2E/DX2 analytically  !
 ! A184  A(84,89,92)           110.2595         calculate D2E/DX2 analytically  !
 ! A185  A(90,89,91)           109.4097         calculate D2E/DX2 analytically  !
 ! A186  A(90,89,92)           110.2852         calculate D2E/DX2 analytically  !
 ! A187  A(91,89,92)           109.2105         calculate D2E/DX2 analytically  !
 ! A188  A(57,93,94)           111.7371         calculate D2E/DX2 analytically  !
 ! A189  A(57,93,95)           112.2009         calculate D2E/DX2 analytically  !
 ! A190  A(57,93,96)           110.7409         calculate D2E/DX2 analytically  !
 ! A191  A(94,93,95)           107.9148         calculate D2E/DX2 analytically  !
 ! A192  A(94,93,96)           106.8261         calculate D2E/DX2 analytically  !
 ! A193  A(95,93,96)           107.1545         calculate D2E/DX2 analytically  !
 ! A194  A(59,97,98)           112.5673         calculate D2E/DX2 analytically  !
 ! A195  A(59,97,99)           111.8238         calculate D2E/DX2 analytically  !
 ! A196  A(59,97,100)          110.4884         calculate D2E/DX2 analytically  !
 ! A197  A(98,97,99)           108.0333         calculate D2E/DX2 analytically  !
 ! A198  A(98,97,100)          107.1764         calculate D2E/DX2 analytically  !
 ! A199  A(99,97,100)          106.452          calculate D2E/DX2 analytically  !
 ! D1    D(5,1,2,3)            -48.3943         calculate D2E/DX2 analytically  !
 ! D2    D(5,1,2,7)             67.916          calculate D2E/DX2 analytically  !
 ! D3    D(5,1,2,13)          -173.5086         calculate D2E/DX2 analytically  !
 ! D4    D(8,1,2,3)             72.1924         calculate D2E/DX2 analytically  !
 ! D5    D(8,1,2,7)           -171.4973         calculate D2E/DX2 analytically  !
 ! D6    D(8,1,2,13)           -52.9219         calculate D2E/DX2 analytically  !
 ! D7    D(14,1,2,3)          -169.8783         calculate D2E/DX2 analytically  !
 ! D8    D(14,1,2,7)           -53.568          calculate D2E/DX2 analytically  !
 ! D9    D(14,1,2,13)           65.0074         calculate D2E/DX2 analytically  !
 ! D10   D(2,1,5,4)             46.3936         calculate D2E/DX2 analytically  !
 ! D11   D(2,1,5,10)           -72.8432         calculate D2E/DX2 analytically  !
 ! D12   D(2,1,5,15)           168.3987         calculate D2E/DX2 analytically  !
 ! D13   D(8,1,5,4)            -73.1455         calculate D2E/DX2 analytically  !
 ! D14   D(8,1,5,10)           167.6177         calculate D2E/DX2 analytically  !
 ! D15   D(8,1,5,15)            48.8596         calculate D2E/DX2 analytically  !
 ! D16   D(14,1,5,4)           165.6814         calculate D2E/DX2 analytically  !
 ! D17   D(14,1,5,10)           46.4447         calculate D2E/DX2 analytically  !
 ! D18   D(14,1,5,15)          -72.3134         calculate D2E/DX2 analytically  !
 ! D19   D(2,1,14,24)         -146.3852         calculate D2E/DX2 analytically  !
 ! D20   D(5,1,14,24)           91.8673         calculate D2E/DX2 analytically  !
 ! D21   D(8,1,14,24)          -29.4526         calculate D2E/DX2 analytically  !
 ! D22   D(1,2,3,6)            170.3911         calculate D2E/DX2 analytically  !
 ! D23   D(1,2,3,11)            55.5765         calculate D2E/DX2 analytically  !
 ! D24   D(1,2,3,12)           -69.028          calculate D2E/DX2 analytically  !
 ! D25   D(7,2,3,6)             52.6791         calculate D2E/DX2 analytically  !
 ! D26   D(7,2,3,11)           -62.1355         calculate D2E/DX2 analytically  !
 ! D27   D(7,2,3,12)           173.26           calculate D2E/DX2 analytically  !
 ! D28   D(13,2,3,6)           -68.1122         calculate D2E/DX2 analytically  !
 ! D29   D(13,2,3,11)          177.0733         calculate D2E/DX2 analytically  !
 ! D30   D(13,2,3,12)           52.4687         calculate D2E/DX2 analytically  !
 ! D31   D(1,2,13,20)          174.4626         calculate D2E/DX2 analytically  !
 ! D32   D(3,2,13,20)           51.0983         calculate D2E/DX2 analytically  !
 ! D33   D(7,2,13,20)          -67.7286         calculate D2E/DX2 analytically  !
 ! D34   D(2,3,11,4)           -61.938          calculate D2E/DX2 analytically  !
 ! D35   D(2,3,11,37)           50.6933         calculate D2E/DX2 analytically  !
 ! D36   D(6,3,11,4)           178.9792         calculate D2E/DX2 analytically  !
 ! D37   D(6,3,11,37)          -68.3895         calculate D2E/DX2 analytically  !
 ! D38   D(12,3,11,4)           59.4377         calculate D2E/DX2 analytically  !
 ! D39   D(12,3,11,37)         172.069          calculate D2E/DX2 analytically  !
 ! D40   D(2,3,12,79)         -174.0311         calculate D2E/DX2 analytically  !
 ! D41   D(6,3,12,79)          -52.8614         calculate D2E/DX2 analytically  !
 ! D42   D(11,3,12,79)          63.2338         calculate D2E/DX2 analytically  !
 ! D43   D(9,4,5,1)             70.6468         calculate D2E/DX2 analytically  !
 ! D44   D(9,4,5,10)          -169.7588         calculate D2E/DX2 analytically  !
 ! D45   D(9,4,5,15)           -51.4761         calculate D2E/DX2 analytically  !
 ! D46   D(11,4,5,1)           -48.8981         calculate D2E/DX2 analytically  !
 ! D47   D(11,4,5,10)           70.6963         calculate D2E/DX2 analytically  !
 ! D48   D(11,4,5,15)         -171.021          calculate D2E/DX2 analytically  !
 ! D49   D(16,4,5,1)          -166.2052         calculate D2E/DX2 analytically  !
 ! D50   D(16,4,5,10)          -46.6107         calculate D2E/DX2 analytically  !
 ! D51   D(16,4,5,15)           71.6719         calculate D2E/DX2 analytically  !
 ! D52   D(5,4,11,3)            57.9768         calculate D2E/DX2 analytically  !
 ! D53   D(5,4,11,37)          -65.0222         calculate D2E/DX2 analytically  !
 ! D54   D(9,4,11,3)           -62.0033         calculate D2E/DX2 analytically  !
 ! D55   D(9,4,11,37)          174.9977         calculate D2E/DX2 analytically  !
 ! D56   D(16,4,11,3)          178.952          calculate D2E/DX2 analytically  !
 ! D57   D(16,4,11,37)          55.953          calculate D2E/DX2 analytically  !
 ! D58   D(5,4,16,17)          -75.6023         calculate D2E/DX2 analytically  !
 ! D59   D(5,4,16,18)          175.6606         calculate D2E/DX2 analytically  !
 ! D60   D(5,4,16,19)           50.1589         calculate D2E/DX2 analytically  !
 ! D61   D(9,4,16,17)           46.9283         calculate D2E/DX2 analytically  !
 ! D62   D(9,4,16,18)          -61.8088         calculate D2E/DX2 analytically  !
 ! D63   D(9,4,16,19)          172.6895         calculate D2E/DX2 analytically  !
 ! D64   D(11,4,16,17)         164.7779         calculate D2E/DX2 analytically  !
 ! D65   D(11,4,16,18)          56.0409         calculate D2E/DX2 analytically  !
 ! D66   D(11,4,16,19)         -69.4608         calculate D2E/DX2 analytically  !
 ! D67   D(1,5,10,42)           41.379          calculate D2E/DX2 analytically  !
 ! D68   D(4,5,10,42)          -81.7533         calculate D2E/DX2 analytically  !
 ! D69   D(15,5,10,42)         160.1194         calculate D2E/DX2 analytically  !
 ! D70   D(1,5,15,28)          131.9044         calculate D2E/DX2 analytically  !
 ! D71   D(4,5,15,28)         -103.2863         calculate D2E/DX2 analytically  !
 ! D72   D(10,5,15,28)          13.869          calculate D2E/DX2 analytically  !
 ! D73   D(5,10,42,34)          79.6017         calculate D2E/DX2 analytically  !
 ! D74   D(5,10,42,35)        -131.1791         calculate D2E/DX2 analytically  !
 ! D75   D(3,11,37,19)        -153.5609         calculate D2E/DX2 analytically  !
 ! D76   D(3,11,37,34)         -41.1613         calculate D2E/DX2 analytically  !
 ! D77   D(4,11,37,19)         -31.0106         calculate D2E/DX2 analytically  !
 ! D78   D(4,11,37,34)          81.389          calculate D2E/DX2 analytically  !
 ! D79   D(3,12,79,80)         176.2273         calculate D2E/DX2 analytically  !
 ! D80   D(3,12,79,81)         -64.0518         calculate D2E/DX2 analytically  !
 ! D81   D(3,12,79,82)          57.2072         calculate D2E/DX2 analytically  !
 ! D82   D(2,13,20,21)         -73.966          calculate D2E/DX2 analytically  !
 ! D83   D(2,13,20,22)          47.8204         calculate D2E/DX2 analytically  !
 ! D84   D(2,13,20,23)         167.0944         calculate D2E/DX2 analytically  !
 ! D85   D(1,14,24,25)         -61.4139         calculate D2E/DX2 analytically  !
 ! D86   D(1,14,24,26)          60.212          calculate D2E/DX2 analytically  !
 ! D87   D(1,14,24,27)         178.6994         calculate D2E/DX2 analytically  !
 ! D88   D(5,15,28,29)         -75.5421         calculate D2E/DX2 analytically  !
 ! D89   D(5,15,28,30)          44.7685         calculate D2E/DX2 analytically  !
 ! D90   D(5,15,28,31)         165.4674         calculate D2E/DX2 analytically  !
 ! D91   D(4,16,19,37)          35.2333         calculate D2E/DX2 analytically  !
 ! D92   D(4,16,19,65)         115.4049         calculate D2E/DX2 analytically  !
 ! D93   D(17,16,19,37)        155.5128         calculate D2E/DX2 analytically  !
 ! D94   D(17,16,19,65)       -124.3156         calculate D2E/DX2 analytically  !
 ! D95   D(18,16,19,37)        -84.4498         calculate D2E/DX2 analytically  !
 ! D96   D(18,16,19,65)         -4.2782         calculate D2E/DX2 analytically  !
 ! D97   D(16,19,37,11)         -1.961          calculate D2E/DX2 analytically  !
 ! D98   D(16,19,37,34)       -159.6354         calculate D2E/DX2 analytically  !
 ! D99   D(65,19,37,11)       -114.775          calculate D2E/DX2 analytically  !
 ! D100  D(65,19,37,34)         87.5506         calculate D2E/DX2 analytically  !
 ! D101  D(16,19,65,63)       -150.5903         calculate D2E/DX2 analytically  !
 ! D102  D(37,19,65,63)        -53.1948         calculate D2E/DX2 analytically  !
 ! D103  D(36,32,33,34)        -54.2207         calculate D2E/DX2 analytically  !
 ! D104  D(36,32,33,38)         58.9948         calculate D2E/DX2 analytically  !
 ! D105  D(36,32,33,44)       -178.5558         calculate D2E/DX2 analytically  !
 ! D106  D(39,32,33,34)         64.8803         calculate D2E/DX2 analytically  !
 ! D107  D(39,32,33,38)        178.0958         calculate D2E/DX2 analytically  !
 ! D108  D(39,32,33,44)        -59.4548         calculate D2E/DX2 analytically  !
 ! D109  D(45,32,33,34)       -172.7636         calculate D2E/DX2 analytically  !
 ! D110  D(45,32,33,38)        -59.5481         calculate D2E/DX2 analytically  !
 ! D111  D(45,32,33,44)         62.9013         calculate D2E/DX2 analytically  !
 ! D112  D(33,32,36,35)         55.6143         calculate D2E/DX2 analytically  !
 ! D113  D(33,32,36,41)        -65.0367         calculate D2E/DX2 analytically  !
 ! D114  D(33,32,36,46)        172.8587         calculate D2E/DX2 analytically  !
 ! D115  D(39,32,36,35)        -63.7612         calculate D2E/DX2 analytically  !
 ! D116  D(39,32,36,41)        175.5877         calculate D2E/DX2 analytically  !
 ! D117  D(39,32,36,46)         53.4832         calculate D2E/DX2 analytically  !
 ! D118  D(45,32,36,35)        176.5366         calculate D2E/DX2 analytically  !
 ! D119  D(45,32,36,41)         55.8855         calculate D2E/DX2 analytically  !
 ! D120  D(45,32,36,46)        -66.219          calculate D2E/DX2 analytically  !
 ! D121  D(33,32,45,67)        -92.3242         calculate D2E/DX2 analytically  !
 ! D122  D(36,32,45,67)        149.2902         calculate D2E/DX2 analytically  !
 ! D123  D(39,32,45,67)         29.9504         calculate D2E/DX2 analytically  !
 ! D124  D(32,33,34,37)       -173.3081         calculate D2E/DX2 analytically  !
 ! D125  D(32,33,34,42)         46.6361         calculate D2E/DX2 analytically  !
 ! D126  D(32,33,34,53)        -62.7181         calculate D2E/DX2 analytically  !
 ! D127  D(38,33,34,37)         69.852          calculate D2E/DX2 analytically  !
 ! D128  D(38,33,34,42)        -70.2039         calculate D2E/DX2 analytically  !
 ! D129  D(38,33,34,53)       -179.5581         calculate D2E/DX2 analytically  !
 ! D130  D(44,33,34,37)        -48.4532         calculate D2E/DX2 analytically  !
 ! D131  D(44,33,34,42)        171.491          calculate D2E/DX2 analytically  !
 ! D132  D(44,33,34,53)         62.1368         calculate D2E/DX2 analytically  !
 ! D133  D(32,33,44,63)       -137.5361         calculate D2E/DX2 analytically  !
 ! D134  D(34,33,44,63)         97.7799         calculate D2E/DX2 analytically  !
 ! D135  D(38,33,44,63)        -15.9518         calculate D2E/DX2 analytically  !
 ! D136  D(33,34,37,11)       -165.8684         calculate D2E/DX2 analytically  !
 ! D137  D(33,34,37,19)        -57.7391         calculate D2E/DX2 analytically  !
 ! D138  D(42,34,37,11)        -23.8786         calculate D2E/DX2 analytically  !
 ! D139  D(42,34,37,19)         84.2507         calculate D2E/DX2 analytically  !
 ! D140  D(53,34,37,11)         82.3052         calculate D2E/DX2 analytically  !
 ! D141  D(53,34,37,19)       -169.5655         calculate D2E/DX2 analytically  !
 ! D142  D(33,34,42,10)        117.061          calculate D2E/DX2 analytically  !
 ! D143  D(33,34,42,35)        -37.9469         calculate D2E/DX2 analytically  !
 ! D144  D(37,34,42,10)        -24.515          calculate D2E/DX2 analytically  !
 ! D145  D(37,34,42,35)       -179.5228         calculate D2E/DX2 analytically  !
 ! D146  D(53,34,42,10)       -131.5815         calculate D2E/DX2 analytically  !
 ! D147  D(53,34,42,35)         73.4107         calculate D2E/DX2 analytically  !
 ! D148  D(33,34,53,51)        -89.1851         calculate D2E/DX2 analytically  !
 ! D149  D(37,34,53,51)         32.4837         calculate D2E/DX2 analytically  !
 ! D150  D(42,34,53,51)        148.6005         calculate D2E/DX2 analytically  !
 ! D151  D(40,35,36,32)         71.4076         calculate D2E/DX2 analytically  !
 ! D152  D(40,35,36,41)       -168.2451         calculate D2E/DX2 analytically  !
 ! D153  D(40,35,36,46)        -49.8219         calculate D2E/DX2 analytically  !
 ! D154  D(42,35,36,32)        -46.6661         calculate D2E/DX2 analytically  !
 ! D155  D(42,35,36,41)         73.6812         calculate D2E/DX2 analytically  !
 ! D156  D(42,35,36,46)       -167.8956         calculate D2E/DX2 analytically  !
 ! D157  D(47,35,36,32)       -168.6132         calculate D2E/DX2 analytically  !
 ! D158  D(47,35,36,41)        -48.2659         calculate D2E/DX2 analytically  !
 ! D159  D(47,35,36,46)         70.1573         calculate D2E/DX2 analytically  !
 ! D160  D(36,35,42,10)       -106.5929         calculate D2E/DX2 analytically  !
 ! D161  D(36,35,42,34)         37.6087         calculate D2E/DX2 analytically  !
 ! D162  D(40,35,42,10)        134.8819         calculate D2E/DX2 analytically  !
 ! D163  D(40,35,42,34)        -80.9165         calculate D2E/DX2 analytically  !
 ! D164  D(47,35,42,10)         19.3019         calculate D2E/DX2 analytically  !
 ! D165  D(47,35,42,34)        163.5035         calculate D2E/DX2 analytically  !
 ! D166  D(36,35,47,48)        -71.2073         calculate D2E/DX2 analytically  !
 ! D167  D(36,35,47,49)        170.66           calculate D2E/DX2 analytically  !
 ! D168  D(36,35,47,50)         49.5928         calculate D2E/DX2 analytically  !
 ! D169  D(40,35,47,48)         48.4217         calculate D2E/DX2 analytically  !
 ! D170  D(40,35,47,49)        -69.711          calculate D2E/DX2 analytically  !
 ! D171  D(40,35,47,50)        169.2219         calculate D2E/DX2 analytically  !
 ! D172  D(42,35,47,48)        163.055          calculate D2E/DX2 analytically  !
 ! D173  D(42,35,47,49)         44.9223         calculate D2E/DX2 analytically  !
 ! D174  D(42,35,47,50)        -76.1449         calculate D2E/DX2 analytically  !
 ! D175  D(32,36,46,71)        100.2468         calculate D2E/DX2 analytically  !
 ! D176  D(35,36,46,71)       -138.7464         calculate D2E/DX2 analytically  !
 ! D177  D(41,36,46,71)        -20.9905         calculate D2E/DX2 analytically  !
 ! D178  D(33,44,63,64)       -157.5322         calculate D2E/DX2 analytically  !
 ! D179  D(33,44,63,65)        -36.5503         calculate D2E/DX2 analytically  !
 ! D180  D(33,44,63,66)         84.7513         calculate D2E/DX2 analytically  !
 ! D181  D(32,45,67,68)        -54.4333         calculate D2E/DX2 analytically  !
 ! D182  D(32,45,67,69)         67.5058         calculate D2E/DX2 analytically  !
 ! D183  D(32,45,67,70)       -172.8284         calculate D2E/DX2 analytically  !
 ! D184  D(36,46,71,72)        -61.6409         calculate D2E/DX2 analytically  !
 ! D185  D(36,46,71,73)         60.1795         calculate D2E/DX2 analytically  !
 ! D186  D(36,46,71,74)        178.8427         calculate D2E/DX2 analytically  !
 ! D187  D(35,47,50,75)       -177.4386         calculate D2E/DX2 analytically  !
 ! D188  D(48,47,50,75)        -57.9529         calculate D2E/DX2 analytically  !
 ! D189  D(49,47,50,75)         62.7135         calculate D2E/DX2 analytically  !
 ! D190  D(47,50,75,76)        179.6493         calculate D2E/DX2 analytically  !
 ! D191  D(47,50,75,77)        -61.0545         calculate D2E/DX2 analytically  !
 ! D192  D(47,50,75,78)         60.2863         calculate D2E/DX2 analytically  !
 ! D193  D(43,51,53,34)        -17.5764         calculate D2E/DX2 analytically  !
 ! D194  D(52,51,53,34)       -147.8154         calculate D2E/DX2 analytically  !
 ! D195  D(54,51,53,34)        100.4478         calculate D2E/DX2 analytically  !
 ! D196  D(83,51,53,34)       -147.78           calculate D2E/DX2 analytically  !
 ! D197  D(43,51,54,55)         15.3876         calculate D2E/DX2 analytically  !
 ! D198  D(43,51,54,56)       -171.8697         calculate D2E/DX2 analytically  !
 ! D199  D(52,51,54,55)        144.7196         calculate D2E/DX2 analytically  !
 ! D200  D(52,51,54,56)        -42.5377         calculate D2E/DX2 analytically  !
 ! D201  D(53,51,54,55)       -105.6149         calculate D2E/DX2 analytically  !
 ! D202  D(53,51,54,56)         67.1278         calculate D2E/DX2 analytically  !
 ! D203  D(83,51,54,55)       -160.7434         calculate D2E/DX2 analytically  !
 ! D204  D(83,51,54,56)         11.9993         calculate D2E/DX2 analytically  !
 ! D205  D(43,51,83,84)       -142.9198         calculate D2E/DX2 analytically  !
 ! D206  D(52,51,83,84)        124.1696         calculate D2E/DX2 analytically  !
 ! D207  D(53,51,83,84)        -55.7863         calculate D2E/DX2 analytically  !
 ! D208  D(54,51,83,84)         31.8663         calculate D2E/DX2 analytically  !
 ! D209  D(51,54,55,57)        170.9892         calculate D2E/DX2 analytically  !
 ! D210  D(51,54,55,58)         -7.7236         calculate D2E/DX2 analytically  !
 ! D211  D(56,54,55,57)         -1.5034         calculate D2E/DX2 analytically  !
 ! D212  D(56,54,55,58)        179.7838         calculate D2E/DX2 analytically  !
 ! D213  D(51,54,56,59)       -170.2813         calculate D2E/DX2 analytically  !
 ! D214  D(51,54,56,60)          9.4443         calculate D2E/DX2 analytically  !
 ! D215  D(55,54,56,59)          2.307          calculate D2E/DX2 analytically  !
 ! D216  D(55,54,56,60)       -177.9674         calculate D2E/DX2 analytically  !
 ! D217  D(54,55,57,61)         -0.4421         calculate D2E/DX2 analytically  !
 ! D218  D(54,55,57,93)       -174.531          calculate D2E/DX2 analytically  !
 ! D219  D(58,55,57,61)        178.2517         calculate D2E/DX2 analytically  !
 ! D220  D(58,55,57,93)          4.1628         calculate D2E/DX2 analytically  !
 ! D221  D(54,56,59,61)         -1.1722         calculate D2E/DX2 analytically  !
 ! D222  D(54,56,59,97)        173.5652         calculate D2E/DX2 analytically  !
 ! D223  D(60,56,59,61)        179.1038         calculate D2E/DX2 analytically  !
 ! D224  D(60,56,59,97)         -6.1587         calculate D2E/DX2 analytically  !
 ! D225  D(55,57,61,59)          1.5289         calculate D2E/DX2 analytically  !
 ! D226  D(55,57,61,62)       -178.4117         calculate D2E/DX2 analytically  !
 ! D227  D(93,57,61,59)        175.5228         calculate D2E/DX2 analytically  !
 ! D228  D(93,57,61,62)         -4.4178         calculate D2E/DX2 analytically  !
 ! D229  D(55,57,93,94)        -40.5325         calculate D2E/DX2 analytically  !
 ! D230  D(55,57,93,95)       -161.8901         calculate D2E/DX2 analytically  !
 ! D231  D(55,57,93,96)         78.4278         calculate D2E/DX2 analytically  !
 ! D232  D(61,57,93,94)        145.3477         calculate D2E/DX2 analytically  !
 ! D233  D(61,57,93,95)         23.9901         calculate D2E/DX2 analytically  !
 ! D234  D(61,57,93,96)        -95.692          calculate D2E/DX2 analytically  !
 ! D235  D(56,59,61,57)         -0.7063         calculate D2E/DX2 analytically  !
 ! D236  D(56,59,61,62)        179.2342         calculate D2E/DX2 analytically  !
 ! D237  D(97,59,61,57)       -175.3334         calculate D2E/DX2 analytically  !
 ! D238  D(97,59,61,62)          4.6072         calculate D2E/DX2 analytically  !
 ! D239  D(56,59,97,98)        163.3383         calculate D2E/DX2 analytically  !
 ! D240  D(56,59,97,99)         41.4986         calculate D2E/DX2 analytically  !
 ! D241  D(56,59,97,100)       -76.8808         calculate D2E/DX2 analytically  !
 ! D242  D(61,59,97,98)        -21.9376         calculate D2E/DX2 analytically  !
 ! D243  D(61,59,97,99)       -143.7773         calculate D2E/DX2 analytically  !
 ! D244  D(61,59,97,100)        97.8433         calculate D2E/DX2 analytically  !
 ! D245  D(44,63,65,19)         23.5678         calculate D2E/DX2 analytically  !
 ! D246  D(64,63,65,19)        141.6659         calculate D2E/DX2 analytically  !
 ! D247  D(66,63,65,19)        -97.2532         calculate D2E/DX2 analytically  !
 ! D248  D(51,83,84,85)        150.1543         calculate D2E/DX2 analytically  !
 ! D249  D(51,83,84,89)        -24.3101         calculate D2E/DX2 analytically  !
 ! D250  D(83,84,85,86)       -117.3326         calculate D2E/DX2 analytically  !
 ! D251  D(83,84,85,87)          2.1867         calculate D2E/DX2 analytically  !
 ! D252  D(83,84,85,88)        121.6237         calculate D2E/DX2 analytically  !
 ! D253  D(89,84,85,86)         57.6866         calculate D2E/DX2 analytically  !
 ! D254  D(89,84,85,87)        177.2059         calculate D2E/DX2 analytically  !
 ! D255  D(89,84,85,88)        -63.3571         calculate D2E/DX2 analytically  !
 ! D256  D(83,84,89,90)       -122.5026         calculate D2E/DX2 analytically  !
 ! D257  D(83,84,89,91)         -3.4072         calculate D2E/DX2 analytically  !
 ! D258  D(83,84,89,92)        115.291          calculate D2E/DX2 analytically  !
 ! D259  D(85,84,89,90)         62.4038         calculate D2E/DX2 analytically  !
 ! D260  D(85,84,89,91)       -178.5008         calculate D2E/DX2 analytically  !
 ! D261  D(85,84,89,92)        -59.8026         calculate D2E/DX2 analytically  !
 --------------------------------------------------------------------------------
 Trust Radius=3.00D-02 FncErr=1.00D-07 GrdErr=1.00D-06 EigMax=2.50D+02 EigMin=1.00D-04
 Number of steps in this run=    575 maximum allowed number of steps=    600.
 Search for a saddle point of order  1.
 Step   0 in ReCalcFC=30 IGetFC= 4 compute analytic Hessian.
 GradGradGradGradGradGradGradGradGradGradGradGradGradGradGradGradGradGrad

 Leave Link  103 at Fri May 24 04:06:24 2019, MaxMem=  6442450944 cpu:               4.5 elap:               0.2
 (Enter /home/ekwan/sw/g16/l202.exe)
 Stoichiometry    C30H47F6NaO15S
 Framework group  C1[X(C30H47F6NaO15S)]
 Deg. of freedom   294
 Full point group                 C1      NOp   1
 Largest Abelian subgroup         C1      NOp   1
 Largest concise Abelian subgroup C1      NOp   1
                         Standard orientation:                         
 ---------------------------------------------------------------------
 Center     Atomic      Atomic             Coordinates (Angstroms)
 Number     Number       Type             X           Y           Z
 ---------------------------------------------------------------------
      1          6           0       -4.646041   -0.489198    0.608942
      2          6           0       -3.601285   -1.053979    1.570092
      3          6           0       -3.211575   -2.487229    1.177637
      4          6           0       -3.751292   -2.134086   -1.140243
      5          6           0       -4.240336   -0.713196   -0.848337
      6          1           0       -2.345641   -2.830652    1.757319
      7          1           0       -2.684053   -0.451183    1.482464
      8          1           0       -5.600520   -0.993588    0.810595
      9          1           0       -4.599263   -2.832335   -1.094914
     10          1           0       -3.423253   -0.032495   -1.080145
     11          8           0       -2.768059   -2.526817   -0.153240
     12          8           0       -4.318589   -3.321763    1.425714
     13          8           0       -4.124287   -0.940933    2.886433
     14          8           0       -4.773362    0.908827    0.895501
     15          8           0       -5.355355   -0.419565   -1.698788
     16          6           0       -3.037922   -2.228690   -2.511198
     17          1           0       -3.871933   -2.203286   -3.262563
     18          1           0       -2.668624   -3.287607   -2.550973
     19          8           0       -2.078433   -1.289233   -2.704251
     20          6           0       -3.325435   -1.535416    3.894190
     21          1           0       -3.388661   -2.630986    3.871048
     22          1           0       -2.266084   -1.249367    3.806304
     23          1           0       -3.710278   -1.180242    4.853799
     24          6           0       -6.082339    1.424394    0.711464
     25          1           0       -6.416606    1.322968   -0.325938
     26          1           0       -6.804799    0.914442    1.366531
     27          1           0       -6.045612    2.483256    0.984051
     28          6           0       -4.992150    0.426432   -2.787011
     29          1           0       -4.861212    1.463055   -2.447362
     30          1           0       -4.054164    0.093775   -3.246310
     31          1           0       -5.809875    0.386379   -3.513357
     32          6           0        1.058962    1.444185   -1.536770
     33          6           0        0.338928    0.110665   -1.738424
     34          6           0       -0.735265   -0.096677   -0.698376
     35          6           0       -1.062134    2.274080   -0.435738
     36          6           0       -0.000686    2.546657   -1.506777
     37          1           0       -1.228177   -1.060838   -0.686626
     38          1           0       -0.226256    0.147423   -2.678343
     39          1           0        1.601524    1.433900   -0.582771
     40          1           0       -0.597139    2.433847    0.540163
     41          1           0       -0.481995    2.601028   -2.488915
     42          8           0       -1.559617    0.908201   -0.447818
     43          8           0        0.225086   -2.672408    0.984588
     44          8           0        1.240956   -0.971067   -1.745935
     45          8           0        1.953101    1.724492   -2.598979
     46          8           0        0.559038    3.806707   -1.160596
     47          6           0       -2.277056    3.175670   -0.537088
     48          1           0       -1.982714    4.189276   -0.228409
     49          1           0       -3.048561    2.803359    0.152573
     50          8           0       -2.759047    3.182893   -1.865622
     51         16           0        0.783461   -1.424754    1.500784
     52          8           0        0.693350   -1.161945    2.961411
     53          8           0        0.172733   -0.144867    0.838717
     54          6           0        2.509518   -1.322538    1.054235
     55          6           0        3.015554   -2.164169    0.073001
     56          6           0        3.270796   -0.293150    1.596068
     57          6           0        4.309495   -1.942989   -0.395096
     58          1           0        2.400123   -2.958786   -0.327007
     59          6           0        4.556432   -0.074973    1.105253
     60          1           0        2.864403    0.329146    2.383903
     61          6           0        5.079007   -0.892666    0.103594
     62          1           0        6.073824   -0.712494   -0.284120
     63          6           0        0.959594   -1.944308   -2.767227
     64          1           0        1.418310   -2.882526   -2.445881
     65          1           0       -0.127911   -2.047070   -2.887337
     66          1           0        1.421632   -1.630640   -3.713022
     67          6           0        3.286285    1.276048   -2.375985
     68          1           0        3.681515    1.671345   -1.428957
     69          1           0        3.348812    0.184330   -2.360847
     70          1           0        3.886485    1.667081   -3.201456
     71          6           0        0.797456    4.663999   -2.273515
     72          1           0        1.516314    4.217134   -2.966923
     73          1           0       -0.138900    4.879478   -2.805651
     74          1           0        1.203284    5.593642   -1.867626
     75          6           0       -3.860937    4.058211   -2.023724
     76          1           0       -4.164048    4.007927   -3.071653
     77          1           0       -4.707361    3.757424   -1.388891
     78          1           0       -3.586263    5.094611   -1.774503
     79          6           0       -4.025074   -4.699368    1.224352
     80          1           0       -4.920268   -5.257609    1.506672
     81          1           0       -3.776332   -4.908173    0.177862
     82          1           0       -3.183440   -5.016883    1.857052
     83         11           0       -0.311536    0.990041    2.916985
     84          8           0        0.505013    3.086375    2.456171
     85          6           0       -0.253647    4.290929    2.552264
     86          1           0       -0.335103    4.769205    1.568561
     87          1           0       -1.248378    4.022271    2.914587
     88          1           0        0.216418    4.988695    3.256685
     89          6           0        1.812859    3.321821    1.926199
     90          1           0        2.384265    3.982311    2.590368
     91          1           0        2.310247    2.355301    1.861640
     92          1           0        1.743087    3.758757    0.924542
     93          6           0        4.813180   -2.773431   -1.543292
     94          9           0        4.431831   -4.062299   -1.432597
     95          9           0        6.157284   -2.745646   -1.640865
     96          9           0        4.317107   -2.316901   -2.720247
     97          6           0        5.317655    1.126624    1.589838
     98          9           0        6.635396    1.039315    1.336603
     99          9           0        5.158909    1.319818    2.916697
    100          9           0        4.864937    2.255481    0.979077
 ---------------------------------------------------------------------
 Rotational constants (GHZ):           0.0708915           0.0394368           0.0355807
 Leave Link  202 at Fri May 24 04:06:25 2019, MaxMem=  6442450944 cpu:               5.8 elap:               0.2
 (Enter /home/ekwan/sw/g16/l301.exe)
 Standard basis: 6-31G(d) (6D, 7F)
 Ernie: Thresh=  0.10000D-02 Tol=  0.10000D-05 Strict=F.
 There are   897 symmetry adapted cartesian basis functions of A   symmetry.
 There are   897 symmetry adapted basis functions of A   symmetry.
   897 basis functions,  1720 primitive gaussians,   897 cartesian basis functions
   214 alpha electrons      214 beta electrons
       nuclear repulsion energy      9787.1454244536 Hartrees.
 IExCor=  402 DFT=T Ex+Corr=B3LYP ExCW=0 ScaHFX=  0.200000
 ScaDFX=  0.800000  0.720000  1.000000  0.810000 ScalE2=  1.000000  1.000000
 IRadAn=      5 IRanWt=     -1 IRanGd=            0 ICorTp=0 IEmpDi=141
 NAtoms=  100 NActive=  100 NUniq=  100 SFac= 1.00D+00 NAtFMM=   60 NAOKFM=T Big=T
 Integral buffers will be    131072 words long.
 Raffenetti 2 integral format.
 Two-electron integral symmetry is turned on.
 R6Disp:  Grimme-D3(BJ) Dispersion energy=       -0.2380972818 Hartrees.
 Nuclear repulsion after empirical dispersion term =     9786.9073271717 Hartrees.
 Force inversion solution in PCM.
 ------------------------------------------------------------------------------
 Polarizable Continuum Model (PCM)
 =================================
 Model                : PCM.
 Atomic radii         : UFF (Universal Force Field).
 Polarization charges : Total charges.
 Charge compensation  : None.
 Solution method      : Matrix inversion.
 Cavity type          : Scaled VdW (van der Waals Surface) (Alpha=1.100).
 Cavity algorithm     : GePol (No added spheres)
                        Default sphere list used, NSphG=  100.
                        Lebedev-Laikov grids with approx.  5.0 points / Ang**2.
                        Smoothing algorithm: York/Karplus (Gamma=1.0000).
                        Polarization charges: spherical gaussians, with
                                              point-specific exponents (IZeta= 3).
                        Self-potential: point-specific (ISelfS= 7).
                        Self-field    : sphere-specific E.n sum rule (ISelfD= 2).
 1st derivatives      : Analytical E(r).r(x)/FMM algorithm (CHGder, D1EAlg=3).
                        Cavity 1st derivative terms included.
 2nd derivatives      : Analytical E(r).r(xy)/FMM algorithm (CHGder, D2EAlg=3).
                        Cavity 2nd derivative terms included.
[...]
 139,-0.00021190,-0.00007027,-0.00025501,0.00017044,0.00024135,0.000063
 98,0.00012381,0.00004103,0.00007259,0.00012775,-0.00002445,0.00001411,
 -0.00001695,-0.00000147,-0.00000744,0.00001834,0.00000396,-0.00000091,
 -0.00000061,0.00000375,-0.00001878,0.00003368,0.00000230,0.00211153,-0
 .00028597,0.00066225,-0.00055171,0.00018014,-0.00052636,-0.00084645,0.
 00054087,0.00031592,0.00025918,-0.00055366,-0.00019079,0.00019521,-0.0
 0055100,0.00043129,0.00031778,-0.00051294,0.00083203,0.00032052,-0.002
 10443,0.00011785,0.00000780,0.00009855,0.00008104,0.00068044,-0.003023
 08,0.03610589,-0.00078937,-0.00038734,0.00058296,-0.00465175,-0.000597
 77,0.00009951,-0.00004135,0.00058380,0.00020403,-0.00000522,0.00009192
 ,-0.00014442,0.00003816,0.00004400,-0.00002823,0.00002237,-0.00000377,
 0.00002021,0.00000607,-0.00000575,0.00004842,-0.00009896,-0.00017481,0
 .00023850,-0.00008447,-0.00010053,0.00006303,0.00002653,0.00005398,-0.
 00012755,0.00000720,0.00004438,0.00001138,-0.00001356,-0.00002391,-0.0
 0002430,-0.00000517,-0.00000663,0.00000857,0.00000828,0.00000170,0.000
 00197,-0.00000173,0.00002100,0.00000390,0.00001412,-0.00002194,-0.0000
 0017,-0.00000234,0.00000109,0.00000041,-0.00000235,0.00000138,-0.00000
 006,-0.00000062,0.00000748,-0.00000154,0.00000777,0.00001130,-0.000002
 13,-0.00000505,-0.00000346,-0.00000127,0.00000371,-0.00000004,-0.00000
 139,-0.00000012,-0.00000028,0.00000410,0.00000137,-0.00022801,0.000114
 58,0.00027487,-0.00004383,-0.00000980,-0.00001462,0.00007335,0.0000239
 4,-0.00000433,-0.00001348,-0.00000494,0.00002185,-0.00001551,0.0000082
 2,-0.00000744,0.00000075,-0.00000853,-0.00021969,0.00013597,-0.0000414
 0,-0.00005222,0.00015622,-0.00004386,-0.00025017,-0.00022159,0.0000967
 8,0.00001292,0.00000016,0.00001019,-0.00082511,0.00068109,-0.00162293,
 0.00005060,-0.00073946,0.00045733,0.00038610,-0.00019955,0.00030944,0.
 00001705,-0.00007697,0.00062118,-0.00288693,-0.08466150,0.04376201,0.0
 0752692,0.01055842,0.00639929,-0.00451133,0.07995572,-0.00001804,0.000
 02661,-0.00001770,-0.00004631,-0.00000446,-0.00007793,-0.00008007,-0.0
 0002589,-0.00007636,-0.00001494,0.00000151,0.00002782,-0.00003178,0.00
 000940,0.00000069,-0.00000907,-0.00001066,-0.00001604,0.00000606,0.000
 01484,-0.00001123,0.00001009,-0.00000320,0.00000372,0.00001816,0.00000
 905,0.00000387,-0.00001724,0.00001034,-0.00000289,0.00007150,0.0000166
 9,0.00005349,0.00005508,0.00004358,0.00003138,0.00001374,0.00000010,0.
 00009440,0.00003819,-0.00003286,0.00002607,0.00003706,-0.00000788,0.00
 000246,-0.00013321,-0.00013978,-0.00003961,0.00005287,0.00002356,-0.00
 001733,0.00000347,0.00003468,0.00000810,0.00023111,0.00011240,-0.00004
 231,0.00001695,-0.00001472,-0.00003316,-0.00000423,0.00000193,0.000000
 64,-0.00001196,0.00000550,-0.00001524,0.00001291,0.00000335,0.00001010
 ,-0.00002852,0.00001163,-0.00000591,0.00000039,0.00000096,0.00000061,0
 .00000837,0.00000287,0.00000218,0.00000249,-0.00000628,-0.00000136,-0.
 00000814,0.00000840,-0.00000088,-0.00000173,-0.00000378,-0.00000105,-0
 .00000940,0.00000068,0.00000902,0.00000646,-0.00000039,-0.00000286,-0.
 00021907,-0.00004551,0.00002575,-0.00008495,0.00016345,-0.00006916,-0.
 00048197,0.00018544,0.00035100,-0.00000991,0.00008933,-0.00003548,-0.0
 0005275,0.00012571,-0.00000919,-0.00002489,-0.00007109,-0.00000340,0.0
 0002213,-0.00004504,-0.00000780,-0.00002282,0.00005944,-0.00001936,-0.
 00000712,0.00000467,-0.00001202,0.00000646,-0.00001985,-0.00000609,0.0
 0023434,-0.00023718,0.00001291,0.00075070,0.00029516,0.00018742,0.0003
 4665,-0.00006374,-0.00027963,0.00058128,-0.00011086,-0.00017726,0.0000
 4923,-0.00015930,-0.00001428,-0.00003730,0.00003709,0.00001602,0.00000
 300,-0.00001573,-0.00000936,0.00002099,-0.00000602,-0.00000505,0.00007
 342,-0.00005362,-0.00000539,-0.00227903,0.00021851,-0.00139578,0.00052
 747,-0.00026186,0.00089856,0.00088735,-0.00045229,-0.00011386,0.000635
 03,0.00148945,0.00039298,0.00028780,0.00017677,0.00010593,-0.00357333,
 -0.00007235,-0.00054764,-0.00114480,0.00143113,-0.00076861,0.00007643,
 -0.00015993,-0.00004862,-0.00314247,0.01245076,-0.03407508,0.00187778,
 -0.00032003,-0.00022545,0.00590049,0.00237944,-0.00001471,0.00010297,-
 0.00079616,0.00022509,0.00000554,-0.00017480,0.00020284,-0.00005197,-0
 .00003036,0.00002823,-0.00003228,0.00001070,-0.00002870,-0.00000931,0.
 00000975,-0.00005264,-0.00052587,-0.00004222,0.00055091,-0.00004748,0.
 00009097,0.00004894,0.00000479,-0.00000876,-0.00000475,0.00001828,-0.0
 0002424,-0.00010968,-0.00003061,0.00007759,0.00005393,-0.00000109,0.00
 000926,0.00002549,0.00002602,-0.00000618,-0.00001253,-0.00001356,-0.00
 000893,-0.00000375,-0.00004867,0.00004001,-0.00000028,0.00000413,-0.00
 000358,-0.00000257,0.00001245,-0.00000125,0.00000527,0.00000222,-0.000
 01016,0.00000143,0.00000165,-0.00002307,-0.00000800,0.00000530,0.00000
 481,0.00000113,-0.00000461,-0.00000058,0.00000423,-0.00000456,0.000002
 31,-0.00000225,0.00018196,0.00018761,-0.00031415,0.00003263,-0.0000898
 3,0.00022208,0.00002443,0.00005783,-0.00004567,-0.00001175,0.00001108,
 0.00001364,0.00001467,-0.00000978,-0.00000311,-0.00000053,-0.00003354,
 0.00000265,-0.00014410,0.00032276,-0.00007789,0.00001685,-0.00017319,0
 .00001898,0.00008383,-0.00017713,-0.00024987,-0.00010887,0.00007371,0.
 00003979,0.00099809,-0.00100023,0.00161512,-0.00004633,0.00099568,-0.0
 0045293,-0.00039106,0.00028926,-0.00033000,-0.00003669,0.00011899,-0.0
 0068500,-0.00343271,0.04856595,-0.24992602,-0.04254127,0.00774065,-0.0
 3157069,0.03390365,-0.04082080,0.37862680,0.00000830,-0.00000047,0.000
 00502,0.00003106,0.00001233,0.00002306,0.00003117,0.00002757,0.0000289
 2,0.00000980,0.00000461,-0.00001318,0.00002080,0.00000016,-0.00000407,
 0.00000222,0.00000269,0.00000304,-0.00000956,-0.00000688,0.00000633,-0
 .00000668,-0.00000036,-0.00000193,-0.00000973,-0.00000676,-0.00000221,
 0.00000946,-0.00000535,-0.00000113,-0.00003264,-0.00002170,-0.00001712
 ,-0.00002379,-0.00003606,-0.00000930,-0.00001380,-0.00001198,-0.000027
 26,-0.00002842,0.00000537,-0.00000531,-0.00002227,0.00000007,0.0000077
 1,0.00006941,0.00008125,0.00001722,-0.00002946,-0.00001389,0.00001085,
 -0.00000168,-0.00002595,-0.00000255,-0.00011729,-0.00008315,0.00003048
 ,0.00000459,0.00001154,0.00001169,-0.00000047,-0.00000498,0.00000007,0
 .00000198,0.00000255,0.00000250,-0.00000129,0.00000163,-0.00000372,0.0
 0002282,-0.00000649,-0.00000077,-0.00000200,-0.00000011,0.00000210,-0.
 00000549,-0.00000177,-0.00000234,0.00000091,0.00000122,0.00000031,0.00
 000335,-0.00000201,-0.00000556,0.00000264,0.00000019,0.00000124,0.0000
 0535,0.00000064,-0.00000426,-0.00000519,-0.00000023,0.00000300,0.00028
 888,0.00004401,-0.00029074,-0.00001757,0.00008202,0.00005229,0.0001316
 2,-0.00001082,-0.00005787,0.00005607,0.00007344,-0.00002387,0.00006630
 ,-0.00004943,0.00000308,0.00001126,0.00003587,-0.00001579,-0.00000739,
 -0.00001043,0.00000074,0.00003394,0.00002817,0.00006217,0.00003510,0.0
 0001096,-0.00001105,-0.00001362,0.00001243,0.00002275,-0.00006925,-0.0
 0003444,0.00000427,-0.00010442,-0.00011770,-0.00002702,-0.00008933,-0.
 00010192,0.00008642,-0.00051861,0.00002568,0.00031286,-0.00008346,0.00
 011622,0.00014841,0.00005216,-0.00003433,-0.00004062,0.00000377,-0.000
 00522,0.00000440,-0.00001661,0.00000701,0.00000447,-0.00008836,0.00004
 235,0.00004549,0.00040084,0.00031973,0.00018079,-0.00012431,-0.0000291
 8,-0.00016507,-0.00016838,-0.00008426,-0.00001570,0.00086720,0.0007453
 0,-0.00037826,0.00062062,-0.00050217,0.00065230,-0.00037863,0.00015317
 ,-0.00007477,-0.00082896,-0.00054943,0.00064228,0.00004741,0.00002120,
 0.00002383,0.01116858,-0.00935230,-0.00018510,0.00010873,0.00018698,0.
 00032381,-0.00075864,-0.00018195,-0.00169031,0.00006790,-0.00036106,0.
 00023768,0.00000163,0.00010046,-0.00012361,0.00001870,-0.00000545,-0.0
 0000269,0.00000784,-0.00000354,0.00001323,0.00000522,-0.00000147,0.000
 02557,0.00068719,0.00027994,-0.00080395,-0.00049527,-0.00030165,0.0002
 0982,-0.00003342,-0.00007327,0.00012940,-0.00004458,-0.00003447,0.0002
 0083,-0.00000809,-0.00012801,-0.00010991,0.00000771,-0.00000650,-0.000
 00470,-0.00002396,0.00001580,0.00002899,0.00001021,0.00000738,-0.00000
 399,0.00005088,-0.00003747,-0.00000394,-0.00000709,0.00000406,0.000006
 94,-0.00001115,0.00000316,-0.00000556,-0.00000367,0.00000700,-0.000003
 29,-0.00000328,0.00001985,0.00000039,-0.00000231,-0.00000335,-0.000000
 81,0.00000220,-0.00000043,0.00000054,0.00000254,-0.00000168,-0.0000003
 7,0.00009671,0.00010700,0.00010853,-0.00094834,0.00083061,-0.00022870,
 0.00003108,-0.00048324,-0.00003762,0.00000780,0.00004002,0.00001889,-0
 .00010425,0.00009236,-0.00002581,0.00001752,0.00006586,-0.00001466,0.0
 0035918,-0.00193792,-0.00019898,0.00008171,0.00001675,-0.00000932,-0.0
 0053820,0.00143340,-0.00003107,0.00010164,-0.00003431,-0.00001970,-0.0
 0054045,0.00038132,-0.00032460,0.00003926,-0.00014225,0.00006882,0.000
 21550,-0.00004926,0.00007823,0.00009506,-0.00007369,0.00021734,-0.0801
 7073,0.03284440,0.01489047,-0.04665081,0.05336115,0.01779397,0.0113367
 8,0.00419899,0.01067344,0.10580232,0.00002967,-0.00005720,0.00000703,0
 .00003910,0.00000403,0.00004779,0.00012593,0.00000634,0.00000743,0.000
 05001,-0.00001975,-0.00006186,0.00003381,-0.00002340,-0.00002727,0.000
 00716,0.00002681,0.00003865,-0.00000037,-0.00002476,0.00001008,-0.0000
 0835,0.00000716,-0.00000262,-0.00002137,-0.00000417,0.00000101,0.00001
 269,-0.00001190,0.00000294,-0.00010128,0.00001644,0.00002224,-0.000084
 58,-0.00003182,-0.00000252,-0.00005238,0.00002363,-0.00002318,-0.00004
 305,0.00007093,-0.00000732,-0.00004205,0.00004309,0.00004468,0.0001076
 9,0.00009816,0.00001677,-0.00005487,-0.00001975,0.00002586,-0.00000225
 ,-0.00001226,-0.00000880,-0.00018747,-0.00004441,0.00009424,0.00004627
 ,-0.00000175,-0.00000412,0.00000278,0.00000425,0.00000102,-0.00000357,
 -0.00001256,0.00000967,-0.00000940,0.00000149,-0.00000978,0.00003502,-
 0.00002019,-0.00000169,-0.00000387,-0.00000197,0.00000333,-0.00000534,
 0.00000070,0.00000037,-0.00000621,0.00000945,-0.00000274,-0.00000467,-
 0.00003655,-0.00002328,-0.00000190,0.00001227,-0.00000081,0.00001253,-
 0.00000706,-0.00000924,-0.00000652,0.00000395,0.00000556,-0.00040660,-
 0.00016916,-0.00008426,0.00011282,-0.00048681,0.00011767,0.00090339,-0
 .00039635,-0.00102816,-0.00008860,-0.00039051,-0.00003279,-0.00010030,
 -0.00023124,0.00005304,0.00003571,0.00008066,0.00007261,-0.00002832,0.
 00010762,0.00002747,0.00003439,-0.00015105,-0.00007184,-0.00001631,-0.
 00000763,0.00001896,0.00001141,0.00002669,-0.00002418,-0.00035340,0.00
 061288,0.00008361,-0.00124294,-0.00041427,-0.00014086,-0.00041904,0.00
 044182,0.00046201,0.00058666,0.00026196,-0.00004092,0.00026696,0.00020
 192,-0.00010759,0.00000021,-0.00001040,0.00001479,-0.00001879,0.000038
 12,0.00000269,0.00001617,-0.00000696,0.00000567,0.00002185,0.00004073,
 -0.00000585,0.00390960,-0.00088332,0.00123163,-0.00100917,0.00033766,-
 0.00081463,-0.00158555,0.00119039,0.00072886,-0.00145497,-0.00048167,0
 .00206104,-0.00020570,-0.00109510,-0.00039791,0.00329706,-0.00071294,0
 .00182929,-0.00163789,-0.00023680,0.00208293,0.00012610,-0.00000655,-0
 .00009913,0.00746049,-0.04805264,-0.01560079,0.00020753,-0.00066504,-0
 .00113579,-0.00310462,-0.00064669,-0.00322527,0.00062640,-0.00047742,-
 0.00092746,-0.00001113,0.00011818,-0.00021249,0.00005883,0.00008994,-0
 .00005534,0.00003417,-0.00000390,0.00003147,0.00000749,-0.00001206,0.0
 0008799,-0.00069626,-0.00043524,0.00112825,-0.00026670,-0.00058640,0.0
 0058780,0.00007421,0.00014687,-0.00031226,0.00003257,0.00007865,-0.000
 06520,-0.00006334,0.00002494,0.00000135,-0.00001901,-0.00001227,0.0000
 4792,0.00005063,-0.00000279,-0.00001022,-0.00002011,0.00005256,0.00000
 809,-0.00000858,-0.00002044,0.00000020,-0.00000173,-0.00000053,-0.0000
 0201,0.00000523,0.00000213,0.00000467,0.00000059,0.00001068,-0.0000023
 9,0.00001949,0.00001324,-0.00001029,-0.00000894,-0.00000534,-0.0000023
 5,0.00000614,-0.00000054,-0.00000094,-0.00000309,0.00000080,0.00000889
 ,0.00007119,-0.00047736,0.00006078,0.00083896,-0.00038704,0.00020762,-
 0.00003053,0.00035116,0.00002216,-0.00002535,-0.00003609,-0.00000573,0
 .00008770,-0.00006981,0.00002480,-0.00001828,-0.00004320,-0.00001105,-
 0.00081347,0.00095987,-0.00013288,-0.00010548,0.00018906,-0.00012419,-
 0.00050149,-0.00095457,-0.00035413,-0.00022548,0.00016324,0.00008465,-
 0.00143420,0.00143547,-0.00235706,0.00009825,-0.00085804,0.00050192,0.
 00061637,-0.00033820,0.00054521,0.00008146,-0.00007783,0.00123246,0.03
 464240,-0.20612356,-0.05685062,0.03881263,-0.01201838,-0.00648780,0.00
 380226,0.00151854,-0.03227427,-0.08089514,0.26949115,-0.00000157,-0.00
 000247,-0.00000747,-0.00001108,-0.00000173,-0.00002156,-0.00000453,-0.
 00001189,-0.00003575,0.00000597,-0.00000510,-0.00000326,-0.00000762,-0
 .00000246,-0.00000686,-0.00000200,0.00000244,0.00000400,0.00000283,0.0
 0000040,-0.00000357,0.00000276,0.00000044,0.00000144,0.00000354,0.0000
 0377,0.00000262,-0.00000552,0.00000233,-0.00000070,0.00000802,0.000015
 69,0.00003278,0.00000366,0.00001383,0.00001414,-0.00000613,0.00000636,
 0.00003540,0.00000854,0.00000282,0.00001056,0.00000810,0.00000821,0.00
 001303,-0.00004056,-0.00004849,-0.00001575,0.00001282,0.00000721,-0.00
 000223,0.00000126,0.00001655,0.00000159,0.00007323,0.00005248,0.000006
 37,0.00001842,-0.00000759,-0.00001542,-0.00000123,0.00000190,0.0000006
 3,-0.00000593,-0.00000060,-0.00000184,0.00000194,0.00000088,0.00000237
 ,-0.00000549,0.00000087,-0.00000303,-0.00000081,-0.00000007,0.00000097
 ,0.00000274,0.00000152,0.00000131,-0.00000047,-0.00000057,-0.00000133,
 -0.00000571,-0.00000555,-0.00000656,-0.00000163,0.00000151,-0.00000086
 ,-0.00000157,-0.00000194,0.00000216,0.00000180,0.00000089,-0.00000008,
 -0.00043871,-0.00014490,-0.00011182,-0.00000131,-0.00009351,0.00001281
 ,0.00002477,-0.00000665,-0.00019013,-0.00002875,-0.00008629,-0.0000546
 3,-0.00005521,0.00005762,0.00001979,0.00000267,-0.00001493,0.00003255,
 0.00000118,0.00000669,0.00000526,-0.00001545,0.00000536,-0.00004248,0.
 00000469,0.00000415,-0.00000282,0.00000309,-0.00000601,-0.00000816,0.0
 0001330,0.00005690,0.00004836,-0.00003975,0.00002100,0.00007528,0.0000
 7483,0.00013650,-0.00000252,0.00106832,-0.00001163,-0.00027490,0.00009
 089,-0.00005407,-0.00001665,-0.00001356,0.00002534,0.00002169,-0.00000
 386,0.00000051,-0.00000465,0.00001951,-0.00000848,-0.00000145,0.000047
 21,-0.00001965,-0.00000322,0.00014005,-0.00020016,-0.00035701,-0.00006
 771,0.00000160,0.00012910,-0.00008506,0.00015457,0.00020071,0.00023102
 ,0.00019022,-0.00041302,0.00045676,-0.00003520,0.00025033,-0.00056326,
 0.00076728,0.00024278,-0.00007115,-0.00079369,0.00048996,-0.00000483,-
 0.00001979,0.00000624,0.00243595,-0.00130914,0.00985771,0.00029053,0.0
 0013209,-0.00001678,-0.00084587,-0.00091071,-0.00049615,0.00002563,-0.
 00000070,-0.00008205,-0.00000150,-0.00008557,0.00005989,-0.00000733,0.
 00002141,-0.00000371,-0.00000688,0.00000851,-0.00000735,-0.00000347,0.
 00000053,-0.00000248,-0.00098025,-0.00042599,0.00132907,0.00021396,0.0
 0054401,-0.00111863,0.00005848,0.00011047,-0.00026051,0.00005301,0.000
 06536,-0.00021895,-0.00004351,0.00005694,0.00002936,-0.00000286,0.0000
 1173,0.00003576,0.00003005,-0.00000520,-0.00000786,-0.00001153,0.00000
 421,0.00000155,-0.00002979,0.00001850,0.00000115,0.00000173,-0.0000021
 2,-0.00000217,0.00000862,-0.00000062,0.00000424,0.00000152,-0.00000316
 ,0.00000027,0.00000590,-0.00000845,-0.00000602,0.00000013,0.00000097,0
 .,-0.00000051,-0.00000045,0.00000133,-0.00000291,0.00000134,0.00000156
 ,0.00003911,-0.00004235,-0.00012004,-0.00000336,0.00004750,0.00018237,
 -0.00001384,0.00002654,-0.00002948,-0.00001062,0.00000535,0.00000711,0
 .00000883,-0.00000122,0.00000024,-0.00000114,-0.00001357,0.00000177,-0
 .00036632,-0.00007349,-0.00026031,0.00004455,-0.00009653,0.00000648,-0
 .00037380,0.00012881,-0.00047725,-0.00010602,0.00013003,0.00004464,-0.
 00015323,-0.00005589,-0.00024636,0.00001487,-0.00005239,0.00005600,0.0
 0001589,0.00000248,0.00004919,-0.00002659,0.00005846,0.00021681,0.0153
 7470,-0.05498101,-0.09339815,0.01133982,-0.00485379,0.01119648,0.01458
 138,-0.04791398,-0.06186614,-0.04239681,0.10947672,0.13548291\\-0.0000
 0099,0.00000062,0.00000411,-0.00000158,-0.00000105,0.00000417,-0.00000
 234,-0.00000070,0.00000580,-0.00000052,0.00000250,0.00000583,0.0000000
 4,0.00000239,0.00000420,-0.00000267,-0.00000208,0.00000578,-0.00000068
 ,-0.00000265,0.00000318,-0.00000097,0.00000044,0.00000535,-0.00000066,
 0.00000319,0.00000725,-0.00000009,0.00000139,0.00000176,-0.00000212,0.
 00000011,0.00000491,-0.00000241,-0.00000074,0.00000854,-0.00000351,-0.
 00000214,0.00000361,-0.00000031,-0.00000016,0.00000218,0.00000073,0.00
 000430,0.00000438,0.00000062,0.00000480,0.00000392,0.00000146,0.000005
 57,0.00000589,0.,0.00000337,0.00000711,0.00000222,0.00000235,0.0000055
 3,-0.00000393,-0.00000458,0.00000481,-0.00000430,-0.00000454,0.0000061
 1,-0.00000109,-0.00000671,0.00000519,-0.00000431,-0.00000563,0.0000042
 7,-0.00000012,0.00000101,0.00000228,0.00000034,0.00000281,0.00000274,-
 0.00000085,0.00000051,0.00000365,0.00000003,0.00000078,0.00000085,0.00
 000258,0.00000644,0.00000340,0.00000230,0.00000525,0.00000148,0.000002
 08,0.00000540,0.00000316,0.00000253,0.00000690,0.00000375,0.00000169,0
 .00000106,-0.00000278,0.00000147,0.00000184,-0.00000022,0.00000047,0.0
 0000034,0.00000087,0.00000137,0.00000044,-0.00000107,0.00000125,0.0000
 0198,-0.00000413,-0.00000069,0.00000221,0.00000208,0.00000182,0.000004
 15,-0.00000035,0.00000079,-0.00000094,-0.00000304,0.00000029,0.0000007
 4,-0.00000389,0.00000263,0.00000320,-0.00000349,-0.00000077,0.00000308
 ,-0.00000076,-0.00000108,-0.00000279,0.00000354,0.00000088,0.00000156,
 0.00000038,0.00000247,0.00000222,-0.00000414,0.00000236,0.00000060,-0.
 00000613,0.00000056,0.00000128,-0.00000366,0.00000186,0.00000067,-0.00
 000429,0.00000108,0.00000057,-0.00000166,0.00000270,0.00000219,-0.0000
 0266,-0.00000229,-0.00000333,-0.00000022,-0.00000200,-0.00000355,0.000
 00556,-0.00000265,0.00000005,0.00000024,-0.00000164,-0.00000326,0.0000
 0013,-0.00000127,-0.00000185,0.00000074,-0.00000150,-0.00000440,-0.000
 00231,-0.00000085,-0.00000178,-0.00000057,-0.00000134,-0.00000104,0.00
 000225,-0.00000096,-0.00000418,-0.00000321,0.00000015,-0.00000351,-0.0
 0000351,-0.00000074,-0.00000309,-0.00000278,-0.00000043,-0.00000291,-0
 .00000347,0.00000130,0.00000274,0.00000186,0.00000028,0.00000242,0.000
 00310,0.00000074,0.00000411,0.00000307,0.00000173,0.00000412,0.0000010
 4,0.00000214,0.00000138,-0.00000421,0.00000162,-0.00000004,-0.00000495
 ,0.00000151,0.00000115,-0.00000283,0.00000281,0.00000229,-0.00000525,0
 .00000326,0.00000269,-0.00000704,0.00000359,0.00000311,-0.00000672,0.0
 0000408,0.00000354,-0.00000674,0.00000356,0.00000157,-0.00000884,0.000
 00284,0.00000397,-0.00000297,0.00000373,0.00000558,-0.00000262,0.00000
 239,0.00000336,-0.00000194,0.00000337,0.00000353,-0.00000453,-0.000003
 35,-0.00000043,0.00000965,-0.00000367,-0.00000050,0.00001094,-0.000002
 45,0.00000146,0.00000943,-0.00000378,-0.00000175,0.00000942,-0.0000033
 1,-0.00000949,-0.00000550,-0.00000111,-0.00000209,-0.00000272,-0.00000
 112,-0.00000506,-0.00000629,0.00000062,-0.00000252,-0.00000650,-0.0000
 0123,-0.00000443,-0.00000579,-0.00000042,-0.00000535,-0.00000724,-0.00
 000045,-0.00000434,-0.00000665,-0.00000062,-0.00000517,-0.00000749,-0.
 00000142,-0.00000259,-0.00000498,0.00000070,-0.00000255,-0.00000663,-0
 .00000050,-0.00000045,0.00000030,-0.00000106,-0.00000049,0.00000243,-0
 .00000025,-0.00000079,-0.00000070,0.00000080,0.00000149,-0.00000003,-0
 .00000089,-0.00000503,-0.00000538,-0.00000083,-0.00000525,-0.00000649,
 -0.00000180,-0.00000680,-0.00000590,0.00000006,-0.00000408,-0.00000695
 \\\@


 ON A CLEAR DISK YOU CAN SEEK FOREVER.
 Job cpu time:       4 days 22 hours 56 minutes 14.8 seconds.
 Elapsed time:       0 days  3 hours 55 minutes 11.0 seconds.
 File lengths (MBytes):  RWF=   9727 Int=      0 D2E=      0 Chk=    106 Scr=      1
 Normal termination of Gaussian 16 at Fri May 24 12:09:23 2019.
