 Entering Gaussian System, Link 0=g16
 Input=clay_new-glu_gluC6-DAUR-Na3_1Me2O-bisCF3-ts-b3lyp_d3bj-631gd-pcm_thf.gjf
 Output=clay_new-glu_gluC6-DAUR-Na3_1Me2O-bisCF3-ts-b3lyp_d3bj-631gd-pcm_thf.out
 Initial command:
 /home/ekwan/sw/g16/l1.exe "/scratch/users/ekwan/clay_new-glu_gluC6-DAUR-Na3_1Me2O-bisCF3-ts-b3lyp_d3bj-631gd-pcm_thf/Gau-14738.inp" -scrdir="/scratch/users/ekwan/clay_new-glu_gluC6-DAUR-Na3_1Me2O-bisCF3-ts-b3lyp_d3bj-631gd-pcm_thf/"
 Entering Link 1 = /home/ekwan/sw/g16/l1.exe PID=     14739.
  
 Copyright (c) 1988,1990,1992,1993,1995,1998,2003,2009,2016,
            Gaussian, Inc.  All Rights Reserved.
  
 This is part of the Gaussian(R) 16 program.  It is based on
 the Gaussian(R) 09 system (copyright 2009, Gaussian, Inc.),
 the Gaussian(R) 03 system (copyright 2003, Gaussian, Inc.),
 the Gaussian(R) 98 system (copyright 1998, Gaussian, Inc.),
 the Gaussian(R) 94 system (copyright 1995, Gaussian, Inc.),
 the Gaussian 92(TM) system (copyright 1992, Gaussian, Inc.),
 the Gaussian 90(TM) system (copyright 1990, Gaussian, Inc.),
 the Gaussian 88(TM) system (copyright 1988, Gaussian, Inc.),
 the Gaussian 86(TM) system (copyright 1986, Carnegie Mellon
 University), and the Gaussian 82(TM) system (copyright 1983,
 Carnegie Mellon University). Gaussian is a federally registered
 trademark of Gaussian, Inc.
  
 This software contains proprietary and confidential information,
 including trade secrets, belonging to Gaussian, Inc.
  
 This software is provided under written license and may be
 used, copied, transmitted, or stored only in accord with that
 written license.
  
 The following legend is applicable only to US Government
 contracts under FAR:
  
                    RESTRICTED RIGHTS LEGEND
  
 Use, reproduction and disclosure by the US Government is
 subject to restrictions as set forth in subparagraphs (a)
 and (c) of the Commercial Computer Software - Restricted
 Rights clause in FAR 52.227-19.
  
 Gaussian, Inc.
 340 Quinnipiac St., Bldg. 40, Wallingford CT 06492
  
  
 ---------------------------------------------------------------
 Warning -- This program may not be used in any manner that
 competes with the business of Gaussian, Inc. or will provide
 assistance to any competitor of Gaussian, Inc.  The licensee
 of this program is prohibited from giving any competitor of
 Gaussian, Inc. access to this program.  By using this program,
 the user acknowledges that Gaussian, Inc. is engaged in the
 business of creating and licensing software in the field of
 computational chemistry and represents and warrants to the
 licensee that it is not a competitor of Gaussian, Inc. and that
 it will not use this program in any manner prohibited above.
 ---------------------------------------------------------------
  

 Cite this work as:
 Gaussian 16, Revision A.03,
 M. J. Frisch, G. W. Trucks, H. B. Schlegel, G. E. Scuseria, 
 M. A. Robb, J. R. Cheeseman, G. Scalmani, V. Barone, 
 G. A. Petersson, H. Nakatsuji, X. Li, M. Caricato, A. V. Marenich, 
 J. Bloino, B. G. Janesko, R. Gomperts, B. Mennucci, H. P. Hratchian, 
 J. V. Ortiz, A. F. Izmaylov, J. L. Sonnenberg, D. Williams-Young, 
 F. Ding, F. Lipparini, F. Egidi, J. Goings, B. Peng, A. Petrone, 
 T. Henderson, D. Ranasinghe, V. G. Zakrzewski, J. Gao, N. Rega, 
 G. Zheng, W. Liang, M. Hada, M. Ehara, K. Toyota, R. Fukuda, 
 J. Hasegawa, M. Ishida, T. Nakajima, Y. Honda, O. Kitao, H. Nakai, 
 T. Vreven, K. Throssell, J. A. Montgomery, Jr., J. E. Peralta, 
 F. Ogliaro, M. J. Bearpark, J. J. Heyd, E. N. Brothers, K. N. Kudin, 
 V. N. Staroverov, T. A. Keith, R. Kobayashi, J. Normand, 
 K. Raghavachari, A. P. Rendell, J. C. Burant, S. S. Iyengar, 
 J. Tomasi, M. Cossi, J. M. Millam, M. Klene, C. Adamo, R. Cammi, 
 J. W. Ochterski, R. L. Martin, K. Morokuma, O. Farkas, 
 J. B. Foresman, and D. J. Fox, Gaussian, Inc., Wallingford CT, 2016.
 
 ******************************************
 Gaussian 16:  AS64L-G16RevA.03 25-Dec-2016
                24-May-2019 
 ******************************************
 %mem=48GB
 %nprocshared=32
 Will use up to   32 processors via shared memory.
 ----------------------------------------------------------------------
 #p opt=(ts,noeigentest,calcfc,maxstep=3,modredundant,recalc=30) freq=n
 oraman b3lyp 6-31g* pop=none scrf=(solvent=tetrahydrofuran,pcm) empiri
 caldispersion=gd3bj
 ----------------------------------------------------------------------
 1/5=1,8=3,10=4,11=1,18=120,26=3,38=1,71=30/1,3;
 2/9=110,12=2,17=6,18=5,40=1/2;
 3/5=1,6=6,7=1,11=2,25=1,30=1,70=2201,71=2,72=20,74=-5,124=41,140=1/1,2,3;
 4//1;
 5/5=2,38=5,53=20/2;
 8/6=4,10=90,11=11/1;
 11/6=1,8=1,9=11,15=111,16=1/1,2,10;
 10/6=1,13=1/2;
 7/10=1,18=20,25=1/1,2,3,16;
 1/5=1,8=3,10=4,11=1,18=20,26=3,71=30/3(2);
 2/9=110/2;
 99//99;
 2/9=110/2;
 3/5=1,6=6,7=1,11=2,25=1,30=1,70=2205,71=1,72=20,74=-5,124=41/1,2,3;
 4/5=5,16=3,69=1/1;
 5/5=2,38=5,53=20/2;
 7//1,2,3,16;
 1/5=1,8=3,11=1,18=20,26=3,71=30/3(-5);
 2/9=110/2;
 99/9=1/99;
 Leave Link    1 at Fri May 24 20:19:30 2019, MaxMem=  6442450944 cpu:               5.2 elap:               0.2
 (Enter /home/ekwan/sw/g16/l101.exe)
 -----
 title
 -----
 Symbolic Z-matrix:
 Charge =  0 Multiplicity = 1
 C                     2.82352  -2.60359   2.01828 
 C                     3.58069  -1.53278   1.23272 
 C                     3.35657  -1.70993  -0.27431 
 C                     1.19704  -2.7146    0.04994 
 C                     1.36525  -2.66302   1.57086 
 H                     3.79217  -0.87541  -0.83965 
 H                     3.16333  -0.54823   1.49826 
 H                     3.29556  -3.57886   1.84304 
 H                     1.57774  -3.67364  -0.32561 
 H                     0.86395  -1.75655   1.92359 
 O                     1.97405  -1.64769  -0.55985 
 O                     3.96216  -2.90545  -0.68423 
 O                     4.94868  -1.57677   1.60061 
 O                     2.83006  -2.29567   3.41011 
 O                     0.76056  -3.8138    2.15367 
 C                    -0.27999  -2.53103  -0.36924 
 H                    -0.74571  -3.53451  -0.21531 
 H                    -0.25376  -2.40522  -1.47875 
 O                    -0.93179  -1.52808   0.28428 
 C                     5.69304  -0.4524    1.15925 
 H                     5.88404  -0.4819    0.07743 
 H                     5.17435   0.48797   1.39721 
 H                     6.6515   -0.47901   1.68339 
 C                     3.82169  -2.98143   4.1567 
 H                     3.69151  -4.07139   4.08264 
 H                     4.83292  -2.72019   3.82508 
 H                     3.69321  -2.68219   5.20111 
 C                    -0.48521  -3.53606   2.78553 
 H                    -0.3332   -2.96109   3.71209 
 H                    -1.14673  -2.97001   2.12098 
 H                    -0.93292  -4.50163   3.0406 
 C                     1.6492    2.18276  -0.19376 
 C                     0.56715   1.19595   0.21862 
 C                    -0.30756   0.75144  -0.93006 
 C                     1.41516   1.19778  -2.56747 
 C                     2.35505   1.69342  -1.46085 
 H                    -1.05816   0.00535  -0.63629 
 H                     1.04947   0.26349   0.52992 
 H                     1.20897   3.17003  -0.3951 
 H                     1.05414   2.06403  -3.12812 
 H                     3.01733   0.87569  -1.16566 
 O                     0.22566   0.49739  -2.09672 
 O                    -3.09885   2.53877  -2.87814 
 O                    -0.22674   1.71814   1.27589 
 O                     2.66783   2.29741   0.78875 
 O                     3.1102    2.75352  -2.02902 
 C                     2.07314   0.13215  -3.46565 
 H                     1.42927  -0.04823  -4.33877 
 H                     2.11973  -0.78441  -2.87315 
 O                     3.39353   0.42901  -3.8599 
 S                    -2.79368   2.33649  -1.45755 
 O                    -3.37719   3.30006  -0.48419 
 O                    -1.25569   2.32996  -1.19286 
 C                    -3.35014   0.70859  -0.98069 
 C                    -3.31012  -0.32134  -1.91572 
 C                    -3.65368   0.47128   0.35888 
 C                    -3.54224  -1.62426  -1.48071 
 H                    -3.05651  -0.11254  -2.94834 
 C                    -3.89043  -0.83511   0.76926 
 H                    -3.67032   1.29044   1.06636 
 C                    -3.81115  -1.88723  -0.1408 
 H                    -3.93714  -2.90773   0.19659 
 C                    -0.56849   0.76085   2.29976 
 H                    -0.83887  -0.19635   1.84127 
 H                     0.28148   0.63251   2.98208 
 H                    -1.41348   1.18562   2.84618 
 C                     2.36526   3.12616   1.90487 
 H                     1.87168   4.05372   1.58652 
 H                     1.71877   2.61811   2.62667 
 H                     3.3194    3.36812   2.37933 
 C                     4.50977   2.6759   -1.77175 
 H                     4.71697   2.73487  -0.6983 
 H                     4.92443   1.74696  -2.18141 
 H                     4.96444   3.52903  -2.28101 
 C                     3.48158   1.41244  -4.88459 
 H                     4.53046   1.45767  -5.18659 
 H                     2.86821   1.13016  -5.75218 
 H                     3.17005   2.39797  -4.52125 
 C                     3.92174  -3.09218  -2.09558 
 H                     4.56897  -3.94238  -2.32033 
 H                     2.90433  -3.30645  -2.44319 
 H                     4.29288  -2.2002   -2.62069 
 Na                   -1.45339   3.63034   0.85033 
 O                    -0.61146   4.95356   2.49734 
 C                    -0.41391   4.45667   3.81738 
 H                    -0.99494   5.03997   4.54342 
 H                    -0.75321   3.41912   3.82832 
 H                     0.64803   4.49438   4.09247 
 C                    -0.19017   6.30643   2.35705 
 H                     0.88252   6.4024    2.57111 
 H                    -0.38232   6.6005    1.3234 
 H                    -0.75255   6.96241   3.034 
 C                    -4.19783  -1.12031   2.21195 
 F                    -3.71358  -2.31753   2.60471 
 F                    -5.5311   -1.14074   2.44693 
 F                    -3.67272  -0.18038   3.03321 
 C                    -3.44726  -2.75475  -2.46647 
 F                    -2.4608   -2.54371  -3.36641 
 F                    -4.59379  -2.90409  -3.17215 
 F                    -3.1991   -3.93395  -1.85991 
 
 Add virtual bond connecting atoms H37        and O19        Dist= 3.39D+00.
 Add virtual bond connecting atoms H41        and H6         Dist= 3.67D+00.
 Add virtual bond connecting atoms O53        and C34        Dist= 3.51D+00.
 The following ModRedundant input section has been read:
 
 ITRead=  0  0  0  0  0  0  0  0  0  0  0  0  0  0  0  0  0  0  0  0
 ITRead=  0  0  0  0  0  0  0  0  0  0  0  0  0  0  0  0  0  0  0  0
 ITRead=  0  0  0  0  0  0  0  0  0  0  0  0  0  0  0  0  0  0  0  0
 ITRead=  0  0  0  0  0  0  0  0  0  0  0  0  0  0  0  0  0  0  0  0
 ITRead=  0  0  0  0  0  0  0  0  0  0  0  0  0  0  0  0  0  0  0  0
 MicOpt= -1 -1 -1 -1 -1 -1 -1 -1 -1 -1 -1 -1 -1 -1 -1 -1 -1 -1 -1 -1
 MicOpt= -1 -1 -1 -1 -1 -1 -1 -1 -1 -1 -1 -1 -1 -1 -1 -1 -1 -1 -1 -1
 MicOpt= -1 -1 -1 -1 -1 -1 -1 -1 -1 -1 -1 -1 -1 -1 -1 -1 -1 -1 -1 -1
 MicOpt= -1 -1 -1 -1 -1 -1 -1 -1 -1 -1 -1 -1 -1 -1 -1 -1 -1 -1 -1 -1
 MicOpt= -1 -1 -1 -1 -1 -1 -1 -1 -1 -1 -1 -1 -1 -1 -1 -1 -1 -1 -1 -1
 NAtoms=    100 NQM=      100 NQMF=       0 NMMI=      0 NMMIF=      0
                NMic=       0 NMicF=      0.
                    Isotopes and Nuclear Properties:
 (Nuclear quadrupole moments (NQMom) in fm**2, nuclear magnetic moments (NMagM)
  in nuclear magnetons)

  Atom         1           2           3           4           5           6           7           8           9          10
 IAtWgt=          12          12          12          12          12           1           1           1           1           1
 AtmWgt=  12.0000000  12.0000000  12.0000000  12.0000000  12.0000000   1.0078250   1.0078250   1.0078250   1.0078250   1.0078250
 NucSpn=           0           0           0           0           0           1           1           1           1           1
 AtZEff=   0.0000000   0.0000000   0.0000000   0.0000000   0.0000000   0.0000000   0.0000000   0.0000000   0.0000000   0.0000000
 NQMom=    0.0000000   0.0000000   0.0000000   0.0000000   0.0000000   0.0000000   0.0000000   0.0000000   0.0000000   0.0000000
 NMagM=    0.0000000   0.0000000   0.0000000   0.0000000   0.0000000   2.7928460   2.7928460   2.7928460   2.7928460   2.7928460
 AtZNuc=   6.0000000   6.0000000   6.0000000   6.0000000   6.0000000   1.0000000   1.0000000   1.0000000   1.0000000   1.0000000

  Atom        11          12          13          14          15          16          17          18          19          20
 IAtWgt=          16          16          16          16          16          12           1           1          16          12
 AtmWgt=  15.9949146  15.9949146  15.9949146  15.9949146  15.9949146  12.0000000   1.0078250   1.0078250  15.9949146  12.0000000
 NucSpn=           0           0           0           0           0           0           1           1           0           0
 AtZEff=   0.0000000   0.0000000   0.0000000   0.0000000   0.0000000   0.0000000   0.0000000   0.0000000   0.0000000   0.0000000
 NQMom=    0.0000000   0.0000000   0.0000000   0.0000000   0.0000000   0.0000000   0.0000000   0.0000000   0.0000000   0.0000000
 NMagM=    0.0000000   0.0000000   0.0000000   0.0000000   0.0000000   0.0000000   2.7928460   2.7928460   0.0000000   0.0000000
 AtZNuc=   8.0000000   8.0000000   8.0000000   8.0000000   8.0000000   6.0000000   1.0000000   1.0000000   8.0000000   6.0000000

  Atom        21          22          23          24          25          26          27          28          29          30
 IAtWgt=           1           1           1          12           1           1           1          12           1           1
 AtmWgt=   1.0078250   1.0078250   1.0078250  12.0000000   1.0078250   1.0078250   1.0078250  12.0000000   1.0078250   1.0078250
 NucSpn=           1           1           1           0           1           1           1           0           1           1
 AtZEff=   0.0000000   0.0000000   0.0000000   0.0000000   0.0000000   0.0000000   0.0000000   0.0000000   0.0000000   0.0000000
 NQMom=    0.0000000   0.0000000   0.0000000   0.0000000   0.0000000   0.0000000   0.0000000   0.0000000   0.0000000   0.0000000
 NMagM=    2.7928460   2.7928460   2.7928460   0.0000000   2.7928460   2.7928460   2.7928460   0.0000000   2.7928460   2.7928460
 AtZNuc=   1.0000000   1.0000000   1.0000000   6.0000000   1.0000000   1.0000000   1.0000000   6.0000000   1.0000000   1.0000000

  Atom        31          32          33          34          35          36          37          38          39          40
 IAtWgt=           1          12          12          12          12          12           1           1           1           1
 AtmWgt=   1.0078250  12.0000000  12.0000000  12.0000000  12.0000000  12.0000000   1.0078250   1.0078250   1.0078250   1.0078250
 NucSpn=           1           0           0           0           0           0           1           1           1           1
 AtZEff=   0.0000000   0.0000000   0.0000000   0.0000000   0.0000000   0.0000000   0.0000000   0.0000000   0.0000000   0.0000000
 NQMom=    0.0000000   0.0000000   0.0000000   0.0000000   0.0000000   0.0000000   0.0000000   0.0000000   0.0000000   0.0000000
 NMagM=    2.7928460   0.0000000   0.0000000   0.0000000   0.0000000   0.0000000   2.7928460   2.7928460   2.7928460   2.7928460
 AtZNuc=   1.0000000   6.0000000   6.0000000   6.0000000   6.0000000   6.0000000   1.0000000   1.0000000   1.0000000   1.0000000

  Atom        41          42          43          44          45          46          47          48          49          50
 IAtWgt=           1          16          16          16          16          16          12           1           1          16
 AtmWgt=   1.0078250  15.9949146  15.9949146  15.9949146  15.9949146  15.9949146  12.0000000   1.0078250   1.0078250  15.9949146
 NucSpn=           1           0           0           0           0           0           0           1           1           0
 AtZEff=   0.0000000   0.0000000   0.0000000   0.0000000   0.0000000   0.0000000   0.0000000   0.0000000   0.0000000   0.0000000
 NQMom=    0.0000000   0.0000000   0.0000000   0.0000000   0.0000000   0.0000000   0.0000000   0.0000000   0.0000000   0.0000000
 NMagM=    2.7928460   0.0000000   0.0000000   0.0000000   0.0000000   0.0000000   0.0000000   2.7928460   2.7928460   0.0000000
 AtZNuc=   1.0000000   8.0000000   8.0000000   8.0000000   8.0000000   8.0000000   6.0000000   1.0000000   1.0000000   8.0000000

  Atom        51          52          53          54          55          56          57          58          59          60
 IAtWgt=          32          16          16          12          12          12          12           1          12           1
 AtmWgt=  31.9720718  15.9949146  15.9949146  12.0000000  12.0000000  12.0000000  12.0000000   1.0078250  12.0000000   1.0078250
 NucSpn=           0           0           0           0           0           0           0           1           0           1
 AtZEff=   0.0000000   0.0000000   0.0000000   0.0000000   0.0000000   0.0000000   0.0000000   0.0000000   0.0000000   0.0000000
 NQMom=    0.0000000   0.0000000   0.0000000   0.0000000   0.0000000   0.0000000   0.0000000   0.0000000   0.0000000   0.0000000
 NMagM=    0.0000000   0.0000000   0.0000000   0.0000000   0.0000000   0.0000000   0.0000000   2.7928460   0.0000000   2.7928460
 AtZNuc=  16.0000000   8.0000000   8.0000000   6.0000000   6.0000000   6.0000000   6.0000000   1.0000000   6.0000000   1.0000000

  Atom        61          62          63          64          65          66          67          68          69          70
 IAtWgt=          12           1          12           1           1           1          12           1           1           1
 AtmWgt=  12.0000000   1.0078250  12.0000000   1.0078250   1.0078250   1.0078250  12.0000000   1.0078250   1.0078250   1.0078250
 NucSpn=           0           1           0           1           1           1           0           1           1           1
 AtZEff=   0.0000000   0.0000000   0.0000000   0.0000000   0.0000000   0.0000000   0.0000000   0.0000000   0.0000000   0.0000000
 NQMom=    0.0000000   0.0000000   0.0000000   0.0000000   0.0000000   0.0000000   0.0000000   0.0000000   0.0000000   0.0000000
 NMagM=    0.0000000   2.7928460   0.0000000   2.7928460   2.7928460   2.7928460   0.0000000   2.7928460   2.7928460   2.7928460
 AtZNuc=   6.0000000   1.0000000   6.0000000   1.0000000   1.0000000   1.0000000   6.0000000   1.0000000   1.0000000   1.0000000

  Atom        71          72          73          74          75          76          77          78          79          80
 IAtWgt=          12           1           1           1          12           1           1           1          12           1
 AtmWgt=  12.0000000   1.0078250   1.0078250   1.0078250  12.0000000   1.0078250   1.0078250   1.0078250  12.0000000   1.0078250
 NucSpn=           0           1           1           1           0           1           1           1           0           1
 AtZEff=   0.0000000   0.0000000   0.0000000   0.0000000   0.0000000   0.0000000   0.0000000   0.0000000   0.0000000   0.0000000
 NQMom=    0.0000000   0.0000000   0.0000000   0.0000000   0.0000000   0.0000000   0.0000000   0.0000000   0.0000000   0.0000000
 NMagM=    0.0000000   2.7928460   2.7928460   2.7928460   0.0000000   2.7928460   2.7928460   2.7928460   0.0000000   2.7928460
 AtZNuc=   6.0000000   1.0000000   1.0000000   1.0000000   6.0000000   1.0000000   1.0000000   1.0000000   6.0000000   1.0000000

  Atom        81          82          83          84          85          86          87          88          89          90
 IAtWgt=           1           1          23          16          12           1           1           1          12           1
 AtmWgt=   1.0078250   1.0078250  22.9897697  15.9949146  12.0000000   1.0078250   1.0078250   1.0078250  12.0000000   1.0078250
 NucSpn=           1           1           3           0           0           1           1           1           0           1
 AtZEff=   0.0000000   0.0000000   0.0000000   0.0000000   0.0000000   0.0000000   0.0000000   0.0000000   0.0000000   0.0000000
 NQMom=    0.0000000   0.0000000  10.4000000   0.0000000   0.0000000   0.0000000   0.0000000   0.0000000   0.0000000   0.0000000
 NMagM=    2.7928460   2.7928460   2.2175200   0.0000000   0.0000000   2.7928460   2.7928460   2.7928460   0.0000000   2.7928460
 AtZNuc=   1.0000000   1.0000000  11.0000000   8.0000000   6.0000000   1.0000000   1.0000000   1.0000000   6.0000000   1.0000000

  Atom        91          92          93          94          95          96          97          98          99         100
 IAtWgt=           1           1          12          19          19          19          12          19          19          19
 AtmWgt=   1.0078250   1.0078250  12.0000000  18.9984033  18.9984033  18.9984033  12.0000000  18.9984033  18.9984033  18.9984033
 NucSpn=           1           1           0           1           1           1           0           1           1           1
 AtZEff=   0.0000000   0.0000000   0.0000000   0.0000000   0.0000000   0.0000000   0.0000000   0.0000000   0.0000000   0.0000000
 NQMom=    0.0000000   0.0000000   0.0000000   0.0000000   0.0000000   0.0000000   0.0000000   0.0000000   0.0000000   0.0000000
 NMagM=    2.7928460   2.7928460   0.0000000   2.6288670   2.6288670   2.6288670   0.0000000   2.6288670   2.6288670   2.6288670
 AtZNuc=   1.0000000   1.0000000   6.0000000   9.0000000   9.0000000   9.0000000   6.0000000   9.0000000   9.0000000   9.0000000
 Leave Link  101 at Fri May 24 20:19:31 2019, MaxMem=  6442450944 cpu:              17.7 elap:               0.7
 (Enter /home/ekwan/sw/g16/l103.exe)

 GradGradGradGradGradGradGradGradGradGradGradGradGradGradGradGradGradGrad
 Berny optimization.
 Initialization pass.
                           ----------------------------
                           !    Initial Parameters    !
                           ! (Angstroms and Degrees)  !
 --------------------------                            --------------------------
 ! Name  Definition              Value          Derivative Info.                !
 --------------------------------------------------------------------------------
 ! R1    R(1,2)                  1.5287         calculate D2E/DX2 analytically  !
 ! R2    R(1,5)                  1.5265         calculate D2E/DX2 analytically  !
 ! R3    R(1,8)                  1.0976         calculate D2E/DX2 analytically  !
 ! R4    R(1,14)                 1.4255         calculate D2E/DX2 analytically  !
 ! R5    R(2,3)                  1.5339         calculate D2E/DX2 analytically  !
 ! R6    R(2,7)                  1.1018         calculate D2E/DX2 analytically  !
 ! R7    R(2,13)                 1.4173         calculate D2E/DX2 analytically  !
 ! R8    R(3,6)                  1.0981         calculate D2E/DX2 analytically  !
 ! R9    R(3,11)                 1.4131         calculate D2E/DX2 analytically  !
 ! R10   R(3,12)                 1.4014         calculate D2E/DX2 analytically  !
 ! R11   R(4,5)                  1.5311         calculate D2E/DX2 analytically  !
 ! R12   R(4,9)                  1.0981         calculate D2E/DX2 analytically  !
 ! R13   R(4,11)                 1.4539         calculate D2E/DX2 analytically  !
 ! R14   R(4,16)                 1.5463         calculate D2E/DX2 analytically  !
 ! R15   R(5,10)                 1.0943         calculate D2E/DX2 analytically  !
 ! R16   R(5,15)                 1.4247         calculate D2E/DX2 analytically  !
 ! R17   R(6,41)                 1.9424         calculate D2E/DX2 analytically  !
 ! R18   R(12,79)                1.4242         calculate D2E/DX2 analytically  !
 ! R19   R(13,20)                1.4188         calculate D2E/DX2 analytically  !
 ! R20   R(14,24)                1.4181         calculate D2E/DX2 analytically  !
 ! R21   R(15,28)                1.4242         calculate D2E/DX2 analytically  !
 ! R22   R(16,17)                1.1169         calculate D2E/DX2 analytically  !
 ! R23   R(16,18)                1.1169         calculate D2E/DX2 analytically  !
 ! R24   R(16,19)                1.363          calculate D2E/DX2 analytically  !
 ! R25   R(19,37)                1.793          calculate D2E/DX2 analytically  !
 ! R26   R(20,21)                1.0989         calculate D2E/DX2 analytically  !
 ! R27   R(20,22)                1.1            calculate D2E/DX2 analytically  !
 ! R28   R(20,23)                1.0927         calculate D2E/DX2 analytically  !
 ! R29   R(24,25)                1.1002         calculate D2E/DX2 analytically  !
 ! R30   R(24,26)                1.0958         calculate D2E/DX2 analytically  !
 ! R31   R(24,27)                1.094          calculate D2E/DX2 analytically  !
 ! R32   R(28,29)                1.101          calculate D2E/DX2 analytically  !
 ! R33   R(28,30)                1.0953         calculate D2E/DX2 analytically  !
 ! R34   R(28,31)                1.0945         calculate D2E/DX2 analytically  !
 ! R35   R(32,33)                1.5214         calculate D2E/DX2 analytically  !
 ! R36   R(32,36)                1.5308         calculate D2E/DX2 analytically  !
 ! R37   R(32,39)                1.0996         calculate D2E/DX2 analytically  !
 ! R38   R(32,45)                1.4199         calculate D2E/DX2 analytically  !
 ! R39   R(33,34)                1.5107         calculate D2E/DX2 analytically  !
 ! R40   R(33,38)                1.095          calculate D2E/DX2 analytically  !
 ! R41   R(33,44)                1.4215         calculate D2E/DX2 analytically  !
 ! R42   R(34,37)                1.0983         calculate D2E/DX2 analytically  !
 ! R43   R(34,42)                1.3077         calculate D2E/DX2 analytically  !
 ! R44   R(34,53)                1.86           calculate D2E/DX2 analytically  !
 ! R45   R(35,36)                1.5342         calculate D2E/DX2 analytically  !
 ! R46   R(35,40)                1.0932         calculate D2E/DX2 analytically  !
 ! R47   R(35,42)                1.4584         calculate D2E/DX2 analytically  !
 ! R48   R(35,47)                1.5412         calculate D2E/DX2 analytically  !
 ! R49   R(36,41)                1.0929         calculate D2E/DX2 analytically  !
 ! R50   R(36,46)                1.4202         calculate D2E/DX2 analytically  !
 ! R51   R(43,51)                1.467          calculate D2E/DX2 analytically  !
 ! R52   R(44,63)                1.4427         calculate D2E/DX2 analytically  !
 ! R53   R(45,67)                1.4227         calculate D2E/DX2 analytically  !
 ! R54   R(46,71)                1.4251         calculate D2E/DX2 analytically  !
 ! R55   R(47,48)                1.0998         calculate D2E/DX2 analytically  !
 ! R56   R(47,49)                1.0924         calculate D2E/DX2 analytically  !
 ! R57   R(47,50)                1.4096         calculate D2E/DX2 analytically  !
 ! R58   R(50,75)                1.423          calculate D2E/DX2 analytically  !
 ! R59   R(51,52)                1.4887         calculate D2E/DX2 analytically  !
 ! R60   R(51,53)                1.5606         calculate D2E/DX2 analytically  !
 ! R61   R(51,54)                1.7852         calculate D2E/DX2 analytically  !
 ! R62   R(51,83)                2.9659         calculate D2E/DX2 analytically  !
 ! R63   R(54,55)                1.3916         calculate D2E/DX2 analytically  !
 ! R64   R(54,56)                1.3939         calculate D2E/DX2 analytically  !
 ! R65   R(55,57)                1.3931         calculate D2E/DX2 analytically  !
 ! R66   R(55,58)                1.0836         calculate D2E/DX2 analytically  !
 ! R67   R(56,59)                1.3896         calculate D2E/DX2 analytically  !
 ! R68   R(56,60)                1.0825         calculate D2E/DX2 analytically  !
 ! R69   R(57,61)                1.3917         calculate D2E/DX2 analytically  !
 ! R70   R(57,97)                1.5029         calculate D2E/DX2 analytically  !
 ! R71   R(59,61)                1.3934         calculate D2E/DX2 analytically  !
 ! R72   R(59,93)                1.5024         calculate D2E/DX2 analytically  !
 ! R73   R(61,62)                1.0822         calculate D2E/DX2 analytically  !
 ! R74   R(63,64)                1.0952         calculate D2E/DX2 analytically  !
 ! R75   R(63,65)                1.0975         calculate D2E/DX2 analytically  !
 ! R76   R(63,66)                1.0923         calculate D2E/DX2 analytically  !
 ! R77   R(67,68)                1.0979         calculate D2E/DX2 analytically  !
 ! R78   R(67,69)                1.0941         calculate D2E/DX2 analytically  !
 ! R79   R(67,70)                1.0927         calculate D2E/DX2 analytically  !
 ! R80   R(71,72)                1.0948         calculate D2E/DX2 analytically  !
 ! R81   R(71,73)                1.0967         calculate D2E/DX2 analytically  !
 ! R82   R(71,74)                1.0927         calculate D2E/DX2 analytically  !
 ! R83   R(75,76)                1.0924         calculate D2E/DX2 analytically  !
 ! R84   R(75,77)                1.0994         calculate D2E/DX2 analytically  !
 ! R85   R(75,78)                1.0956         calculate D2E/DX2 analytically  !
 ! R86   R(79,80)                1.0919         calculate D2E/DX2 analytically  !
 ! R87   R(79,81)                1.0963         calculate D2E/DX2 analytically  !
 ! R88   R(79,82)                1.0996         calculate D2E/DX2 analytically  !
 ! R89   R(83,84)                2.2743         calculate D2E/DX2 analytically  !
 ! R90   R(84,85)                1.4242         calculate D2E/DX2 analytically  !
 ! R91   R(84,89)                1.4239         calculate D2E/DX2 analytically  !
 ! R92   R(85,86)                1.0977         calculate D2E/DX2 analytically  !
 ! R93   R(85,87)                1.0917         calculate D2E/DX2 analytically  !
 ! R94   R(85,88)                1.0976         calculate D2E/DX2 analytically  !
 ! R95   R(89,90)                1.098          calculate D2E/DX2 analytically  !
 ! R96   R(89,91)                1.0917         calculate D2E/DX2 analytically  !
 ! R97   R(89,92)                1.0977         calculate D2E/DX2 analytically  !
 ! R98   R(93,94)                1.3498         calculate D2E/DX2 analytically  !
 ! R99   R(93,95)                1.354          calculate D2E/DX2 analytically  !
 ! R100  R(93,96)                1.3541         calculate D2E/DX2 analytically  !
 ! R101  R(97,98)                1.3519         calculate D2E/DX2 analytically  !
 ! R102  R(97,99)                1.3545         calculate D2E/DX2 analytically  !
 ! R103  R(97,100)               1.3491         calculate D2E/DX2 analytically  !
 ! A1    A(2,1,5)              110.4752         calculate D2E/DX2 analytically  !
 ! A2    A(2,1,8)              109.1081         calculate D2E/DX2 analytically  !
 ! A3    A(2,1,14)             110.3738         calculate D2E/DX2 analytically  !
 ! A4    A(5,1,8)              109.2358         calculate D2E/DX2 analytically  !
 ! A5    A(5,1,14)             107.3952         calculate D2E/DX2 analytically  !
 ! A6    A(8,1,14)             110.2341         calculate D2E/DX2 analytically  !
 ! A7    A(1,2,3)              110.5853         calculate D2E/DX2 analytically  !
 ! A8    A(1,2,7)              108.328          calculate D2E/DX2 analytically  !
 ! A9    A(1,2,13)             108.841          calculate D2E/DX2 analytically  !
 ! A10   A(3,2,7)              106.5368         calculate D2E/DX2 analytically  !
 ! A11   A(3,2,13)             113.1086         calculate D2E/DX2 analytically  !
 ! A12   A(7,2,13)             109.3167         calculate D2E/DX2 analytically  !
 ! A13   A(2,3,6)              111.1063         calculate D2E/DX2 analytically  !
 ! A14   A(2,3,11)             109.6576         calculate D2E/DX2 analytically  !
 ! A15   A(2,3,12)             108.83           calculate D2E/DX2 analytically  !
 ! A16   A(6,3,11)             104.5137         calculate D2E/DX2 analytically  !
 ! A17   A(6,3,12)             109.0445         calculate D2E/DX2 analytically  !
 ! A18   A(11,3,12)            113.6564         calculate D2E/DX2 analytically  !
 ! A19   A(5,4,9)              109.3343         calculate D2E/DX2 analytically  !
 ! A20   A(5,4,11)             109.4627         calculate D2E/DX2 analytically  !
 ! A21   A(5,4,16)             111.7299         calculate D2E/DX2 analytically  !
 ! A22   A(9,4,11)             108.1912         calculate D2E/DX2 analytically  !
 ! A23   A(9,4,16)             110.0078         calculate D2E/DX2 analytically  !
 ! A24   A(11,4,16)            108.0395         calculate D2E/DX2 analytically  !
 ! A25   A(1,5,4)              113.4169         calculate D2E/DX2 analytically  !
 ! A26   A(1,5,10)             108.1143         calculate D2E/DX2 analytically  !
 ! A27   A(1,5,15)             108.4825         calculate D2E/DX2 analytically  !
 ! A28   A(4,5,10)             107.3247         calculate D2E/DX2 analytically  !
 ! A29   A(4,5,15)             109.4227         calculate D2E/DX2 analytically  !
 ! A30   A(10,5,15)            110.0489         calculate D2E/DX2 analytically  !
 ! A31   A(3,6,41)             127.8276         calculate D2E/DX2 analytically  !
 ! A32   A(3,11,4)             113.9411         calculate D2E/DX2 analytically  !
 ! A33   A(3,12,79)            112.9191         calculate D2E/DX2 analytically  !
 ! A34   A(2,13,20)            113.6435         calculate D2E/DX2 analytically  !
 ! A35   A(1,14,24)            114.3802         calculate D2E/DX2 analytically  !
 ! A36   A(5,15,28)            113.2811         calculate D2E/DX2 analytically  !
 ! A37   A(4,16,17)            104.73           calculate D2E/DX2 analytically  !
 ! A38   A(4,16,18)            105.0833         calculate D2E/DX2 analytically  !
 ! A39   A(4,16,19)            114.4668         calculate D2E/DX2 analytically  !
 ! A40   A(17,16,18)           104.352          calculate D2E/DX2 analytically  !
 ! A41   A(17,16,19)           113.3045         calculate D2E/DX2 analytically  !
 ! A42   A(18,16,19)           113.8675         calculate D2E/DX2 analytically  !
 ! A43   A(16,19,37)           114.6353         calculate D2E/DX2 analytically  !
 ! A44   A(13,20,21)           112.0947         calculate D2E/DX2 analytically  !
 ! A45   A(13,20,22)           111.2721         calculate D2E/DX2 analytically  !
 ! A46   A(13,20,23)           106.9573         calculate D2E/DX2 analytically  !
 ! A47   A(21,20,22)           108.5334         calculate D2E/DX2 analytically  !
 ! A48   A(21,20,23)           108.6076         calculate D2E/DX2 analytically  !
 ! A49   A(22,20,23)           109.3079         calculate D2E/DX2 analytically  !
 ! A50   A(14,24,25)           111.1552         calculate D2E/DX2 analytically  !
 ! A51   A(14,24,26)           111.7578         calculate D2E/DX2 analytically  !
 ! A52   A(14,24,27)           106.7511         calculate D2E/DX2 analytically  !
 ! A53   A(25,24,26)           108.9652         calculate D2E/DX2 analytically  !
 ! A54   A(25,24,27)           108.7447         calculate D2E/DX2 analytically  !
 ! A55   A(26,24,27)           109.3949         calculate D2E/DX2 analytically  !
 ! A56   A(15,28,29)           110.7589         calculate D2E/DX2 analytically  !
 ! A57   A(15,28,30)           111.095          calculate D2E/DX2 analytically  !
 ! A58   A(15,28,31)           106.8084         calculate D2E/DX2 analytically  !
 ! A59   A(29,28,30)           108.9113         calculate D2E/DX2 analytically  !
 ! A60   A(29,28,31)           108.7275         calculate D2E/DX2 analytically  !
 ! A61   A(30,28,31)           110.5044         calculate D2E/DX2 analytically  !
 ! A62   A(33,32,36)           110.1802         calculate D2E/DX2 analytically  !
 ! A63   A(33,32,39)           110.3197         calculate D2E/DX2 analytically  !
 ! A64   A(33,32,45)           112.0268         calculate D2E/DX2 analytically  !
 ! A65   A(36,32,39)           108.6675         calculate D2E/DX2 analytically  !
 ! A66   A(36,32,45)           105.5326         calculate D2E/DX2 analytically  !
 ! A67   A(39,32,45)           109.9639         calculate D2E/DX2 analytically  !
 ! A68   A(32,33,34)           113.3629         calculate D2E/DX2 analytically  !
 ! A69   A(32,33,38)           108.4286         calculate D2E/DX2 analytically  !
 ! A70   A(32,33,44)           111.1328         calculate D2E/DX2 analytically  !
 ! A71   A(34,33,38)           102.7465         calculate D2E/DX2 analytically  !
 ! A72   A(34,33,44)           110.5027         calculate D2E/DX2 analytically  !
 ! A73   A(38,33,44)           110.3264         calculate D2E/DX2 analytically  !
 ! A74   A(33,34,37)           113.0913         calculate D2E/DX2 analytically  !
 ! A75   A(33,34,42)           119.9635         calculate D2E/DX2 analytically  !
 ! A76   A(33,34,53)            98.7929         calculate D2E/DX2 analytically  !
 ! A77   A(37,34,42)           112.6639         calculate D2E/DX2 analytically  !
 ! A78   A(37,34,53)           105.4215         calculate D2E/DX2 analytically  !
 ! A79   A(42,34,53)           104.2807         calculate D2E/DX2 analytically  !
 ! A80   A(36,35,40)           108.4367         calculate D2E/DX2 analytically  !
 ! A81   A(36,35,42)           114.9605         calculate D2E/DX2 analytically  !
 ! A82   A(36,35,47)           112.4698         calculate D2E/DX2 analytically  !
 ! A83   A(40,35,42)           106.0653         calculate D2E/DX2 analytically  !
 ! A84   A(40,35,47)           112.9548         calculate D2E/DX2 analytically  !
 ! A85   A(42,35,47)           101.7864         calculate D2E/DX2 analytically  !
 ! A86   A(32,36,35)           114.6991         calculate D2E/DX2 analytically  !
 ! A87   A(32,36,41)           107.1597         calculate D2E/DX2 analytically  !
 ! A88   A(32,36,46)           109.7386         calculate D2E/DX2 analytically  !
 ! A89   A(35,36,41)           108.9262         calculate D2E/DX2 analytically  !
 ! A90   A(35,36,46)           106.1615         calculate D2E/DX2 analytically  !
 ! A91   A(41,36,46)           110.1423         calculate D2E/DX2 analytically  !
 ! A92   A(19,37,34)           132.0758         calculate D2E/DX2 analytically  !
 ! A93   A(6,41,36)            164.0671         calculate D2E/DX2 analytically  !
 ! A94   A(34,42,35)           121.8197         calculate D2E/DX2 analytically  !
 ! A95   A(33,44,63)           114.6052         calculate D2E/DX2 analytically  !
 ! A96   A(32,45,67)           115.933          calculate D2E/DX2 analytically  !
 ! A97   A(36,46,71)           114.1621         calculate D2E/DX2 analytically  !
 ! A98   A(35,47,48)           109.0348         calculate D2E/DX2 analytically  !
 ! A99   A(35,47,49)           106.3952         calculate D2E/DX2 analytically  !
 ! A100  A(35,47,50)           114.6642         calculate D2E/DX2 analytically  !
 ! A101  A(48,47,49)           108.5401         calculate D2E/DX2 analytically  !
 ! A102  A(48,47,50)           111.1558         calculate D2E/DX2 analytically  !
 ! A103  A(49,47,50)           106.765          calculate D2E/DX2 analytically  !
 ! A104  A(47,50,75)           113.8854         calculate D2E/DX2 analytically  !
 ! A105  A(43,51,52)           117.5382         calculate D2E/DX2 analytically  !
 ! A106  A(43,51,53)           111.7046         calculate D2E/DX2 analytically  !
 ! A107  A(43,51,54)           108.6357         calculate D2E/DX2 analytically  !
 ! A108  A(43,51,83)           141.9397         calculate D2E/DX2 analytically  !
 ! A109  A(52,51,53)           106.1458         calculate D2E/DX2 analytically  !
 ! A110  A(52,51,54)           107.0606         calculate D2E/DX2 analytically  !
 ! A111  A(52,51,83)            52.1224         calculate D2E/DX2 analytically  !
 ! A112  A(53,51,54)           104.9554         calculate D2E/DX2 analytically  !
 ! A113  A(53,51,83)            54.8657         calculate D2E/DX2 analytically  !
 ! A114  A(54,51,83)           109.3171         calculate D2E/DX2 analytically  !
 ! A115  A(34,53,51)           121.9959         calculate D2E/DX2 analytically  !
 ! A116  A(51,54,55)           119.106          calculate D2E/DX2 analytically  !
 ! A117  A(51,54,56)           118.6745         calculate D2E/DX2 analytically  !
 ! A118  A(55,54,56)           121.7335         calculate D2E/DX2 analytically  !
 ! A119  A(54,55,57)           118.528          calculate D2E/DX2 analytically  !
 ! A120  A(54,55,58)           120.291          calculate D2E/DX2 analytically  !
 ! A121  A(57,55,58)           121.1167         calculate D2E/DX2 analytically  !
 ! A122  A(54,56,59)           118.7485         calculate D2E/DX2 analytically  !
 ! A123  A(54,56,60)           120.1719         calculate D2E/DX2 analytically  !
 ! A124  A(59,56,60)           121.0486         calculate D2E/DX2 analytically  !
 ! A125  A(55,57,61)           120.6347         calculate D2E/DX2 analytically  !
 ! A126  A(55,57,97)           119.22           calculate D2E/DX2 analytically  !
 ! A127  A(61,57,97)           120.104          calculate D2E/DX2 analytically  !
 ! A128  A(56,59,61)           120.4828         calculate D2E/DX2 analytically  !
 ! A129  A(56,59,93)           119.7948         calculate D2E/DX2 analytically  !
 ! A130  A(61,59,93)           119.7018         calculate D2E/DX2 analytically  !
 ! A131  A(57,61,59)           119.8114         calculate D2E/DX2 analytically  !
 ! A132  A(57,61,62)           120.0561         calculate D2E/DX2 analytically  !
 ! A133  A(59,61,62)           120.1194         calculate D2E/DX2 analytically  !
 ! A134  A(44,63,64)           109.9555         calculate D2E/DX2 analytically  !
 ! A135  A(44,63,65)           109.5938         calculate D2E/DX2 analytically  !
 ! A136  A(44,63,66)           106.2738         calculate D2E/DX2 analytically  !
 ! A137  A(64,63,65)           110.442          calculate D2E/DX2 analytically  !
 ! A138  A(64,63,66)           110.9971         calculate D2E/DX2 analytically  !
 ! A139  A(65,63,66)           109.4873         calculate D2E/DX2 analytically  !
 ! A140  A(45,67,68)           111.1173         calculate D2E/DX2 analytically  !
 ! A141  A(45,67,69)           111.8839         calculate D2E/DX2 analytically  !
 ! A142  A(45,67,70)           106.4947         calculate D2E/DX2 analytically  !
 ! A143  A(68,67,69)           108.5393         calculate D2E/DX2 analytically  !
 ! A144  A(68,67,70)           109.3529         calculate D2E/DX2 analytically  !
 ! A145  A(69,67,70)           109.4097         calculate D2E/DX2 analytically  !
 ! A146  A(46,71,72)           111.0949         calculate D2E/DX2 analytically  !
 ! A147  A(46,71,73)           110.4885         calculate D2E/DX2 analytically  !
 ! A148  A(46,71,74)           106.3789         calculate D2E/DX2 analytically  !
 ! A149  A(72,71,73)           109.8963         calculate D2E/DX2 analytically  !
 ! A150  A(72,71,74)           109.6431         calculate D2E/DX2 analytically  !
 ! A151  A(73,71,74)           109.2644         calculate D2E/DX2 analytically  !
 ! A152  A(50,75,76)           106.6842         calculate D2E/DX2 analytically  !
 ! A153  A(50,75,77)           110.8739         calculate D2E/DX2 analytically  !
 ! A154  A(50,75,78)           111.4245         calculate D2E/DX2 analytically  !
 ! A155  A(76,75,77)           109.1563         calculate D2E/DX2 analytically  !
 ! A156  A(76,75,78)           109.1138         calculate D2E/DX2 analytically  !
 ! A157  A(77,75,78)           109.5139         calculate D2E/DX2 analytically  !
 ! A158  A(12,79,80)           106.8124         calculate D2E/DX2 analytically  !
 ! A159  A(12,79,81)           111.4801         calculate D2E/DX2 analytically  !
 ! A160  A(12,79,82)           110.9341         calculate D2E/DX2 analytically  !
 ! A161  A(80,79,81)           109.4301         calculate D2E/DX2 analytically  !
 ! A162  A(80,79,82)           109.4664         calculate D2E/DX2 analytically  !
 ! A163  A(81,79,82)           108.6847         calculate D2E/DX2 analytically  !
 ! A164  A(83,84,85)           121.3031         calculate D2E/DX2 analytically  !
 ! A165  A(83,84,89)           126.2269         calculate D2E/DX2 analytically  !
 ! A166  A(85,84,89)           112.4432         calculate D2E/DX2 analytically  !
 ! A167  A(84,85,86)           110.7459         calculate D2E/DX2 analytically  !
 ! A168  A(84,85,87)           107.3237         calculate D2E/DX2 analytically  !
 ! A169  A(84,85,88)           110.7628         calculate D2E/DX2 analytically  !
 ! A170  A(86,85,87)           109.5049         calculate D2E/DX2 analytically  !
 ! A171  A(86,85,88)           109.1516         calculate D2E/DX2 analytically  !
 ! A172  A(87,85,88)           109.3194         calculate D2E/DX2 analytically  !
 ! A173  A(84,89,90)           110.6635         calculate D2E/DX2 analytically  !
 ! A174  A(84,89,91)           107.2866         calculate D2E/DX2 analytically  !
 ! A175  A(84,89,92)           110.8222         calculate D2E/DX2 analytically  !
 ! A176  A(90,89,91)           109.449          calculate D2E/DX2 analytically  !
 ! A177  A(90,89,92)           109.151          calculate D2E/DX2 analytically  !
 ! A178  A(91,89,92)           109.4369         calculate D2E/DX2 analytically  !
 ! A179  A(59,93,94)           111.9848         calculate D2E/DX2 analytically  !
 ! A180  A(59,93,95)           111.777          calculate D2E/DX2 analytically  !
 ! A181  A(59,93,96)           111.7941         calculate D2E/DX2 analytically  !
 ! A182  A(94,93,95)           106.8212         calculate D2E/DX2 analytically  !
 ! A183  A(94,93,96)           107.4611         calculate D2E/DX2 analytically  !
 ! A184  A(95,93,96)           106.6826         calculate D2E/DX2 analytically  !
 ! A185  A(57,97,98)           111.4276         calculate D2E/DX2 analytically  !
 ! A186  A(57,97,99)           111.7861         calculate D2E/DX2 analytically  !
 ! A187  A(57,97,100)          111.9748         calculate D2E/DX2 analytically  !
 ! A188  A(98,97,99)           106.7409         calculate D2E/DX2 analytically  !
 ! A189  A(98,97,100)          107.5498         calculate D2E/DX2 analytically  !
 ! A190  A(99,97,100)          107.0715         calculate D2E/DX2 analytically  !
 ! A191  L(51,83,84,1,-1)      189.9238         calculate D2E/DX2 analytically  !
 ! A192  L(51,83,84,1,-2)      178.3135         calculate D2E/DX2 analytically  !
 ! D1    D(5,1,2,3)            -50.7376         calculate D2E/DX2 analytically  !
 ! D2    D(5,1,2,7)             65.667          calculate D2E/DX2 analytically  !
 ! D3    D(5,1,2,13)          -175.5672         calculate D2E/DX2 analytically  !
 ! D4    D(8,1,2,3)             69.3641         calculate D2E/DX2 analytically  !
 ! D5    D(8,1,2,7)           -174.2313         calculate D2E/DX2 analytically  !
 ! D6    D(8,1,2,13)           -55.4655         calculate D2E/DX2 analytically  !
 ! D7    D(14,1,2,3)          -169.3634         calculate D2E/DX2 analytically  !
 ! D8    D(14,1,2,7)           -52.9588         calculate D2E/DX2 analytically  !
 ! D9    D(14,1,2,13)           65.8069         calculate D2E/DX2 analytically  !
 ! D10   D(2,1,5,4)             48.3372         calculate D2E/DX2 analytically  !
 ! D11   D(2,1,5,10)           -70.5516         calculate D2E/DX2 analytically  !
 ! D12   D(2,1,5,15)           170.1302         calculate D2E/DX2 analytically  !
 ! D13   D(8,1,5,4)            -71.6878         calculate D2E/DX2 analytically  !
 ! D14   D(8,1,5,10)           169.4234         calculate D2E/DX2 analytically  !
 ! D15   D(8,1,5,15)            50.1052         calculate D2E/DX2 analytically  !
 ! D16   D(14,1,5,4)           168.7623         calculate D2E/DX2 analytically  !
 ! D17   D(14,1,5,10)           49.8735         calculate D2E/DX2 analytically  !
 ! D18   D(14,1,5,15)          -69.4447         calculate D2E/DX2 analytically  !
 ! D19   D(2,1,14,24)          -98.0255         calculate D2E/DX2 analytically  !
 ! D20   D(5,1,14,24)          141.4852         calculate D2E/DX2 analytically  !
 ! D21   D(8,1,14,24)           22.5753         calculate D2E/DX2 analytically  !
 ! D22   D(1,2,3,6)            172.9565         calculate D2E/DX2 analytically  !
 ! D23   D(1,2,3,11)            57.9233         calculate D2E/DX2 analytically  !
 ! D24   D(1,2,3,12)           -66.9659         calculate D2E/DX2 analytically  !
 ! D25   D(7,2,3,6)             55.4459         calculate D2E/DX2 analytically  !
 ! D26   D(7,2,3,11)           -59.5872         calculate D2E/DX2 analytically  !
 ! D27   D(7,2,3,12)           175.5235         calculate D2E/DX2 analytically  !
 ! D28   D(13,2,3,6)           -64.6773         calculate D2E/DX2 analytically  !
 ! D29   D(13,2,3,11)         -179.7104         calculate D2E/DX2 analytically  !
 ! D30   D(13,2,3,12)           55.4003         calculate D2E/DX2 analytically  !
 ! D31   D(1,2,13,20)         -167.15           calculate D2E/DX2 analytically  !
 ! D32   D(3,2,13,20)           69.5157         calculate D2E/DX2 analytically  !
 ! D33   D(7,2,13,20)          -49.0062         calculate D2E/DX2 analytically  !
 ! D34   D(2,3,6,41)           -82.061          calculate D2E/DX2 analytically  !
 ! D35   D(11,3,6,41)           36.1292         calculate D2E/DX2 analytically  !
 ! D36   D(12,3,6,41)          157.9888         calculate D2E/DX2 analytically  !
 ! D37   D(2,3,11,4)           -63.3733         calculate D2E/DX2 analytically  !
 ! D38   D(6,3,11,4)           177.4527         calculate D2E/DX2 analytically  !
 ! D39   D(12,3,11,4)           58.6769         calculate D2E/DX2 analytically  !
 ! D40   D(2,3,12,79)         -174.1488         calculate D2E/DX2 analytically  !
 ! D41   D(6,3,12,79)          -52.8026         calculate D2E/DX2 analytically  !
 ! D42   D(11,3,12,79)          63.3436         calculate D2E/DX2 analytically  !
 ! D43   D(9,4,5,1)             67.702          calculate D2E/DX2 analytically  !
 ! D44   D(9,4,5,10)          -172.9561         calculate D2E/DX2 analytically  !
 ! D45   D(9,4,5,15)           -53.5647         calculate D2E/DX2 analytically  !
 ! D46   D(11,4,5,1)           -50.6501         calculate D2E/DX2 analytically  !
 ! D47   D(11,4,5,10)           68.6917         calculate D2E/DX2 analytically  !
 ! D48   D(11,4,5,15)         -171.9169         calculate D2E/DX2 analytically  !
 ! D49   D(16,4,5,1)          -170.2808         calculate D2E/DX2 analytically  !
 ! D50   D(16,4,5,10)          -50.939          calculate D2E/DX2 analytically  !
 ! D51   D(16,4,5,15)           68.4524         calculate D2E/DX2 analytically  !
 ! D52   D(5,4,11,3)            59.146          calculate D2E/DX2 analytically  !
 ! D53   D(9,4,11,3)           -59.9153         calculate D2E/DX2 analytically  !
 ! D54   D(16,4,11,3)         -178.9795         calculate D2E/DX2 analytically  !
 ! D55   D(5,4,16,17)          -80.0682         calculate D2E/DX2 analytically  !
 ! D56   D(5,4,16,18)          170.28           calculate D2E/DX2 analytically  !
 ! D57   D(5,4,16,19)           44.6156         calculate D2E/DX2 analytically  !
 ! D58   D(9,4,16,17)           41.561          calculate D2E/DX2 analytically  !
 ! D59   D(9,4,16,18)          -68.0908         calculate D2E/DX2 analytically  !
 ! D60   D(9,4,16,19)          166.2448         calculate D2E/DX2 analytically  !
 ! D61   D(11,4,16,17)         159.4659         calculate D2E/DX2 analytically  !
 ! D62   D(11,4,16,18)          49.8141         calculate D2E/DX2 analytically  !
 ! D63   D(11,4,16,19)         -75.8503         calculate D2E/DX2 analytically  !
 ! D64   D(1,5,15,28)          131.0987         calculate D2E/DX2 analytically  !
 ! D65   D(4,5,15,28)         -104.6948         calculate D2E/DX2 analytically  !
 ! D66   D(10,5,15,28)          13.0026         calculate D2E/DX2 analytically  !
 ! D67   D(3,6,41,36)          -55.6232         calculate D2E/DX2 analytically  !
 ! D68   D(3,12,79,80)         169.8675         calculate D2E/DX2 analytically  !
 ! D69   D(3,12,79,81)         -70.6374         calculate D2E/DX2 analytically  !
 ! D70   D(3,12,79,82)          50.6369         calculate D2E/DX2 analytically  !
 ! D71   D(2,13,20,21)         -73.7314         calculate D2E/DX2 analytically  !
 ! D72   D(2,13,20,22)          48.0162         calculate D2E/DX2 analytically  !
 ! D73   D(2,13,20,23)         167.3343         calculate D2E/DX2 analytically  !
 ! D74   D(1,14,24,25)         -59.6472         calculate D2E/DX2 analytically  !
 ! D75   D(1,14,24,26)          62.3352         calculate D2E/DX2 analytically  !
 ! D76   D(1,14,24,27)        -178.0925         calculate D2E/DX2 analytically  !
 ! D77   D(5,15,28,29)         -71.2395         calculate D2E/DX2 analytically  !
 ! D78   D(5,15,28,30)          49.9402         calculate D2E/DX2 analytically  !
 ! D79   D(5,15,28,31)         170.5194         calculate D2E/DX2 analytically  !
 ! D80   D(4,16,19,37)          99.4185         calculate D2E/DX2 analytically  !
 ! D81   D(17,16,19,37)       -140.5701         calculate D2E/DX2 analytically  !
 ! D82   D(18,16,19,37)        -21.5097         calculate D2E/DX2 analytically  !
 ! D83   D(16,19,37,34)        -69.6588         calculate D2E/DX2 analytically  !
 ! D84   D(36,32,33,34)        -46.4863         calculate D2E/DX2 analytically  !
 ! D85   D(36,32,33,38)         66.9214         calculate D2E/DX2 analytically  !
 ! D86   D(36,32,33,44)       -171.6566         calculate D2E/DX2 analytically  !
 ! D87   D(39,32,33,34)         73.4964         calculate D2E/DX2 analytically  !
 ! D88   D(39,32,33,38)       -173.0959         calculate D2E/DX2 analytically  !
 ! D89   D(39,32,33,44)        -51.6739         calculate D2E/DX2 analytically  !
 ! D90   D(45,32,33,34)       -163.6451         calculate D2E/DX2 analytically  !
 ! D91   D(45,32,33,38)        -50.2374         calculate D2E/DX2 analytically  !
 ! D92   D(45,32,33,44)         71.1846         calculate D2E/DX2 analytically  !
 ! D93   D(33,32,36,35)         45.8564         calculate D2E/DX2 analytically  !
 ! D94   D(33,32,36,41)        -75.1852         calculate D2E/DX2 analytically  !
 ! D95   D(33,32,36,46)        165.2316         calculate D2E/DX2 analytically  !
 ! D96   D(39,32,36,35)        -75.1201         calculate D2E/DX2 analytically  !
 ! D97   D(39,32,36,41)        163.8383         calculate D2E/DX2 analytically  !
 ! D98   D(39,32,36,46)         44.2551         calculate D2E/DX2 analytically  !
 ! D99   D(45,32,36,35)        166.9787         calculate D2E/DX2 analytically  !
 ! D100  D(45,32,36,41)         45.9371         calculate D2E/DX2 analytically  !
 ! D101  D(45,32,36,46)        -73.6461         calculate D2E/DX2 analytically  !
 ! D102  D(33,32,45,67)        -79.6289         calculate D2E/DX2 analytically  !
 ! D103  D(36,32,45,67)        160.4578         calculate D2E/DX2 analytically  !
 ! D104  D(39,32,45,67)         43.4308         calculate D2E/DX2 analytically  !
 ! D105  D(32,33,34,37)        177.425          calculate D2E/DX2 analytically  !
 ! D106  D(32,33,34,42)         40.5968         calculate D2E/DX2 analytically  !
 ! D107  D(32,33,34,53)        -71.569          calculate D2E/DX2 analytically  !
 ! D108  D(38,33,34,37)         60.6317         calculate D2E/DX2 analytically  !
 ! D109  D(38,33,34,42)        -76.1965         calculate D2E/DX2 analytically  !
 ! D110  D(38,33,34,53)        171.6377         calculate D2E/DX2 analytically  !
 ! D111  D(44,33,34,37)        -57.0668         calculate D2E/DX2 analytically  !
 ! D112  D(44,33,34,42)        166.105          calculate D2E/DX2 analytically  !
 ! D113  D(44,33,34,53)         53.9392         calculate D2E/DX2 analytically  !
 ! D114  D(32,33,44,63)       -139.1085         calculate D2E/DX2 analytically  !
 ! D115  D(34,33,44,63)         94.1337         calculate D2E/DX2 analytically  !
 ! D116  D(38,33,44,63)        -18.8035         calculate D2E/DX2 analytically  !
 ! D117  D(33,34,37,19)        -49.6179         calculate D2E/DX2 analytically  !
 ! D118  D(42,34,37,19)         90.4153         calculate D2E/DX2 analytically  !
 ! D119  D(53,34,37,19)       -156.4755         calculate D2E/DX2 analytically  !
 ! D120  D(33,34,42,35)        -30.9313         calculate D2E/DX2 analytically  !
 ! D121  D(37,34,42,35)       -167.9282         calculate D2E/DX2 analytically  !
 ! D122  D(53,34,42,35)         78.2655         calculate D2E/DX2 analytically  !
 ! D123  D(33,34,53,51)       -137.4422         calculate D2E/DX2 analytically  !
 ! D124  D(37,34,53,51)        -20.4189         calculate D2E/DX2 analytically  !
 ! D125  D(42,34,53,51)         98.4414         calculate D2E/DX2 analytically  !
 ! D126  D(40,35,36,32)         82.452          calculate D2E/DX2 analytically  !
 ! D127  D(40,35,36,41)       -157.4812         calculate D2E/DX2 analytically  !
 ! D128  D(40,35,36,46)        -38.9016         calculate D2E/DX2 analytically  !
 ! D129  D(42,35,36,32)        -36.033          calculate D2E/DX2 analytically  !
 ! D130  D(42,35,36,41)         84.0338         calculate D2E/DX2 analytically  !
 ! D131  D(42,35,36,46)       -157.3866         calculate D2E/DX2 analytically  !
 ! D132  D(47,35,36,32)       -151.9032         calculate D2E/DX2 analytically  !
 ! D133  D(47,35,36,41)        -31.8364         calculate D2E/DX2 analytically  !
 ! D134  D(47,35,36,46)         86.7432         calculate D2E/DX2 analytically  !
 ! D135  D(36,35,42,34)         28.188          calculate D2E/DX2 analytically  !
 ! D136  D(40,35,42,34)        -91.6177         calculate D2E/DX2 analytically  !
 ! D137  D(47,35,42,34)        150.0434         calculate D2E/DX2 analytically  !
 ! D138  D(36,35,47,48)       -169.7812         calculate D2E/DX2 analytically  !
 ! D139  D(36,35,47,49)         73.3386         calculate D2E/DX2 analytically  !
 ! D140  D(36,35,47,50)        -44.4339         calculate D2E/DX2 analytically  !
 ! D141  D(40,35,47,48)        -46.6304         calculate D2E/DX2 analytically  !
 ! D142  D(40,35,47,49)       -163.5105         calculate D2E/DX2 analytically  !
 ! D143  D(40,35,47,50)         78.717          calculate D2E/DX2 analytically  !
 ! D144  D(42,35,47,48)         66.6594         calculate D2E/DX2 analytically  !
 ! D145  D(42,35,47,49)        -50.2208         calculate D2E/DX2 analytically  !
 ! D146  D(42,35,47,50)       -167.9933         calculate D2E/DX2 analytically  !
 ! D147  D(32,36,41,6)         100.8777         calculate D2E/DX2 analytically  !
 ! D148  D(35,36,41,6)         -23.7464         calculate D2E/DX2 analytically  !
 ! D149  D(46,36,41,6)        -139.7985         calculate D2E/DX2 analytically  !
 ! D150  D(32,36,46,71)        102.2752         calculate D2E/DX2 analytically  !
 ! D151  D(35,36,46,71)       -133.2402         calculate D2E/DX2 analytically  !
 ! D152  D(41,36,46,71)        -15.466          calculate D2E/DX2 analytically  !
 ! D153  D(33,44,63,64)        -41.8471         calculate D2E/DX2 analytically  !
 ! D154  D(33,44,63,65)         79.7306         calculate D2E/DX2 analytically  !
 ! D155  D(33,44,63,66)       -162.0534         calculate D2E/DX2 analytically  !
 ! D156  D(32,45,67,68)        -43.103          calculate D2E/DX2 analytically  !
 ! D157  D(32,45,67,69)         78.3932         calculate D2E/DX2 analytically  !
 ! D158  D(32,45,67,70)       -162.1058         calculate D2E/DX2 analytically  !
 ! D159  D(36,46,71,72)        -62.0689         calculate D2E/DX2 analytically  !
 ! D160  D(36,46,71,73)         60.176          calculate D2E/DX2 analytically  !
 ! D161  D(36,46,71,74)        178.6609         calculate D2E/DX2 analytically  !
 ! D162  D(35,47,50,75)        -76.0198         calculate D2E/DX2 analytically  !
 ! D163  D(48,47,50,75)         48.2104         calculate D2E/DX2 analytically  !
 ! D164  D(49,47,50,75)        166.4177         calculate D2E/DX2 analytically  !
 ! D165  D(47,50,75,76)       -172.906          calculate D2E/DX2 analytically  !
 ! D166  D(47,50,75,77)        -54.1601         calculate D2E/DX2 analytically  !
 ! D167  D(47,50,75,78)         68.0937         calculate D2E/DX2 analytically  !
 ! D168  D(43,51,53,34)       -102.0067         calculate D2E/DX2 analytically  !
 ! D169  D(52,51,53,34)        128.7003         calculate D2E/DX2 analytically  !
 ! D170  D(54,51,53,34)         15.5298         calculate D2E/DX2 analytically  !
 ! D171  D(83,51,53,34)        118.8684         calculate D2E/DX2 analytically  !
 ! D172  D(43,51,54,55)         32.5275         calculate D2E/DX2 analytically  !
 ! D173  D(43,51,54,56)       -155.3284         calculate D2E/DX2 analytically  !
 ! D174  D(52,51,54,55)        160.3976         calculate D2E/DX2 analytically  !
 ! D175  D(52,51,54,56)        -27.4583         calculate D2E/DX2 analytically  !
 ! D176  D(53,51,54,55)        -87.0794         calculate D2E/DX2 analytically  !
 ! D177  D(53,51,54,56)         85.0647         calculate D2E/DX2 analytically  !
 ! D178  D(83,51,54,55)       -144.5605         calculate D2E/DX2 analytically  !
 ! D179  D(83,51,54,56)         27.5835         calculate D2E/DX2 analytically  !
 ! D180  D(43,51,84,85)       -178.0731         calculate D2E/DX2 analytically  !
 ! D181  D(43,51,84,89)          4.5336         calculate D2E/DX2 analytically  !
 ! D182  D(52,51,84,85)         95.4461         calculate D2E/DX2 analytically  !
 ! D183  D(52,51,84,89)        -81.9472         calculate D2E/DX2 analytically  !
 ! D184  D(53,51,84,85)        -91.6536         calculate D2E/DX2 analytically  !
 ! D185  D(53,51,84,89)         90.9531         calculate D2E/DX2 analytically  !
 ! D186  D(54,51,84,85)          2.0886         calculate D2E/DX2 analytically  !
 ! D187  D(54,51,84,89)       -175.3046         calculate D2E/DX2 analytically  !
 ! D188  D(51,54,55,57)        169.9555         calculate D2E/DX2 analytically  !
 ! D189  D(51,54,55,58)         -7.1609         calculate D2E/DX2 analytically  !
 ! D190  D(56,54,55,57)         -1.9388         calculate D2E/DX2 analytically  !
 ! D191  D(56,54,55,58)       -179.0552         calculate D2E/DX2 analytically  !
 ! D192  D(51,54,56,59)       -170.3953         calculate D2E/DX2 analytically  !
 ! D193  D(51,54,56,60)          7.6018         calculate D2E/DX2 analytically  !
 ! D194  D(55,54,56,59)          1.5329         calculate D2E/DX2 analytically  !
 ! D195  D(55,54,56,60)        179.53           calculate D2E/DX2 analytically  !
 ! D196  D(54,55,57,61)          0.1512         calculate D2E/DX2 analytically  !
 ! D197  D(54,55,57,97)       -177.5149         calculate D2E/DX2 analytically  !
 ! D198  D(58,55,57,61)        177.2428         calculate D2E/DX2 analytically  !
 ! D199  D(58,55,57,97)         -0.4233         calculate D2E/DX2 analytically  !
 ! D200  D(54,56,59,61)          0.6711         calculate D2E/DX2 analytically  !
 ! D201  D(54,56,59,93)        179.0181         calculate D2E/DX2 analytically  !
 ! D202  D(60,56,59,61)       -177.3078         calculate D2E/DX2 analytically  !
 ! D203  D(60,56,59,93)          1.0393         calculate D2E/DX2 analytically  !
 ! D204  D(55,57,61,59)          1.9947         calculate D2E/DX2 analytically  !
 ! D205  D(55,57,61,62)       -176.6943         calculate D2E/DX2 analytically  !
 ! D206  D(97,57,61,59)        179.6403         calculate D2E/DX2 analytically  !
 ! D207  D(97,57,61,62)          0.9512         calculate D2E/DX2 analytically  !
 ! D208  D(55,57,97,98)         36.4137         calculate D2E/DX2 analytically  !
 ! D209  D(55,57,97,99)        -82.9329         calculate D2E/DX2 analytically  !
 ! D210  D(55,57,97,100)       156.9219         calculate D2E/DX2 analytically  !
 ! D211  D(61,57,97,98)       -141.2651         calculate D2E/DX2 analytically  !
 ! D212  D(61,57,97,99)         99.3883         calculate D2E/DX2 analytically  !
 ! D213  D(61,57,97,100)       -20.7569         calculate D2E/DX2 analytically  !
 ! D214  D(56,59,61,57)         -2.4129         calculate D2E/DX2 analytically  !
 ! D215  D(56,59,61,62)        176.2753         calculate D2E/DX2 analytically  !
 ! D216  D(93,59,61,57)        179.2385         calculate D2E/DX2 analytically  !
 ! D217  D(93,59,61,62)         -2.0732         calculate D2E/DX2 analytically  !
 ! D218  D(56,59,93,94)       -146.6999         calculate D2E/DX2 analytically  !
 ! D219  D(56,59,93,95)         93.4752         calculate D2E/DX2 analytically  !
 ! D220  D(56,59,93,96)        -26.0411         calculate D2E/DX2 analytically  !
 ! D221  D(61,59,93,94)         31.6601         calculate D2E/DX2 analytically  !
 ! D222  D(61,59,93,95)        -88.1648         calculate D2E/DX2 analytically  !
 ! D223  D(61,59,93,96)        152.319          calculate D2E/DX2 analytically  !
 ! D224  D(83,84,85,86)       -120.7187         calculate D2E/DX2 analytically  !
 ! D225  D(83,84,85,87)         -1.2365         calculate D2E/DX2 analytically  !
 ! D226  D(83,84,85,88)        118.0304         calculate D2E/DX2 analytically  !
 ! D227  D(89,84,85,86)         61.0533         calculate D2E/DX2 analytically  !
 ! D228  D(89,84,85,87)       -179.4645         calculate D2E/DX2 analytically  !
 ! D229  D(89,84,85,88)        -60.1976         calculate D2E/DX2 analytically  !
 ! D230  D(83,84,89,90)       -117.2097         calculate D2E/DX2 analytically  !
 ! D231  D(83,84,89,91)          2.1352         calculate D2E/DX2 analytically  !
 ! D232  D(83,84,89,92)        121.5558         calculate D2E/DX2 analytically  !
 ! D233  D(85,84,89,90)         60.9133         calculate D2E/DX2 analytically  !
 ! D234  D(85,84,89,91)       -179.7418         calculate D2E/DX2 analytically  !
 ! D235  D(85,84,89,92)        -60.3212         calculate D2E/DX2 analytically  !
 --------------------------------------------------------------------------------
 Trust Radius=3.00D-02 FncErr=1.00D-07 GrdErr=1.00D-06 EigMax=2.50D+02 EigMin=1.00D-04
 Number of steps in this run=    540 maximum allowed number of steps=    600.
 Search for a saddle point of order  1.
 Step   0 in ReCalcFC=30 IGetFC= 4 compute analytic Hessian.
 GradGradGradGradGradGradGradGradGradGradGradGradGradGradGradGradGradGrad

 Leave Link  103 at Fri May 24 20:19:32 2019, MaxMem=  6442450944 cpu:               4.6 elap:               0.2
 (Enter /home/ekwan/sw/g16/l202.exe)
 Stoichiometry    C30H47F6NaO15S
 Framework group  C1[X(C30H47F6NaO15S)]
 Deg. of freedom   294
 Full point group                 C1      NOp   1
 Largest Abelian subgroup         C1      NOp   1
 Largest concise Abelian subgroup C1      NOp   1
                         Standard orientation:                         
 ---------------------------------------------------------------------
 Center     Atomic      Atomic             Coordinates (Angstroms)
 Number     Number       Type             X           Y           Z
 ---------------------------------------------------------------------
      1          6           0       -2.823522   -2.603593   -2.018276
      2          6           0       -3.580686   -1.532780   -1.232724
      3          6           0       -3.356568   -1.709931    0.274310
      4          6           0       -1.197041   -2.714598   -0.049938
      5          6           0       -1.365252   -2.663017   -1.570859
      6          1           0       -3.792174   -0.875406    0.839651
      7          1           0       -3.163333   -0.548234   -1.498256
      8          1           0       -3.295556   -3.578859   -1.843038
      9          1           0       -1.577738   -3.673635    0.325607
     10          1           0       -0.863946   -1.756547   -1.923590
     11          8           0       -1.974045   -1.647690    0.559846
     12          8           0       -3.962164   -2.905451    0.684225
     13          8           0       -4.948678   -1.576768   -1.600607
     14          8           0       -2.830057   -2.295670   -3.410108
     15          8           0       -0.760558   -3.813804   -2.153672
     16          6           0        0.279992   -2.531025    0.369235
     17          1           0        0.745708   -3.534505    0.215313
     18          1           0        0.253764   -2.405216    1.478745
     19          8           0        0.931790   -1.528082   -0.284276
     20          6           0       -5.693036   -0.452404   -1.159248
     21          1           0       -5.884038   -0.481900   -0.077426
     22          1           0       -5.174350    0.487971   -1.397206
     23          1           0       -6.651499   -0.479009   -1.683393
     24          6           0       -3.821686   -2.981427   -4.156702
     25          1           0       -3.691509   -4.071386   -4.082640
     26          1           0       -4.832920   -2.720187   -3.825077
     27          1           0       -3.693205   -2.682185   -5.201110
     28          6           0        0.485210   -3.536061   -2.785525
     29          1           0        0.333196   -2.961093   -3.712091
     30          1           0        1.146734   -2.970010   -2.120983
     31          1           0        0.932924   -4.501629   -3.040597
     32          6           0       -1.649198    2.182763    0.193762
     33          6           0       -0.567149    1.195953   -0.218622
     34          6           0        0.307558    0.751439    0.930060
     35          6           0       -1.415155    1.197782    2.567468
     36          6           0       -2.355049    1.693423    1.460853
     37          1           0        1.058156    0.005348    0.636290
     38          1           0       -1.049471    0.263491   -0.529920
     39          1           0       -1.208969    3.170029    0.395096
     40          1           0       -1.054135    2.064031    3.128124
     41          1           0       -3.017327    0.875691    1.165661
     42          8           0       -0.225662    0.497394    2.096722
     43          8           0        3.098851    2.538767    2.878144
     44          8           0        0.226742    1.718139   -1.275889
     45          8           0       -2.667825    2.297412   -0.788746
     46          8           0       -3.110201    2.753519    2.029019
     47          6           0       -2.073139    0.132151    3.465646
     48          1           0       -1.429265   -0.048233    4.338768
     49          1           0       -2.119734   -0.784413    2.873145
     50          8           0       -3.393530    0.429010    3.859900
     51         16           0        2.793677    2.336488    1.457546
     52          8           0        3.377185    3.300059    0.484194
     53          8           0        1.255692    2.329964    1.192861
     54          6           0        3.350137    0.708592    0.980687
     55          6           0        3.310116   -0.321344    1.915715
     56          6           0        3.653680    0.471275   -0.358876
     57          6           0        3.542238   -1.624261    1.480708
     58          1           0        3.056514   -0.112536    2.948341
     59          6           0        3.890430   -0.835113   -0.769260
     60          1           0        3.670322    1.290444   -1.066358
     61          6           0        3.811147   -1.887234    0.140798
     62          1           0        3.937135   -2.907725   -0.196589
     63          6           0        0.568487    0.760845   -2.299755
     64          1           0        0.838869   -0.196350   -1.841266
     65          1           0       -0.281484    0.632510   -2.982081
     66          1           0        1.413482    1.185624   -2.846175
     67          6           0       -2.365265    3.126160   -1.904869
     68          1           0       -1.871678    4.053724   -1.586522
     69          1           0       -1.718769    2.618114   -2.626674
     70          1           0       -3.319400    3.368123   -2.379328
     71          6           0       -4.509770    2.675902    1.771749
     72          1           0       -4.716968    2.734874    0.698303
     73          1           0       -4.924426    1.746962    2.181413
     74          1           0       -4.964440    3.529032    2.281011
     75          6           0       -3.481577    1.412438    4.884587
     76          1           0       -4.530464    1.457668    5.186594
     77          1           0       -2.868209    1.130163    5.752179
     78          1           0       -3.170050    2.397968    4.521254
     79          6           0       -3.921736   -3.092183    2.095576
     80          1           0       -4.568971   -3.942383    2.320332
     81          1           0       -2.904325   -3.306447    2.443186
     82          1           0       -4.292878   -2.200199    2.620687
     83         11           0        1.453385    3.630335   -0.850334
     84          8           0        0.611458    4.953562   -2.497340
     85          6           0        0.413911    4.456669   -3.817376
     86          1           0        0.994940    5.039966   -4.543423
     87          1           0        0.753210    3.419115   -3.828320
     88          1           0       -0.648026    4.494377   -4.092474
     89          6           0        0.190173    6.306427   -2.357051
     90          1           0       -0.882521    6.402398   -2.571105
     91          1           0        0.382315    6.600504   -1.323401
     92          1           0        0.752552    6.962414   -3.034004
     93          6           0        4.197834   -1.120314   -2.211953
     94          9           0        3.713581   -2.317530   -2.604705
     95          9           0        5.531100   -1.140740   -2.446932
     96          9           0        3.672724   -0.180378   -3.033214
     97          6           0        3.447261   -2.754747    2.466473
     98          9           0        2.460801   -2.543708    3.366413
     99          9           0        4.593787   -2.904087    3.172147
    100          9           0        3.199100   -3.933950    1.859905
 ---------------------------------------------------------------------
 Rotational constants (GHZ):           0.0548839           0.0448321           0.0401728
 Leave Link  202 at Fri May 24 20:19:32 2019, MaxMem=  6442450944 cpu:               5.3 elap:               0.2
 (Enter /home/ekwan/sw/g16/l301.exe)
 Standard basis: 6-31G(d) (6D, 7F)
 Ernie: Thresh=  0.10000D-02 Tol=  0.10000D-05 Strict=F.
 There are   897 symmetry adapted cartesian basis functions of A   symmetry.
 There are   897 symmetry adapted basis functions of A   symmetry.
   897 basis functions,  1720 primitive gaussians,   897 cartesian basis functions
   214 alpha electrons      214 beta electrons
       nuclear repulsion energy      9765.4715994655 Hartrees.
 IExCor=  402 DFT=T Ex+Corr=B3LYP ExCW=0 ScaHFX=  0.200000
 ScaDFX=  0.800000  0.720000  1.000000  0.810000 ScalE2=  1.000000  1.000000
 IRadAn=      5 IRanWt=     -1 IRanGd=            0 ICorTp=0 IEmpDi=141
 NAtoms=  100 NActive=  100 NUniq=  100 SFac= 1.00D+00 NAtFMM=   60 NAOKFM=T Big=T
 Integral buffers will be    131072 words long.
 Raffenetti 2 integral format.
 Two-electron integral symmetry is turned on.
 R6Disp:  Grimme-D3(BJ) Dispersion energy=       -0.2379356935 Hartrees.
 Nuclear repulsion after empirical dispersion term =     9765.2336637720 Hartrees.
 Force inversion solution in PCM.
 ------------------------------------------------------------------------------
 Polarizable Continuum Model (PCM)
 =================================
 Model                : PCM.
 Atomic radii         : UFF (Universal Force Field).
 Polarization charges : Total charges.
 Charge compensation  : None.
 Solution method      : Matrix inversion.
 Cavity type          : Scaled VdW (van der Waals Surface) (Alpha=1.100).
 Cavity algorithm     : GePol (No added spheres)
                        Default sphere list used, NSphG=  100.
                        Lebedev-Laikov grids with approx.  5.0 points / Ang**2.
                        Smoothing algorithm: York/Karplus (Gamma=1.0000).
                        Polarization charges: spherical gaussians, with
                                              point-specific exponents (IZeta= 3).
                        Self-potential: point-specific (ISelfS= 7).
                        Self-field    : sphere-specific E.n sum rule (ISelfD= 2).
 1st derivatives      : Analytical E(r).r(x)/FMM algorithm (CHGder, D1EAlg=3).
                        Cavity 1st derivative terms included.
 2nd derivatives      : Analytical E(r).r(xy)/FMM algorithm (CHGder, D2EAlg=3).
                        Cavity 2nd derivative terms included.
 Solvent              : TetraHydroFuran, Eps=   7.425700 Eps(inf)=   1.974025
 ------------------------------------------------------------------------------
 GePol: Number of generator spheres                  =     100
 GePol: Total number of spheres                      =     100
 GePol: Number of exposed spheres                    =     100 (100.00%)
 GePol: Number of points                             =    6048
 GePol: Average weight of points                     =       0.12
 GePol: Minimum weight of points                     =   0.47D-10
 GePol: Maximum weight of points                     =    0.21593
 GePol: Number of points with low weight             =     408
 GePol: Fraction of low-weight points (<1% of avg)   =       6.75%
 GePol: Cavity surface area                          =    753.430 Ang**2
 GePol: Cavity volume                                =    970.619 Ang**3
 Leave Link  301 at Fri May 24 20:19:32 2019, MaxMem=  6442450944 cpu:               7.3 elap:               0.3
 (Enter /home/ekwan/sw/g16/l302.exe)
 NPDir=0 NMtPBC=     1 NCelOv=     1 NCel=       1 NClECP=     1 NCelD=      1
         NCelK=      1 NCelE2=     1 NClLst=     1 CellRange=     0.0.
 One-electron integrals computed using PRISM.
 One-electron integral symmetry used in STVInt
 NBasis=   897 RedAO= T EigKep=  3.99D-04  NBF=   897
 NBsUse=   897 1.00D-06 EigRej= -1.00D+00 NBFU=   897
 Precomputing XC quadrature grid using
 IXCGrd= 4 IRadAn=           5 IRanWt=          -1 IRanGd=           0 AccXCQ= 0.00D+00.
 Generated NRdTot=       0 NPtTot=           0 NUsed=           0 NTot=          32
 NSgBfM=   842   833   834   838   842 MxSgAt=   100 MxSgA2=   100.
 Leave Link  302 at Fri May 24 20:19:48 2019, MaxMem=  6442450944 cpu:             479.8 elap:              16.1
 (Enter /home/ekwan/sw/g16/l303.exe)
 DipDrv:  MaxL=1.
 Leave Link  303 at Fri May 24 20:19:49 2019, MaxMem=  6442450944 cpu:              14.6 elap:               0.6
 (Enter /home/ekwan/sw/g16/l401.exe)
 ExpMin= 2.60D-02 ExpMax= 2.19D+04 ExpMxC= 3.30D+03 IAcc=3 IRadAn=         5 AccDes= 0.00D+00
 Harris functional with IExCor=  402 and IRadAn=       5 diagonalized for initial guess.
 HarFok:  IExCor=  402 AccDes= 0.00D+00 IRadAn=         5 IDoV= 1 UseB2=F ITyADJ=14
 ICtDFT=  3500011 ScaDFX=  1.000000  1.000000  1.000000  1.000000
 FoFCou: FMM=F IPFlag=           0 FMFlag=      100000 FMFlg1=        2001
         NFxFlg=           0 DoJE=T BraDBF=F KetDBF=T FulRan=T
         wScrn=  0.000000 ICntrl=       500 IOpCl=  0 I1Cent=   200000004 NGrid=           0
         NMat0=    1 NMatS0=      1 NMatT0=    0 NMatD0=    1 NMtDS0=    0 NMtDT0=    0
 Petite list used in FoFCou.
 Harris En= -3459.35473521508    
 JPrj=0 DoOrth=F DoCkMO=F.
 Leave Link  401 at Fri May 24 20:20:09 2019, MaxMem=  6442450944 cpu:             621.2 elap:              20.1
 (Enter /home/ekwan/sw/g16/l502.exe)
 Integral symmetry usage will be decided dynamically.
 Closed shell SCF:
 Using DIIS extrapolation, IDIIS=  1040.
[...]
 7,-0.00009111,-0.00005373,-0.00006873,-0.00010921,-0.00004504,0.000020
 81,0.00004902,-0.00003845,-0.00004898,0.00000010,0.00000114,0.00000385
 ,0.00000278,-0.00000648,-0.00000404,-0.00006784,-0.00000348,0.00005990
 ,0.00064369,0.00180272,-0.00050496,-0.00007270,-0.00068802,-0.00011093
 ,-0.00063311,-0.00026492,0.00001888,0.00097635,0.00008943,-0.00005525,
 0.00106799,0.00085813,-0.00019580,-0.00023400,-0.00040725,-0.00064578,
 -0.02250043,0.00100712,-0.02311640,-0.00041128,0.00016394,0.00002807,0
 .00127373,-0.00040886,-0.00072549,-0.00008636,0.00006415,-0.00001589,-
 0.00059747,-0.00312111,0.00132825,-0.00058151,0.00011464,-0.00039860,0
 .00002935,-0.00000972,0.00006097,0.00005910,-0.00000141,0.00006090,-0.
 00005589,-0.00001960,-0.00001996,-0.00000107,0.00004910,0.00002219,-0.
 00000128,0.00004237,0.00003323,0.00000655,-0.00000457,-0.00000307,0.00
 001151,-0.00000364,0.00000401,-0.00001149,-0.00000809,-0.00000711,0.00
 006344,-0.00000865,0.00000809,-0.00000474,0.00000144,-0.00000562,-0.00
 000635,0.00000620,0.00000033,-0.00001040,-0.00000508,0.00000163,0.0000
 0268,0.00001824,-0.00003583,-0.00000747,-0.00000316,0.00000524,0.00000
 537,-0.00000236,0.00000581,0.00000378,0.00000183,0.00000051,0.00000010
 ,-0.00001186,-0.00003984,-0.00000778,0.00000505,0.00000324,0.00000515,
 -0.00000649,0.00000169,0.00000501,0.00000059,0.00000430,0.00008091,0.0
 0014709,0.00011666,-0.00001502,-0.00003226,-0.00002350,0.00001076,0.00
 000582,0.00002079,0.00000264,-0.00000439,-0.00000266,-0.00000421,-0.00
 000372,0.00000474,-0.00000678,-0.00000119,-0.00000026,0.00001155,0.000
 03040,-0.00000270,-0.00000674,-0.00000259,-0.00000095,0.00000172,0.000
 00164,0.00000525,0.00000154,-0.00000509,-0.00000287,-0.00041696,-0.000
 76307,0.00158846,0.00000195,0.00034584,-0.00043844,0.00049386,0.000158
 14,-0.00044418,-0.00001718,-0.00006334,-0.00056619,-0.02937710,-0.0801
 0391,-0.02350737,-0.01478106,0.01017000,0.00099889,0.02718487,0.073299
 10,0.00007458,0.00000973,0.00005571,0.00007300,0.00001661,0.00001796,0
 .00025999,-0.00008680,-0.00000463,0.00007227,0.00002568,-0.00002639,-0
 .00003327,-0.00003089,0.00007858,-0.00003333,-0.00000976,0.00000232,-0
 .00000068,0.00000822,0.00001050,-0.00001624,0.00000883,-0.00001441,-0.
 00007362,0.00004301,0.00000689,0.00004046,0.00000180,0.00005945,-0.000
 31206,-0.00002209,0.00000368,-0.00011515,0.00008261,0.00008958,-0.0001
 0803,-0.00002970,-0.00001782,-0.00008496,0.00001683,-0.00010529,-0.000
 07478,0.00005091,-0.00006194,0.00039180,-0.00037496,-0.00060092,0.0000
 3386,-0.00001244,0.00017767,-0.00011224,0.00004486,0.00006766,-0.00135
 540,0.00019879,0.00005749,0.00002699,0.00003884,-0.00001836,0.00000076
 ,-0.00000658,0.00000758,0.00000089,-0.00000262,0.00000423,-0.00001054,
 -0.00000435,-0.00000297,0.00004917,-0.00004497,0.00003546,-0.00000313,
 0.00000967,-0.00000046,-0.00001373,0.00000406,-0.00000150,-0.00000472,
 0.00000277,-0.00001159,0.00006444,-0.00003725,0.00006602,-0.00000807,-
 0.00000538,-0.00003501,-0.00004298,-0.00002984,0.00004198,-0.00000056,
 0.00002532,-0.00001022,0.00014374,0.00009071,0.00001509,0.00000618,0.0
 0003040,0.00006116,0.00063636,-0.00011909,-0.00041712,0.00023019,0.000
 13510,-0.00013059,0.00007344,0.00003554,-0.00002515,0.00026137,0.00009
 468,-0.00006405,0.00002669,-0.00001408,-0.00000873,-0.00000320,-0.0000
 0912,-0.00000195,-0.00003847,-0.00002945,0.00001037,-0.00000194,0.0000
 0171,0.00000074,-0.00042843,-0.00000980,0.00046775,-0.00005699,-0.0006
 7412,0.00075530,-0.00012435,-0.00007026,-0.00008399,-0.00012650,-0.000
 08652,-0.00008747,-0.00014904,-0.00007480,0.00004048,0.00003998,-0.000
 05543,-0.00010139,0.00000189,0.00000337,0.00002304,0.00000566,-0.00001
 027,-0.00001172,-0.00007750,-0.00001147,0.00010890,0.00091621,0.002643
 03,-0.00120009,-0.00010230,-0.00115031,-0.00014766,-0.00082541,-0.0004
 9702,0.00013120,0.00177022,-0.00171643,-0.00097997,0.00029165,0.001593
 08,-0.00264505,-0.00061680,-0.00127609,0.00015754,-0.03091730,-0.01370
 630,-0.01689957,-0.00108903,-0.00013652,-0.00008488,0.00146846,0.00029
 847,0.00007208,-0.00018193,0.00004902,-0.00001208,0.00076437,-0.002374
 14,0.00119780,-0.00096490,0.00025062,0.00006705,0.00004466,-0.00000550
 ,0.00006852,0.00006959,0.00002581,0.00010388,-0.00007227,-0.00002687,-
 0.00002644,0.00000075,0.00005731,0.00002556,-0.00000160,0.00006635,0.0
 0004454,0.00001022,-0.00000899,-0.00000277,0.00001509,-0.00000542,0.00
 000734,-0.00001589,-0.00001077,-0.00000990,0.00008269,-0.00000936,0.00
 000980,-0.00000558,0.00000318,-0.00000620,-0.00000919,0.00000765,-0.00
 000171,-0.00001561,-0.00000831,0.00000258,-0.00000329,0.00003054,-0.00
 006858,-0.00000715,-0.00000483,0.00000870,0.00000836,0.00000041,0.0000
 1516,0.00000399,0.00000020,-0.00000100,0.00001930,-0.00000999,-0.00008
 023,-0.00000935,0.00000927,0.00000547,0.00000502,-0.00000393,-0.000004
 37,-0.00000123,-0.00000907,0.00000781,0.00010243,0.00021194,0.00015336
 ,-0.00001652,-0.00005409,-0.00002187,0.00001247,0.00001448,0.00002021,
 0.00000355,-0.00000682,-0.00000324,-0.00000780,-0.00000568,0.00000742,
 -0.00000733,-0.00000110,0.00000062,0.00001527,0.00004813,-0.00000751,-
 0.00000832,-0.00000442,-0.00000137,0.00000187,0.00000126,0.00000845,0.
 00000141,-0.00000816,-0.00000439,-0.00074737,-0.00061036,0.00207243,0.
 00005709,0.00034255,-0.00058690,0.00063908,0.00013242,-0.00054485,-0.0
 0000250,-0.00013641,-0.00074484,-0.08384243,-0.02361752,-0.13214857,0.
 01710145,0.00408949,0.02061854,0.13377204,0.01302802,0.15263551,0.0000
 8441,0.00000111,0.00002623,0.00004901,0.00003666,0.00003171,0.00019679
 ,-0.00005593,0.00003105,0.00035389,-0.00026189,-0.00011439,-0.00013936
 ,-0.00002069,0.00013745,-0.00004641,-0.00001384,0.00000343,-0.00000271
 ,-0.00000254,-0.00000040,-0.00000485,0.00000262,-0.00000599,0.00000459
 ,-0.00000170,0.00001854,0.00001304,-0.00000910,-0.00000037,-0.00038079
 ,-0.00012427,-0.00005922,-0.00008570,0.00002931,0.00002443,-0.00007738
 ,-0.00003482,-0.00002709,-0.00007152,0.00000502,-0.00010830,0.00002651
 ,0.00002324,-0.00010188,-0.00027462,0.00159136,0.00023554,-0.00035417,
 -0.00095615,0.00012285,0.00015226,0.00011168,-0.00035295,0.00032553,-0
 .00069560,-0.00025066,0.00001768,0.00003946,-0.00000666,0.00000148,-0.
 00000507,0.00000243,0.00000171,-0.00000586,0.00000154,-0.00000798,-0.0
 0000361,-0.00000230,0.00003522,-0.00003364,0.00002551,-0.00000347,0.00
 000545,0.00000042,-0.00000970,0.00000440,-0.00000107,-0.00000551,0.000
 00246,-0.00001290,-0.00004330,0.00000109,0.00007565,-0.00000270,-0.000
 00840,-0.00003106,-0.00001328,-0.00000439,0.00003580,0.00000585,0.0000
 1163,-0.00000300,0.00002417,0.00002511,0.00000613,-0.00002907,0.000034
 55,0.00002170,-0.00014018,0.00028333,-0.00001026,0.00001226,0.00004545
 ,-0.00002727,0.00001086,0.00002618,-0.00000555,0.00000185,0.00016510,-
 0.00010249,0.00001216,0.00001235,0.00001836,-0.00000242,-0.00001518,-0
 .00000077,0.00000085,-0.00000850,0.00000255,0.00000807,0.00000357,0.00
 000096,-0.00000699,-0.00007576,-0.00000564,0.00008552,0.00006982,-0.00
 003339,0.00002378,-0.00004125,-0.00002075,-0.00001278,-0.00003267,-0.0
 0002341,-0.00002611,-0.00002982,0.00000432,0.00002811,0.00002800,-0.00
 001315,-0.00000427,0.00000294,-0.00000799,0.00001709,-0.00000154,-0.00
 000401,-0.00003621,-0.00003569,0.00003052,-0.00054508,-0.00017378,0.00
 004267,0.00010761,0.00018000,0.00003027,0.00035834,-0.00021117,0.00009
 105,-0.00013965,0.00037418,-0.00079549,0.00054785,0.00111807,0.0019890
 4,-0.00004912,-0.00013641,0.00026684,0.00844518,0.00635848,-0.00348142
 ,0.00006953,0.00012896,0.00000428,0.00019173,0.00031989,-0.00002596,-0
 .00001274,0.00001096,0.00000137,-0.00032454,0.00013189,-0.00031098,-0.
 00028723,0.00066453,0.00025529,0.00000746,-0.00000565,-0.00001053,-0.0
 0002514,0.00006014,0.00005794,0.00000068,-0.00000126,-0.00000304,0.000
 00312,-0.00002320,-0.00001301,-0.00000412,0.00002088,0.00001632,0.0000
 0207,-0.00000461,0.00000021,0.00000284,-0.00000020,-0.00000095,-0.0000
 0213,-0.00000197,-0.00000292,0.00001743,0.00000419,0.00000482,-0.00000
 217,0.00000093,-0.00000209,0.00000055,-0.00000009,-0.00000122,-0.00000
 379,-0.00000320,0.00000133,0.00000201,0.00002586,-0.00002431,-0.000003
 66,-0.00000261,0.00000386,0.00000168,-0.00000050,0.00000300,0.00000164
 ,-0.00000542,0.00000030,0.00004420,0.00000583,-0.00002608,-0.00000748,
 0.00000580,0.00000253,-0.00000470,-0.00000412,-0.00000972,-0.00000610,
 -0.00000980,0.00000418,-0.00003222,0.00001909,-0.00000126,0.00000737,-
 0.00000655,0.00000104,-0.00000243,0.00000444,-0.00000179,0.00000045,-0
 .00000257,-0.00000082,-0.00000294,0.00000093,0.00000264,0.00000187,0.0
 0000094,0.00000098,-0.00000160,0.00000383,-0.00000067,0.00000112,-0.00
 000003,0.00000066,-0.00000115,-0.00000027,0.00000081,0.00000031,-0.000
 00132,-0.00000118,-0.00008567,0.00006876,-0.00018702,0.00004109,-0.000
 06781,0.00006406,0.00001076,-0.00000939,0.00004066,0.00002722,0.000018
 70,0.00007302,-0.07738195,0.03339726,-0.00912051,0.00649418,-0.0297695
 7,0.02213812,-0.02399993,0.03864955,-0.03680993,0.08682606,0.00001704,
 -0.00000993,0.00001553,0.00002835,-0.00002744,0.00000395,0.00008636,-0
 .00006133,-0.00001882,-0.00015253,0.00009939,-0.00003119,-0.00004684,-
 0.00011192,0.00003633,0.00002045,0.00001092,-0.00000815,0.00000270,0.0
 0001478,0.00001314,-0.00001853,0.00000920,-0.00000979,-0.00009774,0.00
 006798,-0.00000597,0.00003289,0.00001826,0.00006265,0.00007043,0.00017
 609,-0.00000466,-0.00003439,0.00008278,0.00003523,-0.00002107,0.000028
 17,-0.00000678,-0.00001160,0.00003479,-0.00002630,0.00002785,0.0001337
 1,-0.00000315,0.00040188,-0.00190698,-0.00023524,-0.00028218,0.0009023
 4,-0.00052994,-0.00001106,0.00002408,0.00007760,-0.00135638,0.00114438
 ,0.00019382,0.00000360,-0.00001553,-0.00000326,0.00000215,-0.00000105,
 0.00000107,-0.00000150,0.00000643,0.00000457,-0.00000221,0.00000017,-0
 .00000184,0.00001198,-0.00003280,0.00000940,-0.00000220,0.00001456,-0.
 00000158,-0.00000026,0.00000134,-0.00000069,-0.00000211,0.00000111,0.0
 0000060,0.00001094,-0.00004637,0.00000968,0.00002754,0.00001917,0.0000
 2094,-0.00006205,-0.00010347,0.00000726,-0.00000834,0.00005272,-0.0000
 6303,0.00014233,0.00006708,0.00003527,0.00001277,0.00001850,0.00010029
 ,0.00083526,-0.00059272,-0.00020629,0.00028525,0.00010151,-0.00010773,
 0.00009767,0.00002152,-0.00000310,0.00015084,-0.00018514,0.00010434,0.
 00001140,-0.00003547,-0.00004171,0.00000096,0.00001695,-0.00000218,-0.
 00004108,-0.00000922,0.00000759,-0.00001798,-0.00000394,-0.00000169,-0
 .00045033,0.00006170,0.00033287,-0.00018846,-0.00086822,0.00063138,-0.
 00010987,0.00000343,-0.00016011,-0.00014174,-0.00006680,-0.00012181,-0
 .00017272,-0.00005774,0.00001644,0.00011095,-0.00005544,-0.00004115,-0
 .00000321,0.00000197,-0.00001661,0.00000368,-0.00000839,0.00000397,-0.
 00012743,-0.00000373,0.00006786,0.00138246,0.00325132,-0.00136231,-0.0
 0008758,-0.00155118,-0.00033149,-0.00162936,-0.00035703,-0.00001029,-0
 .00132648,-0.00239581,0.00031699,0.00316175,-0.00233663,-0.00746635,-0
 .00023453,-0.00101780,0.00017219,0.00895566,-0.04574246,0.01886169,0.0
 0027989,0.00075819,0.00018297,-0.00047382,0.00053430,-0.00055381,0.000
 09214,0.00008239,-0.00006902,0.00042477,-0.00194950,0.00283328,0.00105
 901,-0.00071146,-0.00217195,0.00001974,-0.00005406,0.00013478,0.000075
 05,-0.00002893,0.00004998,-0.00007329,-0.00001666,-0.00003517,-0.00000
 107,0.00006998,0.00002641,-0.00000460,0.00005590,0.00005759,0.00000937
 ,-0.00000383,-0.00000660,0.00001824,-0.00000544,0.00000205,-0.00001681
 ,-0.00001253,-0.00001171,0.00010390,-0.00001596,0.00001396,-0.00000883
 ,0.00000088,-0.00001051,-0.00000920,0.00001045,0.00000282,-0.00001512,
 -0.00000658,0.00000214,0.00001116,0.00002632,-0.00003922,-0.00001483,-
 0.00000462,0.00000721,0.00000729,-0.00000683,0.00000211,0.00000708,0.0
 0000436,0.00000224,-0.00002127,-0.00002401,-0.00002916,-0.00001302,0.0
 0000492,0.00000364,0.00000960,-0.00001614,0.00001083,0.00001736,0.0000
 1235,0.00000420,0.00015589,0.00020803,0.00024164,-0.00002662,-0.000037
 02,-0.00005232,0.00001721,-0.00000273,0.00004384,0.00000396,-0.0000054
 8,-0.00000556,-0.00000381,-0.00000426,0.00000619,-0.00001196,-0.000001
 65,-0.00000228,0.00001753,0.00003895,0.00000048,-0.00001102,-0.0000030
 5,-0.00000144,0.00000346,0.00000501,0.00000713,0.00000299,-0.00000673,
 -0.00000431,-0.00053483,-0.00093321,0.00216679,-0.00004718,0.00059322,
 -0.00063216,0.00060102,0.00018111,-0.00062111,0.00002190,-0.00004699,-
 0.00071483,0.03394921,-0.23875722,0.05117670,-0.01997946,-0.02082117,0
 .03719506,0.02632219,-0.00183175,0.02338310,-0.05121655,0.31393961,0.0
 0004969,0.00000611,0.00002504,0.00003847,0.00002011,0.00001052,0.00016
 176,-0.00008235,-0.00000155,0.00019006,-0.00024113,0.00005522,-0.00001
 429,0.00002238,0.00004925,-0.00003897,-0.00000900,0.00000315,-0.000001
 22,0.00000181,0.00000425,-0.00000647,0.00000419,-0.00000689,-0.0000172
 4,0.00001525,0.00001554,0.00001283,-0.00000259,0.00001860,-0.00032704,
 -0.00006954,-0.00000144,-0.00006873,0.00005410,0.00008127,-0.00006480,
 -0.00002574,-0.00000750,-0.00005579,0.00000305,-0.00005777,-0.00007299
 ,0.00000057,-0.00003559,0.00018242,0.00108929,-0.00074425,-0.00028981,
 -0.00074831,-0.00006640,-0.00008062,-0.00000702,0.00011414,-0.00027075
 ,-0.00024505,0.00004724,0.00001609,0.00002825,-0.00001314,-0.00000049,
 -0.00000406,0.00000546,0.00000052,-0.00000301,0.00000153,-0.00000582,-
 0.00000316,-0.00000124,0.00002903,-0.00002210,0.00001932,-0.00000093,0
 .00000290,-0.00000026,-0.00000917,0.00000197,-0.00000097,-0.00000254,0
 .00000201,-0.00000695,0.00005812,-0.00002787,0.00004921,-0.00001666,-0
 .00000503,-0.00003114,-0.00000144,0.00002375,0.00003485,0.00000438,0.0
 0000063,0.00001326,0.00005575,0.00003085,-0.00000366,-0.00000462,0.000
 03265,0.00000871,0.00026920,-0.00006064,-0.00028185,0.00006504,0.00004
 613,-0.00004490,0.00001197,0.00001384,-0.00002152,0.00008634,0.0001152
 7,-0.00008662,0.00000996,-0.00000013,0.00000246,-0.00000105,-0.0000063
 8,0.00000026,-0.00001504,-0.00001550,0.00000325,0.00000374,0.00000289,
 0.00000044,-0.00016349,0.00002650,0.00028284,-0.00002938,-0.00021500,0
 .00035976,-0.00004439,-0.00003945,0.00000474,-0.00004005,-0.00002789,-
 0.00001195,-0.00003806,-0.00002388,0.00002648,-0.00003496,-0.00003844,
 -0.00006797,0.00000744,-0.00000372,0.00003827,-0.00000856,-0.00000638,
 -0.00001896,0.00001327,0.00001746,0.00004764,0.00026939,0.00103560,-0.
 00070800,-0.00000944,-0.00041606,-0.00001579,-0.00036799,-0.00027551,0
 .00011598,-0.00043230,-0.00126071,-0.00026848,0.00082798,-0.00013568,-
 0.00150358,-0.00015190,-0.00067759,0.00010770,0.00148222,-0.01173433,0
 .01019983,0.00007246,-0.00043517,0.00016583,-0.00001158,-0.00034387,0.
 00132057,-0.00006204,-0.00011708,0.00006449,0.00179239,-0.00107369,-0.
 00387887,-0.00006476,-0.00296610,0.00066363,0.00001637,0.00001559,-0.0
 0000183,0.00001592,0.00002710,0.00004538,-0.00002039,-0.00001060,-0.00
 000831,0.00000302,0.00001401,0.00000615,0.00000217,0.00002132,0.000008
 59,0.00000357,-0.00000362,0.00000005,0.00000369,-0.00000162,0.00000466
 ,-0.00000495,-0.00000260,-0.00000229,0.00001836,-0.00000307,0.00000029
 ,0.00000014,0.00000209,0.00000031,-0.00000454,0.00000241,-0.00000245,-
 0.00000447,-0.00000268,0.00000063,-0.00000844,-0.00000376,-0.00002515,
 0.00000205,-0.00000060,0.00000193,0.00000305,0.00000281,0.00001015,-0.
 00000047,0.00000245,-0.00000160,0.00000076,-0.00000830,-0.00007595,-0.
 00000175,0.00000475,0.00000475,0.00000764,0.00000397,-0.00000245,-0.00
 000398,-0.00000809,0.00000573,0.00003403,0.00007360,0.00004724,-0.0000
 0591,-0.00002294,0.00000056,0.00000419,0.00000866,0.00000114,0.0000011
 2,-0.00000205,-0.00000025,-0.00000346,-0.00000281,0.00000206,-0.000002
 03,-0.00000035,0.00000070,0.00000606,0.00001965,-0.00000477,-0.0000029
 1,-0.00000195,-0.00000083,0.00000087,-0.00000051,0.00000339,0.00000001
 ,-0.00000301,-0.00000120,-0.00029974,0.00022286,0.00088152,0.00005986,
 -0.00000568,-0.00022796,0.00024272,0.00000541,-0.00021129,-0.00001945,
 -0.00012553,-0.00027080,-0.01207169,0.06053481,-0.09811094,0.01693002,
 0.04753889,-0.03130653,-0.03399600,0.03339643,-0.02162944,0.02620944,-
 0.12291545,0.14478534\\0.00000176,-0.00000070,-0.00000281,0.00000149,0
 .00000078,-0.00000303,0.00000091,0.00000176,-0.00000200,0.00000169,0.0
 0000033,-0.00000165,0.00000183,-0.00000078,-0.00000229,0.00000074,0.00
 000240,-0.00000729,0.00000106,0.00000039,-0.00000239,0.00000289,0.0000
 0067,-0.00000398,0.00000136,0.00000100,-0.00000323,0.00000167,-0.00000
 143,-0.00000178,0.00000072,0.00000096,-0.00000142,0.00000132,0.0000012
 5,-0.00000343,0.00000125,0.00000057,-0.00000523,0.00000310,-0.00000126
 ,-0.00000353,0.00000288,-0.00000113,-0.00000227,0.00000030,-0.00000016
 ,-0.00000118,0.00000143,0.00000011,-0.00000202,-0.00000018,0.00000016,
 -0.00000086,0.00000109,-0.00000042,0.00000132,0.00000086,0.00000113,-0
 .00000332,-0.00000006,0.00000215,-0.00000395,0.00000053,0.00000121,-0.
 00000257,0.00000129,0.00000149,-0.00000439,0.00000400,-0.00000146,-0.0
 0000430,0.00000443,-0.00000142,-0.00000482,0.00000380,-0.00000020,-0.0
 0000432,0.00000460,-0.00000208,-0.00000382,0.00000363,-0.00000225,-0.0
 0000164,0.00000398,-0.00000275,-0.00000123,0.00000444,-0.00000241,-0.0
 0000065,0.00000390,-0.00000272,-0.00000192,-0.00000035,0.00000094,0.00
 000068,-0.00000019,0.00000006,0.00000100,-0.00000006,-0.00000015,0.000
 00082,-0.00000264,0.00000210,0.00000058,0.00000104,0.00000209,-0.00000
 515,-0.00000071,0.00000004,0.00000136,0.00000045,-0.00000039,-0.000000
 07,-0.00000187,0.00000111,0.00000243,-0.00000311,0.00000231,0.00000099
 ,-0.00000541,0.00000147,0.00000801,-0.00000218,0.00000223,0.00000033,-
 0.00000291,-0.00000013,0.00000385,0.00000229,0.00000474,0.00000161,-0.
 00000071,-0.00000003,0.00000025,-0.00000277,0.00000222,-0.00000005,-0.
 00000241,0.00000303,-0.00000105,-0.00000286,0.00000346,-0.00000049,-0.
 00000205,0.00000250,-0.00000191,-0.00000281,0.00000375,-0.00000152,-0.
 00000422,0.00000068,0.00000071,-0.00000102,-0.00000401,0.00000662,-0.0
 0000158,-0.00000094,0.00000371,-0.00000095,-0.00000069,0.00000385,-0.0
 0000203,-0.00000126,0.00000125,0.00000115,-0.00000263,0.00000508,-0.00
 000015,-0.00000135,0.00000227,-0.00000221,0.00000086,0.00000216,0.0000
 0101,-0.00000289,0.00000248,-0.00000142,-0.00000439,0.00000626,-0.0000
 0151,-0.00000098,0.00000210,0.00000155,-0.00000206,0.00000110,-0.00000
 031,-0.00000333,0.00000029,0.00000179,-0.00000181,0.00000054,0.0000015
 7,-0.00000225,0.00000069,0.00000307,-0.00000662,0.00000499,-0.00000027
 ,-0.00000077,0.00000099,-0.00000085,-0.00000106,0.00000222,0.00000084,
 -0.00000093,0.00000121,0.00000006,-0.00000042,0.00000050,-0.00000235,0
 .00000311,-0.00000063,-0.00000179,0.00000228,-0.00000088,-0.00000250,0
 .00000360,-0.00000166,-0.00000317,0.00000350,-0.00000050,-0.00000397,0
 .00000457,-0.00000096,-0.00000420,0.00000528,-0.00000160,-0.00000439,0
 .00000492,-0.00000075,-0.00000424,0.00000437,0.,-0.00000010,0.00000294
 ,-0.00000428,0.00000011,0.00000340,-0.00000529,-0.00000030,0.00000280,
 -0.00000356,-0.00000088,0.00000346,-0.00000385,-0.00000051,0.00000010,
 0.00000133,-0.00000186,-0.00000203,0.00000639,-0.00000054,-0.00000362,
 0.00000281,0.00000063,-0.00000379,0.00000464,0.00000110,0.00000069,0.0
 0000125,0.00000078,-0.00000236,0.00000307,-0.00000093,-0.00000203,0.00
 000461,-0.00000130,-0.00000166,0.00000368,-0.00000265,-0.00000084,0.00
 000432,-0.00000115,-0.00000260,0.00000561,0.00000205,-0.00000366,0.000
 00176,0.00000228,-0.00000351,0.00000138,0.00000227,-0.00000457,0.00000
 327,0.00000217,-0.00000406,0.00000234,-0.00000052,-0.00000042,0.000000
 77,-0.00000098,0.00000052,0.00000045,-0.00000086,0.00000007,0.00000151
 ,-0.00000013,-0.00000019,0.00000007\\\@


 Make no judgements where you have no compassion.
                               -- Anne McCaffrey
 Job cpu time:       5 days  0 hours 50 minutes 50.1 seconds.
 Elapsed time:       0 days  3 hours 57 minutes 48.6 seconds.
 File lengths (MBytes):  RWF=   9733 Int=      0 D2E=      0 Chk=    105 Scr=      1
 Normal termination of Gaussian 16 at Sat May 25 04:35:26 2019.
