 Entering Gaussian System, Link 0=g16
 Input=clay_new-glu_gluC6-BCDL-Na3_1Me2O-bisCF3-ts-b3lyp_d3bj-631gd-pcm_thf.gjf
 Output=clay_new-glu_gluC6-BCDL-Na3_1Me2O-bisCF3-ts-b3lyp_d3bj-631gd-pcm_thf.out
 Initial command:
 /home/ekwan/sw/g16/l1.exe "/scratch/users/ekwan/clay_new-glu_gluC6-BCDL-Na3_1Me2O-bisCF3-ts-b3lyp_d3bj-631gd-pcm_thf/Gau-3862.inp" -scrdir="/scratch/users/ekwan/clay_new-glu_gluC6-BCDL-Na3_1Me2O-bisCF3-ts-b3lyp_d3bj-631gd-pcm_thf/"
 Entering Link 1 = /home/ekwan/sw/g16/l1.exe PID=      3863.
  
 Copyright (c) 1988,1990,1992,1993,1995,1998,2003,2009,2016,
            Gaussian, Inc.  All Rights Reserved.
  
 This is part of the Gaussian(R) 16 program.  It is based on
 the Gaussian(R) 09 system (copyright 2009, Gaussian, Inc.),
 the Gaussian(R) 03 system (copyright 2003, Gaussian, Inc.),
 the Gaussian(R) 98 system (copyright 1998, Gaussian, Inc.),
 the Gaussian(R) 94 system (copyright 1995, Gaussian, Inc.),
 the Gaussian 92(TM) system (copyright 1992, Gaussian, Inc.),
 the Gaussian 90(TM) system (copyright 1990, Gaussian, Inc.),
 the Gaussian 88(TM) system (copyright 1988, Gaussian, Inc.),
 the Gaussian 86(TM) system (copyright 1986, Carnegie Mellon
 University), and the Gaussian 82(TM) system (copyright 1983,
 Carnegie Mellon University). Gaussian is a federally registered
 trademark of Gaussian, Inc.
  
 This software contains proprietary and confidential information,
 including trade secrets, belonging to Gaussian, Inc.
  
 This software is provided under written license and may be
 used, copied, transmitted, or stored only in accord with that
 written license.
  
 The following legend is applicable only to US Government
 contracts under FAR:
  
                    RESTRICTED RIGHTS LEGEND
  
 Use, reproduction and disclosure by the US Government is
 subject to restrictions as set forth in subparagraphs (a)
 and (c) of the Commercial Computer Software - Restricted
 Rights clause in FAR 52.227-19.
  
 Gaussian, Inc.
 340 Quinnipiac St., Bldg. 40, Wallingford CT 06492
  
  
 ---------------------------------------------------------------
 Warning -- This program may not be used in any manner that
 competes with the business of Gaussian, Inc. or will provide
 assistance to any competitor of Gaussian, Inc.  The licensee
 of this program is prohibited from giving any competitor of
 Gaussian, Inc. access to this program.  By using this program,
 the user acknowledges that Gaussian, Inc. is engaged in the
 business of creating and licensing software in the field of
 computational chemistry and represents and warrants to the
 licensee that it is not a competitor of Gaussian, Inc. and that
 it will not use this program in any manner prohibited above.
 ---------------------------------------------------------------
  

 Cite this work as:
 Gaussian 16, Revision A.03,
 M. J. Frisch, G. W. Trucks, H. B. Schlegel, G. E. Scuseria, 
 M. A. Robb, J. R. Cheeseman, G. Scalmani, V. Barone, 
 G. A. Petersson, H. Nakatsuji, X. Li, M. Caricato, A. V. Marenich, 
 J. Bloino, B. G. Janesko, R. Gomperts, B. Mennucci, H. P. Hratchian, 
 J. V. Ortiz, A. F. Izmaylov, J. L. Sonnenberg, D. Williams-Young, 
 F. Ding, F. Lipparini, F. Egidi, J. Goings, B. Peng, A. Petrone, 
 T. Henderson, D. Ranasinghe, V. G. Zakrzewski, J. Gao, N. Rega, 
 G. Zheng, W. Liang, M. Hada, M. Ehara, K. Toyota, R. Fukuda, 
 J. Hasegawa, M. Ishida, T. Nakajima, Y. Honda, O. Kitao, H. Nakai, 
 T. Vreven, K. Throssell, J. A. Montgomery, Jr., J. E. Peralta, 
 F. Ogliaro, M. J. Bearpark, J. J. Heyd, E. N. Brothers, K. N. Kudin, 
 V. N. Staroverov, T. A. Keith, R. Kobayashi, J. Normand, 
 K. Raghavachari, A. P. Rendell, J. C. Burant, S. S. Iyengar, 
 J. Tomasi, M. Cossi, J. M. Millam, M. Klene, C. Adamo, R. Cammi, 
 J. W. Ochterski, R. L. Martin, K. Morokuma, O. Farkas, 
 J. B. Foresman, and D. J. Fox, Gaussian, Inc., Wallingford CT, 2016.
 
 ******************************************
 Gaussian 16:  AS64L-G16RevA.03 25-Dec-2016
                23-May-2019 
 ******************************************
 %mem=48GB
 %nprocshared=32
 Will use up to   32 processors via shared memory.
 ----------------------------------------------------------------------
 #p opt=(ts,noeigentest,calcfc,maxstep=3,modredundant,recalc=30) freq=n
 oraman b3lyp 6-31g* pop=none scrf=(solvent=tetrahydrofuran,pcm) empiri
 caldispersion=gd3bj
 ----------------------------------------------------------------------
 1/5=1,8=3,10=4,11=1,18=120,26=3,38=1,71=30/1,3;
 2/9=110,12=2,17=6,18=5,40=1/2;
 3/5=1,6=6,7=1,11=2,25=1,30=1,70=2201,71=2,72=20,74=-5,124=41,140=1/1,2,3;
 4//1;
 5/5=2,38=5,53=20/2;
 8/6=4,10=90,11=11/1;
 11/6=1,8=1,9=11,15=111,16=1/1,2,10;
 10/6=1,13=1/2;
 7/10=1,18=20,25=1/1,2,3,16;
 1/5=1,8=3,10=4,11=1,18=20,26=3,71=30/3(2);
 2/9=110/2;
 99//99;
 2/9=110/2;
 3/5=1,6=6,7=1,11=2,25=1,30=1,70=2205,71=1,72=20,74=-5,124=41/1,2,3;
 4/5=5,16=3,69=1/1;
 5/5=2,38=5,53=20/2;
 7//1,2,3,16;
 1/5=1,8=3,11=1,18=20,26=3,71=30/3(-5);
 2/9=110/2;
 99/9=1/99;
 Leave Link    1 at Thu May 23 22:38:15 2019, MaxMem=  6442450944 cpu:               7.7 elap:               0.3
 (Enter /home/ekwan/sw/g16/l101.exe)
 -----
 title
 -----
 Symbolic Z-matrix:
 Charge =  0 Multiplicity = 1
 C                     4.86407  -0.07746   0.54657 
 C                     4.06359  -0.86462  -0.494 
 C                     3.27082  -1.9862    0.18624 
 C                     3.13385  -0.77097   2.25887 
 C                     3.91878   0.3973    1.65215 
 H                     2.59205  -2.45441  -0.53631 
 H                     3.32698  -0.18938  -0.94811 
 H                     5.63503  -0.73597   0.96869 
 H                     3.83615  -1.4637    2.7463 
 H                     3.2034    1.10174   1.21997 
 O                     2.44279  -1.48547   1.20186 
 O                     4.19185  -2.94785   0.65734 
 O                     4.86705  -1.45626  -1.50856 
 O                     5.491     1.02528  -0.1123 
 O                     4.68055   1.04149   2.6752 
 C                     2.06001  -0.31011   3.27037 
 H                     2.64614  -0.05954   4.1958 
 H                     1.52042  -1.25959   3.54384 
 O                     1.25865   0.68179   2.82202 
 C                     5.15177  -0.6095   -2.61477 
 H                     4.22734  -0.19541  -3.04642 
 H                     5.80565   0.21884  -2.33131 
 H                     5.64152  -1.23439  -3.36664 
 C                     6.76567   1.36592   0.41343 
 H                     6.70056   1.64072   1.47023 
 H                     7.47467   0.53177   0.30173 
 H                     7.1291    2.21806  -0.16791 
 C                     4.07248   2.24949   3.13139 
 H                     4.21799   3.05733   2.39871 
 H                     2.99687   2.10396   3.28965 
 H                     4.5704    2.52396   4.06675 
 C                    -1.18241   2.56273   0.01804 
 C                    -0.73726   1.41057   0.9146 
 C                     0.31508   0.55292   0.24022 
 C                     1.04143   2.34377  -1.16992 
 C                     0.06331   3.29684  -0.47421 
 H                     0.66008  -0.31888   0.77871 
 H                    -0.20315   1.81103   1.78397 
 H                    -1.73689   2.18166  -0.84928 
 H                     0.59463   2.00101  -2.10955 
 H                     0.5668    3.75056   0.38583 
 O                     1.32242   1.16227  -0.37457 
 O                    -0.71673  -2.38344   0.02463 
 O                    -1.85608   0.65637   1.32333 
 O                    -1.97967   3.49343   0.73372 
 O                    -0.27445   4.28376  -1.43756 
 C                     2.37894   2.98889  -1.47368 
 H                     2.22994   3.74033  -2.263 
 H                     3.0707    2.22274  -1.85389 
 O                     2.88851   3.5855   -0.29981 
 S                    -1.25855  -1.51467  -1.0482 
 O                    -1.24653  -2.11909  -2.39566 
 O                    -0.54094  -0.14783  -1.11096 
 C                    -2.95008  -1.13171  -0.62282 
 C                    -3.55831  -1.82239   0.41468 
 C                    -3.60701  -0.1183   -1.3181 
 C                    -4.85111  -1.45698   0.79431 
 H                    -3.01976  -2.59883   0.94269 
 C                    -4.89552   0.22725  -0.92831 
 H                    -3.11261   0.4144   -2.12074 
 C                    -5.52073  -0.43177   0.13434 
 H                    -6.51686  -0.14159   0.44678 
 C                    -1.66453  -0.13243   2.51067 
 H                    -1.43144  -1.16823   2.23547 
 H                    -0.82373   0.25822   3.09546 
 H                    -2.61035  -0.11594   3.05974 
 C                    -3.37852   3.28157   0.59564 
 H                    -3.68403   3.34897  -0.4573 
 H                    -3.67865   2.30733   0.99448 
 H                    -3.8732    4.07676   1.15925 
 C                    -0.23641   5.61392  -0.9333 
 H                    -0.96031   5.74968  -0.12263 
 H                     0.76898   5.86703  -0.56939 
 H                    -0.49264   6.27199  -1.76761 
 C                     4.19171   4.11026  -0.49335 
 H                     4.49943   4.55525   0.45574 
 H                     4.89351   3.31226  -0.76226 
 H                     4.19731   4.88616  -1.27427 
 C                     3.56342  -4.06516   1.26613 
 H                     4.35012  -4.79023   1.48579 
 H                     3.05062  -3.78713   2.19355 
 H                     2.83141  -4.52629   0.58537 
 Na                    0.19277  -4.22686  -1.06721 
 O                     1.96736  -3.84598  -2.4588 
 C                     3.23769  -4.5011   -2.42756 
 H                     4.0092   -3.81953  -2.05281 
 H                     3.14439  -5.35934  -1.75945 
 H                     3.50889  -4.85295  -3.4316 
 C                     1.97966  -2.7149   -3.33293 
 H                     2.1947   -3.03102  -4.36226 
 H                     0.99022  -2.2592   -3.28434 
 H                     2.74167  -1.99835  -3.00919 
 C                    -5.46835  -2.1162    1.99727 
 F                    -5.14159  -3.42485   2.06815 
 F                    -6.81346  -2.02754   1.99013 
 F                    -5.03588  -1.54039   3.14401 
 C                    -5.63823   1.33036  -1.63205 
 F                    -4.83432   2.04241  -2.44991 
 F                    -6.17982   2.1949   -0.74328 
 F                    -6.65447   0.85041  -2.38092 
 
 Add virtual bond connecting atoms O53        and C34        Dist= 3.30D+00.
 Add virtual bond connecting atoms H37        and O11        Dist= 4.10D+00.
 Add virtual bond connecting atoms H38        and O19        Dist= 4.00D+00.
 Add virtual bond connecting atoms H65        and O19        Dist= 4.05D+00.
 Add virtual bond connecting atoms Na83       and O43        Dist= 4.40D+00.
 Add virtual bond connecting atoms O84        and H6         Dist= 4.64D+00.
 Add virtual bond connecting atoms H86        and H6         Dist= 4.69D+00.
 Add virtual bond connecting atoms H91        and O52        Dist= 4.56D+00.
 Add virtual bond connecting atoms H92        and H21        Dist= 4.42D+00.
 The following ModRedundant input section has been read:
 
 ITRead=  0  0  0  0  0  0  0  0  0  0  0  0  0  0  0  0  0  0  0  0
 ITRead=  0  0  0  0  0  0  0  0  0  0  0  0  0  0  0  0  0  0  0  0
 ITRead=  0  0  0  0  0  0  0  0  0  0  0  0  0  0  0  0  0  0  0  0
 ITRead=  0  0  0  0  0  0  0  0  0  0  0  0  0  0  0  0  0  0  0  0
 ITRead=  0  0  0  0  0  0  0  0  0  0  0  0  0  0  0  0  0  0  0  0
 MicOpt= -1 -1 -1 -1 -1 -1 -1 -1 -1 -1 -1 -1 -1 -1 -1 -1 -1 -1 -1 -1
 MicOpt= -1 -1 -1 -1 -1 -1 -1 -1 -1 -1 -1 -1 -1 -1 -1 -1 -1 -1 -1 -1
 MicOpt= -1 -1 -1 -1 -1 -1 -1 -1 -1 -1 -1 -1 -1 -1 -1 -1 -1 -1 -1 -1
 MicOpt= -1 -1 -1 -1 -1 -1 -1 -1 -1 -1 -1 -1 -1 -1 -1 -1 -1 -1 -1 -1
 MicOpt= -1 -1 -1 -1 -1 -1 -1 -1 -1 -1 -1 -1 -1 -1 -1 -1 -1 -1 -1 -1
 NAtoms=    100 NQM=      100 NQMF=       0 NMMI=      0 NMMIF=      0
                NMic=       0 NMicF=      0.
                    Isotopes and Nuclear Properties:
 (Nuclear quadrupole moments (NQMom) in fm**2, nuclear magnetic moments (NMagM)
  in nuclear magnetons)

  Atom         1           2           3           4           5           6           7           8           9          10
 IAtWgt=          12          12          12          12          12           1           1           1           1           1
 AtmWgt=  12.0000000  12.0000000  12.0000000  12.0000000  12.0000000   1.0078250   1.0078250   1.0078250   1.0078250   1.0078250
 NucSpn=           0           0           0           0           0           1           1           1           1           1
 AtZEff=   0.0000000   0.0000000   0.0000000   0.0000000   0.0000000   0.0000000   0.0000000   0.0000000   0.0000000   0.0000000
 NQMom=    0.0000000   0.0000000   0.0000000   0.0000000   0.0000000   0.0000000   0.0000000   0.0000000   0.0000000   0.0000000
 NMagM=    0.0000000   0.0000000   0.0000000   0.0000000   0.0000000   2.7928460   2.7928460   2.7928460   2.7928460   2.7928460
 AtZNuc=   6.0000000   6.0000000   6.0000000   6.0000000   6.0000000   1.0000000   1.0000000   1.0000000   1.0000000   1.0000000

  Atom        11          12          13          14          15          16          17          18          19          20
 IAtWgt=          16          16          16          16          16          12           1           1          16          12
 AtmWgt=  15.9949146  15.9949146  15.9949146  15.9949146  15.9949146  12.0000000   1.0078250   1.0078250  15.9949146  12.0000000
 NucSpn=           0           0           0           0           0           0           1           1           0           0
 AtZEff=   0.0000000   0.0000000   0.0000000   0.0000000   0.0000000   0.0000000   0.0000000   0.0000000   0.0000000   0.0000000
 NQMom=    0.0000000   0.0000000   0.0000000   0.0000000   0.0000000   0.0000000   0.0000000   0.0000000   0.0000000   0.0000000
 NMagM=    0.0000000   0.0000000   0.0000000   0.0000000   0.0000000   0.0000000   2.7928460   2.7928460   0.0000000   0.0000000
 AtZNuc=   8.0000000   8.0000000   8.0000000   8.0000000   8.0000000   6.0000000   1.0000000   1.0000000   8.0000000   6.0000000

  Atom        21          22          23          24          25          26          27          28          29          30
 IAtWgt=           1           1           1          12           1           1           1          12           1           1
 AtmWgt=   1.0078250   1.0078250   1.0078250  12.0000000   1.0078250   1.0078250   1.0078250  12.0000000   1.0078250   1.0078250
 NucSpn=           1           1           1           0           1           1           1           0           1           1
 AtZEff=   0.0000000   0.0000000   0.0000000   0.0000000   0.0000000   0.0000000   0.0000000   0.0000000   0.0000000   0.0000000
 NQMom=    0.0000000   0.0000000   0.0000000   0.0000000   0.0000000   0.0000000   0.0000000   0.0000000   0.0000000   0.0000000
 NMagM=    2.7928460   2.7928460   2.7928460   0.0000000   2.7928460   2.7928460   2.7928460   0.0000000   2.7928460   2.7928460
 AtZNuc=   1.0000000   1.0000000   1.0000000   6.0000000   1.0000000   1.0000000   1.0000000   6.0000000   1.0000000   1.0000000

  Atom        31          32          33          34          35          36          37          38          39          40
 IAtWgt=           1          12          12          12          12          12           1           1           1           1
 AtmWgt=   1.0078250  12.0000000  12.0000000  12.0000000  12.0000000  12.0000000   1.0078250   1.0078250   1.0078250   1.0078250
 NucSpn=           1           0           0           0           0           0           1           1           1           1
 AtZEff=   0.0000000   0.0000000   0.0000000   0.0000000   0.0000000   0.0000000   0.0000000   0.0000000   0.0000000   0.0000000
 NQMom=    0.0000000   0.0000000   0.0000000   0.0000000   0.0000000   0.0000000   0.0000000   0.0000000   0.0000000   0.0000000
 NMagM=    2.7928460   0.0000000   0.0000000   0.0000000   0.0000000   0.0000000   2.7928460   2.7928460   2.7928460   2.7928460
 AtZNuc=   1.0000000   6.0000000   6.0000000   6.0000000   6.0000000   6.0000000   1.0000000   1.0000000   1.0000000   1.0000000

  Atom        41          42          43          44          45          46          47          48          49          50
 IAtWgt=           1          16          16          16          16          16          12           1           1          16
 AtmWgt=   1.0078250  15.9949146  15.9949146  15.9949146  15.9949146  15.9949146  12.0000000   1.0078250   1.0078250  15.9949146
 NucSpn=           1           0           0           0           0           0           0           1           1           0
 AtZEff=   0.0000000   0.0000000   0.0000000   0.0000000   0.0000000   0.0000000   0.0000000   0.0000000   0.0000000   0.0000000
 NQMom=    0.0000000   0.0000000   0.0000000   0.0000000   0.0000000   0.0000000   0.0000000   0.0000000   0.0000000   0.0000000
 NMagM=    2.7928460   0.0000000   0.0000000   0.0000000   0.0000000   0.0000000   0.0000000   2.7928460   2.7928460   0.0000000
 AtZNuc=   1.0000000   8.0000000   8.0000000   8.0000000   8.0000000   8.0000000   6.0000000   1.0000000   1.0000000   8.0000000

  Atom        51          52          53          54          55          56          57          58          59          60
 IAtWgt=          32          16          16          12          12          12          12           1          12           1
 AtmWgt=  31.9720718  15.9949146  15.9949146  12.0000000  12.0000000  12.0000000  12.0000000   1.0078250  12.0000000   1.0078250
 NucSpn=           0           0           0           0           0           0           0           1           0           1
 AtZEff=   0.0000000   0.0000000   0.0000000   0.0000000   0.0000000   0.0000000   0.0000000   0.0000000   0.0000000   0.0000000
 NQMom=    0.0000000   0.0000000   0.0000000   0.0000000   0.0000000   0.0000000   0.0000000   0.0000000   0.0000000   0.0000000
 NMagM=    0.0000000   0.0000000   0.0000000   0.0000000   0.0000000   0.0000000   0.0000000   2.7928460   0.0000000   2.7928460
 AtZNuc=  16.0000000   8.0000000   8.0000000   6.0000000   6.0000000   6.0000000   6.0000000   1.0000000   6.0000000   1.0000000

  Atom        61          62          63          64          65          66          67          68          69          70
 IAtWgt=          12           1          12           1           1           1          12           1           1           1
 AtmWgt=  12.0000000   1.0078250  12.0000000   1.0078250   1.0078250   1.0078250  12.0000000   1.0078250   1.0078250   1.0078250
 NucSpn=           0           1           0           1           1           1           0           1           1           1
 AtZEff=   0.0000000   0.0000000   0.0000000   0.0000000   0.0000000   0.0000000   0.0000000   0.0000000   0.0000000   0.0000000
 NQMom=    0.0000000   0.0000000   0.0000000   0.0000000   0.0000000   0.0000000   0.0000000   0.0000000   0.0000000   0.0000000
 NMagM=    0.0000000   2.7928460   0.0000000   2.7928460   2.7928460   2.7928460   0.0000000   2.7928460   2.7928460   2.7928460
 AtZNuc=   6.0000000   1.0000000   6.0000000   1.0000000   1.0000000   1.0000000   6.0000000   1.0000000   1.0000000   1.0000000

  Atom        71          72          73          74          75          76          77          78          79          80
 IAtWgt=          12           1           1           1          12           1           1           1          12           1
 AtmWgt=  12.0000000   1.0078250   1.0078250   1.0078250  12.0000000   1.0078250   1.0078250   1.0078250  12.0000000   1.0078250
 NucSpn=           0           1           1           1           0           1           1           1           0           1
 AtZEff=   0.0000000   0.0000000   0.0000000   0.0000000   0.0000000   0.0000000   0.0000000   0.0000000   0.0000000   0.0000000
 NQMom=    0.0000000   0.0000000   0.0000000   0.0000000   0.0000000   0.0000000   0.0000000   0.0000000   0.0000000   0.0000000
 NMagM=    0.0000000   2.7928460   2.7928460   2.7928460   0.0000000   2.7928460   2.7928460   2.7928460   0.0000000   2.7928460
 AtZNuc=   6.0000000   1.0000000   1.0000000   1.0000000   6.0000000   1.0000000   1.0000000   1.0000000   6.0000000   1.0000000

  Atom        81          82          83          84          85          86          87          88          89          90
 IAtWgt=           1           1          23          16          12           1           1           1          12           1
 AtmWgt=   1.0078250   1.0078250  22.9897697  15.9949146  12.0000000   1.0078250   1.0078250   1.0078250  12.0000000   1.0078250
 NucSpn=           1           1           3           0           0           1           1           1           0           1
 AtZEff=   0.0000000   0.0000000   0.0000000   0.0000000   0.0000000   0.0000000   0.0000000   0.0000000   0.0000000   0.0000000
 NQMom=    0.0000000   0.0000000  10.4000000   0.0000000   0.0000000   0.0000000   0.0000000   0.0000000   0.0000000   0.0000000
 NMagM=    2.7928460   2.7928460   2.2175200   0.0000000   0.0000000   2.7928460   2.7928460   2.7928460   0.0000000   2.7928460
 AtZNuc=   1.0000000   1.0000000  11.0000000   8.0000000   6.0000000   1.0000000   1.0000000   1.0000000   6.0000000   1.0000000

  Atom        91          92          93          94          95          96          97          98          99         100
 IAtWgt=           1           1          12          19          19          19          12          19          19          19
 AtmWgt=   1.0078250   1.0078250  12.0000000  18.9984033  18.9984033  18.9984033  12.0000000  18.9984033  18.9984033  18.9984033
 NucSpn=           1           1           0           1           1           1           0           1           1           1
 AtZEff=   0.0000000   0.0000000   0.0000000   0.0000000   0.0000000   0.0000000   0.0000000   0.0000000   0.0000000   0.0000000
 NQMom=    0.0000000   0.0000000   0.0000000   0.0000000   0.0000000   0.0000000   0.0000000   0.0000000   0.0000000   0.0000000
 NMagM=    2.7928460   2.7928460   0.0000000   2.6288670   2.6288670   2.6288670   0.0000000   2.6288670   2.6288670   2.6288670
 AtZNuc=   1.0000000   1.0000000   6.0000000   9.0000000   9.0000000   9.0000000   6.0000000   9.0000000   9.0000000   9.0000000
 Leave Link  101 at Thu May 23 22:38:15 2019, MaxMem=  6442450944 cpu:              18.0 elap:               0.7
 (Enter /home/ekwan/sw/g16/l103.exe)

 GradGradGradGradGradGradGradGradGradGradGradGradGradGradGradGradGradGrad
 Berny optimization.
 Initialization pass.
                           ----------------------------
                           !    Initial Parameters    !
                           ! (Angstroms and Degrees)  !
 --------------------------                            --------------------------
 ! Name  Definition              Value          Derivative Info.                !
 --------------------------------------------------------------------------------
 ! R1    R(1,2)                  1.5307         calculate D2E/DX2 analytically  !
 ! R2    R(1,5)                  1.5301         calculate D2E/DX2 analytically  !
 ! R3    R(1,8)                  1.0983         calculate D2E/DX2 analytically  !
 ! R4    R(1,14)                 1.4294         calculate D2E/DX2 analytically  !
 ! R5    R(2,3)                  1.5327         calculate D2E/DX2 analytically  !
 ! R6    R(2,7)                  1.0976         calculate D2E/DX2 analytically  !
 ! R7    R(2,13)                 1.423          calculate D2E/DX2 analytically  !
 ! R8    R(3,6)                  1.0964         calculate D2E/DX2 analytically  !
 ! R9    R(3,11)                 1.4028         calculate D2E/DX2 analytically  !
 ! R10   R(3,12)                 1.4124         calculate D2E/DX2 analytically  !
 ! R11   R(4,5)                  1.5327         calculate D2E/DX2 analytically  !
 ! R12   R(4,9)                  1.1003         calculate D2E/DX2 analytically  !
 ! R13   R(4,11)                 1.451          calculate D2E/DX2 analytically  !
 ! R14   R(4,16)                 1.5455         calculate D2E/DX2 analytically  !
 ! R15   R(5,10)                 1.0931         calculate D2E/DX2 analytically  !
 ! R16   R(5,15)                 1.429          calculate D2E/DX2 analytically  !
 ! R17   R(6,84)                 2.4541         calculate D2E/DX2 analytically  !
 ! R18   R(6,86)                 2.4843         calculate D2E/DX2 analytically  !
 ! R19   R(11,37)                2.1721         calculate D2E/DX2 analytically  !
 ! R20   R(12,79)                1.4191         calculate D2E/DX2 analytically  !
 ! R21   R(13,20)                1.4219         calculate D2E/DX2 analytically  !
 ! R22   R(14,24)                1.4203         calculate D2E/DX2 analytically  !
 ! R23   R(15,28)                1.4273         calculate D2E/DX2 analytically  !
 ! R24   R(16,17)                1.1237         calculate D2E/DX2 analytically  !
 ! R25   R(16,18)                1.1258         calculate D2E/DX2 analytically  !
 ! R26   R(16,19)                1.3517         calculate D2E/DX2 analytically  !
 ! R27   R(19,38)                2.1189         calculate D2E/DX2 analytically  !
 ! R28   R(19,65)                2.1425         calculate D2E/DX2 analytically  !
 ! R29   R(20,21)                1.1011         calculate D2E/DX2 analytically  !
 ! R30   R(20,22)                1.0927         calculate D2E/DX2 analytically  !
 ! R31   R(20,23)                1.0935         calculate D2E/DX2 analytically  !
 ! R32   R(21,92)                2.3365         calculate D2E/DX2 analytically  !
 ! R33   R(24,25)                1.0939         calculate D2E/DX2 analytically  !
 ! R34   R(24,26)                1.1004         calculate D2E/DX2 analytically  !
 ! R35   R(24,27)                1.0937         calculate D2E/DX2 analytically  !
 ! R36   R(28,29)                1.1003         calculate D2E/DX2 analytically  !
 ! R37   R(28,30)                1.0969         calculate D2E/DX2 analytically  !
 ! R38   R(28,31)                1.0946         calculate D2E/DX2 analytically  !
 ! R39   R(32,33)                1.5263         calculate D2E/DX2 analytically  !
 ! R40   R(32,36)                1.5274         calculate D2E/DX2 analytically  !
 ! R41   R(32,39)                1.0977         calculate D2E/DX2 analytically  !
 ! R42   R(32,45)                1.4192         calculate D2E/DX2 analytically  !
 ! R43   R(33,34)                1.5158         calculate D2E/DX2 analytically  !
 ! R44   R(33,38)                1.0961         calculate D2E/DX2 analytically  !
 ! R45   R(33,44)                1.4098         calculate D2E/DX2 analytically  !
 ! R46   R(34,37)                1.0812         calculate D2E/DX2 analytically  !
 ! R47   R(34,42)                1.3281         calculate D2E/DX2 analytically  !
 ! R48   R(34,53)                1.7463         calculate D2E/DX2 analytically  !
 ! R49   R(35,36)                1.5327         calculate D2E/DX2 analytically  !
 ! R50   R(35,40)                1.0955         calculate D2E/DX2 analytically  !
 ! R51   R(35,42)                1.4517         calculate D2E/DX2 analytically  !
 ! R52   R(35,47)                1.5157         calculate D2E/DX2 analytically  !
 ! R53   R(36,41)                1.095          calculate D2E/DX2 analytically  !
 ! R54   R(36,46)                1.4199         calculate D2E/DX2 analytically  !
 ! R55   R(43,51)                1.483          calculate D2E/DX2 analytically  !
 ! R56   R(43,83)                2.3276         calculate D2E/DX2 analytically  !
 ! R57   R(44,63)                1.4383         calculate D2E/DX2 analytically  !
 ! R58   R(45,67)                1.4215         calculate D2E/DX2 analytically  !
 ! R59   R(46,71)                1.423          calculate D2E/DX2 analytically  !
 ! R60   R(47,48)                1.0999         calculate D2E/DX2 analytically  !
 ! R61   R(47,49)                1.1            calculate D2E/DX2 analytically  !
 ! R62   R(47,50)                1.4119         calculate D2E/DX2 analytically  !
 ! R63   R(50,75)                1.4181         calculate D2E/DX2 analytically  !
 ! R64   R(51,52)                1.4769         calculate D2E/DX2 analytically  !
 ! R65   R(51,53)                1.545          calculate D2E/DX2 analytically  !
 ! R66   R(51,54)                1.7857         calculate D2E/DX2 analytically  !
 ! R67   R(52,91)                2.4109         calculate D2E/DX2 analytically  !
 ! R68   R(54,55)                1.3869         calculate D2E/DX2 analytically  !
 ! R69   R(54,56)                1.3935         calculate D2E/DX2 analytically  !
 ! R70   R(55,57)                1.3961         calculate D2E/DX2 analytically  !
 ! R71   R(55,58)                1.0824         calculate D2E/DX2 analytically  !
 ! R72   R(56,59)                1.3898         calculate D2E/DX2 analytically  !
 ! R73   R(56,60)                1.0828         calculate D2E/DX2 analytically  !
 ! R74   R(57,61)                1.3911         calculate D2E/DX2 analytically  !
 ! R75   R(57,93)                1.5042         calculate D2E/DX2 analytically  !
 ! R76   R(59,61)                1.398          calculate D2E/DX2 analytically  !
 ! R77   R(59,97)                1.5046         calculate D2E/DX2 analytically  !
 ! R78   R(61,62)                1.0836         calculate D2E/DX2 analytically  !
 ! R79   R(63,64)                1.0968         calculate D2E/DX2 analytically  !
 ! R80   R(63,65)                1.0961         calculate D2E/DX2 analytically  !
 ! R81   R(63,66)                1.0938         calculate D2E/DX2 analytically  !
 ! R82   R(67,68)                1.0984         calculate D2E/DX2 analytically  !
 ! R83   R(67,69)                1.0947         calculate D2E/DX2 analytically  !
 ! R84   R(67,70)                1.093          calculate D2E/DX2 analytically  !
 ! R85   R(71,72)                1.0953         calculate D2E/DX2 analytically  !
 ! R86   R(71,73)                1.0988         calculate D2E/DX2 analytically  !
 ! R87   R(71,74)                1.0931         calculate D2E/DX2 analytically  !
 ! R88   R(75,76)                1.0925         calculate D2E/DX2 analytically  !
 ! R89   R(75,77)                1.0962         calculate D2E/DX2 analytically  !
 ! R90   R(75,78)                1.1009         calculate D2E/DX2 analytically  !
 ! R91   R(79,80)                1.0922         calculate D2E/DX2 analytically  !
 ! R92   R(79,81)                1.0956         calculate D2E/DX2 analytically  !
 ! R93   R(79,82)                1.1009         calculate D2E/DX2 analytically  !
 ! R94   R(83,84)                2.2871         calculate D2E/DX2 analytically  !
 ! R95   R(84,85)                1.4297         calculate D2E/DX2 analytically  !
 ! R96   R(84,89)                1.4295         calculate D2E/DX2 analytically  !
 ! R97   R(85,86)                1.0955         calculate D2E/DX2 analytically  !
 ! R98   R(85,87)                1.0916         calculate D2E/DX2 analytically  !
 ! R99   R(85,88)                1.0979         calculate D2E/DX2 analytically  !
 ! R100  R(89,90)                1.098          calculate D2E/DX2 analytically  !
 ! R101  R(89,91)                1.0904         calculate D2E/DX2 analytically  !
 ! R102  R(89,92)                1.0949         calculate D2E/DX2 analytically  !
 ! R103  R(93,94)                1.3507         calculate D2E/DX2 analytically  !
 ! R104  R(93,95)                1.348          calculate D2E/DX2 analytically  !
 ! R105  R(93,96)                1.3541         calculate D2E/DX2 analytically  !
 ! R106  R(97,98)                1.3499         calculate D2E/DX2 analytically  !
 ! R107  R(97,99)                1.353          calculate D2E/DX2 analytically  !
 ! R108  R(97,100)               1.3505         calculate D2E/DX2 analytically  !
 ! A1    A(2,1,5)              109.1271         calculate D2E/DX2 analytically  !
 ! A2    A(2,1,8)              108.6646         calculate D2E/DX2 analytically  !
 ! A3    A(2,1,14)             108.2242         calculate D2E/DX2 analytically  !
 ! A4    A(5,1,8)              109.9992         calculate D2E/DX2 analytically  !
 ! A5    A(5,1,14)             111.3855         calculate D2E/DX2 analytically  !
 ! A6    A(8,1,14)             109.3801         calculate D2E/DX2 analytically  !
 ! A7    A(1,2,3)              110.1868         calculate D2E/DX2 analytically  !
 ! A8    A(1,2,7)              108.4108         calculate D2E/DX2 analytically  !
 ! A9    A(1,2,13)             113.7789         calculate D2E/DX2 analytically  !
 ! A10   A(3,2,7)              106.6588         calculate D2E/DX2 analytically  !
 ! A11   A(3,2,13)             107.7121         calculate D2E/DX2 analytically  !
 ! A12   A(7,2,13)             109.8602         calculate D2E/DX2 analytically  !
 ! A13   A(2,3,6)              109.8913         calculate D2E/DX2 analytically  !
 ! A14   A(2,3,11)             111.4342         calculate D2E/DX2 analytically  !
 ! A15   A(2,3,12)             107.9966         calculate D2E/DX2 analytically  !
 ! A16   A(6,3,11)             105.3161         calculate D2E/DX2 analytically  !
 ! A17   A(6,3,12)             109.4365         calculate D2E/DX2 analytically  !
 ! A18   A(11,3,12)            112.7338         calculate D2E/DX2 analytically  !
 ! A19   A(5,4,9)              109.1698         calculate D2E/DX2 analytically  !
 ! A20   A(5,4,11)             109.3228         calculate D2E/DX2 analytically  !
 ! A21   A(5,4,16)             112.8063         calculate D2E/DX2 analytically  !
 ! A22   A(9,4,11)             108.4626         calculate D2E/DX2 analytically  !
 ! A23   A(9,4,16)             109.9549         calculate D2E/DX2 analytically  !
 ! A24   A(11,4,16)            107.0191         calculate D2E/DX2 analytically  !
 ! A25   A(1,5,4)              111.4633         calculate D2E/DX2 analytically  !
 ! A26   A(1,5,10)             108.5786         calculate D2E/DX2 analytically  !
 ! A27   A(1,5,15)             109.1371         calculate D2E/DX2 analytically  !
 ! A28   A(4,5,10)             108.215          calculate D2E/DX2 analytically  !
 ! A29   A(4,5,15)             109.4651         calculate D2E/DX2 analytically  !
 ! A30   A(10,5,15)            109.9648         calculate D2E/DX2 analytically  !
 ! A31   A(3,6,84)             156.3518         calculate D2E/DX2 analytically  !
 ! A32   A(3,6,86)             106.4877         calculate D2E/DX2 analytically  !
 ! A33   A(84,6,86)             49.8657         calculate D2E/DX2 analytically  !
 ! A34   A(3,11,4)             114.9648         calculate D2E/DX2 analytically  !
 ! A35   A(3,11,37)            122.352          calculate D2E/DX2 analytically  !
 ! A36   A(4,11,37)            105.5649         calculate D2E/DX2 analytically  !
 ! A37   A(3,12,79)            112.9772         calculate D2E/DX2 analytically  !
 ! A38   A(2,13,20)            114.8438         calculate D2E/DX2 analytically  !
 ! A39   A(1,14,24)            114.0819         calculate D2E/DX2 analytically  !
 ! A40   A(5,15,28)            112.5355         calculate D2E/DX2 analytically  !
 ! A41   A(4,16,17)            104.0673         calculate D2E/DX2 analytically  !
 ! A42   A(4,16,18)            103.9168         calculate D2E/DX2 analytically  !
 ! A43   A(4,16,19)            114.4347         calculate D2E/DX2 analytically  !
 ! A44   A(17,16,18)           103.769          calculate D2E/DX2 analytically  !
 ! A45   A(17,16,19)           114.7564         calculate D2E/DX2 analytically  !
 ! A46   A(18,16,19)           114.5387         calculate D2E/DX2 analytically  !
 ! A47   A(16,19,38)           164.2803         calculate D2E/DX2 analytically  !
 ! A48   A(16,19,65)           112.8802         calculate D2E/DX2 analytically  !
 ! A49   A(38,19,65)            59.8251         calculate D2E/DX2 analytically  !
 ! A50   A(13,20,21)           111.1517         calculate D2E/DX2 analytically  !
 ! A51   A(13,20,22)           111.6809         calculate D2E/DX2 analytically  !
 ! A52   A(13,20,23)           106.5176         calculate D2E/DX2 analytically  !
 ! A53   A(21,20,22)           108.6028         calculate D2E/DX2 analytically  !
 ! A54   A(21,20,23)           108.7476         calculate D2E/DX2 analytically  !
 ! A55   A(22,20,23)           110.0937         calculate D2E/DX2 analytically  !
 ! A56   A(20,21,92)           103.733          calculate D2E/DX2 analytically  !
 ! A57   A(14,24,25)           111.3731         calculate D2E/DX2 analytically  !
 ! A58   A(14,24,26)           111.0299         calculate D2E/DX2 analytically  !
 ! A59   A(14,24,27)           106.7593         calculate D2E/DX2 analytically  !
 ! A60   A(25,24,26)           109.0769         calculate D2E/DX2 analytically  !
 ! A61   A(25,24,27)           109.7287         calculate D2E/DX2 analytically  !
 ! A62   A(26,24,27)           108.8168         calculate D2E/DX2 analytically  !
 ! A63   A(15,28,29)           110.6244         calculate D2E/DX2 analytically  !
 ! A64   A(15,28,30)           110.5851         calculate D2E/DX2 analytically  !
 ! A65   A(15,28,31)           106.9507         calculate D2E/DX2 analytically  !
 ! A66   A(29,28,30)           108.8549         calculate D2E/DX2 analytically  !
 ! A67   A(29,28,31)           108.951          calculate D2E/DX2 analytically  !
 ! A68   A(30,28,31)           110.8574         calculate D2E/DX2 analytically  !
 ! A69   A(33,32,36)           108.3156         calculate D2E/DX2 analytically  !
 ! A70   A(33,32,39)           110.4512         calculate D2E/DX2 analytically  !
 ! A71   A(33,32,45)           111.265          calculate D2E/DX2 analytically  !
 ! A72   A(36,32,39)           108.9162         calculate D2E/DX2 analytically  !
 ! A73   A(36,32,45)           107.7879         calculate D2E/DX2 analytically  !
 ! A74   A(39,32,45)           110.0208         calculate D2E/DX2 analytically  !
 ! A75   A(32,33,34)           111.608          calculate D2E/DX2 analytically  !
 ! A76   A(32,33,38)           109.4042         calculate D2E/DX2 analytically  !
 ! A77   A(32,33,44)           110.0402         calculate D2E/DX2 analytically  !
 ! A78   A(34,33,38)           102.785          calculate D2E/DX2 analytically  !
 ! A79   A(34,33,44)           112.1625         calculate D2E/DX2 analytically  !
 ! A80   A(38,33,44)           110.6216         calculate D2E/DX2 analytically  !
 ! A81   A(33,34,37)           117.1386         calculate D2E/DX2 analytically  !
 ! A82   A(33,34,42)           118.2223         calculate D2E/DX2 analytically  !
 ! A83   A(33,34,53)           103.3537         calculate D2E/DX2 analytically  !
 ! A84   A(37,34,42)           111.0058         calculate D2E/DX2 analytically  !
 ! A85   A(37,34,53)           102.6037         calculate D2E/DX2 analytically  !
 ! A86   A(42,34,53)           101.4048         calculate D2E/DX2 analytically  !
 ! A87   A(36,35,40)           108.8827         calculate D2E/DX2 analytically  !
 ! A88   A(36,35,42)           112.3906         calculate D2E/DX2 analytically  !
 ! A89   A(36,35,47)           112.9204         calculate D2E/DX2 analytically  !
 ! A90   A(40,35,42)           107.1114         calculate D2E/DX2 analytically  !
 ! A91   A(40,35,47)           108.7349         calculate D2E/DX2 analytically  !
 ! A92   A(42,35,47)           106.5826         calculate D2E/DX2 analytically  !
 ! A93   A(32,36,35)           111.5861         calculate D2E/DX2 analytically  !
 ! A94   A(32,36,41)           108.7255         calculate D2E/DX2 analytically  !
 ! A95   A(32,36,46)           111.0203         calculate D2E/DX2 analytically  !
 ! A96   A(35,36,41)           108.7077         calculate D2E/DX2 analytically  !
 ! A97   A(35,36,46)           106.0245         calculate D2E/DX2 analytically  !
 ! A98   A(41,36,46)           110.748          calculate D2E/DX2 analytically  !
 ! A99   A(11,37,34)           142.3685         calculate D2E/DX2 analytically  !
 ! A100  A(19,38,33)           122.0073         calculate D2E/DX2 analytically  !
 ! A101  A(34,42,35)           118.6982         calculate D2E/DX2 analytically  !
 ! A102  A(51,43,83)           105.5082         calculate D2E/DX2 analytically  !
 ! A103  A(33,44,63)           115.2793         calculate D2E/DX2 analytically  !
 ! A104  A(32,45,67)           113.9597         calculate D2E/DX2 analytically  !
 ! A105  A(36,46,71)           113.7607         calculate D2E/DX2 analytically  !
 ! A106  A(35,47,48)           108.3632         calculate D2E/DX2 analytically  !
 ! A107  A(35,47,49)           109.1322         calculate D2E/DX2 analytically  !
 ! A108  A(35,47,50)           109.3721         calculate D2E/DX2 analytically  !
 ! A109  A(48,47,49)           108.238          calculate D2E/DX2 analytically  !
 ! A110  A(48,47,50)           110.9051         calculate D2E/DX2 analytically  !
 ! A111  A(49,47,50)           110.7751         calculate D2E/DX2 analytically  !
 ! A112  A(47,50,75)           111.9961         calculate D2E/DX2 analytically  !
 ! A113  A(43,51,52)           114.6647         calculate D2E/DX2 analytically  !
 ! A114  A(43,51,53)           112.2063         calculate D2E/DX2 analytically  !
 ! A115  A(43,51,54)           107.4204         calculate D2E/DX2 analytically  !
 ! A116  A(52,51,53)           108.7366         calculate D2E/DX2 analytically  !
 ! A117  A(52,51,54)           108.2292         calculate D2E/DX2 analytically  !
 ! A118  A(53,51,54)           105.0648         calculate D2E/DX2 analytically  !
 ! A119  A(51,52,91)           111.5706         calculate D2E/DX2 analytically  !
 ! A120  A(34,53,51)           123.4527         calculate D2E/DX2 analytically  !
 ! A121  A(51,54,55)           119.1325         calculate D2E/DX2 analytically  !
 ! A122  A(51,54,56)           118.9235         calculate D2E/DX2 analytically  !
 ! A123  A(55,54,56)           121.9154         calculate D2E/DX2 analytically  !
 ! A124  A(54,55,57)           118.6337         calculate D2E/DX2 analytically  !
 ! A125  A(54,55,58)           120.2612         calculate D2E/DX2 analytically  !
 ! A126  A(57,55,58)           121.053          calculate D2E/DX2 analytically  !
 ! A127  A(54,56,59)           118.5497         calculate D2E/DX2 analytically  !
 ! A128  A(54,56,60)           120.8212         calculate D2E/DX2 analytically  !
 ! A129  A(59,56,60)           120.5907         calculate D2E/DX2 analytically  !
 ! A130  A(55,57,61)           120.6414         calculate D2E/DX2 analytically  !
 ! A131  A(55,57,93)           118.8655         calculate D2E/DX2 analytically  !
 ! A132  A(61,57,93)           120.3236         calculate D2E/DX2 analytically  !
 ! A133  A(56,59,61)           120.7036         calculate D2E/DX2 analytically  !
 ! A134  A(56,59,97)           120.5811         calculate D2E/DX2 analytically  !
 ! A135  A(61,59,97)           118.7111         calculate D2E/DX2 analytically  !
 ! A136  A(57,61,59)           119.5233         calculate D2E/DX2 analytically  !
 ! A137  A(57,61,62)           120.2059         calculate D2E/DX2 analytically  !
 ! A138  A(59,61,62)           120.2693         calculate D2E/DX2 analytically  !
 ! A139  A(44,63,64)           109.8223         calculate D2E/DX2 analytically  !
 ! A140  A(44,63,65)           110.311          calculate D2E/DX2 analytically  !
 ! A141  A(44,63,66)           106.9165         calculate D2E/DX2 analytically  !
 ! A142  A(64,63,65)           107.9035         calculate D2E/DX2 analytically  !
 ! A143  A(64,63,66)           108.9032         calculate D2E/DX2 analytically  !
 ! A144  A(65,63,66)           112.9614         calculate D2E/DX2 analytically  !
 ! A145  A(19,65,63)           138.4074         calculate D2E/DX2 analytically  !
 ! A146  A(45,67,68)           110.9569         calculate D2E/DX2 analytically  !
 ! A147  A(45,67,69)           111.5345         calculate D2E/DX2 analytically  !
 ! A148  A(45,67,70)           106.6693         calculate D2E/DX2 analytically  !
 ! A149  A(68,67,69)           109.1235         calculate D2E/DX2 analytically  !
 ! A150  A(68,67,70)           108.8908         calculate D2E/DX2 analytically  !
 ! A151  A(69,67,70)           109.604          calculate D2E/DX2 analytically  !
 ! A152  A(46,71,72)           111.1288         calculate D2E/DX2 analytically  !
 ! A153  A(46,71,73)           110.9249         calculate D2E/DX2 analytically  !
 ! A154  A(46,71,74)           106.6196         calculate D2E/DX2 analytically  !
 ! A155  A(72,71,73)           109.333          calculate D2E/DX2 analytically  !
 ! A156  A(72,71,74)           109.5956         calculate D2E/DX2 analytically  !
 ! A157  A(73,71,74)           109.1842         calculate D2E/DX2 analytically  !
 ! A158  A(50,75,76)           106.9186         calculate D2E/DX2 analytically  !
 ! A159  A(50,75,77)           110.6364         calculate D2E/DX2 analytically  !
 ! A160  A(50,75,78)           111.2403         calculate D2E/DX2 analytically  !
 ! A161  A(76,75,77)           109.2266         calculate D2E/DX2 analytically  !
 ! A162  A(76,75,78)           109.1322         calculate D2E/DX2 analytically  !
 ! A163  A(77,75,78)           109.6215         calculate D2E/DX2 analytically  !
 ! A164  A(12,79,80)           106.8577         calculate D2E/DX2 analytically  !
 ! A165  A(12,79,81)           111.7526         calculate D2E/DX2 analytically  !
 ! A166  A(12,79,82)           111.0366         calculate D2E/DX2 analytically  !
 ! A167  A(80,79,81)           109.5941         calculate D2E/DX2 analytically  !
 ! A168  A(80,79,82)           108.9801         calculate D2E/DX2 analytically  !
 ! A169  A(81,79,82)           108.5737         calculate D2E/DX2 analytically  !
 ! A170  A(43,83,84)           117.1754         calculate D2E/DX2 analytically  !
 ! A171  A(6,84,83)             79.356          calculate D2E/DX2 analytically  !
 ! A172  A(6,84,85)             90.9476         calculate D2E/DX2 analytically  !
 ! A173  A(6,84,89)             91.6145         calculate D2E/DX2 analytically  !
 ! A174  A(83,84,85)           126.8587         calculate D2E/DX2 analytically  !
 ! A175  A(83,84,89)           120.6971         calculate D2E/DX2 analytically  !
 ! A176  A(85,84,89)           111.6094         calculate D2E/DX2 analytically  !
 ! A177  A(84,85,86)           110.3736         calculate D2E/DX2 analytically  !
 ! A178  A(84,85,87)           107.319          calculate D2E/DX2 analytically  !
 ! A179  A(84,85,88)           110.2642         calculate D2E/DX2 analytically  !
 ! A180  A(86,85,87)           109.8742         calculate D2E/DX2 analytically  !
 ! A181  A(86,85,88)           109.7698         calculate D2E/DX2 analytically  !
 ! A182  A(87,85,88)           109.1994         calculate D2E/DX2 analytically  !
 ! A183  A(6,86,85)             98.566          calculate D2E/DX2 analytically  !
 ! A184  A(84,89,90)           110.3107         calculate D2E/DX2 analytically  !
 ! A185  A(84,89,91)           107.1938         calculate D2E/DX2 analytically  !
 ! A186  A(84,89,92)           110.0586         calculate D2E/DX2 analytically  !
 ! A187  A(90,89,91)           109.8643         calculate D2E/DX2 analytically  !
 ! A188  A(90,89,92)           109.2244         calculate D2E/DX2 analytically  !
 ! A189  A(91,89,92)           110.171          calculate D2E/DX2 analytically  !
 ! A190  A(52,91,89)           151.9528         calculate D2E/DX2 analytically  !
 ! A191  A(21,92,89)           160.5231         calculate D2E/DX2 analytically  !
 ! A192  A(57,93,94)           111.5495         calculate D2E/DX2 analytically  !
 ! A193  A(57,93,95)           112.1098         calculate D2E/DX2 analytically  !
 ! A194  A(57,93,96)           111.0908         calculate D2E/DX2 analytically  !
 ! A195  A(94,93,95)           107.7818         calculate D2E/DX2 analytically  !
 ! A196  A(94,93,96)           106.8756         calculate D2E/DX2 analytically  !
 ! A197  A(95,93,96)           107.1696         calculate D2E/DX2 analytically  !
 ! A198  A(59,97,98)           112.0955         calculate D2E/DX2 analytically  !
 ! A199  A(59,97,99)           111.0281         calculate D2E/DX2 analytically  !
 ! A200  A(59,97,100)          111.7317         calculate D2E/DX2 analytically  !
 ! A201  A(98,97,99)           107.4167         calculate D2E/DX2 analytically  !
 ! A202  A(98,97,100)          107.4354         calculate D2E/DX2 analytically  !
 ! A203  A(99,97,100)          106.8649         calculate D2E/DX2 analytically  !
 ! D1    D(5,1,2,3)            -53.5977         calculate D2E/DX2 analytically  !
 ! D2    D(5,1,2,7)             62.7805         calculate D2E/DX2 analytically  !
 ! D3    D(5,1,2,13)          -174.6764         calculate D2E/DX2 analytically  !
 ! D4    D(8,1,2,3)             66.3518         calculate D2E/DX2 analytically  !
 ! D5    D(8,1,2,7)           -177.27           calculate D2E/DX2 analytically  !
 ! D6    D(8,1,2,13)           -54.7269         calculate D2E/DX2 analytically  !
 ! D7    D(14,1,2,3)          -174.9648         calculate D2E/DX2 analytically  !
 ! D8    D(14,1,2,7)           -58.5865         calculate D2E/DX2 analytically  !
 ! D9    D(14,1,2,13)           63.9565         calculate D2E/DX2 analytically  !
 ! D10   D(2,1,5,4)             54.5012         calculate D2E/DX2 analytically  !
 ! D11   D(2,1,5,10)           -64.6093         calculate D2E/DX2 analytically  !
 ! D12   D(2,1,5,15)           175.5281         calculate D2E/DX2 analytically  !
 ! D13   D(8,1,5,4)            -64.622          calculate D2E/DX2 analytically  !
 ! D14   D(8,1,5,10)           176.2676         calculate D2E/DX2 analytically  !
 ! D15   D(8,1,5,15)            56.405          calculate D2E/DX2 analytically  !
 ! D16   D(14,1,5,4)           173.9272         calculate D2E/DX2 analytically  !
 ! D17   D(14,1,5,10)           54.8167         calculate D2E/DX2 analytically  !
 ! D18   D(14,1,5,15)          -65.0458         calculate D2E/DX2 analytically  !
 ! D19   D(2,1,14,24)         -145.7354         calculate D2E/DX2 analytically  !
 ! D20   D(5,1,14,24)           94.3034         calculate D2E/DX2 analytically  !
 ! D21   D(8,1,14,24)          -27.5071         calculate D2E/DX2 analytically  !
 ! D22   D(1,2,3,6)            171.9828         calculate D2E/DX2 analytically  !
 ! D23   D(1,2,3,11)            55.6349         calculate D2E/DX2 analytically  !
 ! D24   D(1,2,3,12)           -68.7017         calculate D2E/DX2 analytically  !
 ! D25   D(7,2,3,6)             54.5145         calculate D2E/DX2 analytically  !
 ! D26   D(7,2,3,11)           -61.8334         calculate D2E/DX2 analytically  !
 ! D27   D(7,2,3,12)           173.8299         calculate D2E/DX2 analytically  !
 ! D28   D(13,2,3,6)           -63.3786         calculate D2E/DX2 analytically  !
 ! D29   D(13,2,3,11)         -179.7265         calculate D2E/DX2 analytically  !
 ! D30   D(13,2,3,12)           55.9369         calculate D2E/DX2 analytically  !
 ! D31   D(1,2,13,20)          -86.4451         calculate D2E/DX2 analytically  !
 ! D32   D(3,2,13,20)          151.1039         calculate D2E/DX2 analytically  !
 ! D33   D(7,2,13,20)           35.2976         calculate D2E/DX2 analytically  !
 ! D34   D(2,3,6,84)            72.6085         calculate D2E/DX2 analytically  !
 ! D35   D(2,3,6,86)            73.2115         calculate D2E/DX2 analytically  !
 ! D36   D(11,3,6,84)         -167.2577         calculate D2E/DX2 analytically  !
 ! D37   D(11,3,6,86)         -166.6547         calculate D2E/DX2 analytically  !
 ! D38   D(12,3,6,84)          -45.8222         calculate D2E/DX2 analytically  !
 ! D39   D(12,3,6,86)          -45.2192         calculate D2E/DX2 analytically  !
 ! D40   D(2,3,11,4)           -58.7632         calculate D2E/DX2 analytically  !
 ! D41   D(2,3,11,37)           71.4233         calculate D2E/DX2 analytically  !
 ! D42   D(6,3,11,4)          -177.8736         calculate D2E/DX2 analytically  !
 ! D43   D(6,3,11,37)          -47.6872         calculate D2E/DX2 analytically  !
 ! D44   D(12,3,11,4)           62.8627         calculate D2E/DX2 analytically  !
 ! D45   D(12,3,11,37)        -166.9509         calculate D2E/DX2 analytically  !
 ! D46   D(2,3,12,79)         -177.7981         calculate D2E/DX2 analytically  !
 ! D47   D(6,3,12,79)          -58.1949         calculate D2E/DX2 analytically  !
 ! D48   D(11,3,12,79)          58.6487         calculate D2E/DX2 analytically  !
 ! D49   D(9,4,5,1)             63.6819         calculate D2E/DX2 analytically  !
 ! D50   D(9,4,5,10)          -176.9914         calculate D2E/DX2 analytically  !
 ! D51   D(9,4,5,15)           -57.1533         calculate D2E/DX2 analytically  !
 ! D52   D(11,4,5,1)           -54.82           calculate D2E/DX2 analytically  !
 ! D53   D(11,4,5,10)           64.5066         calculate D2E/DX2 analytically  !
 ! D54   D(11,4,5,15)         -175.6553         calculate D2E/DX2 analytically  !
 ! D55   D(16,4,5,1)          -173.761          calculate D2E/DX2 analytically  !
 ! D56   D(16,4,5,10)          -54.4343         calculate D2E/DX2 analytically  !
 ! D57   D(16,4,5,15)           65.4037         calculate D2E/DX2 analytically  !
 ! D58   D(5,4,11,3)            57.7532         calculate D2E/DX2 analytically  !
 ! D59   D(5,4,11,37)          -80.1848         calculate D2E/DX2 analytically  !
 ! D60   D(9,4,11,3)           -61.1885         calculate D2E/DX2 analytically  !
 ! D61   D(9,4,11,37)          160.8734         calculate D2E/DX2 analytically  !
 ! D62   D(16,4,11,3)         -179.7742         calculate D2E/DX2 analytically  !
 ! D63   D(16,4,11,37)          42.2878         calculate D2E/DX2 analytically  !
 ! D64   D(5,4,16,17)          -76.7261         calculate D2E/DX2 analytically  !
 ! D65   D(5,4,16,18)          174.9206         calculate D2E/DX2 analytically  !
 ! D66   D(5,4,16,19)           49.2911         calculate D2E/DX2 analytically  !
 ! D67   D(9,4,16,17)           45.3903         calculate D2E/DX2 analytically  !
 ! D68   D(9,4,16,18)          -62.9631         calculate D2E/DX2 analytically  !
 ! D69   D(9,4,16,19)          171.4075         calculate D2E/DX2 analytically  !
 ! D70   D(11,4,16,17)         163.0021         calculate D2E/DX2 analytically  !
 ! D71   D(11,4,16,18)          54.6488         calculate D2E/DX2 analytically  !
 ! D72   D(11,4,16,19)         -70.9807         calculate D2E/DX2 analytically  !
 ! D73   D(1,5,15,28)          136.3233         calculate D2E/DX2 analytically  !
 ! D74   D(4,5,15,28)         -101.4392         calculate D2E/DX2 analytically  !
 ! D75   D(10,5,15,28)          17.3197         calculate D2E/DX2 analytically  !
 ! D76   D(3,6,84,83)          144.1887         calculate D2E/DX2 analytically  !
 ! D77   D(3,6,84,85)           16.7927         calculate D2E/DX2 analytically  !
 ! D78   D(3,6,84,89)          -94.8576         calculate D2E/DX2 analytically  !
 ! D79   D(86,6,84,83)         143.4324         calculate D2E/DX2 analytically  !
 ! D80   D(86,6,84,85)          16.0364         calculate D2E/DX2 analytically  !
 ! D81   D(86,6,84,89)         -95.6138         calculate D2E/DX2 analytically  !
 ! D82   D(3,6,86,85)          158.9385         calculate D2E/DX2 analytically  !
 ! D83   D(84,6,86,85)         -21.3779         calculate D2E/DX2 analytically  !
 ! D84   D(3,11,37,34)         -53.3061         calculate D2E/DX2 analytically  !
 ! D85   D(4,11,37,34)          80.7272         calculate D2E/DX2 analytically  !
 ! D86   D(3,12,79,80)         173.5719         calculate D2E/DX2 analytically  !
 ! D87   D(3,12,79,81)         -66.5481         calculate D2E/DX2 analytically  !
 ! D88   D(3,12,79,82)          54.844          calculate D2E/DX2 analytically  !
 ! D89   D(2,13,20,21)         -53.5759         calculate D2E/DX2 analytically  !
 ! D90   D(2,13,20,22)          67.8845         calculate D2E/DX2 analytically  !
 ! D91   D(2,13,20,23)        -171.8823         calculate D2E/DX2 analytically  !
 ! D92   D(1,14,24,25)         -59.9038         calculate D2E/DX2 analytically  !
 ! D93   D(1,14,24,26)          61.8642         calculate D2E/DX2 analytically  !
 ! D94   D(1,14,24,27)        -179.6679         calculate D2E/DX2 analytically  !
 ! D95   D(5,15,28,29)         -75.9231         calculate D2E/DX2 analytically  !
 ! D96   D(5,15,28,30)          44.7545         calculate D2E/DX2 analytically  !
 ! D97   D(5,15,28,31)         165.5566         calculate D2E/DX2 analytically  !
 ! D98   D(4,16,19,38)          70.9389         calculate D2E/DX2 analytically  !
 ! D99   D(4,16,19,65)         129.9882         calculate D2E/DX2 analytically  !
 ! D100  D(17,16,19,38)       -168.8284         calculate D2E/DX2 analytically  !
 ! D101  D(17,16,19,65)       -109.7792         calculate D2E/DX2 analytically  !
 ! D102  D(18,16,19,38)        -48.9178         calculate D2E/DX2 analytically  !
 ! D103  D(18,16,19,65)         10.1314         calculate D2E/DX2 analytically  !
 ! D104  D(16,19,38,33)         -9.8709         calculate D2E/DX2 analytically  !
 ! D105  D(65,19,38,33)        -75.9324         calculate D2E/DX2 analytically  !
 ! D106  D(16,19,65,63)        -97.4595         calculate D2E/DX2 analytically  !
 ! D107  D(38,19,65,63)         66.9492         calculate D2E/DX2 analytically  !
 ! D108  D(13,20,21,92)        -40.8873         calculate D2E/DX2 analytically  !
 ! D109  D(22,20,21,92)       -164.1304         calculate D2E/DX2 analytically  !
 ! D110  D(23,20,21,92)         76.0649         calculate D2E/DX2 analytically  !
 ! D111  D(20,21,92,89)       -135.3122         calculate D2E/DX2 analytically  !
 ! D112  D(36,32,33,34)        -51.1746         calculate D2E/DX2 analytically  !
 ! D113  D(36,32,33,38)         61.8965         calculate D2E/DX2 analytically  !
 ! D114  D(36,32,33,44)       -176.3709         calculate D2E/DX2 analytically  !
 ! D115  D(39,32,33,34)         68.0279         calculate D2E/DX2 analytically  !
 ! D116  D(39,32,33,38)       -178.901          calculate D2E/DX2 analytically  !
 ! D117  D(39,32,33,44)        -57.1685         calculate D2E/DX2 analytically  !
 ! D118  D(45,32,33,34)       -169.4776         calculate D2E/DX2 analytically  !
 ! D119  D(45,32,33,38)        -56.4065         calculate D2E/DX2 analytically  !
 ! D120  D(45,32,33,44)         65.3261         calculate D2E/DX2 analytically  !
 ! D121  D(33,32,36,35)         55.1432         calculate D2E/DX2 analytically  !
 ! D122  D(33,32,36,41)        -64.7461         calculate D2E/DX2 analytically  !
 ! D123  D(33,32,36,46)        173.1819         calculate D2E/DX2 analytically  !
 ! D124  D(39,32,36,35)        -65.0226         calculate D2E/DX2 analytically  !
 ! D125  D(39,32,36,41)        175.0881         calculate D2E/DX2 analytically  !
 ! D126  D(39,32,36,46)         53.0161         calculate D2E/DX2 analytically  !
 ! D127  D(45,32,36,35)        175.6353         calculate D2E/DX2 analytically  !
 ! D128  D(45,32,36,41)         55.746          calculate D2E/DX2 analytically  !
 ! D129  D(45,32,36,46)        -66.326          calculate D2E/DX2 analytically  !
 ! D130  D(33,32,45,67)        -95.6793         calculate D2E/DX2 analytically  !
 ! D131  D(36,32,45,67)        145.7004         calculate D2E/DX2 analytically  !
 ! D132  D(39,32,45,67)         27.0631         calculate D2E/DX2 analytically  !
 ! D133  D(32,33,34,37)       -177.1306         calculate D2E/DX2 analytically  !
 ! D134  D(32,33,34,42)         45.7937         calculate D2E/DX2 analytically  !
 ! D135  D(32,33,34,53)        -65.1872         calculate D2E/DX2 analytically  !
 ! D136  D(38,33,34,37)         65.7202         calculate D2E/DX2 analytically  !
 ! D137  D(38,33,34,42)        -71.3555         calculate D2E/DX2 analytically  !
 ! D138  D(38,33,34,53)        177.6636         calculate D2E/DX2 analytically  !
 ! D139  D(44,33,34,37)        -53.1214         calculate D2E/DX2 analytically  !
 ! D140  D(44,33,34,42)        169.8029         calculate D2E/DX2 analytically  !
 ! D141  D(44,33,34,53)         58.822          calculate D2E/DX2 analytically  !
 ! D142  D(32,33,38,19)       -153.4115         calculate D2E/DX2 analytically  !
 ! D143  D(34,33,38,19)        -34.7073         calculate D2E/DX2 analytically  !
 ! D144  D(44,33,38,19)         85.2066         calculate D2E/DX2 analytically  !
 ! D145  D(32,33,44,63)       -158.6975         calculate D2E/DX2 analytically  !
 ! D146  D(34,33,44,63)         76.4238         calculate D2E/DX2 analytically  !
 ! D147  D(38,33,44,63)        -37.6922         calculate D2E/DX2 analytically  !
 ! D148  D(33,34,37,11)       -141.5841         calculate D2E/DX2 analytically  !
 ! D149  D(42,34,37,11)         -1.5841         calculate D2E/DX2 analytically  !
 ! D150  D(53,34,37,11)        106.0479         calculate D2E/DX2 analytically  !
 ! D151  D(33,34,42,35)        -41.575          calculate D2E/DX2 analytically  !
 ! D152  D(37,34,42,35)        178.906          calculate D2E/DX2 analytically  !
 ! D153  D(53,34,42,35)         70.4905         calculate D2E/DX2 analytically  !
 ! D154  D(33,34,53,51)        -92.3088         calculate D2E/DX2 analytically  !
 ! D155  D(37,34,53,51)         29.9317         calculate D2E/DX2 analytically  !
 ! D156  D(42,34,53,51)        144.7547         calculate D2E/DX2 analytically  !
 ! D157  D(40,35,36,32)         68.2754         calculate D2E/DX2 analytically  !
 ! D158  D(40,35,36,41)       -171.8248         calculate D2E/DX2 analytically  !
 ! D159  D(40,35,36,46)        -52.7207         calculate D2E/DX2 analytically  !
 ! D160  D(42,35,36,32)        -50.2294         calculate D2E/DX2 analytically  !
 ! D161  D(42,35,36,41)         69.6704         calculate D2E/DX2 analytically  !
 ! D162  D(42,35,36,46)       -171.2256         calculate D2E/DX2 analytically  !
 ! D163  D(47,35,36,32)       -170.8484         calculate D2E/DX2 analytically  !
 ! D164  D(47,35,36,41)        -50.9486         calculate D2E/DX2 analytically  !
 ! D165  D(47,35,36,46)         68.1554         calculate D2E/DX2 analytically  !
 ! D166  D(36,35,42,34)         43.1432         calculate D2E/DX2 analytically  !
 ! D167  D(40,35,42,34)        -76.3988         calculate D2E/DX2 analytically  !
 ! D168  D(47,35,42,34)        167.349          calculate D2E/DX2 analytically  !
 ! D169  D(36,35,47,48)        -69.3538         calculate D2E/DX2 analytically  !
 ! D170  D(36,35,47,49)        172.9885         calculate D2E/DX2 analytically  !
 ! D171  D(36,35,47,50)         51.6598         calculate D2E/DX2 analytically  !
 ! D172  D(40,35,47,48)         51.6064         calculate D2E/DX2 analytically  !
 ! D173  D(40,35,47,49)        -66.0514         calculate D2E/DX2 analytically  !
 ! D174  D(40,35,47,50)        172.62           calculate D2E/DX2 analytically  !
 ! D175  D(42,35,47,48)        166.7679         calculate D2E/DX2 analytically  !
 ! D176  D(42,35,47,49)         49.1101         calculate D2E/DX2 analytically  !
 ! D177  D(42,35,47,50)        -72.2185         calculate D2E/DX2 analytically  !
 ! D178  D(32,36,46,71)        104.3907         calculate D2E/DX2 analytically  !
 ! D179  D(35,36,46,71)       -134.2486         calculate D2E/DX2 analytically  !
 ! D180  D(41,36,46,71)        -16.4962         calculate D2E/DX2 analytically  !
 ! D181  D(83,43,51,52)          8.1258         calculate D2E/DX2 analytically  !
 ! D182  D(83,43,51,53)       -116.5715         calculate D2E/DX2 analytically  !
 ! D183  D(83,43,51,54)        128.4476         calculate D2E/DX2 analytically  !
 ! D184  D(51,43,83,84)         63.957          calculate D2E/DX2 analytically  !
 ! D185  D(33,44,63,64)        -98.042          calculate D2E/DX2 analytically  !
 ! D186  D(33,44,63,65)         20.7649         calculate D2E/DX2 analytically  !
 ! D187  D(33,44,63,66)        143.9509         calculate D2E/DX2 analytically  !
 ! D188  D(32,45,67,68)        -59.575          calculate D2E/DX2 analytically  !
 ! D189  D(32,45,67,69)         62.3137         calculate D2E/DX2 analytically  !
 ! D190  D(32,45,67,70)       -178.0379         calculate D2E/DX2 analytically  !
 ! D191  D(36,46,71,72)        -61.7536         calculate D2E/DX2 analytically  !
 ! D192  D(36,46,71,73)         60.0993         calculate D2E/DX2 analytically  !
 ! D193  D(36,46,71,74)        178.868          calculate D2E/DX2 analytically  !
 ! D194  D(35,47,50,75)        175.092          calculate D2E/DX2 analytically  !
 ! D195  D(48,47,50,75)        -65.4504         calculate D2E/DX2 analytically  !
 ! D196  D(49,47,50,75)         54.7629         calculate D2E/DX2 analytically  !
 ! D197  D(47,50,75,76)        179.5449         calculate D2E/DX2 analytically  !
 ! D198  D(47,50,75,77)        -61.6156         calculate D2E/DX2 analytically  !
 ! D199  D(47,50,75,78)         60.4818         calculate D2E/DX2 analytically  !
 ! D200  D(43,51,52,91)        -72.0988         calculate D2E/DX2 analytically  !
 ! D201  D(53,51,52,91)         54.4079         calculate D2E/DX2 analytically  !
 ! D202  D(54,51,52,91)        168.0281         calculate D2E/DX2 analytically  !
 ! D203  D(43,51,53,34)        -22.8003         calculate D2E/DX2 analytically  !
 ! D204  D(52,51,53,34)       -150.7107         calculate D2E/DX2 analytically  !
 ! D205  D(54,51,53,34)         93.6071         calculate D2E/DX2 analytically  !
 ! D206  D(43,51,54,55)        -10.8821         calculate D2E/DX2 analytically  !
 ! D207  D(43,51,54,56)        167.2064         calculate D2E/DX2 analytically  !
 ! D208  D(52,51,54,55)        113.4381         calculate D2E/DX2 analytically  !
 ! D209  D(52,51,54,56)        -68.4734         calculate D2E/DX2 analytically  !
 ! D210  D(53,51,54,55)       -130.5297         calculate D2E/DX2 analytically  !
 ! D211  D(53,51,54,56)         47.5588         calculate D2E/DX2 analytically  !
 ! D212  D(51,52,91,89)         76.0532         calculate D2E/DX2 analytically  !
 ! D213  D(51,54,55,57)        175.9938         calculate D2E/DX2 analytically  !
 ! D214  D(51,54,55,58)         -1.407          calculate D2E/DX2 analytically  !
 ! D215  D(56,54,55,57)         -2.0352         calculate D2E/DX2 analytically  !
 ! D216  D(56,54,55,58)       -179.4359         calculate D2E/DX2 analytically  !
 ! D217  D(51,54,56,59)       -176.2364         calculate D2E/DX2 analytically  !
 ! D218  D(51,54,56,60)          1.5233         calculate D2E/DX2 analytically  !
 ! D219  D(55,54,56,59)          1.7966         calculate D2E/DX2 analytically  !
 ! D220  D(55,54,56,60)        179.5562         calculate D2E/DX2 analytically  !
 ! D221  D(54,55,57,61)          0.7617         calculate D2E/DX2 analytically  !
 ! D222  D(54,55,57,93)       -174.5227         calculate D2E/DX2 analytically  !
 ! D223  D(58,55,57,61)        178.141          calculate D2E/DX2 analytically  !
 ! D224  D(58,55,57,93)          2.8567         calculate D2E/DX2 analytically  !
 ! D225  D(54,56,59,61)         -0.2796         calculate D2E/DX2 analytically  !
 ! D226  D(54,56,59,97)        178.9675         calculate D2E/DX2 analytically  !
 ! D227  D(60,56,59,61)       -178.0445         calculate D2E/DX2 analytically  !
 ! D228  D(60,56,59,97)          1.2025         calculate D2E/DX2 analytically  !
 ! D229  D(55,57,61,59)          0.6906         calculate D2E/DX2 analytically  !
 ! D230  D(55,57,61,62)       -178.8611         calculate D2E/DX2 analytically  !
 ! D231  D(93,57,61,59)        175.9061         calculate D2E/DX2 analytically  !
 ! D232  D(93,57,61,62)         -3.6455         calculate D2E/DX2 analytically  !
 ! D233  D(55,57,93,94)        -38.1369         calculate D2E/DX2 analytically  !
 ! D234  D(55,57,93,95)       -159.1237         calculate D2E/DX2 analytically  !
 ! D235  D(55,57,93,96)         80.9955         calculate D2E/DX2 analytically  !
 ! D236  D(61,57,93,94)        146.5633         calculate D2E/DX2 analytically  !
 ! D237  D(61,57,93,95)         25.5765         calculate D2E/DX2 analytically  !
 ! D238  D(61,57,93,96)        -94.3042         calculate D2E/DX2 analytically  !
 ! D239  D(56,59,61,57)         -0.9352         calculate D2E/DX2 analytically  !
 ! D240  D(56,59,61,62)        178.6161         calculate D2E/DX2 analytically  !
 ! D241  D(97,59,61,57)        179.8039         calculate D2E/DX2 analytically  !
 ! D242  D(97,59,61,62)         -0.6448         calculate D2E/DX2 analytically  !
 ! D243  D(56,59,97,98)        -11.2794         calculate D2E/DX2 analytically  !
 ! D244  D(56,59,97,99)       -131.4222         calculate D2E/DX2 analytically  !
 ! D245  D(56,59,97,100)       109.3802         calculate D2E/DX2 analytically  !
 ! D246  D(61,59,97,98)        167.9825         calculate D2E/DX2 analytically  !
 ! D247  D(61,59,97,99)         47.8397         calculate D2E/DX2 analytically  !
 ! D248  D(61,59,97,100)       -71.358          calculate D2E/DX2 analytically  !
 ! D249  D(44,63,65,19)        -56.4637         calculate D2E/DX2 analytically  !
 ! D250  D(64,63,65,19)         63.5073         calculate D2E/DX2 analytically  !
 ! D251  D(66,63,65,19)       -176.0533         calculate D2E/DX2 analytically  !
 ! D252  D(43,83,84,6)          43.6384         calculate D2E/DX2 analytically  !
 ! D253  D(43,83,84,85)        126.754          calculate D2E/DX2 analytically  !
 ! D254  D(43,83,84,89)        -41.8743         calculate D2E/DX2 analytically  !
 ! D255  D(6,84,85,86)         -30.7231         calculate D2E/DX2 analytically  !
 ! D256  D(6,84,85,87)          88.9908         calculate D2E/DX2 analytically  !
 ! D257  D(6,84,85,88)        -152.1715         calculate D2E/DX2 analytically  !
 ! D258  D(83,84,85,86)       -108.1033         calculate D2E/DX2 analytically  !
 ! D259  D(83,84,85,87)         11.6106         calculate D2E/DX2 analytically  !
 ! D260  D(83,84,85,88)        130.4483         calculate D2E/DX2 analytically  !
 ! D261  D(89,84,85,86)         61.3893         calculate D2E/DX2 analytically  !
 ! D262  D(89,84,85,87)       -178.8967         calculate D2E/DX2 analytically  !
 ! D263  D(89,84,85,88)        -60.0591         calculate D2E/DX2 analytically  !
 ! D264  D(6,84,89,90)         153.3646         calculate D2E/DX2 analytically  !
 ! D265  D(6,84,89,91)         -87.0449         calculate D2E/DX2 analytically  !
 ! D266  D(6,84,89,92)          32.7731         calculate D2E/DX2 analytically  !
 ! D267  D(83,84,89,90)       -128.0646         calculate D2E/DX2 analytically  !
 ! D268  D(83,84,89,91)         -8.4741         calculate D2E/DX2 analytically  !
 ! D269  D(83,84,89,92)        111.3439         calculate D2E/DX2 analytically  !
 ! D270  D(85,84,89,90)         61.7051         calculate D2E/DX2 analytically  !
 ! D271  D(85,84,89,91)       -178.7044         calculate D2E/DX2 analytically  !
 ! D272  D(85,84,89,92)        -58.8864         calculate D2E/DX2 analytically  !
 ! D273  D(84,85,86,6)          30.6843         calculate D2E/DX2 analytically  !
 ! D274  D(87,85,86,6)         -87.4743         calculate D2E/DX2 analytically  !
 ! D275  D(88,85,86,6)         152.4256         calculate D2E/DX2 analytically  !
 ! D276  D(84,89,91,52)          3.624          calculate D2E/DX2 analytically  !
 ! D277  D(90,89,91,52)        123.5004         calculate D2E/DX2 analytically  !
 ! D278  D(92,89,91,52)       -116.122          calculate D2E/DX2 analytically  !
 ! D279  D(84,89,92,21)        164.9099         calculate D2E/DX2 analytically  !
 ! D280  D(90,89,92,21)         43.6665         calculate D2E/DX2 analytically  !
 ! D281  D(91,89,92,21)        -77.0957         calculate D2E/DX2 analytically  !
 --------------------------------------------------------------------------------
 Trust Radius=3.00D-02 FncErr=1.00D-07 GrdErr=1.00D-06 EigMax=2.50D+02 EigMin=1.00D-04
 Number of steps in this run=    600 maximum allowed number of steps=    600.
 Search for a saddle point of order  1.
 Step   0 in ReCalcFC=30 IGetFC= 4 compute analytic Hessian.
 GradGradGradGradGradGradGradGradGradGradGradGradGradGradGradGradGradGrad

 Leave Link  103 at Thu May 23 22:38:16 2019, MaxMem=  6442450944 cpu:               4.8 elap:               0.2
 (Enter /home/ekwan/sw/g16/l202.exe)
 Stoichiometry    C30H47F6NaO15S
 Framework group  C1[X(C30H47F6NaO15S)]
 Deg. of freedom   294
 Full point group                 C1      NOp   1
 Largest Abelian subgroup         C1      NOp   1
 Largest concise Abelian subgroup C1      NOp   1
                         Standard orientation:                         
 ---------------------------------------------------------------------
 Center     Atomic      Atomic             Coordinates (Angstroms)
 Number     Number       Type             X           Y           Z
 ---------------------------------------------------------------------
      1          6           0        4.864065   -0.077455    0.546571
      2          6           0        4.063590   -0.864620   -0.494002
      3          6           0        3.270815   -1.986198    0.186241
      4          6           0        3.133847   -0.770968    2.258865
      5          6           0        3.918775    0.397304    1.652148
      6          1           0        2.592051   -2.454413   -0.536312
      7          1           0        3.326978   -0.189378   -0.948111
      8          1           0        5.635030   -0.735965    0.968685
      9          1           0        3.836154   -1.463695    2.746300
     10          1           0        3.203401    1.101745    1.219971
     11          8           0        2.442791   -1.485473    1.201855
     12          8           0        4.191847   -2.947845    0.657343
     13          8           0        4.867053   -1.456258   -1.508558
     14          8           0        5.490999    1.025283   -0.112296
     15          8           0        4.680554    1.041486    2.675201
     16          6           0        2.060008   -0.310114    3.270366
     17          1           0        2.646142   -0.059540    4.195795
     18          1           0        1.520416   -1.259589    3.543841
     19          8           0        1.258650    0.681789    2.822024
     20          6           0        5.151767   -0.609500   -2.614768
     21          1           0        4.227336   -0.195410   -3.046418
     22          1           0        5.805651    0.218837   -2.331311
     23          1           0        5.641520   -1.234387   -3.366638
     24          6           0        6.765665    1.365924    0.413429
     25          1           0        6.700556    1.640722    1.470232
     26          1           0        7.474666    0.531769    0.301728
     27          1           0        7.129104    2.218055   -0.167906
     28          6           0        4.072477    2.249486    3.131390
     29          1           0        4.217987    3.057333    2.398713
     30          1           0        2.996870    2.103958    3.289648
     31          1           0        4.570403    2.523962    4.066753
     32          6           0       -1.182414    2.562732    0.018037
     33          6           0       -0.737258    1.410568    0.914597
     34          6           0        0.315082    0.552924    0.240217
     35          6           0        1.041432    2.343773   -1.169924
     36          6           0        0.063310    3.296844   -0.474205
     37          1           0        0.660075   -0.318880    0.778708
     38          1           0       -0.203154    1.811032    1.783967
     39          1           0       -1.736888    2.181664   -0.849283
     40          1           0        0.594634    2.001014   -2.109551
     41          1           0        0.566801    3.750560    0.385832
     42          8           0        1.322417    1.162268   -0.374566
     43          8           0       -0.716728   -2.383437    0.024634
     44          8           0       -1.856076    0.656366    1.323331
     45          8           0       -1.979671    3.493432    0.733717
     46          8           0       -0.274452    4.283758   -1.437556
     47          6           0        2.378942    2.988891   -1.473681
     48          1           0        2.229940    3.740326   -2.262995
     49          1           0        3.070698    2.222741   -1.853893
     50          8           0        2.888512    3.585504   -0.299814
     51         16           0       -1.258549   -1.514667   -1.048204
     52          8           0       -1.246525   -2.119091   -2.395662
     53          8           0       -0.540944   -0.147832   -1.110962
     54          6           0       -2.950081   -1.131708   -0.622818
     55          6           0       -3.558309   -1.822386    0.414675
     56          6           0       -3.607014   -0.118298   -1.318102
     57          6           0       -4.851109   -1.456984    0.794307
     58          1           0       -3.019759   -2.598829    0.942686
     59          6           0       -4.895524    0.227253   -0.928306
     60          1           0       -3.112610    0.414396   -2.120745
     61          6           0       -5.520732   -0.431769    0.134337
     62          1           0       -6.516861   -0.141585    0.446781
     63          6           0       -1.664528   -0.132432    2.510668
     64          1           0       -1.431437   -1.168231    2.235472
     65          1           0       -0.823730    0.258219    3.095457
     66          1           0       -2.610352   -0.115941    3.059739
     67          6           0       -3.378516    3.281567    0.595643
     68          1           0       -3.684034    3.348967   -0.457295
     69          1           0       -3.678650    2.307332    0.994480
     70          1           0       -3.873195    4.076755    1.159252
     71          6           0       -0.236411    5.613919   -0.933300
     72          1           0       -0.960310    5.749683   -0.122625
     73          1           0        0.768976    5.867030   -0.569386
     74          1           0       -0.492644    6.271991   -1.767606
     75          6           0        4.191707    4.110257   -0.493346
     76          1           0        4.499430    4.555252    0.455736
     77          1           0        4.893513    3.312264   -0.762256
     78          1           0        4.197306    4.886160   -1.274274
     79          6           0        3.563423   -4.065158    1.266130
     80          1           0        4.350117   -4.790228    1.485788
     81          1           0        3.050623   -3.787132    2.193550
     82          1           0        2.831410   -4.526287    0.585369
     83         11           0        0.192766   -4.226860   -1.067206
     84          8           0        1.967356   -3.845977   -2.458796
     85          6           0        3.237695   -4.501100   -2.427561
     86          1           0        4.009204   -3.819532   -2.052812
     87          1           0        3.144392   -5.359337   -1.759453
     88          1           0        3.508889   -4.852947   -3.431599
     89          6           0        1.979660   -2.714898   -3.332925
     90          1           0        2.194705   -3.031017   -4.362258
     91          1           0        0.990224   -2.259197   -3.284336
     92          1           0        2.741674   -1.998350   -3.009187
     93          6           0       -5.468350   -2.116201    1.997270
     94          9           0       -5.141594   -3.424848    2.068151
     95          9           0       -6.813460   -2.027539    1.990125
     96          9           0       -5.035880   -1.540389    3.144009
     97          6           0       -5.638229    1.330355   -1.632045
     98          9           0       -4.834316    2.042407   -2.449906
     99          9           0       -6.179823    2.194899   -0.743276
    100          9           0       -6.654465    0.850407   -2.380917
 ---------------------------------------------------------------------
[...]
 00499,0.00001563,0.00001373,-0.00000404,-0.00001666,-0.00000211,0.0000
 0587,0.00003392,0.00004493,0.00001296,-0.00311463,-0.00002092,0.001487
 77,0.00074299,-0.00029309,-0.00071986,0.00132591,0.00099268,0.00021990
 ,0.00232705,-0.00006446,0.00066458,0.00071182,-0.00059140,-0.00015785,
 -0.00179143,-0.00533013,0.00353928,0.00022891,0.00010881,0.00024390,-0
 .00005109,0.00001738,0.00000905,0.02678069,-0.02571683,-0.02480856,-0.
 00030992,-0.00015166,-0.00045651,0.00128125,0.00001948,-0.00096225,-0.
 00003703,-0.00115030,-0.00004097,0.00016761,-0.00000380,-0.00003403,-0
 .00009555,0.00008179,-0.00003441,-0.00005778,0.00003293,0.00000771,-0.
 00002003,-0.00004991,-0.00003150,0.00051488,0.00004909,0.00140412,0.00
 010009,0.00014898,-0.00107811,0.00017090,-0.00026435,0.00011495,0.0001
 0119,0.00006921,0.00002803,0.00003836,-0.00007190,-0.00005303,-0.00000
 312,0.00002646,0.00003069,-0.00001474,0.00000778,0.00000785,0.00000411
 ,0.00001236,-0.00000146,-0.00002117,-0.00001598,0.00000451,0.00000612,
 0.00000180,0.00000403,0.00000082,0.00000098,0.00000022,0.00000367,0.00
 000416,-0.00000604,-0.00001199,0.00000124,-0.00001186,0.00000673,-0.00
 000458,0.00000123,-0.00000580,-0.00000080,-0.00000403,0.00001054,0.000
 00363,0.00001273,-0.00014762,0.00022714,0.00002818,0.00007495,-0.00003
 269,-0.00001467,-0.00005627,0.00003210,-0.00000574,0.00000769,-0.00000
 055,0.00000040,-0.00000015,-0.00000849,0.00000750,0.00000816,-0.000005
 39,-0.00000683,-0.00003794,0.00002404,-0.00000140,0.00001326,-0.000012
 60,-0.00000856,-0.00002333,-0.00001054,0.00003329,0.00000867,-0.000001
 41,0.00000392,0.00098019,0.00066530,-0.00190452,-0.00013032,-0.0005065
 7,0.00045573,-0.00053807,-0.00014607,0.00041931,-0.00007396,0.00003272
 ,0.00083068,0.05781975,-0.16648992,-0.06621695,0.00003099,0.02201622,0
 .00060280,-0.07651713,0.20019533,0.00000345,-0.00000096,-0.00000624,-0
 .00000063,-0.00000396,-0.00001558,0.00000536,-0.00001042,-0.00002813,-
 0.00000705,-0.00000545,-0.00001038,0.00000067,-0.00000302,-0.00000750,
 0.00000174,0.00000375,0.00000258,0.00000093,-0.00000213,-0.00000044,-0
 .00000022,0.00000026,0.00000120,-0.00000114,0.00000203,0.00000134,0.00
 000301,0.00000004,-0.00000237,-0.00000748,0.00001564,0.00002669,-0.000
 00113,0.00000333,0.00001281,-0.00000132,0.00000051,0.00002569,-0.00000
 250,0.00000074,0.00001058,-0.00000636,0.00001429,0.00001489,0.00002175
 ,-0.00002629,0.00000306,-0.00000244,0.00000202,-0.00000053,-0.00000031
 ,0.00000531,-0.00000054,-0.00005230,0.00002987,0.00001074,-0.00000812,
 0.00001001,-0.00001468,0.00000487,-0.00000300,0.00000185,0.00000250,-0
 .00000073,0.00000020,-0.00000131,0.00000006,0.00000126,-0.00000107,-0.
 00000102,-0.00000352,0.00000112,0.00000065,0.00000158,-0.00000039,0.00
 000070,-0.00000013,-0.00000019,-0.00000096,-0.00000028,0.00000840,-0.0
 0000850,-0.00000710,-0.00000015,0.00000008,0.00000047,0.00000124,-0.00
 000161,0.00000119,0.00000065,0.00000118,0.00000106,0.00023455,-0.00042
 767,-0.00040734,0.00007078,0.00007650,0.00003110,-0.00002988,-0.000083
 18,-0.00018987,-0.00002152,-0.00005770,-0.00005366,-0.00000983,0.00010
 435,-0.00002505,-0.00000614,0.00001016,0.00001990,-0.00000014,-0.00001
 276,0.00001743,0.00002506,0.00004031,0.00004040,-0.00000416,0.00000625
 ,0.00001415,0.00001568,0.00000729,0.00001081,-0.00001371,0.00001635,0.
 00006198,0.00005536,-0.00001076,0.00011624,-0.00011760,0.00006402,0.00
 001343,-0.00074711,-0.00008467,0.00000996,-0.00000030,-0.00001458,0.00
 006941,-0.00001410,0.00001504,-0.00001374,0.00000049,-0.00000725,0.000
 00437,-0.00001400,-0.00000177,0.00000188,-0.00000121,0.00000891,0.0000
 2762,-0.00007757,-0.00012799,-0.00027685,0.00003651,0.00002709,0.00010
 362,0.00008622,0.00010581,0.00014710,-0.00027557,0.00040066,-0.0006128
 4,-0.00071669,-0.00000008,0.00028215,0.00079527,-0.00049210,0.00048310
 ,0.00038472,-0.00064839,0.00115289,-0.00009741,-0.00004831,0.00002266,
 0.00067559,-0.00122954,0.00604435,-0.00051389,0.00025031,0.00001776,0.
 00104497,0.00227107,-0.00121567,-0.00128919,-0.00047230,0.00031576,0.0
 0003703,-0.00004327,0.00002406,-0.00001108,0.00002515,0.00000158,0.000
 01130,0.00000484,-0.00000355,-0.00000334,-0.00001918,0.00001231,0.0002
 3864,0.00070939,0.00013262,-0.00000124,-0.00005419,-0.00060666,0.00017
 094,-0.00046494,0.00043957,0.00011112,0.00001390,0.00008001,0.00002124
 ,-0.00001574,-0.00003353,-0.00000813,0.00002222,0.00001073,-0.00000228
 ,0.00000074,0.00000536,-0.00000339,-0.00001272,0.00000936,0.00000351,0
 .00000334,-0.00000570,0.00000215,0.00000110,0.00000259,-0.00000166,0.0
 0000101,-0.00000019,-0.00000009,-0.00000313,0.00000113,-0.00000096,-0.
 00000223,-0.00000763,-0.00000002,-0.00000035,0.00000008,-0.00000088,0.
 00000012,0.00000250,0.00000204,0.00000083,0.00000172,-0.00001129,0.000
 00447,-0.00002207,0.00002057,-0.00001662,0.00001978,-0.00001614,0.0000
 0597,-0.00000377,0.00000293,0.00000027,-0.00000147,0.00000058,-0.00000
 384,0.00000164,0.00000108,0.00000031,0.00000058,-0.00001021,0.00001371
 ,-0.00001297,-0.00000326,0.00000077,0.00000350,0.00000161,0.00000081,-
 0.00000500,-0.00000025,0.00000013,0.00000041,0.00020185,-0.00034386,-0
 .00010478,-0.00003650,0.00006218,0.00004785,-0.00007288,0.00007544,0.0
 0002048,-0.00001127,0.00008881,0.00010723,0.04465180,-0.07168789,-0.12
 876033,0.04509323,-0.01112647,-0.04446502,-0.08035952,0.12984474,0.208
 52481,0.00003310,0.00001808,-0.00001714,0.00004253,-0.00002309,-0.0000
 2067,0.00009905,-0.00006945,-0.00003071,0.00001572,0.00001936,0.000039
 91,0.00003851,0.00001523,0.00002084,-0.00000405,-0.00001047,-0.0000099
 0,0.00000625,0.00000526,-0.00001325,-0.00001169,0.00000007,-0.00000042
 ,-0.00002534,0.00001515,-0.00000708,0.00001672,0.00001461,-0.00000200,
 -0.00010564,0.00003481,-0.00000072,-0.00005594,0.00006435,-0.00001571,
 -0.00004833,0.00000698,0.00003903,-0.00006181,-0.00002299,0.00000892,-
 0.00004159,-0.00002317,-0.00002277,0.00014789,-0.00019839,0.00010888,-
 0.00006098,0.00002093,-0.00006065,0.00000181,0.00004756,-0.00000903,-0
 .00028866,0.00009534,-0.00019651,0.00002190,0.00001085,-0.00001824,-0.
 00000322,-0.00000257,-0.00000278,-0.00000332,-0.00000477,-0.00000016,-
 0.00000489,0.00000237,0.00000704,0.00003855,0.00000639,0.00001155,-0.0
 0000045,0.00000094,-0.00000403,-0.00000758,0.00000457,-0.00000147,-0.0
 0000389,-0.00000384,0.00000140,0.00000315,0.00001478,-0.00000094,-0.00
 000030,-0.00000691,0.00000313,0.00001913,0.00001182,0.00001560,-0.0000
 0897,-0.00000417,-0.00000786,0.00019499,0.00006713,0.00025186,0.000155
 43,0.00014277,-0.00010818,0.00071206,0.00046365,0.00044283,0.00002618,
 0.00010535,-0.00007502,0.00006961,0.00013768,-0.00013393,0.00002853,-0
 .00008622,0.00002788,-0.00000673,-0.00004133,0.00001252,0.00001030,0.0
 0002498,-0.00013122,0.00002355,-0.00000407,-0.00000210,-0.00002158,-0.
 00002965,0.00001222,-0.00035832,-0.00025957,0.00011676,-0.00099855,0.0
 0058761,-0.00012400,-0.00030530,-0.00011293,-0.00032054,-0.00053535,-0
 .00017229,-0.00025761,-0.00004289,-0.00024246,0.00006179,0.00007023,0.
 00005441,0.00001403,-0.00000866,-0.00001929,-0.00000349,-0.00002016,0.
 00000025,-0.00000188,-0.00012334,-0.00006053,-0.00000654,0.00278209,-0
 .00039196,-0.00119331,-0.00065804,0.00040734,0.00082551,-0.00108586,-0
 .00049888,-0.00011196,0.00009598,0.00172098,0.00077478,-0.00021699,0.0
 0048057,-0.00054156,0.00116229,0.00108139,-0.00245713,0.00000550,0.002
 19217,0.00007451,-0.00001156,-0.00020507,-0.00018377,-0.02535806,-0.00
 528288,-0.02637433,0.00001206,-0.00097607,-0.00057096,-0.00259712,-0.0
 0035374,0.00191088,-0.00004618,-0.00055463,-0.00122923,-0.00018611,-0.
 00013694,0.00014683,0.00009281,-0.00003577,0.00000939,0.00008767,-0.00
 002474,-0.00002126,0.00002420,0.00004595,0.00003115,0.00045817,0.00000
 723,0.00048572,-0.00001491,0.00041397,-0.00005944,0.00001621,-0.000028
 65,0.00018116,-0.00003781,-0.00011031,-0.00015291,0.00002255,0.0001615
 8,0.00004506,0.00000352,0.00000782,-0.00000587,-0.00002264,-0.00001988
 ,-0.00001630,0.00000474,-0.00002173,0.00000979,0.00007698,0.00003698,-
 0.00001389,-0.00001007,-0.00000602,-0.00000648,-0.00001237,-0.00000133
 ,0.00000638,-0.00000906,-0.00000946,0.00001096,-0.00000077,-0.00002370
 ,0.00000835,-0.00000756,0.00000709,-0.00000194,0.00000603,0.00000045,0
 .00000560,-0.00000490,-0.00000015,-0.00000764,0.00011603,-0.00024876,-
 0.00004268,-0.00005356,0.00004910,0.00002380,0.00004484,-0.00003274,-0
 .00000061,-0.00000412,0.00000008,-0.00000121,-0.00000099,0.00000700,-0
 .00000832,-0.00000846,0.00000524,0.00000928,0.00003043,-0.00003579,-0.
 00000157,-0.00001747,0.00001521,0.00001225,0.00001945,0.00000180,-0.00
 003838,-0.00000124,0.00000347,-0.00000260,-0.00134075,-0.00083236,0.00
 173608,0.00019316,0.00067686,-0.00051534,0.00066233,0.00019482,-0.0003
 4632,0.00013976,0.00006142,-0.00072052,-0.18473845,-0.03425997,-0.0883
 8822,-0.05249619,-0.04023150,-0.00206198,0.01586098,-0.01058824,-0.009
 45401,0.24840580,-0.00000790,-0.00000859,0.00000343,-0.00000445,-0.000
 00082,0.00000493,-0.00002042,-0.00000533,-0.00000073,-0.00000668,-0.00
 001096,-0.00001170,-0.00000582,-0.00001109,-0.00000618,0.00000036,0.00
 000459,0.00000405,-0.00000106,-0.00000180,0.00000041,0.00000066,0.0000
 0094,-0.00000064,0.00000412,-0.00000037,0.00000110,-0.00000207,-0.0000
 0290,0.00000060,0.00002079,0.00001220,0.00000822,0.00001514,0.00000476
 ,0.00000165,0.00000956,0.00000952,-0.00000836,0.00001035,0.00001392,-0
 .00000332,0.00000458,0.00001935,0.00000961,-0.00002118,0.00001145,-0.0
 0001626,0.00001048,-0.00000128,0.00001012,0.00000206,0.00000264,-0.000
 00218,0.00003905,0.00002267,0.00002703,-0.00000255,-0.00000772,0.00000
 870,-0.00000152,-0.00000100,-0.00000078,0.00000208,0.00000149,-0.00000
 022,-0.00000024,0.00000024,-0.00000109,-0.00000552,-0.00000308,-0.0000
 0214,0.00000033,-0.00000041,0.00000109,0.00000029,0.00000061,0.0000004
 9,0.00000194,0.00000140,-0.00000078,0.00000500,-0.00001333,-0.00000088
 ,0.00000180,0.00000388,-0.00000196,-0.00000431,-0.00000643,-0.00000190
 ,0.00000162,0.00000165,0.00000125,0.00023053,-0.00021932,-0.00009513,-
 0.00007683,-0.00010867,0.00009265,-0.00026131,-0.00023608,-0.00025832,
 0.00000532,-0.00012632,0.00004953,0.00001447,0.00000030,0.00002946,-0.
 00001386,0.00003116,0.00001696,0.00001589,0.00002436,0.00000251,0.0000
 1468,-0.00003664,0.00001796,-0.00000293,0.00000356,-0.00000291,0.00000
 226,0.00000204,-0.00000609,0.00011943,0.00015721,-0.00005017,0.0003672
 6,-0.00008860,0.00003570,0.00006646,0.00018545,0.00004716,-0.00055431,
 0.00006276,-0.00012139,-0.00005210,0.00002936,-0.00002380,-0.00000078,
 0.00000941,0.00000539,0.00000744,0.00000635,-0.00000548,-0.00001086,-0
 .00000031,0.00000249,-0.00001257,0.00000885,-0.00000430,-0.00118163,-0
 .00025043,0.00035482,0.00029721,-0.00003685,-0.00024489,0.00045255,0.0
 0038182,0.00008146,-0.00012100,-0.00123518,-0.00017274,0.00064606,-0.0
 0033935,-0.00007736,-0.00094976,0.00011522,0.00128726,-0.00019659,0.00
 012778,-0.00061554,0.00001468,0.00009019,0.00002307,0.01443861,0.01030
 144,0.01023339,0.00042746,0.00013797,0.00018960,0.00040937,-0.00007284
 ,0.00006497,0.00007665,-0.00006922,-0.00009819,0.00007920,-0.00002398,
 0.00002407,-0.00004686,0.00004564,-0.00001493,-0.00002954,0.00001891,0
 .00000117,-0.00000364,-0.00002126,-0.00002053,0.00044008,-0.00001964,0
 .00059549,0.00015957,0.00034933,-0.00018077,0.00006056,-0.00010472,0.0
 0003148,-0.00000682,0.00000176,-0.00006475,0.00002222,0.00000426,-0.00
 000821,0.00000167,0.00001010,0.00001351,-0.00001480,-0.00000105,-0.000
 00194,0.00000518,0.00000753,-0.00000182,0.00000667,-0.00000181,0.00000
 105,0.00000030,-0.00000097,-0.00000014,-0.00000231,-0.00000007,0.00000
 207,-0.00000013,0.00000134,-0.00000138,-0.00000889,-0.00000644,-0.0000
 0212,0.00000221,-0.00000085,0.00000008,-0.00000173,-0.00000046,-0.0000
 0210,0.00000519,0.00000210,0.00000578,-0.00006887,0.00006431,0.0000075
 0,0.00002711,0.00000145,-0.00000829,-0.00001851,0.00000878,-0.00000258
 ,0.00000296,-0.00000030,0.00000050,-0.00000087,-0.00000220,0.00000177,
 0.00000204,-0.00000207,-0.00000184,-0.00001217,-0.00000146,0.00000314,
 0.00000358,-0.00000368,-0.00000280,-0.00001072,-0.00000669,0.00001153,
 0.00000594,0.00000040,0.00000203,0.00021694,0.00023537,-0.00072845,-0.
 00003766,-0.00014392,0.00017040,-0.00013185,-0.00005201,0.00016248,-0.
 00000002,0.00001265,0.00028583,-0.03419416,-0.08354132,-0.02469327,-0.
 04591225,-0.01525630,-0.00485128,-0.02149554,-0.02273569,-0.04679328,0
 .08673766,0.11227134,0.00002630,0.00001444,-0.00001544,0.00002966,-0.0
 0001741,-0.00002486,0.00007759,-0.00004981,-0.00003470,0.00000957,0.00
 001424,0.00002653,0.00002769,0.00001219,0.00001153,-0.00000169,-0.0000
 0714,-0.00000740,0.00000509,0.00000309,-0.00000919,-0.00000806,-0.0000
 0018,0.00000056,-0.00001870,0.00001083,-0.00000470,0.00001325,0.000010
 74,-0.00000251,-0.00008340,0.00002595,0.00000988,-0.00004374,0.0000433
 2,-0.00000449,-0.00003628,0.00000163,0.00004385,-0.00004527,-0.0000195
 4,0.00001291,-0.00003214,-0.00001465,-0.00001062,0.00011464,-0.0001451
 8,0.00007772,-0.00004443,0.00001509,-0.00004337,0.00000004,0.00003230,
 -0.00000523,-0.00022485,0.00006655,-0.00013579,0.00001061,0.00001571,-
 0.00002395,0.00000129,-0.00000310,-0.00000052,-0.00000143,-0.00000408,
 0.00000019,-0.00000404,0.00000155,0.00000578,0.00002643,0.00000454,0.0
 0000633,0.00000019,0.00000110,-0.00000209,-0.00000527,0.00000317,-0.00
 000123,-0.00000333,-0.00000355,0.00000098,0.00000440,0.00000988,-0.000
 00379,-0.00000088,-0.00000579,0.00000289,0.00001449,0.00000917,0.00001
 127,-0.00000598,-0.00000269,-0.00000495,0.00012248,-0.00004322,0.00002
 302,0.00015745,0.00017052,-0.00009466,0.00057818,0.00038054,0.00033130
 ,0.00000485,0.00009967,-0.00009896,0.00003617,0.00012907,-0.00010739,0
 .00002252,-0.00006611,0.00001936,-0.00000993,-0.00004350,0.00001420,0.
 00001179,0.00005082,-0.00007099,0.00001577,-0.00000195,0.00000616,-0.0
 0000869,-0.00001671,0.00001501,-0.00029815,-0.00023488,0.00012722,-0.0
 0088690,0.00048065,-0.00008914,-0.00028046,-0.00013086,-0.00023186,-0.
 00043861,-0.00012950,-0.00010285,-0.00000961,-0.00016849,0.00008078,0.
 00003972,0.00003568,-0.00000167,-0.00000847,-0.00001899,0.00000195,-0.
 00001550,0.00000002,-0.00000152,-0.00007539,-0.00003713,0.00001244,0.0
 0245860,-0.00010325,-0.00115677,-0.00057817,0.00033388,0.00080412,-0.0
 0089195,-0.00048118,-0.00005133,-0.00089151,0.00198611,0.00033547,-0.0
 0087647,0.00027641,0.00015579,0.00098371,0.00115720,-0.00395446,0.0003
 2878,0.00023843,0.00031855,-0.00001684,-0.00011540,-0.00007872,-0.0302
 8457,-0.00429844,-0.00927411,-0.00021496,-0.00042534,-0.00030774,-0.00
 019999,0.00017719,0.00160733,-0.00009657,-0.00051432,0.00000297,-0.000
 12345,-0.00010210,0.00011345,0.00006894,-0.00002463,0.00001459,0.00006
 883,-0.00001863,-0.00001726,0.00001663,0.00002807,0.00002885,0.0003775
 1,0.00025109,0.00021702,0.00006267,0.00008928,-0.00024082,0.00005596,-
 0.00010642,0.00023545,0.00001178,-0.00005919,-0.00003280,0.00001697,0.
 00009045,0.00001532,-0.00000158,0.00001007,-0.00000225,-0.00001068,-0.
 00001123,-0.00000737,0.00000094,-0.00002186,0.00000975,0.00004889,0.00
 002560,-0.00001237,-0.00000544,-0.00000295,-0.00000262,-0.00000794,-0.
 00000010,0.00000312,-0.00000576,-0.00000824,0.00000797,0.00000191,-0.0
 0001481,0.00000242,-0.00000588,0.00000476,-0.00000139,0.00000418,0.000
 00054,0.00000584,-0.00000367,-0.00000053,-0.00000626,0.00009258,-0.000
 19535,-0.00004810,-0.00003367,0.00002364,0.00003264,0.00002741,-0.0000
 2207,-0.00000188,-0.00000206,0.00000044,-0.00000180,-0.00000017,0.0000
 0316,-0.00000521,-0.00000621,0.00000459,0.00000741,0.00001914,-0.00001
 637,-0.00001034,-0.00001664,0.00001277,0.00001200,0.00001879,0.0000048
 3,-0.00003441,-0.00000329,0.00000256,-0.00000187,-0.00084816,-0.000835
 02,0.00126583,0.00011018,0.00050532,-0.00032308,0.00043613,0.00018215,
 -0.00028165,0.00008282,0.00007048,-0.00056102,-0.08668584,-0.02406683,
 -0.13705239,0.01076417,0.00310542,0.02086995,-0.02163761,-0.04289716,-
 0.04164998,0.12863260,0.06527901,0.16934418\\-0.00000019,0.00000287,0.
 00000111,0.00000058,0.00000187,0.00000098,0.00000228,0.00000321,0.0000
 0074,-0.00000040,0.00000191,0.00000047,0.00000061,0.00000251,-0.000000
 99,0.00000242,0.00000073,-0.00000055,0.00000007,0.00000183,0.00000064,
 0.00000036,0.00000290,0.00000140,0.00000019,0.00000201,0.00000125,-0.0
 0000114,0.00000177,0.00000138,0.00000185,-0.00000015,0.00000120,0.0000
 0219,0.00000204,0.00000023,0.00000050,0.00000293,0.00000019,-0.0000004
 1,0.00000311,0.00000089,-0.00000162,0.00000104,0.00000172,-0.00000116,
 0.00000074,0.00000025,-0.00000097,0.00000043,0.00000034,0.00000009,0.0
 0000012,-0.00000019,0.00000028,-0.00000206,0.00000131,0.00000160,0.000
 00356,0.00000106,0.00000150,0.00000277,0.00000099,0.00000083,0.0000039
 3,0.00000158,0.00000214,0.00000386,0.00000122,-0.00000070,0.00000419,0
 .00000147,-0.00000126,0.00000385,0.00000204,-0.00000026,0.00000447,0.0
 0000179,-0.00000136,0.00000428,0.00000213,-0.00000160,0.00000217,0.000
 00130,-0.00000320,0.00000171,0.00000092,-0.00000302,0.00000253,0.00000
 091,-0.00000224,0.00000242,0.00000096,-0.00000190,-0.00000169,-0.00000
 008,-0.00000183,-0.00000090,-0.00000064,0.00000128,-0.00000229,-0.0000
 0138,-0.00000083,-0.00000060,0.00000078,-0.00000091,-0.00000019,0.0000
 0068,-0.00000072,-0.00000008,-0.00000072,-0.00000068,-0.00000054,-0.00
 000045,-0.00000079,-0.00000124,-0.00000088,-0.00000037,0.00000033,-0.0
 0000027,-0.00000295,0.00000004,0.00000035,0.00000010,0.00000165,0.0000
 0158,0.00000163,-0.00000118,-0.00000175,-0.00000017,-0.00000196,-0.000
 00034,-0.00000289,-0.00000154,-0.00000078,-0.00000328,-0.00000071,-0.0
 0000012,-0.00000125,0.00000114,0.00000100,-0.00000184,0.00000142,0.000
 00065,-0.00000105,0.00000190,0.00000066,-0.00000209,0.00000142,0.00000
 064,0.00000019,-0.00000073,-0.00000277,0.00000495,-0.00000330,0.000001
 42,0.00000049,-0.00000036,0.00000110,0.00000098,-0.00000315,-0.0000009
 5,0.00000175,-0.00000206,-0.00000110,0.00000041,-0.00000331,-0.0000019
 6,0.00000052,-0.00000424,-0.00000081,0.00000152,-0.00000313,-0.0000016
 1,0.00000057,-0.00000358,-0.00000185,0.00000032,-0.00000261,-0.0000011
 0,0.00000008,-0.00000445,-0.00000234,0.00000038,-0.00000506,-0.0000018
 9,-0.00000243,-0.00000079,-0.00000007,0.00000069,-0.00000223,-0.000000
 86,-0.00000038,-0.00000229,-0.00000042,-0.00000042,-0.00000316,-0.0000
 0165,-0.00000192,-0.00000308,-0.00000084,-0.00000191,-0.00000294,-0.00
 000065,-0.00000182,-0.00000349,-0.00000082,-0.00000290,-0.00000337,-0.
 00000094,-0.00000351,-0.00000081,0.00000090,-0.00000341,-0.00000129,-0
 .00000022,-0.00000346,0.00000011,0.00000078,-0.00000361,-0.00000056,0.
 00000010,-0.00000300,0.00000234,0.00000224,-0.00000308,0.00000251,0.00
 000137,-0.00000161,0.00000271,0.00000149,-0.00000267,0.00000223,0.0000
 0155,0.00000248,0.00000145,0.00000023,0.00000297,0.00000262,0.00000087
 ,0.00000171,0.00000126,-0.00000055,0.00000246,0.00000148,-0.00000078,0
 .00000252,0.00000106,-0.00000147,0.00000315,0.00000006,0.00000024,0.00
 000459,0.00000272,0.00000107,0.00000339,0.00000252,0.00000049,0.000004
 29,0.00000174,-0.00000010,0.00000452,0.00000221,-0.00000005,0.00000258
 ,0.00000111,0.00000026,0.00000295,0.00000134,-0.00000020,0.00000271,0.
 00000082,-0.00000008,0.00000251,0.00000148,0.00000016,0.00000123,-0.00
 000438,-0.00000275,0.00000192,-0.00000438,-0.00000216,0.00000114,-0.00
 000547,-0.00000241,0.00000039,-0.00000455,-0.00000173,0.00000012,-0.00
 000466,-0.00000149,-0.00000074,-0.00000353,-0.00000144,-0.00000099,-0.
 00000460,-0.00000179,0.,-0.00000476,-0.00000208\\\@


      LET US REMEMBER, PLEASE, THAT THE SEARCH FOR THE CONSTITUTION
      OF THE WORLD IS ONE OF THE GREATEST AND NOBLEST PROBLEMS PRESENTED 
      BY NATURE.

                                                  -- GALILEO
 Job cpu time:       4 days 16 hours 21 minutes 58.2 seconds.
 Elapsed time:       0 days  3 hours 41 minutes 34.6 seconds.
 File lengths (MBytes):  RWF=   9750 Int=      0 D2E=      0 Chk=     86 Scr=      1
 Normal termination of Gaussian 16 at Fri May 24 06:03:04 2019.
