 Entering Gaussian System, Link 0=g16
 Input=clay_new-glu_gluC6-FADL-Na3_1Me2O-bisCF3-ts-b3lyp_d3bj-631gd-pcm_thf.gjf
 Output=clay_new-glu_gluC6-FADL-Na3_1Me2O-bisCF3-ts-b3lyp_d3bj-631gd-pcm_thf.out
 Initial command:
 /home/ekwan/sw/g16/l1.exe "/scratch/users/ekwan/clay_new-glu_gluC6-FADL-Na3_1Me2O-bisCF3-ts-b3lyp_d3bj-631gd-pcm_thf/Gau-26610.inp" -scrdir="/scratch/users/ekwan/clay_new-glu_gluC6-FADL-Na3_1Me2O-bisCF3-ts-b3lyp_d3bj-631gd-pcm_thf/"
 Entering Link 1 = /home/ekwan/sw/g16/l1.exe PID=     26611.
  
 Copyright (c) 1988,1990,1992,1993,1995,1998,2003,2009,2016,
            Gaussian, Inc.  All Rights Reserved.
  
 This is part of the Gaussian(R) 16 program.  It is based on
 the Gaussian(R) 09 system (copyright 2009, Gaussian, Inc.),
 the Gaussian(R) 03 system (copyright 2003, Gaussian, Inc.),
 the Gaussian(R) 98 system (copyright 1998, Gaussian, Inc.),
 the Gaussian(R) 94 system (copyright 1995, Gaussian, Inc.),
 the Gaussian 92(TM) system (copyright 1992, Gaussian, Inc.),
 the Gaussian 90(TM) system (copyright 1990, Gaussian, Inc.),
 the Gaussian 88(TM) system (copyright 1988, Gaussian, Inc.),
 the Gaussian 86(TM) system (copyright 1986, Carnegie Mellon
 University), and the Gaussian 82(TM) system (copyright 1983,
 Carnegie Mellon University). Gaussian is a federally registered
 trademark of Gaussian, Inc.
  
 This software contains proprietary and confidential information,
 including trade secrets, belonging to Gaussian, Inc.
  
 This software is provided under written license and may be
 used, copied, transmitted, or stored only in accord with that
 written license.
  
 The following legend is applicable only to US Government
 contracts under FAR:
  
                    RESTRICTED RIGHTS LEGEND
  
 Use, reproduction and disclosure by the US Government is
 subject to restrictions as set forth in subparagraphs (a)
 and (c) of the Commercial Computer Software - Restricted
 Rights clause in FAR 52.227-19.
  
 Gaussian, Inc.
 340 Quinnipiac St., Bldg. 40, Wallingford CT 06492
  
  
 ---------------------------------------------------------------
 Warning -- This program may not be used in any manner that
 competes with the business of Gaussian, Inc. or will provide
 assistance to any competitor of Gaussian, Inc.  The licensee
 of this program is prohibited from giving any competitor of
 Gaussian, Inc. access to this program.  By using this program,
 the user acknowledges that Gaussian, Inc. is engaged in the
 business of creating and licensing software in the field of
 computational chemistry and represents and warrants to the
 licensee that it is not a competitor of Gaussian, Inc. and that
 it will not use this program in any manner prohibited above.
 ---------------------------------------------------------------
  

 Cite this work as:
 Gaussian 16, Revision A.03,
 M. J. Frisch, G. W. Trucks, H. B. Schlegel, G. E. Scuseria, 
 M. A. Robb, J. R. Cheeseman, G. Scalmani, V. Barone, 
 G. A. Petersson, H. Nakatsuji, X. Li, M. Caricato, A. V. Marenich, 
 J. Bloino, B. G. Janesko, R. Gomperts, B. Mennucci, H. P. Hratchian, 
 J. V. Ortiz, A. F. Izmaylov, J. L. Sonnenberg, D. Williams-Young, 
 F. Ding, F. Lipparini, F. Egidi, J. Goings, B. Peng, A. Petrone, 
 T. Henderson, D. Ranasinghe, V. G. Zakrzewski, J. Gao, N. Rega, 
 G. Zheng, W. Liang, M. Hada, M. Ehara, K. Toyota, R. Fukuda, 
 J. Hasegawa, M. Ishida, T. Nakajima, Y. Honda, O. Kitao, H. Nakai, 
 T. Vreven, K. Throssell, J. A. Montgomery, Jr., J. E. Peralta, 
 F. Ogliaro, M. J. Bearpark, J. J. Heyd, E. N. Brothers, K. N. Kudin, 
 V. N. Staroverov, T. A. Keith, R. Kobayashi, J. Normand, 
 K. Raghavachari, A. P. Rendell, J. C. Burant, S. S. Iyengar, 
 J. Tomasi, M. Cossi, J. M. Millam, M. Klene, C. Adamo, R. Cammi, 
 J. W. Ochterski, R. L. Martin, K. Morokuma, O. Farkas, 
 J. B. Foresman, and D. J. Fox, Gaussian, Inc., Wallingford CT, 2016.
 
 ******************************************
 Gaussian 16:  AS64L-G16RevA.03 25-Dec-2016
                 3-Jun-2019 
 ******************************************
 %mem=48GB
 %nprocshared=32
 Will use up to   32 processors via shared memory.
 ----------------------------------------------------------------------
 #p opt=(ts,noeigentest,calcfc,maxstep=10) freq=noraman b3lyp 6-31g* po
 p=none scrf=(solvent=tetrahydrofuran,pcm) empiricaldispersion=gd3bj
 ----------------------------------------------------------------------
 1/5=1,8=10,10=4,11=1,18=20,26=3,38=1/1,3;
 2/9=110,12=2,17=6,18=5,40=1/2;
 3/5=1,6=6,7=1,11=2,25=1,30=1,70=2201,71=2,72=20,74=-5,124=41,140=1/1,2,3;
 4//1;
 5/5=2,38=5,53=20/2;
 8/6=4,10=90,11=11/1;
 11/6=1,8=1,9=11,15=111,16=1/1,2,10;
 10/6=1,13=1/2;
 7/10=1,18=20,25=1/1,2,3,16;
 1/5=1,8=10,10=4,11=1,18=20,26=3/3(2);
 2/9=110/2;
 99//99;
 2/9=110/2;
 3/5=1,6=6,7=1,11=2,25=1,30=1,70=2205,71=1,72=20,74=-5,124=41/1,2,3;
 4/5=5,16=3,69=1/1;
 5/5=2,38=5,53=20/2;
 7//1,2,3,16;
 1/5=1,8=10,11=1,18=20,26=3/3(-5);
 2/9=110/2;
 99/9=1/99;
 Leave Link    1 at Mon Jun  3 19:39:27 2019, MaxMem=  6442450944 cpu:               4.2 elap:               0.2
 (Enter /home/ekwan/sw/g16/l101.exe)
 -----
 title
 -----
 Symbolic Z-matrix:
 Charge =  0 Multiplicity = 1
 C                    -5.23998  -0.0586    0.03345 
 C                    -4.23906  -1.19301   0.25441 
 C                    -3.33533  -1.37744  -0.97303 
 C                    -3.56927   0.91947  -1.62555 
 C                    -4.52545   1.19267  -0.4636 
 H                    -2.51872  -2.07155  -0.74815 
 H                    -3.57419  -0.91835   1.08558 
 H                    -5.98257  -0.3724   -0.71243 
 H                    -4.15611   0.64913  -2.51573 
 H                    -3.93168   1.60027   0.3599 
 O                    -2.68859  -0.17406  -1.29579 
 O                    -4.11476  -1.89558  -2.0268 
 O                    -4.96083  -2.36932   0.59298 
 O                    -5.89488   0.29272   1.25248 
 O                    -5.50274   2.14811  -0.87203 
 C                    -2.68233   2.14693  -1.93689 
 H                    -3.34688   2.84194  -2.50778 
 H                    -1.95741   1.76532  -2.70687 
 O                    -2.09181   2.71556  -0.85007 
 C                    -4.14255  -3.42166   1.07546 
 H                    -3.5358   -3.87307   0.27919 
 H                    -3.46628  -3.07283   1.86913 
 H                    -4.81327  -4.18327   1.48157 
 C                    -7.13309  -0.36225   1.47384 
 H                    -7.84039  -0.15715   0.65613 
 H                    -7.0083   -1.44585   1.57143 
 H                    -7.54237   0.04477   2.40311 
 C                    -5.27666   3.43861  -0.31804 
 H                    -5.53775   3.45632   0.75149 
 H                    -4.22626   3.73292  -0.43401 
 H                    -5.92962   4.13636  -0.85191 
 C                     1.44479   2.31532   1.52067 
 C                     0.53584   2.75128   0.35842 
 C                     0.24866   1.61007  -0.59647 
 C                    -0.14772   0.31731   1.36427 
 C                     1.136     0.86119   1.97299 
 H                    -0.20946   1.84712  -1.54152 
 H                    -0.43937   3.04512   0.7527 
 H                     2.48788   2.35216   1.18387 
 H                    -0.19134  -0.75958   1.51706 
 H                     0.9911    0.88492   3.06122 
 O                    -0.1563    0.46393  -0.07956 
 O                     3.44047   0.531    -2.86514 
 O                     1.11386   3.84596  -0.34468 
 O                     1.28091   3.15131   2.65628 
 O                     2.19447  -0.02772   1.64611 
 C                    -1.41601   0.9442    1.9605 
 H                    -2.06495   1.26309   1.13647 
 H                    -1.17278   1.83085   2.56695 
 O                    -2.01843  -0.0428    2.78558 
 S                     2.11069   0.26074  -2.29309 
 O                     0.94919   0.18497  -3.18588 
 O                     1.88959   1.34804  -1.17647 
 C                     2.20707  -1.26916  -1.37245 
 C                     3.44191  -1.6792   -0.88549 
 C                     1.03639  -1.96386  -1.08162 
 C                     3.50033  -2.79599  -0.0531 
 H                     4.33823  -1.13075  -1.14742 
 C                     1.11649  -3.07728  -0.24584 
 H                     0.08752  -1.62028  -1.47463 
 C                     2.34092  -3.49331   0.27772 
 H                     2.38944  -4.3517    0.93497 
 C                     0.14926   4.83782  -0.76269 
 H                    -0.78359   4.33779  -1.057 
 H                    -0.03785   5.53563   0.06364 
 H                     0.60031   5.38117  -1.59689 
 C                     1.90873   4.4235    2.55459 
 H                     2.94362   4.32001   2.19787 
 H                     1.37142   5.09941   1.88032 
 H                     1.91398   4.8494    3.56077 
 C                     3.24096  -0.0072    2.60584 
 H                     3.68138   0.99404   2.71062 
 H                     2.87643  -0.33389   3.58998 
 H                     4.00776  -0.69774   2.2532 
 C                    -3.13396   0.46573   3.50425 
 H                    -3.47515  -0.33548   4.1647 
 H                    -2.84719   1.3371    4.11211 
 H                    -3.95583   0.74611   2.83306 
 C                    -3.33128  -2.23329  -3.16469 
 H                    -4.00459  -2.69959  -3.88753 
 H                    -2.86796  -1.34669  -3.61275 
 H                    -2.53754  -2.94504  -2.89481 
 Na                    3.02571   3.32694  -1.54743 
 O                     4.74207   2.84952  -0.08195 
 C                     5.85318   3.72947   0.06134 
 H                     6.6255    3.51367  -0.68919 
 H                     5.48086   4.74673  -0.07859 
 H                     6.29141   3.63711   1.06335 
 C                     5.10547   1.48178   0.09366 
 H                     5.61824   1.34209   1.05334 
 H                     4.17939   0.90896   0.08918 
 H                     5.76148   1.14424  -0.71952 
 C                     4.8397   -3.22982   0.47474 
 F                     5.61496  -3.75584  -0.49794 
 F                     4.73226  -4.15027   1.4513 
 F                     5.52606  -2.17383   0.98446 
 C                    -0.15118  -3.78512   0.14603 
 F                    -0.95666  -4.00128  -0.92067 
 F                    -0.87412  -3.04332   1.02659 
 F                     0.08046  -4.9753    0.72828 
 
 Add virtual bond connecting atoms O53        and C34        Dist= 3.33D+00.
 Add virtual bond connecting atoms H37        and H18        Dist= 3.97D+00.
 Add virtual bond connecting atoms H37        and O19        Dist= 4.13D+00.
 Add virtual bond connecting atoms H48        and H10        Dist= 3.87D+00.
 Add virtual bond connecting atoms H64        and O19        Dist= 3.96D+00.
 Add virtual bond connecting atoms O84        and Na83       Dist= 4.36D+00.
 Add virtual bond connecting atoms Na83       and O44        Dist= 4.38D+00.
 Add virtual bond connecting atoms Na83       and O53        Dist= 4.37D+00.
 Add virtual bond connecting atoms H91        and H58        Dist= 4.52D+00.
 ITRead=  0  0  0  0  0  0  0  0  0  0  0  0  0  0  0  0  0  0  0  0
 ITRead=  0  0  0  0  0  0  0  0  0  0  0  0  0  0  0  0  0  0  0  0
 ITRead=  0  0  0  0  0  0  0  0  0  0  0  0  0  0  0  0  0  0  0  0
 ITRead=  0  0  0  0  0  0  0  0  0  0  0  0  0  0  0  0  0  0  0  0
 ITRead=  0  0  0  0  0  0  0  0  0  0  0  0  0  0  0  0  0  0  0  0
 MicOpt= -1 -1 -1 -1 -1 -1 -1 -1 -1 -1 -1 -1 -1 -1 -1 -1 -1 -1 -1 -1
 MicOpt= -1 -1 -1 -1 -1 -1 -1 -1 -1 -1 -1 -1 -1 -1 -1 -1 -1 -1 -1 -1
 MicOpt= -1 -1 -1 -1 -1 -1 -1 -1 -1 -1 -1 -1 -1 -1 -1 -1 -1 -1 -1 -1
 MicOpt= -1 -1 -1 -1 -1 -1 -1 -1 -1 -1 -1 -1 -1 -1 -1 -1 -1 -1 -1 -1
 MicOpt= -1 -1 -1 -1 -1 -1 -1 -1 -1 -1 -1 -1 -1 -1 -1 -1 -1 -1 -1 -1
 NAtoms=    100 NQM=      100 NQMF=       0 NMMI=      0 NMMIF=      0
                NMic=       0 NMicF=      0.
                    Isotopes and Nuclear Properties:
 (Nuclear quadrupole moments (NQMom) in fm**2, nuclear magnetic moments (NMagM)
  in nuclear magnetons)

  Atom         1           2           3           4           5           6           7           8           9          10
 IAtWgt=          12          12          12          12          12           1           1           1           1           1
 AtmWgt=  12.0000000  12.0000000  12.0000000  12.0000000  12.0000000   1.0078250   1.0078250   1.0078250   1.0078250   1.0078250
 NucSpn=           0           0           0           0           0           1           1           1           1           1
 AtZEff=   0.0000000   0.0000000   0.0000000   0.0000000   0.0000000   0.0000000   0.0000000   0.0000000   0.0000000   0.0000000
 NQMom=    0.0000000   0.0000000   0.0000000   0.0000000   0.0000000   0.0000000   0.0000000   0.0000000   0.0000000   0.0000000
 NMagM=    0.0000000   0.0000000   0.0000000   0.0000000   0.0000000   2.7928460   2.7928460   2.7928460   2.7928460   2.7928460
 AtZNuc=   6.0000000   6.0000000   6.0000000   6.0000000   6.0000000   1.0000000   1.0000000   1.0000000   1.0000000   1.0000000

  Atom        11          12          13          14          15          16          17          18          19          20
 IAtWgt=          16          16          16          16          16          12           1           1          16          12
 AtmWgt=  15.9949146  15.9949146  15.9949146  15.9949146  15.9949146  12.0000000   1.0078250   1.0078250  15.9949146  12.0000000
 NucSpn=           0           0           0           0           0           0           1           1           0           0
 AtZEff=   0.0000000   0.0000000   0.0000000   0.0000000   0.0000000   0.0000000   0.0000000   0.0000000   0.0000000   0.0000000
 NQMom=    0.0000000   0.0000000   0.0000000   0.0000000   0.0000000   0.0000000   0.0000000   0.0000000   0.0000000   0.0000000
 NMagM=    0.0000000   0.0000000   0.0000000   0.0000000   0.0000000   0.0000000   2.7928460   2.7928460   0.0000000   0.0000000
 AtZNuc=   8.0000000   8.0000000   8.0000000   8.0000000   8.0000000   6.0000000   1.0000000   1.0000000   8.0000000   6.0000000

  Atom        21          22          23          24          25          26          27          28          29          30
 IAtWgt=           1           1           1          12           1           1           1          12           1           1
 AtmWgt=   1.0078250   1.0078250   1.0078250  12.0000000   1.0078250   1.0078250   1.0078250  12.0000000   1.0078250   1.0078250
 NucSpn=           1           1           1           0           1           1           1           0           1           1
 AtZEff=   0.0000000   0.0000000   0.0000000   0.0000000   0.0000000   0.0000000   0.0000000   0.0000000   0.0000000   0.0000000
 NQMom=    0.0000000   0.0000000   0.0000000   0.0000000   0.0000000   0.0000000   0.0000000   0.0000000   0.0000000   0.0000000
 NMagM=    2.7928460   2.7928460   2.7928460   0.0000000   2.7928460   2.7928460   2.7928460   0.0000000   2.7928460   2.7928460
 AtZNuc=   1.0000000   1.0000000   1.0000000   6.0000000   1.0000000   1.0000000   1.0000000   6.0000000   1.0000000   1.0000000

  Atom        31          32          33          34          35          36          37          38          39          40
 IAtWgt=           1          12          12          12          12          12           1           1           1           1
 AtmWgt=   1.0078250  12.0000000  12.0000000  12.0000000  12.0000000  12.0000000   1.0078250   1.0078250   1.0078250   1.0078250
 NucSpn=           1           0           0           0           0           0           1           1           1           1
 AtZEff=   0.0000000   0.0000000   0.0000000   0.0000000   0.0000000   0.0000000   0.0000000   0.0000000   0.0000000   0.0000000
 NQMom=    0.0000000   0.0000000   0.0000000   0.0000000   0.0000000   0.0000000   0.0000000   0.0000000   0.0000000   0.0000000
 NMagM=    2.7928460   0.0000000   0.0000000   0.0000000   0.0000000   0.0000000   2.7928460   2.7928460   2.7928460   2.7928460
 AtZNuc=   1.0000000   6.0000000   6.0000000   6.0000000   6.0000000   6.0000000   1.0000000   1.0000000   1.0000000   1.0000000

  Atom        41          42          43          44          45          46          47          48          49          50
 IAtWgt=           1          16          16          16          16          16          12           1           1          16
 AtmWgt=   1.0078250  15.9949146  15.9949146  15.9949146  15.9949146  15.9949146  12.0000000   1.0078250   1.0078250  15.9949146
 NucSpn=           1           0           0           0           0           0           0           1           1           0
 AtZEff=   0.0000000   0.0000000   0.0000000   0.0000000   0.0000000   0.0000000   0.0000000   0.0000000   0.0000000   0.0000000
 NQMom=    0.0000000   0.0000000   0.0000000   0.0000000   0.0000000   0.0000000   0.0000000   0.0000000   0.0000000   0.0000000
 NMagM=    2.7928460   0.0000000   0.0000000   0.0000000   0.0000000   0.0000000   0.0000000   2.7928460   2.7928460   0.0000000
 AtZNuc=   1.0000000   8.0000000   8.0000000   8.0000000   8.0000000   8.0000000   6.0000000   1.0000000   1.0000000   8.0000000

  Atom        51          52          53          54          55          56          57          58          59          60
 IAtWgt=          32          16          16          12          12          12          12           1          12           1
 AtmWgt=  31.9720718  15.9949146  15.9949146  12.0000000  12.0000000  12.0000000  12.0000000   1.0078250  12.0000000   1.0078250
 NucSpn=           0           0           0           0           0           0           0           1           0           1
 AtZEff=   0.0000000   0.0000000   0.0000000   0.0000000   0.0000000   0.0000000   0.0000000   0.0000000   0.0000000   0.0000000
 NQMom=    0.0000000   0.0000000   0.0000000   0.0000000   0.0000000   0.0000000   0.0000000   0.0000000   0.0000000   0.0000000
 NMagM=    0.0000000   0.0000000   0.0000000   0.0000000   0.0000000   0.0000000   0.0000000   2.7928460   0.0000000   2.7928460
 AtZNuc=  16.0000000   8.0000000   8.0000000   6.0000000   6.0000000   6.0000000   6.0000000   1.0000000   6.0000000   1.0000000

  Atom        61          62          63          64          65          66          67          68          69          70
 IAtWgt=          12           1          12           1           1           1          12           1           1           1
 AtmWgt=  12.0000000   1.0078250  12.0000000   1.0078250   1.0078250   1.0078250  12.0000000   1.0078250   1.0078250   1.0078250
 NucSpn=           0           1           0           1           1           1           0           1           1           1
 AtZEff=   0.0000000   0.0000000   0.0000000   0.0000000   0.0000000   0.0000000   0.0000000   0.0000000   0.0000000   0.0000000
 NQMom=    0.0000000   0.0000000   0.0000000   0.0000000   0.0000000   0.0000000   0.0000000   0.0000000   0.0000000   0.0000000
 NMagM=    0.0000000   2.7928460   0.0000000   2.7928460   2.7928460   2.7928460   0.0000000   2.7928460   2.7928460   2.7928460
 AtZNuc=   6.0000000   1.0000000   6.0000000   1.0000000   1.0000000   1.0000000   6.0000000   1.0000000   1.0000000   1.0000000

  Atom        71          72          73          74          75          76          77          78          79          80
 IAtWgt=          12           1           1           1          12           1           1           1          12           1
 AtmWgt=  12.0000000   1.0078250   1.0078250   1.0078250  12.0000000   1.0078250   1.0078250   1.0078250  12.0000000   1.0078250
 NucSpn=           0           1           1           1           0           1           1           1           0           1
 AtZEff=   0.0000000   0.0000000   0.0000000   0.0000000   0.0000000   0.0000000   0.0000000   0.0000000   0.0000000   0.0000000
 NQMom=    0.0000000   0.0000000   0.0000000   0.0000000   0.0000000   0.0000000   0.0000000   0.0000000   0.0000000   0.0000000
 NMagM=    0.0000000   2.7928460   2.7928460   2.7928460   0.0000000   2.7928460   2.7928460   2.7928460   0.0000000   2.7928460
 AtZNuc=   6.0000000   1.0000000   1.0000000   1.0000000   6.0000000   1.0000000   1.0000000   1.0000000   6.0000000   1.0000000

  Atom        81          82          83          84          85          86          87          88          89          90
 IAtWgt=           1           1          23          16          12           1           1           1          12           1
 AtmWgt=   1.0078250   1.0078250  22.9897697  15.9949146  12.0000000   1.0078250   1.0078250   1.0078250  12.0000000   1.0078250
 NucSpn=           1           1           3           0           0           1           1           1           0           1
 AtZEff=   0.0000000   0.0000000   0.0000000   0.0000000   0.0000000   0.0000000   0.0000000   0.0000000   0.0000000   0.0000000
 NQMom=    0.0000000   0.0000000  10.4000000   0.0000000   0.0000000   0.0000000   0.0000000   0.0000000   0.0000000   0.0000000
 NMagM=    2.7928460   2.7928460   2.2175200   0.0000000   0.0000000   2.7928460   2.7928460   2.7928460   0.0000000   2.7928460
 AtZNuc=   1.0000000   1.0000000  11.0000000   8.0000000   6.0000000   1.0000000   1.0000000   1.0000000   6.0000000   1.0000000

  Atom        91          92          93          94          95          96          97          98          99         100
 IAtWgt=           1           1          12          19          19          19          12          19          19          19
 AtmWgt=   1.0078250   1.0078250  12.0000000  18.9984033  18.9984033  18.9984033  12.0000000  18.9984033  18.9984033  18.9984033
 NucSpn=           1           1           0           1           1           1           0           1           1           1
 AtZEff=   0.0000000   0.0000000   0.0000000   0.0000000   0.0000000   0.0000000   0.0000000   0.0000000   0.0000000   0.0000000
 NQMom=    0.0000000   0.0000000   0.0000000   0.0000000   0.0000000   0.0000000   0.0000000   0.0000000   0.0000000   0.0000000
 NMagM=    2.7928460   2.7928460   0.0000000   2.6288670   2.6288670   2.6288670   0.0000000   2.6288670   2.6288670   2.6288670
 AtZNuc=   1.0000000   1.0000000   6.0000000   9.0000000   9.0000000   9.0000000   6.0000000   9.0000000   9.0000000   9.0000000
 Leave Link  101 at Mon Jun  3 19:39:27 2019, MaxMem=  6442450944 cpu:              17.9 elap:               0.7
 (Enter /home/ekwan/sw/g16/l103.exe)

 GradGradGradGradGradGradGradGradGradGradGradGradGradGradGradGradGradGrad
 Berny optimization.
 Initialization pass.
                           ----------------------------
                           !    Initial Parameters    !
                           ! (Angstroms and Degrees)  !
 --------------------------                            --------------------------
 ! Name  Definition              Value          Derivative Info.                !
 --------------------------------------------------------------------------------
 ! R1    R(1,2)                  1.5289         calculate D2E/DX2 analytically  !
 ! R2    R(1,5)                  1.5242         calculate D2E/DX2 analytically  !
 ! R3    R(1,8)                  1.0983         calculate D2E/DX2 analytically  !
 ! R4    R(1,14)                 1.4277         calculate D2E/DX2 analytically  !
 ! R5    R(2,3)                  1.5354         calculate D2E/DX2 analytically  !
 ! R6    R(2,7)                  1.0992         calculate D2E/DX2 analytically  !
 ! R7    R(2,13)                 1.421          calculate D2E/DX2 analytically  !
 ! R8    R(3,6)                  1.0951         calculate D2E/DX2 analytically  !
 ! R9    R(3,11)                 1.4038         calculate D2E/DX2 analytically  !
 ! R10   R(3,12)                 1.4094         calculate D2E/DX2 analytically  !
 ! R11   R(4,5)                  1.5294         calculate D2E/DX2 analytically  !
 ! R12   R(4,9)                  1.0999         calculate D2E/DX2 analytically  !
 ! R13   R(4,11)                 1.4423         calculate D2E/DX2 analytically  !
 ! R14   R(4,16)                 1.546          calculate D2E/DX2 analytically  !
 ! R15   R(5,10)                 1.094          calculate D2E/DX2 analytically  !
 ! R16   R(5,15)                 1.4265         calculate D2E/DX2 analytically  !
 ! R17   R(10,48)                2.0497         calculate D2E/DX2 analytically  !
 ! R18   R(12,79)                1.4222         calculate D2E/DX2 analytically  !
 ! R19   R(13,20)                1.4177         calculate D2E/DX2 analytically  !
 ! R20   R(14,24)                1.4181         calculate D2E/DX2 analytically  !
 ! R21   R(15,28)                1.4225         calculate D2E/DX2 analytically  !
 ! R22   R(16,17)                1.1183         calculate D2E/DX2 analytically  !
 ! R23   R(16,18)                1.1243         calculate D2E/DX2 analytically  !
 ! R24   R(16,19)                1.3613         calculate D2E/DX2 analytically  !
 ! R25   R(18,37)                2.1024         calculate D2E/DX2 analytically  !
 ! R26   R(19,37)                2.1853         calculate D2E/DX2 analytically  !
 ! R27   R(19,64)                2.0943         calculate D2E/DX2 analytically  !
 ! R28   R(20,21)                1.0982         calculate D2E/DX2 analytically  !
 ! R29   R(20,22)                1.0995         calculate D2E/DX2 analytically  !
 ! R30   R(20,23)                1.0931         calculate D2E/DX2 analytically  !
 ! R31   R(24,25)                1.1004         calculate D2E/DX2 analytically  !
 ! R32   R(24,26)                1.0951         calculate D2E/DX2 analytically  !
 ! R33   R(24,27)                1.0939         calculate D2E/DX2 analytically  !
 ! R34   R(28,29)                1.1011         calculate D2E/DX2 analytically  !
 ! R35   R(28,30)                1.097          calculate D2E/DX2 analytically  !
 ! R36   R(28,31)                1.0946         calculate D2E/DX2 analytically  !
 ! R37   R(32,33)                1.5385         calculate D2E/DX2 analytically  !
 ! R38   R(32,36)                1.5538         calculate D2E/DX2 analytically  !
 ! R39   R(32,39)                1.0967         calculate D2E/DX2 analytically  !
 ! R40   R(32,45)                1.4196         calculate D2E/DX2 analytically  !
 ! R41   R(33,34)                1.5155         calculate D2E/DX2 analytically  !
 ! R42   R(33,38)                1.0922         calculate D2E/DX2 analytically  !
 ! R43   R(33,44)                1.4237         calculate D2E/DX2 analytically  !
 ! R44   R(34,37)                1.0767         calculate D2E/DX2 analytically  !
 ! R45   R(34,42)                1.3209         calculate D2E/DX2 analytically  !
 ! R46   R(34,53)                1.76           calculate D2E/DX2 analytically  !
 ! R47   R(35,36)                1.5213         calculate D2E/DX2 analytically  !
 ! R48   R(35,40)                1.0885         calculate D2E/DX2 analytically  !
 ! R49   R(35,42)                1.4513         calculate D2E/DX2 analytically  !
 ! R50   R(35,47)                1.5353         calculate D2E/DX2 analytically  !
 ! R51   R(36,41)                1.0981         calculate D2E/DX2 analytically  !
 ! R52   R(36,46)                1.4203         calculate D2E/DX2 analytically  !
 ! R53   R(43,51)                1.4726         calculate D2E/DX2 analytically  !
 ! R54   R(44,63)                1.4453         calculate D2E/DX2 analytically  !
 ! R55   R(44,83)                2.3176         calculate D2E/DX2 analytically  !
 ! R56   R(45,67)                1.4223         calculate D2E/DX2 analytically  !
 ! R57   R(46,71)                1.4201         calculate D2E/DX2 analytically  !
 ! R58   R(47,48)                1.0963         calculate D2E/DX2 analytically  !
 ! R59   R(47,49)                1.1014         calculate D2E/DX2 analytically  !
 ! R60   R(47,50)                1.4205         calculate D2E/DX2 analytically  !
 ! R61   R(50,75)                1.4211         calculate D2E/DX2 analytically  !
 ! R62   R(51,52)                1.4669         calculate D2E/DX2 analytically  !
 ! R63   R(51,53)                1.5741         calculate D2E/DX2 analytically  !
 ! R64   R(51,54)                1.7881         calculate D2E/DX2 analytically  !
 ! R65   R(53,83)                2.3118         calculate D2E/DX2 analytically  !
 ! R66   R(54,55)                1.3893         calculate D2E/DX2 analytically  !
 ! R67   R(54,56)                1.392          calculate D2E/DX2 analytically  !
 ! R68   R(55,57)                1.3941         calculate D2E/DX2 analytically  !
 ! R69   R(55,58)                1.083          calculate D2E/DX2 analytically  !
 ! R70   R(56,59)                1.3945         calculate D2E/DX2 analytically  !
 ! R71   R(56,60)                1.083          calculate D2E/DX2 analytically  !
 ! R72   R(57,61)                1.3928         calculate D2E/DX2 analytically  !
 ! R73   R(57,93)                1.5036         calculate D2E/DX2 analytically  !
 ! R74   R(58,91)                2.3906         calculate D2E/DX2 analytically  !
 ! R75   R(59,61)                1.3951         calculate D2E/DX2 analytically  !
 ! R76   R(59,97)                1.5039         calculate D2E/DX2 analytically  !
 ! R77   R(61,62)                1.0822         calculate D2E/DX2 analytically  !
 ! R78   R(63,64)                1.0986         calculate D2E/DX2 analytically  !
 ! R79   R(63,65)                1.0976         calculate D2E/DX2 analytically  !
 ! R80   R(63,66)                1.093          calculate D2E/DX2 analytically  !
 ! R81   R(67,68)                1.0995         calculate D2E/DX2 analytically  !
 ! R82   R(67,69)                1.0955         calculate D2E/DX2 analytically  !
 ! R83   R(67,70)                1.0926         calculate D2E/DX2 analytically  !
 ! R84   R(71,72)                1.0988         calculate D2E/DX2 analytically  !
 ! R85   R(71,73)                1.0992         calculate D2E/DX2 analytically  !
 ! R86   R(71,74)                1.0905         calculate D2E/DX2 analytically  !
 ! R87   R(75,76)                1.0929         calculate D2E/DX2 analytically  !
 ! R88   R(75,77)                1.1005         calculate D2E/DX2 analytically  !
 ! R89   R(75,78)                1.0975         calculate D2E/DX2 analytically  !
 ! R90   R(79,80)                1.0924         calculate D2E/DX2 analytically  !
 ! R91   R(79,81)                1.0961         calculate D2E/DX2 analytically  !
 ! R92   R(79,82)                1.0998         calculate D2E/DX2 analytically  !
 ! R93   R(83,84)                2.3068         calculate D2E/DX2 analytically  !
 ! R94   R(84,85)                1.4246         calculate D2E/DX2 analytically  !
 ! R95   R(84,89)                1.426          calculate D2E/DX2 analytically  !
 ! R96   R(85,86)                1.0983         calculate D2E/DX2 analytically  !
 ! R97   R(85,87)                1.0923         calculate D2E/DX2 analytically  !
 ! R98   R(85,88)                1.0975         calculate D2E/DX2 analytically  !
 ! R99   R(89,90)                1.097          calculate D2E/DX2 analytically  !
 ! R100  R(89,91)                1.0889         calculate D2E/DX2 analytically  !
 ! R101  R(89,92)                1.098          calculate D2E/DX2 analytically  !
 ! R102  R(93,94)                1.3505         calculate D2E/DX2 analytically  !
 ! R103  R(93,95)                1.3463         calculate D2E/DX2 analytically  !
 ! R104  R(93,96)                1.3587         calculate D2E/DX2 analytically  !
 ! R105  R(97,98)                1.354          calculate D2E/DX2 analytically  !
 ! R106  R(97,99)                1.3595         calculate D2E/DX2 analytically  !
 ! R107  R(97,100)               1.3451         calculate D2E/DX2 analytically  !
 ! A1    A(2,1,5)              110.4466         calculate D2E/DX2 analytically  !
 ! A2    A(2,1,8)              109.196          calculate D2E/DX2 analytically  !
 ! A3    A(2,1,14)             111.0682         calculate D2E/DX2 analytically  !
 ! A4    A(5,1,8)              109.2713         calculate D2E/DX2 analytically  !
 ! A5    A(5,1,14)             106.9454         calculate D2E/DX2 analytically  !
 ! A6    A(8,1,14)             109.8782         calculate D2E/DX2 analytically  !
 ! A7    A(1,2,3)              111.0347         calculate D2E/DX2 analytically  !
 ! A8    A(1,2,7)              108.654          calculate D2E/DX2 analytically  !
 ! A9    A(1,2,13)             108.4282         calculate D2E/DX2 analytically  !
 ! A10   A(3,2,7)              106.1693         calculate D2E/DX2 analytically  !
 ! A11   A(3,2,13)             112.9549         calculate D2E/DX2 analytically  !
 ! A12   A(7,2,13)             109.5058         calculate D2E/DX2 analytically  !
 ! A13   A(2,3,6)              110.5423         calculate D2E/DX2 analytically  !
 ! A14   A(2,3,11)             110.6105         calculate D2E/DX2 analytically  !
 ! A15   A(2,3,12)             108.4432         calculate D2E/DX2 analytically  !
 ! A16   A(6,3,11)             104.3013         calculate D2E/DX2 analytically  !
 ! A17   A(6,3,12)             109.4459         calculate D2E/DX2 analytically  !
 ! A18   A(11,3,12)            113.4548         calculate D2E/DX2 analytically  !
 ! A19   A(5,4,9)              108.9778         calculate D2E/DX2 analytically  !
 ! A20   A(5,4,11)             110.09           calculate D2E/DX2 analytically  !
 ! A21   A(5,4,16)             111.7056         calculate D2E/DX2 analytically  !
 ! A22   A(9,4,11)             108.9335         calculate D2E/DX2 analytically  !
 ! A23   A(9,4,16)             109.7685         calculate D2E/DX2 analytically  !
 ! A24   A(11,4,16)            107.3199         calculate D2E/DX2 analytically  !
 ! A25   A(1,5,4)              113.2153         calculate D2E/DX2 analytically  !
 ! A26   A(1,5,10)             108.3502         calculate D2E/DX2 analytically  !
 ! A27   A(1,5,15)             108.7868         calculate D2E/DX2 analytically  !
 ! A28   A(4,5,10)             107.4045         calculate D2E/DX2 analytically  !
 ! A29   A(4,5,15)             109.2963         calculate D2E/DX2 analytically  !
 ! A30   A(10,5,15)            109.7439         calculate D2E/DX2 analytically  !
 ! A31   A(5,10,48)            135.9043         calculate D2E/DX2 analytically  !
 ! A32   A(3,11,4)             114.9115         calculate D2E/DX2 analytically  !
 ! A33   A(3,12,79)            112.3858         calculate D2E/DX2 analytically  !
 ! A34   A(2,13,20)            113.7273         calculate D2E/DX2 analytically  !
 ! A35   A(1,14,24)            114.8432         calculate D2E/DX2 analytically  !
 ! A36   A(5,15,28)            112.7839         calculate D2E/DX2 analytically  !
 ! A37   A(4,16,17)            104.7927         calculate D2E/DX2 analytically  !
 ! A38   A(4,16,18)            103.7885         calculate D2E/DX2 analytically  !
 ! A39   A(4,16,19)            114.8163         calculate D2E/DX2 analytically  !
 ! A40   A(17,16,18)           104.1511         calculate D2E/DX2 analytically  !
 ! A41   A(17,16,19)           113.9375         calculate D2E/DX2 analytically  !
 ! A42   A(18,16,19)           114.1322         calculate D2E/DX2 analytically  !
 ! A43   A(16,18,37)            98.2359         calculate D2E/DX2 analytically  !
 ! A44   A(16,19,37)            87.4237         calculate D2E/DX2 analytically  !
 ! A45   A(16,19,64)           121.0403         calculate D2E/DX2 analytically  !
 ! A46   A(37,19,64)            74.8405         calculate D2E/DX2 analytically  !
 ! A47   A(13,20,21)           112.1644         calculate D2E/DX2 analytically  !
 ! A48   A(13,20,22)           111.4187         calculate D2E/DX2 analytically  !
 ! A49   A(13,20,23)           106.826          calculate D2E/DX2 analytically  !
 ! A50   A(21,20,22)           108.2995         calculate D2E/DX2 analytically  !
 ! A51   A(21,20,23)           108.7841         calculate D2E/DX2 analytically  !
 ! A52   A(22,20,23)           109.2856         calculate D2E/DX2 analytically  !
 ! A53   A(14,24,25)           111.0463         calculate D2E/DX2 analytically  !
 ! A54   A(14,24,26)           111.802          calculate D2E/DX2 analytically  !
 ! A55   A(14,24,27)           106.7038         calculate D2E/DX2 analytically  !
 ! A56   A(25,24,26)           108.8972         calculate D2E/DX2 analytically  !
 ! A57   A(25,24,27)           108.7475         calculate D2E/DX2 analytically  !
 ! A58   A(26,24,27)           109.578          calculate D2E/DX2 analytically  !
 ! A59   A(15,28,29)           110.806          calculate D2E/DX2 analytically  !
 ! A60   A(15,28,30)           110.7579         calculate D2E/DX2 analytically  !
 ! A61   A(15,28,31)           107.0702         calculate D2E/DX2 analytically  !
 ! A62   A(29,28,30)           108.9908         calculate D2E/DX2 analytically  !
 ! A63   A(29,28,31)           108.7857         calculate D2E/DX2 analytically  !
 ! A64   A(30,28,31)           110.4017         calculate D2E/DX2 analytically  !
 ! A65   A(33,32,36)           111.5726         calculate D2E/DX2 analytically  !
 ! A66   A(33,32,39)           108.6856         calculate D2E/DX2 analytically  !
 ! A67   A(33,32,45)           111.6681         calculate D2E/DX2 analytically  !
 ! A68   A(36,32,39)           108.0495         calculate D2E/DX2 analytically  !
 ! A69   A(36,32,45)           107.1752         calculate D2E/DX2 analytically  !
 ! A70   A(39,32,45)           109.6129         calculate D2E/DX2 analytically  !
 ! A71   A(32,33,34)           111.9971         calculate D2E/DX2 analytically  !
 ! A72   A(32,33,38)           109.3321         calculate D2E/DX2 analytically  !
 ! A73   A(32,33,44)           110.5548         calculate D2E/DX2 analytically  !
 ! A74   A(34,33,38)           105.1212         calculate D2E/DX2 analytically  !
 ! A75   A(34,33,44)           110.1689         calculate D2E/DX2 analytically  !
 ! A76   A(38,33,44)           109.5087         calculate D2E/DX2 analytically  !
 ! A77   A(33,34,37)           117.898          calculate D2E/DX2 analytically  !
 ! A78   A(33,34,42)           117.7058         calculate D2E/DX2 analytically  !
 ! A79   A(33,34,53)            98.2261         calculate D2E/DX2 analytically  !
 ! A80   A(37,34,42)           113.8336         calculate D2E/DX2 analytically  !
 ! A81   A(37,34,53)            98.0614         calculate D2E/DX2 analytically  !
 ! A82   A(42,34,53)           106.5952         calculate D2E/DX2 analytically  !
 ! A83   A(36,35,40)           109.35           calculate D2E/DX2 analytically  !
 ! A84   A(36,35,42)           111.5277         calculate D2E/DX2 analytically  !
 ! A85   A(36,35,47)           113.3113         calculate D2E/DX2 analytically  !
 ! A86   A(40,35,42)           103.8478         calculate D2E/DX2 analytically  !
 ! A87   A(40,35,47)           108.4421         calculate D2E/DX2 analytically  !
 ! A88   A(42,35,47)           109.8905         calculate D2E/DX2 analytically  !
 ! A89   A(32,36,35)           112.6924         calculate D2E/DX2 analytically  !
 ! A90   A(32,36,41)           107.1266         calculate D2E/DX2 analytically  !
 ! A91   A(32,36,46)           111.7521         calculate D2E/DX2 analytically  !
 ! A92   A(35,36,41)           107.0324         calculate D2E/DX2 analytically  !
 ! A93   A(35,36,46)           108.2409         calculate D2E/DX2 analytically  !
 ! A94   A(41,36,46)           109.8736         calculate D2E/DX2 analytically  !
 ! A95   A(18,37,19)            58.3114         calculate D2E/DX2 analytically  !
 ! A96   A(18,37,34)           146.2785         calculate D2E/DX2 analytically  !
 ! A97   A(19,37,34)           100.1535         calculate D2E/DX2 analytically  !
 ! A98   A(34,42,35)           118.3699         calculate D2E/DX2 analytically  !
 ! A99   A(33,44,63)           113.5496         calculate D2E/DX2 analytically  !
 ! A100  A(33,44,83)           114.7737         calculate D2E/DX2 analytically  !
 ! A101  A(63,44,83)           123.6522         calculate D2E/DX2 analytically  !
 ! A102  A(32,45,67)           114.745          calculate D2E/DX2 analytically  !
 ! A103  A(36,46,71)           112.6177         calculate D2E/DX2 analytically  !
 ! A104  A(35,47,48)           108.4136         calculate D2E/DX2 analytically  !
 ! A105  A(35,47,49)           111.1074         calculate D2E/DX2 analytically  !
 ! A106  A(35,47,50)           106.9895         calculate D2E/DX2 analytically  !
 ! A107  A(48,47,49)           108.0857         calculate D2E/DX2 analytically  !
 ! A108  A(48,47,50)           112.8091         calculate D2E/DX2 analytically  !
 ! A109  A(49,47,50)           109.4614         calculate D2E/DX2 analytically  !
 ! A110  A(10,48,47)           150.659          calculate D2E/DX2 analytically  !
 ! A111  A(47,50,75)           112.2101         calculate D2E/DX2 analytically  !
 ! A112  A(43,51,52)           119.2122         calculate D2E/DX2 analytically  !
 ! A113  A(43,51,53)           105.9993         calculate D2E/DX2 analytically  !
 ! A114  A(43,51,54)           107.96           calculate D2E/DX2 analytically  !
 ! A115  A(52,51,53)           110.8656         calculate D2E/DX2 analytically  !
 ! A116  A(52,51,54)           108.1696         calculate D2E/DX2 analytically  !
 ! A117  A(53,51,54)           103.493          calculate D2E/DX2 analytically  !
 ! A118  A(34,53,51)           117.8753         calculate D2E/DX2 analytically  !
 ! A119  A(34,53,83)           112.5587         calculate D2E/DX2 analytically  !
 ! A120  A(51,53,83)           114.1045         calculate D2E/DX2 analytically  !
 ! A121  A(51,54,55)           118.7435         calculate D2E/DX2 analytically  !
 ! A122  A(51,54,56)           119.2897         calculate D2E/DX2 analytically  !
 ! A123  A(55,54,56)           121.8023         calculate D2E/DX2 analytically  !
 ! A124  A(54,55,57)           118.8793         calculate D2E/DX2 analytically  !
 ! A125  A(54,55,58)           120.0934         calculate D2E/DX2 analytically  !
 ! A126  A(57,55,58)           121.026          calculate D2E/DX2 analytically  !
 ! A127  A(54,56,59)           118.3838         calculate D2E/DX2 analytically  !
 ! A128  A(54,56,60)           120.1793         calculate D2E/DX2 analytically  !
 ! A129  A(59,56,60)           121.4081         calculate D2E/DX2 analytically  !
 ! A130  A(55,57,61)           120.531          calculate D2E/DX2 analytically  !
 ! A131  A(55,57,93)           118.5598         calculate D2E/DX2 analytically  !
 ! A132  A(61,57,93)           120.9091         calculate D2E/DX2 analytically  !
 ! A133  A(55,58,91)           104.5957         calculate D2E/DX2 analytically  !
 ! A134  A(56,59,61)           120.892          calculate D2E/DX2 analytically  !
 ! A135  A(56,59,97)           118.9182         calculate D2E/DX2 analytically  !
 ! A136  A(61,59,97)           120.1096         calculate D2E/DX2 analytically  !
 ! A137  A(57,61,59)           119.481          calculate D2E/DX2 analytically  !
 ! A138  A(57,61,62)           120.2682         calculate D2E/DX2 analytically  !
 ! A139  A(59,61,62)           120.2507         calculate D2E/DX2 analytically  !
 ! A140  A(44,63,64)           109.3807         calculate D2E/DX2 analytically  !
 ! A141  A(44,63,65)           109.41           calculate D2E/DX2 analytically  !
 ! A142  A(44,63,66)           106.6476         calculate D2E/DX2 analytically  !
 ! A143  A(64,63,65)           110.2613         calculate D2E/DX2 analytically  !
 ! A144  A(64,63,66)           111.853          calculate D2E/DX2 analytically  !
 ! A145  A(65,63,66)           109.2017         calculate D2E/DX2 analytically  !
 ! A146  A(19,64,63)           148.9301         calculate D2E/DX2 analytically  !
 ! A147  A(45,67,68)           110.761          calculate D2E/DX2 analytically  !
 ! A148  A(45,67,69)           112.2943         calculate D2E/DX2 analytically  !
 ! A149  A(45,67,70)           106.5547         calculate D2E/DX2 analytically  !
 ! A150  A(68,67,69)           108.6642         calculate D2E/DX2 analytically  !
 ! A151  A(68,67,70)           109.3253         calculate D2E/DX2 analytically  !
 ! A152  A(69,67,70)           109.1862         calculate D2E/DX2 analytically  !
 ! A153  A(46,71,72)           111.8993         calculate D2E/DX2 analytically  !
 ! A154  A(46,71,73)           110.8809         calculate D2E/DX2 analytically  !
 ! A155  A(46,71,74)           106.8865         calculate D2E/DX2 analytically  !
 ! A156  A(72,71,73)           108.5646         calculate D2E/DX2 analytically  !
 ! A157  A(72,71,74)           109.0255         calculate D2E/DX2 analytically  !
 ! A158  A(73,71,74)           109.5437         calculate D2E/DX2 analytically  !
 ! A159  A(50,75,76)           106.7572         calculate D2E/DX2 analytically  !
 ! A160  A(50,75,77)           110.9852         calculate D2E/DX2 analytically  !
 ! A161  A(50,75,78)           111.7138         calculate D2E/DX2 analytically  !
 ! A162  A(76,75,77)           109.1494         calculate D2E/DX2 analytically  !
 ! A163  A(76,75,78)           108.8472         calculate D2E/DX2 analytically  !
 ! A164  A(77,75,78)           109.309          calculate D2E/DX2 analytically  !
 ! A165  A(12,79,80)           106.932          calculate D2E/DX2 analytically  !
 ! A166  A(12,79,81)           111.5823         calculate D2E/DX2 analytically  !
 ! A167  A(12,79,82)           110.7898         calculate D2E/DX2 analytically  !
 ! A168  A(80,79,81)           109.5921         calculate D2E/DX2 analytically  !
 ! A169  A(80,79,82)           109.3284         calculate D2E/DX2 analytically  !
 ! A170  A(81,79,82)           108.5856         calculate D2E/DX2 analytically  !
 ! A171  A(44,83,53)            72.7233         calculate D2E/DX2 analytically  !
 ! A172  A(44,83,84)           109.2956         calculate D2E/DX2 analytically  !
 ! A173  A(53,83,84)            94.9653         calculate D2E/DX2 analytically  !
 ! A174  A(83,84,85)           121.0897         calculate D2E/DX2 analytically  !
 ! A175  A(83,84,89)           117.7967         calculate D2E/DX2 analytically  !
 ! A176  A(85,84,89)           112.4137         calculate D2E/DX2 analytically  !
 ! A177  A(84,85,86)           110.9983         calculate D2E/DX2 analytically  !
 ! A178  A(84,85,87)           107.249          calculate D2E/DX2 analytically  !
 ! A179  A(84,85,88)           110.5655         calculate D2E/DX2 analytically  !
 ! A180  A(86,85,87)           109.581          calculate D2E/DX2 analytically  !
 ! A181  A(86,85,88)           109.0602         calculate D2E/DX2 analytically  !
 ! A182  A(87,85,88)           109.3562         calculate D2E/DX2 analytically  !
 ! A183  A(84,89,90)           110.4245         calculate D2E/DX2 analytically  !
 ! A184  A(84,89,91)           106.6965         calculate D2E/DX2 analytically  !
 ! A185  A(84,89,92)           110.8489         calculate D2E/DX2 analytically  !
 ! A186  A(90,89,91)           109.5202         calculate D2E/DX2 analytically  !
 ! A187  A(90,89,92)           109.2367         calculate D2E/DX2 analytically  !
 ! A188  A(91,89,92)           110.0823         calculate D2E/DX2 analytically  !
 ! A189  A(58,91,89)           113.2316         calculate D2E/DX2 analytically  !
 ! A190  A(57,93,94)           111.7712         calculate D2E/DX2 analytically  !
 ! A191  A(57,93,95)           112.385          calculate D2E/DX2 analytically  !
 ! A192  A(57,93,96)           110.9438         calculate D2E/DX2 analytically  !
 ! A193  A(94,93,95)           107.5752         calculate D2E/DX2 analytically  !
 ! A194  A(94,93,96)           106.4355         calculate D2E/DX2 analytically  !
 ! A195  A(95,93,96)           107.4318         calculate D2E/DX2 analytically  !
 ! A196  A(59,97,98)           111.7968         calculate D2E/DX2 analytically  !
 ! A197  A(59,97,99)           111.1123         calculate D2E/DX2 analytically  !
 ! A198  A(59,97,100)          112.5891         calculate D2E/DX2 analytically  !
 ! A199  A(98,97,99)           106.3216         calculate D2E/DX2 analytically  !
 ! A200  A(98,97,100)          107.5905         calculate D2E/DX2 analytically  !
 ! A201  A(99,97,100)          107.0973         calculate D2E/DX2 analytically  !
 ! D1    D(5,1,2,3)            -49.8935         calculate D2E/DX2 analytically  !
 ! D2    D(5,1,2,7)             66.5121         calculate D2E/DX2 analytically  !
 ! D3    D(5,1,2,13)          -174.5443         calculate D2E/DX2 analytically  !
 ! D4    D(8,1,2,3)             70.2901         calculate D2E/DX2 analytically  !
 ! D5    D(8,1,2,7)           -173.3043         calculate D2E/DX2 analytically  !
 ! D6    D(8,1,2,13)           -54.3607         calculate D2E/DX2 analytically  !
 ! D7    D(14,1,2,3)          -168.3808         calculate D2E/DX2 analytically  !
 ! D8    D(14,1,2,7)           -51.9752         calculate D2E/DX2 analytically  !
 ! D9    D(14,1,2,13)           66.9685         calculate D2E/DX2 analytically  !
 ! D10   D(2,1,5,4)             48.5763         calculate D2E/DX2 analytically  !
 ! D11   D(2,1,5,10)           -70.4476         calculate D2E/DX2 analytically  !
 ! D12   D(2,1,5,15)           170.2922         calculate D2E/DX2 analytically  !
 ! D13   D(8,1,5,4)            -71.5621         calculate D2E/DX2 analytically  !
 ! D14   D(8,1,5,10)           169.414          calculate D2E/DX2 analytically  !
 ! D15   D(8,1,5,15)            50.1539         calculate D2E/DX2 analytically  !
 ! D16   D(14,1,5,4)           169.5509         calculate D2E/DX2 analytically  !
 ! D17   D(14,1,5,10)           50.5269         calculate D2E/DX2 analytically  !
 ! D18   D(14,1,5,15)          -68.7332         calculate D2E/DX2 analytically  !
 ! D19   D(2,1,14,24)          -93.7467         calculate D2E/DX2 analytically  !
 ! D20   D(5,1,14,24)          145.6743         calculate D2E/DX2 analytically  !
 ! D21   D(8,1,14,24)           27.1816         calculate D2E/DX2 analytically  !
 ! D22   D(1,2,3,6)            170.5727         calculate D2E/DX2 analytically  !
 ! D23   D(1,2,3,11)            55.5636         calculate D2E/DX2 analytically  !
 ! D24   D(1,2,3,12)           -69.4443         calculate D2E/DX2 analytically  !
 ! D25   D(7,2,3,6)             52.6485         calculate D2E/DX2 analytically  !
 ! D26   D(7,2,3,11)           -62.3607         calculate D2E/DX2 analytically  !
 ! D27   D(7,2,3,12)           172.6314         calculate D2E/DX2 analytically  !
 ! D28   D(13,2,3,6)           -67.3752         calculate D2E/DX2 analytically  !
 ! D29   D(13,2,3,11)          177.6156         calculate D2E/DX2 analytically  !
 ! D30   D(13,2,3,12)           52.6077         calculate D2E/DX2 analytically  !
 ! D31   D(1,2,13,20)         -168.3483         calculate D2E/DX2 analytically  !
 ! D32   D(3,2,13,20)           68.1476         calculate D2E/DX2 analytically  !
 ! D33   D(7,2,13,20)          -49.9433         calculate D2E/DX2 analytically  !
 ! D34   D(2,3,11,4)           -60.6578         calculate D2E/DX2 analytically  !
 ! D35   D(6,3,11,4)          -179.5234         calculate D2E/DX2 analytically  !
 ! D36   D(12,3,11,4)           61.4568         calculate D2E/DX2 analytically  !
 ! D37   D(2,3,12,79)         -173.741          calculate D2E/DX2 analytically  !
 ! D38   D(6,3,12,79)          -53.076          calculate D2E/DX2 analytically  !
 ! D39   D(11,3,12,79)          62.9477         calculate D2E/DX2 analytically  !
 ! D40   D(9,4,5,1)             68.6681         calculate D2E/DX2 analytically  !
 ! D41   D(9,4,5,10)          -171.7643         calculate D2E/DX2 analytically  !
 ! D42   D(9,4,5,15)           -52.7617         calculate D2E/DX2 analytically  !
 ! D43   D(11,4,5,1)           -50.7469         calculate D2E/DX2 analytically  !
 ! D44   D(11,4,5,10)           68.8207         calculate D2E/DX2 analytically  !
 ! D45   D(11,4,5,15)         -172.1766         calculate D2E/DX2 analytically  !
 ! D46   D(16,4,5,1)          -169.8757         calculate D2E/DX2 analytically  !
 ! D47   D(16,4,5,10)          -50.3081         calculate D2E/DX2 analytically  !
 ! D48   D(16,4,5,15)           68.6945         calculate D2E/DX2 analytically  !
 ! D49   D(5,4,11,3)            57.7697         calculate D2E/DX2 analytically  !
 ! D50   D(9,4,11,3)           -61.6721         calculate D2E/DX2 analytically  !
 ! D51   D(16,4,11,3)          179.543          calculate D2E/DX2 analytically  !
 ! D52   D(5,4,16,17)          -77.8466         calculate D2E/DX2 analytically  !
 ! D53   D(5,4,16,18)          173.1775         calculate D2E/DX2 analytically  !
 ! D54   D(5,4,16,19)           47.9177         calculate D2E/DX2 analytically  !
 ! D55   D(9,4,16,17)           43.151          calculate D2E/DX2 analytically  !
 ! D56   D(9,4,16,18)          -65.8249         calculate D2E/DX2 analytically  !
 ! D57   D(9,4,16,19)          168.9153         calculate D2E/DX2 analytically  !
 ! D58   D(11,4,16,17)         161.3961         calculate D2E/DX2 analytically  !
 ! D59   D(11,4,16,18)          52.4202         calculate D2E/DX2 analytically  !
 ! D60   D(11,4,16,19)         -72.8396         calculate D2E/DX2 analytically  !
 ! D61   D(1,5,10,48)           84.9828         calculate D2E/DX2 analytically  !
 ! D62   D(4,5,10,48)          -37.6469         calculate D2E/DX2 analytically  !
 ! D63   D(15,5,10,48)        -156.3616         calculate D2E/DX2 analytically  !
 ! D64   D(1,5,15,28)          130.5588         calculate D2E/DX2 analytically  !
 ! D65   D(4,5,15,28)         -105.3677         calculate D2E/DX2 analytically  !
 ! D66   D(10,5,15,28)          12.1731         calculate D2E/DX2 analytically  !
 ! D67   D(5,10,48,47)        -116.5953         calculate D2E/DX2 analytically  !
 ! D68   D(3,12,79,80)         175.3357         calculate D2E/DX2 analytically  !
 ! D69   D(3,12,79,81)         -64.8382         calculate D2E/DX2 analytically  !
 ! D70   D(3,12,79,82)          56.2801         calculate D2E/DX2 analytically  !
 ! D71   D(2,13,20,21)         -71.7915         calculate D2E/DX2 analytically  !
 ! D72   D(2,13,20,22)          49.8087         calculate D2E/DX2 analytically  !
 ! D73   D(2,13,20,23)         169.1017         calculate D2E/DX2 analytically  !
 ! D74   D(1,14,24,25)         -58.3305         calculate D2E/DX2 analytically  !
 ! D75   D(1,14,24,26)          63.518          calculate D2E/DX2 analytically  !
 ! D76   D(1,14,24,27)        -176.6907         calculate D2E/DX2 analytically  !
 ! D77   D(5,15,28,29)         -73.6622         calculate D2E/DX2 analytically  !
 ! D78   D(5,15,28,30)          47.4226         calculate D2E/DX2 analytically  !
 ! D79   D(5,15,28,31)         167.8447         calculate D2E/DX2 analytically  !
 ! D80   D(4,16,18,37)        -112.1304         calculate D2E/DX2 analytically  !
 ! D81   D(17,16,18,37)        138.4186         calculate D2E/DX2 analytically  !
 ! D82   D(19,16,18,37)         13.5662         calculate D2E/DX2 analytically  !
 ! D83   D(4,16,19,37)         106.7438         calculate D2E/DX2 analytically  !
 ! D84   D(4,16,19,64)         177.3172         calculate D2E/DX2 analytically  !
 ! D85   D(17,16,19,37)       -132.3895         calculate D2E/DX2 analytically  !
 ! D86   D(17,16,19,64)        -61.8161         calculate D2E/DX2 analytically  !
 ! D87   D(18,16,19,37)        -12.9188         calculate D2E/DX2 analytically  !
 ! D88   D(18,16,19,64)         57.6546         calculate D2E/DX2 analytically  !
 ! D89   D(16,18,37,19)         -9.0165         calculate D2E/DX2 analytically  !
 ! D90   D(16,18,37,34)         47.4977         calculate D2E/DX2 analytically  !
 ! D91   D(16,19,37,18)          7.367          calculate D2E/DX2 analytically  !
 ! D92   D(16,19,37,34)       -144.574          calculate D2E/DX2 analytically  !
 ! D93   D(64,19,37,18)       -115.7919         calculate D2E/DX2 analytically  !
 ! D94   D(64,19,37,34)         92.2671         calculate D2E/DX2 analytically  !
 ! D95   D(16,19,64,63)       -138.4038         calculate D2E/DX2 analytically  !
 ! D96   D(37,19,64,63)        -60.9606         calculate D2E/DX2 analytically  !
 ! D97   D(36,32,33,34)        -36.102          calculate D2E/DX2 analytically  !
 ! D98   D(36,32,33,38)         79.9939         calculate D2E/DX2 analytically  !
 ! D99   D(36,32,33,44)       -159.3744         calculate D2E/DX2 analytically  !
 ! D100  D(39,32,33,34)         82.9388         calculate D2E/DX2 analytically  !
 ! D101  D(39,32,33,38)       -160.9653         calculate D2E/DX2 analytically  !
 ! D102  D(39,32,33,44)        -40.3337         calculate D2E/DX2 analytically  !
 ! D103  D(45,32,33,34)       -156.0203         calculate D2E/DX2 analytically  !
 ! D104  D(45,32,33,38)        -39.9244         calculate D2E/DX2 analytically  !
 ! D105  D(45,32,33,44)         80.7073         calculate D2E/DX2 analytically  !
 ! D106  D(33,32,36,35)        -11.295          calculate D2E/DX2 analytically  !
 ! D107  D(33,32,36,41)       -128.7515         calculate D2E/DX2 analytically  !
 ! D108  D(33,32,36,46)        110.8546         calculate D2E/DX2 analytically  !
 ! D109  D(39,32,36,35)       -130.7132         calculate D2E/DX2 analytically  !
 ! D110  D(39,32,36,41)        111.8303         calculate D2E/DX2 analytically  !
 ! D111  D(39,32,36,46)         -8.5636         calculate D2E/DX2 analytically  !
 ! D112  D(45,32,36,35)        111.2373         calculate D2E/DX2 analytically  !
 ! D113  D(45,32,36,41)         -6.2192         calculate D2E/DX2 analytically  !
 ! D114  D(45,32,36,46)       -126.6131         calculate D2E/DX2 analytically  !
 ! D115  D(33,32,45,67)        -76.2057         calculate D2E/DX2 analytically  !
 ! D116  D(36,32,45,67)        161.3214         calculate D2E/DX2 analytically  !
 ! D117  D(39,32,45,67)         44.2945         calculate D2E/DX2 analytically  !
 ! D118  D(32,33,34,37)       -168.023          calculate D2E/DX2 analytically  !
 ! D119  D(32,33,34,42)         49.3733         calculate D2E/DX2 analytically  !
 ! D120  D(32,33,34,53)        -64.3217         calculate D2E/DX2 analytically  !
 ! D121  D(38,33,34,37)         73.357          calculate D2E/DX2 analytically  !
 ! D122  D(38,33,34,42)        -69.2467         calculate D2E/DX2 analytically  !
 ! D123  D(38,33,34,53)        177.0583         calculate D2E/DX2 analytically  !
 ! D124  D(44,33,34,37)        -44.5332         calculate D2E/DX2 analytically  !
 ! D125  D(44,33,34,42)        172.8631         calculate D2E/DX2 analytically  !
 ! D126  D(44,33,34,53)         59.1681         calculate D2E/DX2 analytically  !
 ! D127  D(32,33,44,63)       -140.9872         calculate D2E/DX2 analytically  !
 ! D128  D(32,33,44,83)         68.9112         calculate D2E/DX2 analytically  !
 ! D129  D(34,33,44,63)         94.6874         calculate D2E/DX2 analytically  !
 ! D130  D(34,33,44,83)        -55.4142         calculate D2E/DX2 analytically  !
 ! D131  D(38,33,44,63)        -20.4609         calculate D2E/DX2 analytically  !
 ! D132  D(38,33,44,83)       -170.5625         calculate D2E/DX2 analytically  !
 ! D133  D(33,34,37,18)       -107.4262         calculate D2E/DX2 analytically  !
 ! D134  D(33,34,37,19)        -61.2913         calculate D2E/DX2 analytically  !
 ! D135  D(42,34,37,18)         36.5713         calculate D2E/DX2 analytically  !
 ! D136  D(42,34,37,19)         82.7063         calculate D2E/DX2 analytically  !
 ! D137  D(53,34,37,18)        148.7761         calculate D2E/DX2 analytically  !
 ! D138  D(53,34,37,19)       -165.089          calculate D2E/DX2 analytically  !
 ! D139  D(33,34,42,35)         -7.233          calculate D2E/DX2 analytically  !
 ! D140  D(37,34,42,35)       -151.3041         calculate D2E/DX2 analytically  !
 ! D141  D(53,34,42,35)        101.7408         calculate D2E/DX2 analytically  !
 ! D142  D(33,34,53,51)       -176.8907         calculate D2E/DX2 analytically  !
 ! D143  D(33,34,53,83)        -40.8353         calculate D2E/DX2 analytically  !
 ! D144  D(37,34,53,51)        -57.0258         calculate D2E/DX2 analytically  !
 ! D145  D(37,34,53,83)         79.0296         calculate D2E/DX2 analytically  !
 ! D146  D(42,34,53,51)         60.8828         calculate D2E/DX2 analytically  !
 ! D147  D(42,34,53,83)       -163.0618         calculate D2E/DX2 analytically  !
 ! D148  D(40,35,36,32)        166.6066         calculate D2E/DX2 analytically  !
 ! D149  D(40,35,36,41)        -75.8813         calculate D2E/DX2 analytically  !
 ! D150  D(40,35,36,46)         42.4986         calculate D2E/DX2 analytically  !
 ! D151  D(42,35,36,32)         52.3248         calculate D2E/DX2 analytically  !
 ! D152  D(42,35,36,41)        169.8369         calculate D2E/DX2 analytically  !
 ! D153  D(42,35,36,46)        -71.7831         calculate D2E/DX2 analytically  !
 ! D154  D(47,35,36,32)        -72.3016         calculate D2E/DX2 analytically  !
 ! D155  D(47,35,36,41)         45.2105         calculate D2E/DX2 analytically  !
 ! D156  D(47,35,36,46)        163.5904         calculate D2E/DX2 analytically  !
 ! D157  D(36,35,42,34)        -44.2111         calculate D2E/DX2 analytically  !
 ! D158  D(40,35,42,34)       -161.8624         calculate D2E/DX2 analytically  !
 ! D159  D(47,35,42,34)         82.3094         calculate D2E/DX2 analytically  !
 ! D160  D(36,35,47,48)        130.9675         calculate D2E/DX2 analytically  !
 ! D161  D(36,35,47,49)         12.3321         calculate D2E/DX2 analytically  !
 ! D162  D(36,35,47,50)       -107.0985         calculate D2E/DX2 analytically  !
 ! D163  D(40,35,47,48)       -107.4305         calculate D2E/DX2 analytically  !
 ! D164  D(40,35,47,49)        133.9341         calculate D2E/DX2 analytically  !
 ! D165  D(40,35,47,50)         14.5035         calculate D2E/DX2 analytically  !
 ! D166  D(42,35,47,48)          5.4593         calculate D2E/DX2 analytically  !
 ! D167  D(42,35,47,49)       -113.1761         calculate D2E/DX2 analytically  !
 ! D168  D(42,35,47,50)        127.3933         calculate D2E/DX2 analytically  !
 ! D169  D(32,36,46,71)         82.9145         calculate D2E/DX2 analytically  !
 ! D170  D(35,36,46,71)       -152.4163         calculate D2E/DX2 analytically  !
 ! D171  D(41,36,46,71)        -35.8603         calculate D2E/DX2 analytically  !
 ! D172  D(33,44,63,64)        -36.5141         calculate D2E/DX2 analytically  !
 ! D173  D(33,44,63,65)         84.3615         calculate D2E/DX2 analytically  !
 ! D174  D(33,44,63,66)       -157.6477         calculate D2E/DX2 analytically  !
 ! D175  D(83,44,63,64)        110.5497         calculate D2E/DX2 analytically  !
 ! D176  D(83,44,63,65)       -128.5748         calculate D2E/DX2 analytically  !
 ! D177  D(83,44,63,66)        -10.584          calculate D2E/DX2 analytically  !
 ! D178  D(33,44,83,53)         20.4181         calculate D2E/DX2 analytically  !
 ! D179  D(33,44,83,84)        -68.8455         calculate D2E/DX2 analytically  !
 ! D180  D(63,44,83,53)       -126.2875         calculate D2E/DX2 analytically  !
 ! D181  D(63,44,83,84)        144.449          calculate D2E/DX2 analytically  !
 ! D182  D(32,45,67,68)        -47.6597         calculate D2E/DX2 analytically  !
 ! D183  D(32,45,67,69)         74.0304         calculate D2E/DX2 analytically  !
 ! D184  D(32,45,67,70)       -166.4693         calculate D2E/DX2 analytically  !
 ! D185  D(36,46,71,72)        -59.3251         calculate D2E/DX2 analytically  !
 ! D186  D(36,46,71,73)         62.0476         calculate D2E/DX2 analytically  !
 ! D187  D(36,46,71,74)       -178.6132         calculate D2E/DX2 analytically  !
 ! D188  D(35,47,48,10)        148.6474         calculate D2E/DX2 analytically  !
 ! D189  D(49,47,48,10)        -90.8219         calculate D2E/DX2 analytically  !
 ! D190  D(50,47,48,10)         30.3468         calculate D2E/DX2 analytically  !
 ! D191  D(35,47,50,75)        173.9949         calculate D2E/DX2 analytically  !
 ! D192  D(48,47,50,75)        -66.8748         calculate D2E/DX2 analytically  !
 ! D193  D(49,47,50,75)         53.5087         calculate D2E/DX2 analytically  !
 ! D194  D(47,50,75,76)       -175.491          calculate D2E/DX2 analytically  !
 ! D195  D(47,50,75,77)        -56.6482         calculate D2E/DX2 analytically  !
 ! D196  D(47,50,75,78)         65.6244         calculate D2E/DX2 analytically  !
 ! D197  D(43,51,53,34)        163.2607         calculate D2E/DX2 analytically  !
 ! D198  D(43,51,53,83)         27.8553         calculate D2E/DX2 analytically  !
 ! D199  D(52,51,53,34)         32.5198         calculate D2E/DX2 analytically  !
 ! D200  D(52,51,53,83)       -102.8856         calculate D2E/DX2 analytically  !
 ! D201  D(54,51,53,34)        -83.2434         calculate D2E/DX2 analytically  !
 ! D202  D(54,51,53,83)        141.3512         calculate D2E/DX2 analytically  !
 ! D203  D(43,51,54,55)         24.2304         calculate D2E/DX2 analytically  !
 ! D204  D(43,51,54,56)       -160.3468         calculate D2E/DX2 analytically  !
 ! D205  D(52,51,54,55)        154.4976         calculate D2E/DX2 analytically  !
 ! D206  D(52,51,54,56)        -30.0796         calculate D2E/DX2 analytically  !
 ! D207  D(53,51,54,55)        -87.8401         calculate D2E/DX2 analytically  !
 ! D208  D(53,51,54,56)         87.5827         calculate D2E/DX2 analytically  !
 ! D209  D(34,53,83,44)         12.9067         calculate D2E/DX2 analytically  !
 ! D210  D(34,53,83,84)        121.59           calculate D2E/DX2 analytically  !
 ! D211  D(51,53,83,44)        150.6819         calculate D2E/DX2 analytically  !
 ! D212  D(51,53,83,84)       -100.6347         calculate D2E/DX2 analytically  !
 ! D213  D(51,54,55,57)        173.5008         calculate D2E/DX2 analytically  !
 ! D214  D(51,54,55,58)         -6.0793         calculate D2E/DX2 analytically  !
 ! D215  D(56,54,55,57)         -1.8017         calculate D2E/DX2 analytically  !
 ! D216  D(56,54,55,58)        178.6181         calculate D2E/DX2 analytically  !
 ! D217  D(51,54,56,59)       -173.4017         calculate D2E/DX2 analytically  !
 ! D218  D(51,54,56,60)          4.6741         calculate D2E/DX2 analytically  !
 ! D219  D(55,54,56,59)          1.8758         calculate D2E/DX2 analytically  !
 ! D220  D(55,54,56,60)        179.9516         calculate D2E/DX2 analytically  !
 ! D221  D(54,55,57,61)          0.3886         calculate D2E/DX2 analytically  !
 ! D222  D(54,55,57,93)       -179.7327         calculate D2E/DX2 analytically  !
 ! D223  D(58,55,57,61)        179.9647         calculate D2E/DX2 analytically  !
 ! D224  D(58,55,57,93)         -0.1566         calculate D2E/DX2 analytically  !
 ! D225  D(54,55,58,91)         72.2023         calculate D2E/DX2 analytically  !
 ! D226  D(57,55,58,91)       -107.3687         calculate D2E/DX2 analytically  !
 ! D227  D(54,56,59,61)         -0.5493         calculate D2E/DX2 analytically  !
 ! D228  D(54,56,59,97)        176.1982         calculate D2E/DX2 analytically  !
 ! D229  D(60,56,59,61)       -178.6003         calculate D2E/DX2 analytically  !
 ! D230  D(60,56,59,97)         -1.8528         calculate D2E/DX2 analytically  !
 ! D231  D(55,57,61,59)          0.8849         calculate D2E/DX2 analytically  !
 ! D232  D(55,57,61,62)       -179.1731         calculate D2E/DX2 analytically  !
 ! D233  D(93,57,61,59)       -178.9909         calculate D2E/DX2 analytically  !
 ! D234  D(93,57,61,62)          0.9511         calculate D2E/DX2 analytically  !
 ! D235  D(55,57,93,94)        -70.5745         calculate D2E/DX2 analytically  !
 ! D236  D(55,57,93,95)        168.3517         calculate D2E/DX2 analytically  !
 ! D237  D(55,57,93,96)         48.0509         calculate D2E/DX2 analytically  !
 ! D238  D(61,57,93,94)        109.3038         calculate D2E/DX2 analytically  !
 ! D239  D(61,57,93,95)        -11.7701         calculate D2E/DX2 analytically  !
 ! D240  D(61,57,93,96)       -132.0709         calculate D2E/DX2 analytically  !
 ! D241  D(55,58,91,89)        168.0206         calculate D2E/DX2 analytically  !
 ! D242  D(56,59,61,57)         -0.8026         calculate D2E/DX2 analytically  !
 ! D243  D(56,59,61,62)        179.2554         calculate D2E/DX2 analytically  !
 ! D244  D(97,59,61,57)       -177.5116         calculate D2E/DX2 analytically  !
 ! D245  D(97,59,61,62)          2.5464         calculate D2E/DX2 analytically  !
 ! D246  D(56,59,97,98)         46.6            calculate D2E/DX2 analytically  !
 ! D247  D(56,59,97,99)        -72.0106         calculate D2E/DX2 analytically  !
 ! D248  D(56,59,97,100)       167.8587         calculate D2E/DX2 analytically  !
 ! D249  D(61,59,97,98)       -136.6263         calculate D2E/DX2 analytically  !
 ! D250  D(61,59,97,99)        104.763          calculate D2E/DX2 analytically  !
 ! D251  D(61,59,97,100)       -15.3676         calculate D2E/DX2 analytically  !
 ! D252  D(44,63,64,19)         28.5856         calculate D2E/DX2 analytically  !
 ! D253  D(65,63,64,19)        -91.771          calculate D2E/DX2 analytically  !
 ! D254  D(66,63,64,19)        146.5086         calculate D2E/DX2 analytically  !
 ! D255  D(44,83,84,85)       -110.4389         calculate D2E/DX2 analytically  !
 ! D256  D(44,83,84,89)        104.3555         calculate D2E/DX2 analytically  !
 ! D257  D(53,83,84,85)        176.1456         calculate D2E/DX2 analytically  !
 ! D258  D(53,83,84,89)         30.94           calculate D2E/DX2 analytically  !
 ! D259  D(83,84,85,86)        -86.0334         calculate D2E/DX2 analytically  !
 ! D260  D(83,84,85,87)         33.6403         calculate D2E/DX2 analytically  !
 ! D261  D(83,84,85,88)        152.7946         calculate D2E/DX2 analytically  !
 ! D262  D(89,84,85,86)         60.871          calculate D2E/DX2 analytically  !
 ! D263  D(89,84,85,87)       -179.4553         calculate D2E/DX2 analytically  !
 ! D264  D(89,84,85,88)        -60.301          calculate D2E/DX2 analytically  !
 ! D265  D(83,84,89,90)       -157.7282         calculate D2E/DX2 analytically  !
 ! D266  D(83,84,89,91)        -38.7849         calculate D2E/DX2 analytically  !
 ! D267  D(83,84,89,92)         81.0719         calculate D2E/DX2 analytically  !
 ! D268  D(85,84,89,90)         54.1828         calculate D2E/DX2 analytically  !
 ! D269  D(85,84,89,91)        173.1261         calculate D2E/DX2 analytically  !
 ! D270  D(85,84,89,92)        -67.0171         calculate D2E/DX2 analytically  !
 ! D271  D(84,89,91,58)        138.4055         calculate D2E/DX2 analytically  !
 ! D272  D(90,89,91,58)       -102.064          calculate D2E/DX2 analytically  !
 ! D273  D(92,89,91,58)         18.0552         calculate D2E/DX2 analytically  !
 --------------------------------------------------------------------------------
 Trust Radius=1.00D-01 FncErr=1.00D-07 GrdErr=1.00D-06 EigMax=2.50D+02 EigMin=1.00D-04
 Number of steps in this run=    591 maximum allowed number of steps=    600.
 Search for a saddle point of order  1.
 GradGradGradGradGradGradGradGradGradGradGradGradGradGradGradGradGradGrad

 Leave Link  103 at Mon Jun  3 19:39:28 2019, MaxMem=  6442450944 cpu:               4.8 elap:               0.2
 (Enter /home/ekwan/sw/g16/l202.exe)
 Stoichiometry    C30H47F6NaO15S
 Framework group  C1[X(C30H47F6NaO15S)]
 Deg. of freedom   294
 Full point group                 C1      NOp   1
 Largest Abelian subgroup         C1      NOp   1
 Largest concise Abelian subgroup C1      NOp   1
                         Standard orientation:                         
 ---------------------------------------------------------------------
 Center     Atomic      Atomic             Coordinates (Angstroms)
 Number     Number       Type             X           Y           Z
 ---------------------------------------------------------------------
      1          6           0        5.239980    0.058603    0.033448
      2          6           0        4.239062    1.193010    0.254411
      3          6           0        3.335325    1.377444   -0.973029
      4          6           0        3.569267   -0.919466   -1.625545
      5          6           0        4.525447   -1.192668   -0.463597
      6          1           0        2.518715    2.071552   -0.748147
      7          1           0        3.574193    0.918345    1.085576
      8          1           0        5.982569    0.372395   -0.712432
      9          1           0        4.156110   -0.649133   -2.515725
     10          1           0        3.931682   -1.600273    0.359897
     11          8           0        2.688591    0.174058   -1.295788
     12          8           0        4.114760    1.895576   -2.026801
     13          8           0        4.960832    2.369318    0.592979
     14          8           0        5.894882   -0.292716    1.252479
     15          8           0        5.502743   -2.148111   -0.872027
     16          6           0        2.682334   -2.146927   -1.936885
     17          1           0        3.346882   -2.841940   -2.507783
     18          1           0        1.957413   -1.765321   -2.706874
     19          8           0        2.091811   -2.715555   -0.850068
     20          6           0        4.142546    3.421659    1.075464
     21          1           0        3.535799    3.873073    0.279189
     22          1           0        3.466282    3.072833    1.869126
     23          1           0        4.813268    4.183267    1.481568
     24          6           0        7.133091    0.362245    1.473840
     25          1           0        7.840387    0.157150    0.656132
     26          1           0        7.008298    1.445852    1.571426
     27          1           0        7.542375   -0.044773    2.403106
     28          6           0        5.276656   -3.438605   -0.318043
     29          1           0        5.537751   -3.456323    0.751487
     30          1           0        4.226264   -3.732915   -0.434005
     31          1           0        5.929620   -4.136362   -0.851911
     32          6           0       -1.444786   -2.315316    1.520674
     33          6           0       -0.535840   -2.751279    0.358418
     34          6           0       -0.248663   -1.610065   -0.596466
     35          6           0        0.147721   -0.317308    1.364274
     36          6           0       -1.136003   -0.861188    1.972993
     37          1           0        0.209463   -1.847121   -1.541516
     38          1           0        0.439373   -3.045118    0.752697
     39          1           0       -2.487875   -2.352163    1.183865
     40          1           0        0.191340    0.759576    1.517056
     41          1           0       -0.991097   -0.884917    3.061219
     42          8           0        0.156299   -0.463929   -0.079564
     43          8           0       -3.440469   -0.531000   -2.865138
     44          8           0       -1.113860   -3.845964   -0.344683
     45          8           0       -1.280913   -3.151308    2.656279
     46          8           0       -2.194469    0.027718    1.646106
     47          6           0        1.416007   -0.944200    1.960497
     48          1           0        2.064948   -1.263085    1.136466
     49          1           0        1.172783   -1.830846    2.566954
     50          8           0        2.018428    0.042798    2.785580
     51         16           0       -2.110693   -0.260737   -2.293086
     52          8           0       -0.949185   -0.184968   -3.185884
     53          8           0       -1.889585   -1.348036   -1.176467
     54          6           0       -2.207071    1.269162   -1.372450
     55          6           0       -3.441914    1.679196   -0.885488
     56          6           0       -1.036388    1.963856   -1.081620
     57          6           0       -3.500334    2.795993   -0.053103
     58          1           0       -4.338234    1.130754   -1.147418
     59          6           0       -1.116493    3.077281   -0.245841
     60          1           0       -0.087522    1.620279   -1.474632
     61          6           0       -2.340923    3.493314    0.277717
     62          1           0       -2.389437    4.351704    0.934966
     63          6           0       -0.149262   -4.837821   -0.762690
     64          1           0        0.783591   -4.337795   -1.057004
     65          1           0        0.037849   -5.535631    0.063635
     66          1           0       -0.600306   -5.381175   -1.596892
     67          6           0       -1.908730   -4.423497    2.554585
     68          1           0       -2.943621   -4.320011    2.197866
     69          1           0       -1.371416   -5.099407    1.880323
     70          1           0       -1.913977   -4.849396    3.560769
     71          6           0       -3.240956    0.007195    2.605844
     72          1           0       -3.681381   -0.994041    2.710622
     73          1           0       -2.876434    0.333887    3.589982
     74          1           0       -4.007759    0.697735    2.253202
     75          6           0        3.133964   -0.465732    3.504251
     76          1           0        3.475152    0.335481    4.164695
     77          1           0        2.847189   -1.337100    4.112109
     78          1           0        3.955834   -0.746105    2.833063
     79          6           0        3.331279    2.233288   -3.164691
     80          1           0        4.004586    2.699592   -3.887527
     81          1           0        2.867963    1.346686   -3.612753
     82          1           0        2.537535    2.945037   -2.894811
     83         11           0       -3.025715   -3.326943   -1.547428
     84          8           0       -4.742066   -2.849515   -0.081954
     85          6           0       -5.853184   -3.729469    0.061344
     86          1           0       -6.625501   -3.513665   -0.689193
     87          1           0       -5.480859   -4.746733   -0.078588
     88          1           0       -6.291413   -3.637109    1.063354
     89          6           0       -5.105466   -1.481777    0.093657
     90          1           0       -5.618244   -1.342090    1.053335
     91          1           0       -4.179393   -0.908964    0.089184
     92          1           0       -5.761483   -1.144236   -0.719517
     93          6           0       -4.839699    3.229819    0.474737
     94          9           0       -5.614957    3.755839   -0.497943
     95          9           0       -4.732256    4.150275    1.451298
     96          9           0       -5.526061    2.173835    0.984456
     97          6           0        0.151175    3.785122    0.146026
     98          9           0        0.956663    4.001281   -0.920673
     99          9           0        0.874116    3.043316    1.026594
    100          9           0       -0.080456    4.975295    0.728284
 ---------------------------------------------------------------------
 Rotational constants (GHZ):           0.0688244           0.0430339           0.0336904
 Leave Link  202 at Mon Jun  3 19:39:28 2019, MaxMem=  6442450944 cpu:               5.2 elap:               0.2
 (Enter /home/ekwan/sw/g16/l301.exe)
 Standard basis: 6-31G(d) (6D, 7F)
 Ernie: Thresh=  0.10000D-02 Tol=  0.10000D-05 Strict=F.
 There are   897 symmetry adapted cartesian basis functions of A   symmetry.
 There are   897 symmetry adapted basis functions of A   symmetry.
   897 basis functions,  1720 primitive gaussians,   897 cartesian basis functions
   214 alpha electrons      214 beta electrons
       nuclear repulsion energy      9800.9925599391 Hartrees.
 IExCor=  402 DFT=T Ex+Corr=B3LYP ExCW=0 ScaHFX=  0.200000
 ScaDFX=  0.800000  0.720000  1.000000  0.810000 ScalE2=  1.000000  1.000000
 IRadAn=      5 IRanWt=     -1 IRanGd=            0 ICorTp=0 IEmpDi=141
 NAtoms=  100 NActive=  100 NUniq=  100 SFac= 1.00D+00 NAtFMM=   60 NAOKFM=T Big=T
 Integral buffers will be    131072 words long.
 Raffenetti 2 integral format.
 Two-electron integral symmetry is turned on.
[...]
 0012583,0.00032443,0.00005326,0.00002028,-0.00008676,0.00019099,-0.000
 11475,-0.00013647,0.00041760,-0.00056738,-0.00031755,0.00034318,-0.000
 60371,-0.00045913,-0.00006012,0.00012484,0.00010347,-0.00052282,0.0003
 3253,0.00050369,0.00088082,0.00099568,-0.00008355,-0.00052381,0.000374
 48,-0.00042120,0.00030785,-0.00088145,0.00048560,-0.00034304,-0.000507
 36,0.00001696,0.00000148,0.00001135,-0.00005348,-0.00185317,0.00929750
 ,-0.00059329,-0.00009211,-0.00005520,-0.00058523,0.00054447,0.00004884
 ,0.00082084,-0.00051471,-0.00003611,-0.00017479,-0.00008588,0.00009714
 ,-0.00002986,0.00002258,0.00002004,-0.00000709,0.00001022,-0.00001962,
 -0.00000740,-0.00000063,-0.00002880,0.00001711,0.00010247,0.00014147,-
 0.00002298,-0.00002060,-0.00000981,0.00001079,-0.00000389,-0.00002854,
 0.00001536,-0.00000929,-0.00003439,-0.00001634,0.00022524,-0.00000697,
 0.00022053,-0.00003894,-0.00003680,-0.00003350,-0.00000254,0.00000040,
 -0.00003139,-0.00004503,0.00001409,-0.00001946,-0.00035455,0.00012781,
 0.00026843,0.00004027,0.00001873,-0.00003620,0.00003660,-0.00008539,-0
 .00005565,0.00004592,-0.00003443,-0.00001368,0.00042980,-0.00027062,-0
 .00038217,-0.00002782,0.00004484,0.00004527,-0.00006942,0.00002921,0.0
 0000544,-0.00008263,0.00003300,0.00007781,0.00006560,0.00004843,-0.000
 06691,-0.00006199,-0.00002193,0.00002071,0.00003479,0.00003007,0.00000
 202,-0.00001161,-0.00000230,0.00000455,-0.00000107,-0.00000389,-0.0000
 0116,-0.00000362,-0.00000280,-0.00000278,0.00003439,0.00000251,-0.0000
 0488,0.00000404,-0.00000017,-0.00000183,0.00001299,-0.00001013,-0.0000
 2172,-0.00001565,-0.00000495,0.00001144,0.00002314,-0.00024342,-0.0000
 7044,-0.00000216,0.00002490,0.00001571,0.00002352,0.00006701,-0.000019
 65,-0.00001981,0.00008822,0.00003412,0.04403116,-0.10340066,-0.0473978
 4,-0.00002119,-0.00572012,-0.03683481,-0.08400008,0.16320669,-0.000055
 35,0.00003697,0.00009631,-0.00021544,0.00023248,-0.00057617,0.00052412
 ,-0.00073796,-0.00016750,0.00006439,-0.00002883,-0.00005321,0.00001589
 ,0.00001206,-0.00010531,-0.00088757,0.00051383,-0.00131606,-0.00016918
 ,0.00014730,0.00022592,0.00005067,-0.00002058,0.00000943,0.00000778,-0
 .00000136,0.00002446,0.00000256,0.00002703,0.00001994,-0.00011729,0.00
 029436,0.00020133,-0.00042137,0.00025838,0.00021593,0.00045596,-0.0002
 2734,0.00046784,0.00003653,0.00000729,0.00005424,0.00001051,-0.0000481
 0,0.00005398,-0.00004217,-0.00004930,-0.00012468,0.00001649,0.00000817
 ,0.00001631,-0.00004099,0.00001551,0.00004342,0.00000892,0.00000046,0.
 00019682,-0.00048875,-0.00030192,-0.00142217,-0.00016849,-0.00006948,-
 0.00010409,-0.00006874,0.00045313,0.00102232,0.00031673,0.00005742,0.0
 0019535,-0.00005368,0.00001377,-0.00000471,0.00001698,-0.00000792,0.00
 001582,-0.00001506,-0.00001034,0.00000220,-0.00000134,-0.00000312,-0.0
 0000316,-0.00000043,0.00001452,-0.00000536,-0.00000605,0.00000085,0.00
 000567,-0.00000083,-0.00000386,-0.00000502,0.00000528,-0.00000863,0.00
 000340,-0.00015032,0.00015623,-0.00010663,-0.00004255,0.00008930,-0.00
 010417,0.00109098,0.00025671,-0.00053585,-0.00011107,0.00122386,-0.001
 23705,0.00057158,-0.00040211,0.00029666,-0.00009598,-0.00005975,0.0000
 7520,-0.00000929,0.00005447,0.00000548,-0.00003639,-0.00009339,0.00001
 108,0.00058333,0.00015435,0.00025790,-0.00000849,0.00004995,0.00005043
 ,-0.00045703,-0.00056706,0.00091095,0.00016030,0.00061079,-0.00023526,
 -0.00004017,-0.00008258,0.00011403,-0.00008256,-0.00015060,0.00001741,
 -0.00038092,0.00009230,0.00015249,-0.00012120,0.00017320,0.00002179,0.
 00002342,-0.00001855,-0.00005725,0.00008981,-0.00012651,-0.00006939,0.
 00053963,-0.00037232,-0.00038490,0.00025137,-0.00216629,0.00036057,-0.
 00021738,0.00049726,-0.00026127,-0.00065999,0.00097231,0.00061882,-0.0
 0011996,0.00019478,0.00023331,0.00073401,-0.00027789,0.00012576,0.0002
 0662,-0.00053198,0.00117566,0.00153770,0.00095594,0.00065492,0.0000140
 6,-0.00006665,-0.00003574,0.02278318,-0.01213232,-0.00785789,-0.000081
 67,-0.00039142,-0.00030648,0.00007971,0.00194894,-0.00329700,-0.000053
 53,-0.00038088,-0.00037834,-0.00002242,0.00001769,-0.00000811,0.000004
 44,0.00000137,-0.00000627,0.00000183,0.00000329,0.00000301,-0.00000048
 ,-0.00001388,0.00000795,0.00005524,0.00007142,-0.00002063,-0.00001492,
 -0.00000565,0.00000364,0.00000027,-0.00001942,0.00000691,-0.00000356,-
 0.00001441,-0.00000347,0.00013515,0.00000497,-0.00000978,-0.00002679,-
 0.00001881,0.00000794,-0.00001104,0.00001727,0.00005699,-0.00004907,0.
 00000073,-0.00006739,-0.00036747,0.00010568,0.00024629,0.00000476,0.00
 001849,-0.00000035,0.00004506,-0.00009704,-0.00006706,0.00005529,-0.00
 004210,-0.00001115,0.00048552,-0.00039415,-0.00007472,-0.00007375,0.00
 004963,-0.00001572,-0.00004782,0.00004746,-0.00001573,-0.00002824,0.00
 009537,0.00011128,0.00001881,-0.00011265,-0.00006133,0.00002151,0.0001
 1005,0.00004309,-0.00004095,-0.00001693,-0.00001862,0.00000118,-0.0000
 0024,0.00000290,0.00000573,0.00001172,-0.00000247,0.00000924,-0.000000
 51,0.00000689,-0.00006272,-0.00009987,-0.00000423,0.00002521,0.0000209
 9,0.00001696,0.00004464,-0.00004932,-0.00006765,-0.00003173,-0.0000074
 2,0.00001499,-0.00135603,0.00079266,-0.00073774,0.00047291,-0.00022441
 ,-0.00006018,0.00028389,-0.00026270,0.00034553,0.00068826,0.00020701,0
 .00040697,0.06899861,-0.04789379,-0.14114240,0.00367216,-0.03972144,-0
 .06430083,-0.09753862,0.10519849,0.19907404,0.00010031,-0.00009728,-0.
 00001268,-0.00001517,-0.00000830,-0.00006130,0.00051174,-0.00067526,0.
 00036155,0.00015816,-0.00011514,0.00005222,0.00000621,-0.00006806,0.00
 000677,-0.00008580,-0.00000503,0.00008976,0.00002585,-0.00002768,-0.00
 003132,-0.00001302,0.00001050,-0.00000394,-0.00001747,0.00001064,-0.00
 000972,-0.00000888,-0.00000024,0.00000308,-0.00007045,0.00042171,-0.00
 013970,-0.00024194,0.00014296,-0.00022025,-0.00020172,0.00022373,-0.00
 004352,-0.00011147,0.00005633,0.00006291,-0.00004222,0.00011491,0.0000
 0056,-0.00012260,-0.00007761,-0.00005685,0.00002498,0.00003194,0.00000
 524,0.00001532,0.00000579,-0.00000440,0.00018029,0.00003311,0.00003143
 ,0.00028407,-0.00024209,-0.00005030,0.00007201,0.00011455,0.00014216,0
 .00007627,-0.00005190,-0.00014969,-0.00010590,0.00000419,0.00003894,0.
 00006283,0.00001235,-0.00000320,-0.00001285,-0.00000012,-0.00000847,0.
 00000906,0.00000013,-0.00001002,-0.00001130,0.00000418,0.00001006,-0.0
 0001107,-0.00005838,-0.00002555,0.00000206,0.00000607,0.00000743,-0.00
 000097,0.00000914,0.00000340,-0.00000220,0.00001260,0.00000043,0.00003
 932,-0.00000251,0.00007460,0.00003642,0.00002259,0.00001275,-0.0007461
 0,0.00008326,0.00027068,0.00000842,-0.00028831,0.00037881,-0.00023708,
 0.00018667,-0.00005260,0.00002218,0.00001207,-0.00004192,-0.00000606,-
 0.00003120,-0.00001124,0.00001867,0.00002872,-0.00000247,-0.00025171,-
 0.00011587,-0.00012799,0.00001361,-0.00002144,-0.00002879,0.00024204,0
 .00004804,-0.00029491,-0.00026659,-0.00069317,0.00040325,0.00003301,-0
 .00006626,-0.00000358,0.00001694,-0.00003171,-0.00004201,0.00010596,-0
 .00014246,-0.00015741,-0.00002760,-0.00006095,0.00000209,-0.00000010,-
 0.00000837,0.00000097,-0.00000718,0.00002634,0.00001423,0.00001148,0.0
 0011310,0.00005630,-0.00055631,0.00194193,-0.00077701,0.00035372,-0.00
 039562,0.00039715,0.00047971,-0.00087985,-0.00032152,-0.00030887,-0.00
 122411,0.00142875,-0.00024324,-0.00064964,0.00039151,-0.00429620,-0.00
 067882,-0.00085743,0.00090900,-0.00046467,0.00053494,0.00001932,-0.000
 08571,0.00004080,0.00808115,-0.02436154,0.01299807,0.00007750,-0.00015
 827,0.00000464,-0.00340368,-0.00115448,-0.00062145,-0.00107166,-0.0026
 2078,0.00154485,-0.00002636,0.00004640,-0.00001600,-0.00000678,-0.0000
 0955,0.00000246,0.00000647,-0.00001039,-0.00000291,0.00000169,-0.00000
 375,0.00000322,0.00000375,0.00002066,0.00000126,0.00000159,-0.00000045
 ,0.00000150,-0.00000016,-0.00000173,0.00000375,-0.00000220,-0.00000338
 ,-0.00000400,0.00002704,0.00001750,0.00007121,-0.00000503,-0.00002218,
 -0.00001384,0.00000527,-0.00000200,-0.00003272,0.00003027,0.00001031,0
 .00003749,0.00004607,-0.00001010,-0.00005058,0.00000152,-0.00000370,-0
 .00000673,-0.00000219,0.00002184,0.00001701,-0.00000471,-0.00000509,-0
 .00000078,0.00019473,-0.00024085,0.00010240,-0.00004649,0.00002794,-0.
 00004472,-0.00002439,0.00005817,-0.00004533,-0.00000663,0.00008225,0.0
 0013280,0.00000956,0.00013760,0.00000944,-0.00004846,-0.00011095,-0.00
 001606,0.00005332,0.00003310,0.00001083,-0.00000848,-0.00000049,0.0000
 0084,-0.00000488,-0.00001319,0.00000116,-0.00000903,-0.00000157,-0.000
 00511,0.00006452,0.00009280,-0.00000738,-0.00001407,-0.00001722,-0.000
 01159,-0.00002477,0.00003277,0.00004241,0.00001635,0.00000142,-0.00000
 387,0.00139431,-0.00023140,0.00033307,-0.00044500,0.00017718,0.0001095
 2,-0.00030714,0.00014832,-0.00018579,-0.00042122,-0.00016088,-0.000196
 88,-0.07931866,0.01114714,-0.00644672,-0.00718020,0.02862787,-0.034366
 29,-0.00427327,0.04220214,-0.00013138,0.09082344,-0.00018248,0.0001642
 5,0.00004841,-0.00015799,-0.00026090,0.00015923,-0.00111454,0.00082138
 ,-0.00063538,-0.00030106,0.00025860,-0.00013783,-0.00008647,0.00011898
 ,0.00001410,0.00009344,-0.00022086,-0.00019553,-0.00004795,0.00007195,
 0.00008506,0.00004379,-0.00002090,0.00000735,0.00006720,-0.00001530,0.
 00004212,-0.00000469,0.00000410,0.00001869,0.00040842,-0.00054960,0.00
 019500,0.00055747,-0.00006439,0.00054651,0.00029473,0.00008425,-0.0000
 3249,0.00027735,-0.00005390,-0.00016339,0.00014168,-0.00019417,-0.0000
 1855,-0.00002397,-0.00000898,-0.00013125,0.00005403,-0.00006878,0.0000
 7389,0.00001349,0.00001122,0.00000512,0.00022967,-0.00019047,0.0000846
 6,-0.00023211,0.00010346,-0.00009949,-0.00016766,-0.00022386,-0.000127
 84,-0.00017028,0.00007955,0.00034164,0.00024373,0.00001091,-0.00004497
 ,-0.00015745,-0.00007613,0.00001952,0.00002812,0.00000683,0.00001309,-
 0.00000339,0.00001858,0.00001228,0.00002714,-0.00000312,-0.00001899,-0
 .00000099,0.00009631,0.00005890,0.00000353,-0.00001390,-0.00002567,-0.
 00002849,0.00002123,-0.00000241,0.00001721,-0.00002563,0.00000218,-0.0
 0004596,0.00015673,0.00014061,0.00006745,0.00018908,-0.00004125,-0.000
 42471,0.00069508,-0.00008067,-0.00008195,0.00057150,0.00002316,0.00008
 574,-0.00005600,0.00019047,-0.00000797,-0.00002186,-0.00003889,-0.0000
 1797,-0.00001860,-0.00000601,0.00000246,-0.00002544,0.00000200,0.00027
 943,0.00029905,0.00036436,0.00000062,-0.00002210,-0.00005470,0.0000680
 1,-0.00062454,-0.00003816,-0.00062508,-0.00094722,0.00073597,-0.000007
 68,-0.00031341,0.00008613,-0.00007145,-0.00024961,-0.00015933,-0.00022
 030,-0.00015144,-0.00037010,-0.00018630,0.00001050,0.00016847,0.000007
 50,0.00003181,-0.00002811,0.00006132,-0.00005744,-0.00007695,0.0002510
 1,-0.00014370,-0.00033665,-0.00040511,0.00242487,-0.00145790,0.0003130
 0,-0.00054506,0.00063325,0.00027860,-0.00109709,-0.00018981,0.00068538
 ,-0.00147500,0.00145395,-0.00042279,-0.00013569,-0.00004360,-0.0074368
 5,-0.00081632,-0.00040159,-0.00103348,0.00004179,0.00016016,-0.0000659
 6,0.00007446,-0.00013431,0.00393690,-0.03184519,0.02105189,0.00012554,
 0.00052266,-0.00039530,0.00320647,-0.00115609,0.00171128,-0.00215259,-
 0.00025786,-0.00088944,-0.00010991,0.00013613,-0.00004534,0.00003083,0
 .00003012,-0.00000404,0.00001586,-0.00003574,-0.00001439,-0.00000197,-
 0.00002793,0.00001855,0.00008699,0.00013669,-0.00000641,-0.00001568,-0
 .00000849,0.00001247,-0.00000493,-0.00001851,0.00001576,-0.00000913,-0
 .00002976,-0.00001963,0.00023988,-0.00000254,0.00030105,-0.00004096,-0
 .00004811,-0.00005374,0.00000796,-0.00000912,-0.00009243,0.00000075,0.
 00001696,0.00004772,-0.00022719,0.00007314,0.00019483,0.00003328,0.000
 01506,-0.00003177,0.00002286,-0.00005569,-0.00004311,0.00002562,-0.000
 01283,-0.00000784,-0.00017471,0.00021200,-0.00021293,0.00008384,-0.000
 02576,0.00008536,-0.00000875,-0.00003194,0.00002909,-0.00000645,-0.000
 09915,-0.00013361,0.00008995,0.00025968,-0.00002104,-0.00013247,-0.000
 17278,-0.00002211,0.00011178,0.00007445,0.00002287,-0.00002140,-0.0000
 0329,0.00000552,-0.00000886,-0.00002131,0.00000124,-0.00001799,-0.0000
 0503,-0.00001311,0.00013587,0.00012827,-0.00000673,-0.00002490,-0.0000
 2944,-0.00002517,-0.00002690,0.00003910,0.00005520,0.00001359,-0.00000
 129,0.00000336,0.00153442,-0.00098908,0.00076659,-0.00063120,0.0003389
 8,0.00010784,-0.00030950,0.00043954,-0.00042349,-0.00054961,-0.0000442
 4,-0.00026077,0.00136395,-0.23396572,0.08072602,0.01918220,0.00121718,
 0.02771159,0.03350941,-0.06082474,-0.00796441,-0.05015128,0.32840659,0
 .00007670,-0.00008008,-0.00000633,-0.00001664,0.00019256,-0.00023043,0
 .00056644,-0.00057956,0.00030317,0.00016109,-0.00013773,0.00003981,0.0
 0004114,-0.00005987,-0.00003710,-0.00007750,-0.00005244,-0.00030495,-0
 .00001782,0.00000253,0.00001472,-0.00000387,0.00000548,0.00000011,-0.0
 0002506,0.00000625,-0.00000828,0.00000188,0.00000711,-0.00000019,-0.00
 020468,0.00037608,-0.00001746,-0.00035974,0.00016971,-0.00003049,-0.00
 004661,-0.00008124,0.00014149,-0.00012476,0.00003356,0.00010446,-0.000
 06243,0.00008798,0.00002661,-0.00001982,-0.00003098,-0.00000123,-0.000
 01336,0.00003560,-0.00002362,-0.00002047,0.00000372,0.00001417,-0.0000
 6150,0.00008963,0.00003774,0.00001306,-0.00009295,-0.00025529,0.000108
 08,0.00008119,-0.00000740,0.00000565,0.00004718,0.00004958,-0.00005709
 ,0.00000302,0.00005957,0.00006089,0.00003988,-0.00001260,-0.00000818,-
 0.00000647,-0.00000098,-0.00000196,-0.00001174,-0.00000782,-0.00001483
 ,0.00000220,0.00000959,-0.00000178,-0.00004771,-0.00003360,-0.00000336
 ,0.00000741,0.00001498,0.00001177,-0.00000861,-0.00000011,-0.00000574,
 0.00001016,0.00000045,-0.00001093,-0.00002261,-0.00007863,-0.00003898,
 -0.00005428,-0.00001376,0.00038475,-0.00019763,-0.00009905,-0.00000670
 ,0.00007418,-0.00030949,0.00006760,-0.00003336,-0.00002050,-0.00001895
 ,-0.00000342,0.00003077,0.00000399,0.00001882,0.00000342,-0.00000773,-
 0.00000999,0.00000056,0.00007880,0.00003732,-0.00000534,0.00000067,0.0
 0002273,0.00003783,-0.00010560,0.00012225,0.00023081,0.00030635,0.0005
 7592,-0.00031222,-0.00000116,0.00009609,0.00000083,0.00000993,0.000055
 17,0.00007246,0.00001780,0.00004937,0.00020071,0.00004672,0.00004820,-
 0.00006240,0.00000256,-0.00001670,-0.00000439,-0.00000610,-0.00000122,
 0.00001571,-0.00002093,-0.00004336,0.00010265,0.00022421,-0.00149086,0
 .00040239,-0.00015114,0.00033263,-0.00026469,-0.00022820,0.00058655,0.
 00023620,0.00003368,0.00033180,-0.00103372,0.00012827,0.00018559,-0.00
 004780,0.00330028,0.00098739,0.00138935,0.00063626,-0.00012979,0.00013
 873,0.00004055,-0.00006797,0.00007939,-0.00177532,0.02216412,-0.001858
 51,-0.00013290,-0.00035057,0.00037931,-0.00202637,0.00036056,-0.001416
 17,0.00104935,-0.00050556,0.00062660,0.00003532,-0.00004485,0.00001262
 ,-0.00001270,-0.00001401,-0.00000035,-0.00000501,0.00001488,0.00000725
 ,0.00000053,0.00000647,-0.00000449,-0.00001990,-0.00003100,-0.00000449
 ,0.00000222,0.00000212,-0.00000427,0.00000295,0.00000107,-0.00000361,0
 .00000235,0.00000863,0.00000711,-0.00006420,0.00001883,-0.00014208,0.0
 0000994,0.00000411,0.00002805,-0.00000592,0.00001273,0.00006370,-0.000
 00287,-0.00000296,-0.00003590,0.00000885,0.00000100,-0.00003577,-0.000
 01629,-0.00000368,0.00001545,-0.00000007,0.00000207,0.00000402,0.00000
 276,-0.00000785,0.00000234,0.00043642,-0.00040144,-0.00000550,-0.00009
 261,0.00005371,-0.00005364,-0.00003865,0.00005842,-0.00003260,-0.00004
 572,0.00015242,0.00017217,-0.00003073,-0.00012722,-0.00001583,0.000054
 47,0.00008517,0.00002409,-0.00005001,-0.00003104,-0.00001581,0.0000073
 2,0.00000155,-0.00000089,0.00000474,0.00000996,-0.00000125,0.00000936,
 0.00000169,0.00000770,-0.00006612,-0.00006543,-0.00000364,0.00001814,0
 .00001682,0.00001566,0.00001935,-0.00002576,-0.00003980,-0.00001358,-0
 .00000156,0.00000366,-0.00074049,0.00050547,-0.00053104,0.00028473,-0.
 00014826,0.00000162,0.00014018,-0.00023774,0.00027080,0.00028390,0.000
 02984,0.00015378,-0.00170107,0.08136332,-0.10957618,-0.03031255,0.0385
 6057,-0.04047081,0.00468550,-0.02012544,0.01714200,0.02550924,-0.12277
 586,0.13478630\\-0.00000013,0.00000167,-0.00000114,-0.00000057,0.00000
 150,0.00000024,-0.00000015,0.00000015,0.00000070,0.00000084,-0.0000005
 9,-0.00000143,0.00000054,0.00000086,-0.00000208,-0.00000063,-0.0000001
 5,0.00000161,-0.00000078,0.00000194,0.00000018,0.00000001,0.00000118,-
 0.00000110,0.00000097,-0.00000111,-0.00000145,0.00000038,0.00000143,-0
 .00000223,0.00000013,-0.00000057,-0.00000015,-0.00000016,-0.00000076,0
 .00000089,-0.00000116,0.00000200,0.00000113,-0.00000038,0.00000299,-0.
 00000168,0.00000102,0.00000089,-0.00000323,0.00000131,-0.00000123,-0.0
 0000246,0.00000183,-0.00000143,-0.00000319,0.00000149,-0.00000212,-0.0
 0000177,0.00000123,-0.00000034,-0.00000262,-0.00000167,0.00000213,0.00
 000235,-0.00000163,0.00000122,0.00000294,-0.00000185,0.00000267,0.0000
 0222,-0.00000213,0.00000281,0.00000281,-0.00000068,0.00000367,-0.00000
 146,-0.00000035,0.00000316,-0.00000188,-0.00000115,0.00000369,-0.00000
 044,-0.00000084,0.00000467,-0.00000198,0.00000131,0.00000129,-0.000004
 40,0.00000096,0.00000241,-0.00000447,0.00000145,0.00000075,-0.00000434
 ,0.00000175,0.00000106,-0.00000524,0.00000027,0.00000050,-0.00000111,0
 .00000083,-0.00000033,-0.00000186,0.00000056,-0.00000120,-0.00000079,-
 0.00000039,0.00000096,0.00000010,-0.00000044,0.00000101,0.00000008,0.0
 0000119,-0.00000170,-0.00000121,0.00000082,0.00000050,-0.00000245,0.00
 000045,-0.00000020,-0.00000088,-0.00000085,0.00000112,0.00000115,-0.00
 000074,0.00000209,0.00000003,0.00000020,-0.00000020,0.,0.00000108,-0.0
 0000420,0.00000122,0.00000142,-0.00000115,-0.00000268,0.00000024,0.000
 00162,-0.00000199,-0.00000061,0.00000032,0.00000127,-0.00000036,0.0000
 0196,-0.00000081,0.00000001,0.00000145,-0.00000131,-0.00000023,0.00000
 246,-0.00000157,-0.00000100,0.00000296,-0.00000010,0.00000066,-0.00000
 337,0.00000059,0.00000122,-0.00000372,0.00000079,0.00000077,-0.0000021
 0,-0.00000003,-0.00000020,-0.00000239,0.00000239,-0.00000031,-0.000002
 45,0.00000319,-0.00000053,-0.00000183,0.00000271,-0.00000113,-0.000001
 80,0.00000428,-0.00000009,-0.00000302,0.00000297,-0.00000113,-0.000001
 01,0.00000371,-0.00000016,-0.00000175,0.00000203,-0.00000157,-0.000000
 97,0.00000448,-0.00000198,-0.00000039,0.00000531,0.00000198,-0.0000011
 1,-0.00000389,0.00000184,-0.00000103,-0.00000377,0.00000196,-0.0000002
 9,-0.00000461,0.00000243,-0.00000206,-0.00000426,0.00000073,0.00000125
 ,-0.00000295,0.00000083,0.00000057,-0.00000253,0.00000121,0.00000087,-
 0.00000376,0.00000058,0.00000221,-0.00000335,-0.00000097,0.00000084,0.
 00000154,-0.00000057,0.00000078,0.00000080,-0.00000136,0.00000188,0.00
 000177,-0.00000106,0.00000021,0.00000245,-0.00000101,0.00000402,-0.000
 00097,-0.00000156,0.00000478,-0.00000030,-0.00000092,0.00000451,-0.000
 00164,-0.00000072,0.00000374,-0.00000145,0.00000016,-0.00000205,0.0000
 0146,0.00000017,-0.00000247,0.00000172,0.00000058,-0.00000264,0.000000
 86,-0.00000025,-0.00000209,0.00000242,0.00000176,-0.00000299,-0.000001
 67,0.00000101,-0.00000213,-0.00000056,0.00000125,-0.00000254,-0.000001
 03,0.00000147,-0.00000347,-0.00000058,0.00000173,-0.00000250,-0.000002
 08,0.00000094,-0.00000173,-0.00000080,0.00000047,-0.00000213,0.0000007
 9,0.00000008,-0.00000151,0.00000111,0.00000020,-0.00000188,0.00000103,
 0.00000058,-0.00000320,0.00000132,-0.00000141,-0.00000174,0.00000509,-
 0.00000130,-0.00000294,0.00000578,-0.00000212,-0.00000082,0.00000590,-
 0.00000119,-0.00000149,0.00000434,-0.00000151,-0.00000011,0.00000395,-
 0.00000127,-0.00000087,0.00000392,-0.00000155,0.00000089,0.00000300,-0
 .00000218,0.00000026,0.00000514\\\@


 THE PROMISED LAND ALWAYS LIES ON THE OTHER SIDE OF A WILDERNESS.

                         -- HAVELOCK ELLIS
 Job cpu time:       5 days  0 hours  4 minutes  8.8 seconds.
 Elapsed time:       0 days  3 hours 58 minutes 24.5 seconds.
 File lengths (MBytes):  RWF=   9708 Int=      0 D2E=      0 Chk=    104 Scr=      1
 Normal termination of Gaussian 16 at Tue Jun  4 03:45:28 2019.
