 Entering Gaussian System, Link 0=g16
 Input=clay_new-glu_gluC6-CCUL-Na3_1Me2O-bisCF3-ts-b3lyp_d3bj-631gd-pcm_thf.gjf
 Output=clay_new-glu_gluC6-CCUL-Na3_1Me2O-bisCF3-ts-b3lyp_d3bj-631gd-pcm_thf.out
 Initial command:
 /home/ekwan/sw/g16/l1.exe "/scratch/users/ekwan/clay_new-glu_gluC6-CCUL-Na3_1Me2O-bisCF3-ts-b3lyp_d3bj-631gd-pcm_thf/Gau-28611.inp" -scrdir="/scratch/users/ekwan/clay_new-glu_gluC6-CCUL-Na3_1Me2O-bisCF3-ts-b3lyp_d3bj-631gd-pcm_thf/"
 Entering Link 1 = /home/ekwan/sw/g16/l1.exe PID=     28612.
  
 Copyright (c) 1988,1990,1992,1993,1995,1998,2003,2009,2016,
            Gaussian, Inc.  All Rights Reserved.
  
 This is part of the Gaussian(R) 16 program.  It is based on
 the Gaussian(R) 09 system (copyright 2009, Gaussian, Inc.),
 the Gaussian(R) 03 system (copyright 2003, Gaussian, Inc.),
 the Gaussian(R) 98 system (copyright 1998, Gaussian, Inc.),
 the Gaussian(R) 94 system (copyright 1995, Gaussian, Inc.),
 the Gaussian 92(TM) system (copyright 1992, Gaussian, Inc.),
 the Gaussian 90(TM) system (copyright 1990, Gaussian, Inc.),
 the Gaussian 88(TM) system (copyright 1988, Gaussian, Inc.),
 the Gaussian 86(TM) system (copyright 1986, Carnegie Mellon
 University), and the Gaussian 82(TM) system (copyright 1983,
 Carnegie Mellon University). Gaussian is a federally registered
 trademark of Gaussian, Inc.
  
 This software contains proprietary and confidential information,
 including trade secrets, belonging to Gaussian, Inc.
  
 This software is provided under written license and may be
 used, copied, transmitted, or stored only in accord with that
 written license.
  
 The following legend is applicable only to US Government
 contracts under FAR:
  
                    RESTRICTED RIGHTS LEGEND
  
 Use, reproduction and disclosure by the US Government is
 subject to restrictions as set forth in subparagraphs (a)
 and (c) of the Commercial Computer Software - Restricted
 Rights clause in FAR 52.227-19.
  
 Gaussian, Inc.
 340 Quinnipiac St., Bldg. 40, Wallingford CT 06492
  
  
 ---------------------------------------------------------------
 Warning -- This program may not be used in any manner that
 competes with the business of Gaussian, Inc. or will provide
 assistance to any competitor of Gaussian, Inc.  The licensee
 of this program is prohibited from giving any competitor of
 Gaussian, Inc. access to this program.  By using this program,
 the user acknowledges that Gaussian, Inc. is engaged in the
 business of creating and licensing software in the field of
 computational chemistry and represents and warrants to the
 licensee that it is not a competitor of Gaussian, Inc. and that
 it will not use this program in any manner prohibited above.
 ---------------------------------------------------------------
  

 Cite this work as:
 Gaussian 16, Revision A.03,
 M. J. Frisch, G. W. Trucks, H. B. Schlegel, G. E. Scuseria, 
 M. A. Robb, J. R. Cheeseman, G. Scalmani, V. Barone, 
 G. A. Petersson, H. Nakatsuji, X. Li, M. Caricato, A. V. Marenich, 
 J. Bloino, B. G. Janesko, R. Gomperts, B. Mennucci, H. P. Hratchian, 
 J. V. Ortiz, A. F. Izmaylov, J. L. Sonnenberg, D. Williams-Young, 
 F. Ding, F. Lipparini, F. Egidi, J. Goings, B. Peng, A. Petrone, 
 T. Henderson, D. Ranasinghe, V. G. Zakrzewski, J. Gao, N. Rega, 
 G. Zheng, W. Liang, M. Hada, M. Ehara, K. Toyota, R. Fukuda, 
 J. Hasegawa, M. Ishida, T. Nakajima, Y. Honda, O. Kitao, H. Nakai, 
 T. Vreven, K. Throssell, J. A. Montgomery, Jr., J. E. Peralta, 
 F. Ogliaro, M. J. Bearpark, J. J. Heyd, E. N. Brothers, K. N. Kudin, 
 V. N. Staroverov, T. A. Keith, R. Kobayashi, J. Normand, 
 K. Raghavachari, A. P. Rendell, J. C. Burant, S. S. Iyengar, 
 J. Tomasi, M. Cossi, J. M. Millam, M. Klene, C. Adamo, R. Cammi, 
 J. W. Ochterski, R. L. Martin, K. Morokuma, O. Farkas, 
 J. B. Foresman, and D. J. Fox, Gaussian, Inc., Wallingford CT, 2016.
 
 ******************************************
 Gaussian 16:  AS64L-G16RevA.03 25-Dec-2016
                26-May-2019 
 ******************************************
 %mem=48GB
 %nprocshared=32
 Will use up to   32 processors via shared memory.
 ----------------------------------------------------------------------
 #p opt=(ts,noeigentest,calcfc,maxstep=1,modredundant,recalc=30) freq=n
 oraman b3lyp 6-31g* pop=none scrf=(solvent=tetrahydrofuran,pcm) empiri
 caldispersion=gd3bj
 ----------------------------------------------------------------------
 1/5=1,8=1,10=4,11=1,18=120,26=3,38=1,71=30/1,3;
 2/9=110,12=2,17=6,18=5,40=1/2;
 3/5=1,6=6,7=1,11=2,25=1,30=1,70=2201,71=2,72=20,74=-5,124=41,140=1/1,2,3;
 4//1;
 5/5=2,38=5,53=20/2;
 8/6=4,10=90,11=11/1;
 11/6=1,8=1,9=11,15=111,16=1/1,2,10;
 10/6=1,13=1/2;
 7/10=1,18=20,25=1/1,2,3,16;
 1/5=1,8=1,10=4,11=1,18=20,26=3,71=30/3(2);
 2/9=110/2;
 99//99;
 2/9=110/2;
 3/5=1,6=6,7=1,11=2,25=1,30=1,70=2205,71=1,72=20,74=-5,124=41/1,2,3;
 4/5=5,16=3,69=1/1;
 5/5=2,38=5,53=20/2;
 7//1,2,3,16;
 1/5=1,8=1,11=1,18=20,26=3,71=30/3(-5);
 2/9=110/2;
 99/9=1/99;
 Leave Link    1 at Sun May 26 01:13:15 2019, MaxMem=  6442450944 cpu:               5.3 elap:               0.2
 (Enter /home/ekwan/sw/g16/l101.exe)
 -----
 title
 -----
 Symbolic Z-matrix:
 Charge =  0 Multiplicity = 1
 C                    -5.0868   -0.77681   0.30323 
 C                    -4.13297  -0.82432   1.49871 
 C                    -3.34006  -2.13499   1.49764 
 C                    -3.49097  -2.34002  -0.89352 
 C                    -4.3141   -1.04918  -0.98722 
 H                    -2.55775  -2.10803   2.26978 
 H                    -3.40015  -0.01619   1.38803 
 H                    -5.86001  -1.54364   0.44404 
 H                    -4.1773   -3.19542  -0.80825 
 H                    -3.62899  -0.21709  -1.16454 
 O                    -2.64987  -2.29977   0.28529 
 O                    -4.2373   -3.18681   1.7633 
 O                    -4.80715  -0.70416   2.74507 
 O                    -5.7014    0.51619   0.28159 
 O                    -5.24036  -1.15646  -2.07212 
 C                    -2.54963  -2.53917  -2.10194 
 H                    -3.23201  -2.85293  -2.93592 
 H                    -1.98033  -3.47319  -1.85308 
 O                    -1.77013  -1.46608  -2.39066 
 C                    -4.86686   0.62129   3.24432 
 H                    -3.85662   1.04213   3.38348 
 H                    -5.43246   1.28074   2.57843 
 H                    -5.3602    0.57061   4.21913 
 C                    -7.05634   0.50147  -0.14415 
 H                    -7.15024   0.11157  -1.1624 
 H                    -7.67561  -0.10689   0.53169 
 H                    -7.41044   1.53589  -0.11145 
 C                    -4.79242  -0.48559  -3.24849 
 H                    -4.98345   0.59489  -3.17631 
 H                    -3.71908  -0.64659  -3.4038 
 H                    -5.36636  -0.89039  -4.08824 
 C                     0.69936   1.8656   -1.3323 
 C                     0.25413   0.41719  -1.5223 
 C                    -0.70518  -0.00591  -0.43641 
 C                    -1.52511   2.24296  -0.14627 
 C                    -0.54136   2.74753  -1.21129 
 H                    -0.99376  -1.04647  -0.39644 
 H                    -0.33906   0.33536  -2.44076 
 H                     1.29538   1.95059  -0.4157 
 H                    -1.13178   2.52683   0.83676 
 H                    -1.04958   2.76896  -2.18139 
 O                    -1.70774   0.80536  -0.13163 
 O                     0.39988  -2.35823   1.37489 
 O                     1.36547  -0.44958  -1.55941 
 O                     1.45129   2.32455  -2.44505 
 O                    -0.21262   4.06733  -0.79493 
 C                    -2.90803   2.85069  -0.29012 
 H                    -2.8391    3.92403  -0.0556 
 H                    -3.58956   2.3782    0.43114 
 O                    -3.36442   2.65141  -1.61026 
 S                     1.05326  -1.08289   1.66501 
 O                     1.23512  -0.70158   3.09108 
 O                     0.31717   0.14004   1.02649 
 C                     2.67085  -1.08464   0.90837 
 C                     3.14625  -2.25983   0.34851 
 C                     3.4041    0.10072   0.87753 
 C                     4.39306  -2.24339  -0.28173 
 H                     2.54359  -3.15949   0.37864 
 C                     4.64349   0.09408   0.24889 
 H                     3.0003    1.0088    1.30949 
 C                     5.14264  -1.07345  -0.33798 
 H                     6.10503  -1.06637  -0.83618 
 C                     1.31436  -1.4225   -2.61515 
 H                     0.29217  -1.81284  -2.70675 
 H                     1.62902  -0.96091  -3.56186 
 H                     2.02912  -2.20487  -2.34921 
 C                     2.85863   2.18626  -2.28834 
 H                     3.21107   2.73794  -1.40605 
 H                     3.151     1.13676  -2.19305 
 H                     3.31727   2.61714  -3.18161 
 C                    -0.07372   5.00539  -1.85957 
 H                     0.73863   4.72024  -2.5339 
 H                    -1.00873   5.08608  -2.43039 
 H                     0.14811   5.96922  -1.39545 
 C                    -4.68152   3.14479  -1.79448 
 H                    -4.94681   2.96435  -2.83827 
 H                    -5.38674   2.61778  -1.14114 
 H                    -4.73378   4.22542  -1.59118 
 C                    -3.58878  -4.44376   1.90697 
 H                    -4.36205  -5.16964   2.16812 
 H                    -3.0953   -4.7501    0.9779 
 H                    -2.8373   -4.40854   2.70954 
 Na                    0.1667    1.38347   3.04431 
 O                     2.03066   2.65673   2.61502 
 C                     2.05959   3.89694   1.9028 
 H                     3.01966   4.01504   1.3879 
 H                     1.25507   3.87744   1.16534 
 H                     1.91389   4.73959   2.59159 
 C                     3.08346   2.56197   3.57689 
 H                     2.9802    3.33987   4.34431 
 H                     3.00954   1.57452   4.03749 
 H                     4.05812   2.66289   3.08665 
 C                     5.47073   1.34611   0.15774 
 F                     4.84243   2.41764   0.69908 
 F                     5.74918   1.6579   -1.12889 
 F                     6.65343   1.21195   0.7926 
 C                     4.87062  -3.48961  -0.97593 
 F                     6.20146  -3.47273  -1.19117 
 F                     4.27267  -3.63372  -2.18362 
 F                     4.58173  -4.59722  -0.26178 
 
 Add virtual bond connecting atoms O53        and C34        Dist= 3.38D+00.
 Add virtual bond connecting atoms H37        and O11        Dist= 4.13D+00.
 Add virtual bond connecting atoms H37        and O19        Dist= 4.12D+00.
 Add virtual bond connecting atoms H64        and O19        Dist= 4.00D+00.
 The following ModRedundant input section has been read:
 
 ITRead=  0  0  0  0  0  0  0  0  0  0  0  0  0  0  0  0  0  0  0  0
 ITRead=  0  0  0  0  0  0  0  0  0  0  0  0  0  0  0  0  0  0  0  0
 ITRead=  0  0  0  0  0  0  0  0  0  0  0  0  0  0  0  0  0  0  0  0
 ITRead=  0  0  0  0  0  0  0  0  0  0  0  0  0  0  0  0  0  0  0  0
 ITRead=  0  0  0  0  0  0  0  0  0  0  0  0  0  0  0  0  0  0  0  0
 MicOpt= -1 -1 -1 -1 -1 -1 -1 -1 -1 -1 -1 -1 -1 -1 -1 -1 -1 -1 -1 -1
 MicOpt= -1 -1 -1 -1 -1 -1 -1 -1 -1 -1 -1 -1 -1 -1 -1 -1 -1 -1 -1 -1
 MicOpt= -1 -1 -1 -1 -1 -1 -1 -1 -1 -1 -1 -1 -1 -1 -1 -1 -1 -1 -1 -1
 MicOpt= -1 -1 -1 -1 -1 -1 -1 -1 -1 -1 -1 -1 -1 -1 -1 -1 -1 -1 -1 -1
 MicOpt= -1 -1 -1 -1 -1 -1 -1 -1 -1 -1 -1 -1 -1 -1 -1 -1 -1 -1 -1 -1
 NAtoms=    100 NQM=      100 NQMF=       0 NMMI=      0 NMMIF=      0
                NMic=       0 NMicF=      0.
                    Isotopes and Nuclear Properties:
 (Nuclear quadrupole moments (NQMom) in fm**2, nuclear magnetic moments (NMagM)
  in nuclear magnetons)

  Atom         1           2           3           4           5           6           7           8           9          10
 IAtWgt=          12          12          12          12          12           1           1           1           1           1
 AtmWgt=  12.0000000  12.0000000  12.0000000  12.0000000  12.0000000   1.0078250   1.0078250   1.0078250   1.0078250   1.0078250
 NucSpn=           0           0           0           0           0           1           1           1           1           1
 AtZEff=   0.0000000   0.0000000   0.0000000   0.0000000   0.0000000   0.0000000   0.0000000   0.0000000   0.0000000   0.0000000
 NQMom=    0.0000000   0.0000000   0.0000000   0.0000000   0.0000000   0.0000000   0.0000000   0.0000000   0.0000000   0.0000000
 NMagM=    0.0000000   0.0000000   0.0000000   0.0000000   0.0000000   2.7928460   2.7928460   2.7928460   2.7928460   2.7928460
 AtZNuc=   6.0000000   6.0000000   6.0000000   6.0000000   6.0000000   1.0000000   1.0000000   1.0000000   1.0000000   1.0000000

  Atom        11          12          13          14          15          16          17          18          19          20
 IAtWgt=          16          16          16          16          16          12           1           1          16          12
 AtmWgt=  15.9949146  15.9949146  15.9949146  15.9949146  15.9949146  12.0000000   1.0078250   1.0078250  15.9949146  12.0000000
 NucSpn=           0           0           0           0           0           0           1           1           0           0
 AtZEff=   0.0000000   0.0000000   0.0000000   0.0000000   0.0000000   0.0000000   0.0000000   0.0000000   0.0000000   0.0000000
 NQMom=    0.0000000   0.0000000   0.0000000   0.0000000   0.0000000   0.0000000   0.0000000   0.0000000   0.0000000   0.0000000
 NMagM=    0.0000000   0.0000000   0.0000000   0.0000000   0.0000000   0.0000000   2.7928460   2.7928460   0.0000000   0.0000000
 AtZNuc=   8.0000000   8.0000000   8.0000000   8.0000000   8.0000000   6.0000000   1.0000000   1.0000000   8.0000000   6.0000000

  Atom        21          22          23          24          25          26          27          28          29          30
 IAtWgt=           1           1           1          12           1           1           1          12           1           1
 AtmWgt=   1.0078250   1.0078250   1.0078250  12.0000000   1.0078250   1.0078250   1.0078250  12.0000000   1.0078250   1.0078250
 NucSpn=           1           1           1           0           1           1           1           0           1           1
 AtZEff=   0.0000000   0.0000000   0.0000000   0.0000000   0.0000000   0.0000000   0.0000000   0.0000000   0.0000000   0.0000000
 NQMom=    0.0000000   0.0000000   0.0000000   0.0000000   0.0000000   0.0000000   0.0000000   0.0000000   0.0000000   0.0000000
 NMagM=    2.7928460   2.7928460   2.7928460   0.0000000   2.7928460   2.7928460   2.7928460   0.0000000   2.7928460   2.7928460
 AtZNuc=   1.0000000   1.0000000   1.0000000   6.0000000   1.0000000   1.0000000   1.0000000   6.0000000   1.0000000   1.0000000

  Atom        31          32          33          34          35          36          37          38          39          40
 IAtWgt=           1          12          12          12          12          12           1           1           1           1
 AtmWgt=   1.0078250  12.0000000  12.0000000  12.0000000  12.0000000  12.0000000   1.0078250   1.0078250   1.0078250   1.0078250
 NucSpn=           1           0           0           0           0           0           1           1           1           1
 AtZEff=   0.0000000   0.0000000   0.0000000   0.0000000   0.0000000   0.0000000   0.0000000   0.0000000   0.0000000   0.0000000
 NQMom=    0.0000000   0.0000000   0.0000000   0.0000000   0.0000000   0.0000000   0.0000000   0.0000000   0.0000000   0.0000000
 NMagM=    2.7928460   0.0000000   0.0000000   0.0000000   0.0000000   0.0000000   2.7928460   2.7928460   2.7928460   2.7928460
 AtZNuc=   1.0000000   6.0000000   6.0000000   6.0000000   6.0000000   6.0000000   1.0000000   1.0000000   1.0000000   1.0000000

  Atom        41          42          43          44          45          46          47          48          49          50
 IAtWgt=           1          16          16          16          16          16          12           1           1          16
 AtmWgt=   1.0078250  15.9949146  15.9949146  15.9949146  15.9949146  15.9949146  12.0000000   1.0078250   1.0078250  15.9949146
 NucSpn=           1           0           0           0           0           0           0           1           1           0
 AtZEff=   0.0000000   0.0000000   0.0000000   0.0000000   0.0000000   0.0000000   0.0000000   0.0000000   0.0000000   0.0000000
 NQMom=    0.0000000   0.0000000   0.0000000   0.0000000   0.0000000   0.0000000   0.0000000   0.0000000   0.0000000   0.0000000
 NMagM=    2.7928460   0.0000000   0.0000000   0.0000000   0.0000000   0.0000000   0.0000000   2.7928460   2.7928460   0.0000000
 AtZNuc=   1.0000000   8.0000000   8.0000000   8.0000000   8.0000000   8.0000000   6.0000000   1.0000000   1.0000000   8.0000000

  Atom        51          52          53          54          55          56          57          58          59          60
 IAtWgt=          32          16          16          12          12          12          12           1          12           1
 AtmWgt=  31.9720718  15.9949146  15.9949146  12.0000000  12.0000000  12.0000000  12.0000000   1.0078250  12.0000000   1.0078250
 NucSpn=           0           0           0           0           0           0           0           1           0           1
 AtZEff=   0.0000000   0.0000000   0.0000000   0.0000000   0.0000000   0.0000000   0.0000000   0.0000000   0.0000000   0.0000000
 NQMom=    0.0000000   0.0000000   0.0000000   0.0000000   0.0000000   0.0000000   0.0000000   0.0000000   0.0000000   0.0000000
 NMagM=    0.0000000   0.0000000   0.0000000   0.0000000   0.0000000   0.0000000   0.0000000   2.7928460   0.0000000   2.7928460
 AtZNuc=  16.0000000   8.0000000   8.0000000   6.0000000   6.0000000   6.0000000   6.0000000   1.0000000   6.0000000   1.0000000

  Atom        61          62          63          64          65          66          67          68          69          70
 IAtWgt=          12           1          12           1           1           1          12           1           1           1
 AtmWgt=  12.0000000   1.0078250  12.0000000   1.0078250   1.0078250   1.0078250  12.0000000   1.0078250   1.0078250   1.0078250
 NucSpn=           0           1           0           1           1           1           0           1           1           1
 AtZEff=   0.0000000   0.0000000   0.0000000   0.0000000   0.0000000   0.0000000   0.0000000   0.0000000   0.0000000   0.0000000
 NQMom=    0.0000000   0.0000000   0.0000000   0.0000000   0.0000000   0.0000000   0.0000000   0.0000000   0.0000000   0.0000000
 NMagM=    0.0000000   2.7928460   0.0000000   2.7928460   2.7928460   2.7928460   0.0000000   2.7928460   2.7928460   2.7928460
 AtZNuc=   6.0000000   1.0000000   6.0000000   1.0000000   1.0000000   1.0000000   6.0000000   1.0000000   1.0000000   1.0000000

  Atom        71          72          73          74          75          76          77          78          79          80
 IAtWgt=          12           1           1           1          12           1           1           1          12           1
 AtmWgt=  12.0000000   1.0078250   1.0078250   1.0078250  12.0000000   1.0078250   1.0078250   1.0078250  12.0000000   1.0078250
 NucSpn=           0           1           1           1           0           1           1           1           0           1
 AtZEff=   0.0000000   0.0000000   0.0000000   0.0000000   0.0000000   0.0000000   0.0000000   0.0000000   0.0000000   0.0000000
 NQMom=    0.0000000   0.0000000   0.0000000   0.0000000   0.0000000   0.0000000   0.0000000   0.0000000   0.0000000   0.0000000
 NMagM=    0.0000000   2.7928460   2.7928460   2.7928460   0.0000000   2.7928460   2.7928460   2.7928460   0.0000000   2.7928460
 AtZNuc=   6.0000000   1.0000000   1.0000000   1.0000000   6.0000000   1.0000000   1.0000000   1.0000000   6.0000000   1.0000000

  Atom        81          82          83          84          85          86          87          88          89          90
 IAtWgt=           1           1          23          16          12           1           1           1          12           1
 AtmWgt=   1.0078250   1.0078250  22.9897697  15.9949146  12.0000000   1.0078250   1.0078250   1.0078250  12.0000000   1.0078250
 NucSpn=           1           1           3           0           0           1           1           1           0           1
 AtZEff=   0.0000000   0.0000000   0.0000000   0.0000000   0.0000000   0.0000000   0.0000000   0.0000000   0.0000000   0.0000000
 NQMom=    0.0000000   0.0000000  10.4000000   0.0000000   0.0000000   0.0000000   0.0000000   0.0000000   0.0000000   0.0000000
 NMagM=    2.7928460   2.7928460   2.2175200   0.0000000   0.0000000   2.7928460   2.7928460   2.7928460   0.0000000   2.7928460
 AtZNuc=   1.0000000   1.0000000  11.0000000   8.0000000   6.0000000   1.0000000   1.0000000   1.0000000   6.0000000   1.0000000

  Atom        91          92          93          94          95          96          97          98          99         100
 IAtWgt=           1           1          12          19          19          19          12          19          19          19
 AtmWgt=   1.0078250   1.0078250  12.0000000  18.9984033  18.9984033  18.9984033  12.0000000  18.9984033  18.9984033  18.9984033
 NucSpn=           1           1           0           1           1           1           0           1           1           1
 AtZEff=   0.0000000   0.0000000   0.0000000   0.0000000   0.0000000   0.0000000   0.0000000   0.0000000   0.0000000   0.0000000
 NQMom=    0.0000000   0.0000000   0.0000000   0.0000000   0.0000000   0.0000000   0.0000000   0.0000000   0.0000000   0.0000000
 NMagM=    2.7928460   2.7928460   0.0000000   2.6288670   2.6288670   2.6288670   0.0000000   2.6288670   2.6288670   2.6288670
 AtZNuc=   1.0000000   1.0000000   6.0000000   9.0000000   9.0000000   9.0000000   6.0000000   9.0000000   9.0000000   9.0000000
 Leave Link  101 at Sun May 26 01:13:16 2019, MaxMem=  6442450944 cpu:              18.1 elap:               0.7
 (Enter /home/ekwan/sw/g16/l103.exe)

 GradGradGradGradGradGradGradGradGradGradGradGradGradGradGradGradGradGrad
 Berny optimization.
 Initialization pass.
                           ----------------------------
                           !    Initial Parameters    !
                           ! (Angstroms and Degrees)  !
 --------------------------                            --------------------------
 ! Name  Definition              Value          Derivative Info.                !
 --------------------------------------------------------------------------------
 ! R1    R(1,2)                  1.5301         calculate D2E/DX2 analytically  !
 ! R2    R(1,5)                  1.5286         calculate D2E/DX2 analytically  !
 ! R3    R(1,8)                  1.098          calculate D2E/DX2 analytically  !
 ! R4    R(1,14)                 1.4318         calculate D2E/DX2 analytically  !
 ! R5    R(2,3)                  1.5318         calculate D2E/DX2 analytically  !
 ! R6    R(2,7)                  1.0965         calculate D2E/DX2 analytically  !
 ! R7    R(2,13)                 1.4221         calculate D2E/DX2 analytically  !
 ! R8    R(3,6)                  1.0995         calculate D2E/DX2 analytically  !
 ! R9    R(3,11)                 1.4047         calculate D2E/DX2 analytically  !
 ! R10   R(3,12)                 1.4078         calculate D2E/DX2 analytically  !
 ! R11   R(4,5)                  1.5338         calculate D2E/DX2 analytically  !
 ! R12   R(4,9)                  1.1            calculate D2E/DX2 analytically  !
 ! R13   R(4,11)                 1.4487         calculate D2E/DX2 analytically  !
 ! R14   R(4,16)                 1.5447         calculate D2E/DX2 analytically  !
 ! R15   R(5,10)                 1.0923         calculate D2E/DX2 analytically  !
 ! R16   R(5,15)                 1.4305         calculate D2E/DX2 analytically  !
 ! R17   R(11,37)                2.1859         calculate D2E/DX2 analytically  !
 ! R18   R(12,79)                1.4217         calculate D2E/DX2 analytically  !
 ! R19   R(13,20)                1.4176         calculate D2E/DX2 analytically  !
 ! R20   R(14,24)                1.4203         calculate D2E/DX2 analytically  !
 ! R21   R(15,28)                1.4264         calculate D2E/DX2 analytically  !
 ! R22   R(16,17)                1.1223         calculate D2E/DX2 analytically  !
 ! R23   R(16,18)                1.1218         calculate D2E/DX2 analytically  !
 ! R24   R(16,19)                1.3574         calculate D2E/DX2 analytically  !
 ! R25   R(19,37)                2.1808         calculate D2E/DX2 analytically  !
 ! R26   R(19,64)                2.115          calculate D2E/DX2 analytically  !
 ! R27   R(20,21)                1.1032         calculate D2E/DX2 analytically  !
 ! R28   R(20,22)                1.0946         calculate D2E/DX2 analytically  !
 ! R29   R(20,23)                1.0937         calculate D2E/DX2 analytically  !
 ! R30   R(24,25)                1.0944         calculate D2E/DX2 analytically  !
 ! R31   R(24,26)                1.1002         calculate D2E/DX2 analytically  !
 ! R32   R(24,27)                1.0938         calculate D2E/DX2 analytically  !
 ! R33   R(28,29)                1.0996         calculate D2E/DX2 analytically  !
 ! R34   R(28,30)                1.0964         calculate D2E/DX2 analytically  !
 ! R35   R(28,31)                1.0947         calculate D2E/DX2 analytically  !
 ! R36   R(32,33)                1.5272         calculate D2E/DX2 analytically  !
 ! R37   R(32,36)                1.527          calculate D2E/DX2 analytically  !
 ! R38   R(32,39)                1.0966         calculate D2E/DX2 analytically  !
 ! R39   R(32,45)                1.4192         calculate D2E/DX2 analytically  !
 ! R40   R(33,34)                1.5094         calculate D2E/DX2 analytically  !
 ! R41   R(33,38)                1.0964         calculate D2E/DX2 analytically  !
 ! R42   R(33,44)                1.4099         calculate D2E/DX2 analytically  !
 ! R43   R(34,37)                1.0806         calculate D2E/DX2 analytically  !
 ! R44   R(34,42)                1.3252         calculate D2E/DX2 analytically  !
 ! R45   R(34,53)                1.7907         calculate D2E/DX2 analytically  !
 ! R46   R(35,36)                1.5351         calculate D2E/DX2 analytically  !
 ! R47   R(35,40)                1.0962         calculate D2E/DX2 analytically  !
 ! R48   R(35,42)                1.4492         calculate D2E/DX2 analytically  !
 ! R49   R(35,47)                1.5174         calculate D2E/DX2 analytically  !
 ! R50   R(36,41)                1.0954         calculate D2E/DX2 analytically  !
 ! R51   R(36,46)                1.4224         calculate D2E/DX2 analytically  !
 ! R52   R(43,51)                1.462          calculate D2E/DX2 analytically  !
 ! R53   R(44,63)                1.4366         calculate D2E/DX2 analytically  !
 ! R54   R(45,67)                1.4228         calculate D2E/DX2 analytically  !
 ! R55   R(46,71)                1.4257         calculate D2E/DX2 analytically  !
 ! R56   R(47,48)                1.1008         calculate D2E/DX2 analytically  !
 ! R57   R(47,49)                1.0991         calculate D2E/DX2 analytically  !
 ! R58   R(47,50)                1.4109         calculate D2E/DX2 analytically  !
 ! R59   R(50,75)                1.4185         calculate D2E/DX2 analytically  !
 ! R60   R(51,52)                1.4873         calculate D2E/DX2 analytically  !
 ! R61   R(51,53)                1.5637         calculate D2E/DX2 analytically  !
 ! R62   R(51,54)                1.7858         calculate D2E/DX2 analytically  !
 ! R63   R(51,83)                2.9617         calculate D2E/DX2 analytically  !
 ! R64   R(54,55)                1.3858         calculate D2E/DX2 analytically  !
 ! R65   R(54,56)                1.3942         calculate D2E/DX2 analytically  !
 ! R66   R(55,57)                1.3971         calculate D2E/DX2 analytically  !
 ! R67   R(55,58)                1.0833         calculate D2E/DX2 analytically  !
 ! R68   R(56,59)                1.3897         calculate D2E/DX2 analytically  !
 ! R69   R(56,60)                1.0836         calculate D2E/DX2 analytically  !
 ! R70   R(57,61)                1.3906         calculate D2E/DX2 analytically  !
 ! R71   R(57,97)                1.5043         calculate D2E/DX2 analytically  !
 ! R72   R(59,61)                1.3988         calculate D2E/DX2 analytically  !
 ! R73   R(59,93)                1.5034         calculate D2E/DX2 analytically  !
 ! R74   R(61,62)                1.0837         calculate D2E/DX2 analytically  !
 ! R75   R(63,64)                1.098          calculate D2E/DX2 analytically  !
 ! R76   R(63,65)                1.0992         calculate D2E/DX2 analytically  !
 ! R77   R(63,66)                1.0926         calculate D2E/DX2 analytically  !
 ! R78   R(67,68)                1.0986         calculate D2E/DX2 analytically  !
 ! R79   R(67,69)                1.0936         calculate D2E/DX2 analytically  !
 ! R80   R(67,70)                1.0927         calculate D2E/DX2 analytically  !
 ! R81   R(71,72)                1.0936         calculate D2E/DX2 analytically  !
 ! R82   R(71,73)                1.0985         calculate D2E/DX2 analytically  !
 ! R83   R(71,74)                1.0925         calculate D2E/DX2 analytically  !
 ! R84   R(75,76)                1.092          calculate D2E/DX2 analytically  !
 ! R85   R(75,77)                1.0963         calculate D2E/DX2 analytically  !
 ! R86   R(75,78)                1.1008         calculate D2E/DX2 analytically  !
 ! R87   R(79,80)                1.0923         calculate D2E/DX2 analytically  !
 ! R88   R(79,81)                1.0957         calculate D2E/DX2 analytically  !
 ! R89   R(79,82)                1.1            calculate D2E/DX2 analytically  !
 ! R90   R(83,84)                2.2978         calculate D2E/DX2 analytically  !
 ! R91   R(84,85)                1.4305         calculate D2E/DX2 analytically  !
 ! R92   R(84,89)                1.4292         calculate D2E/DX2 analytically  !
 ! R93   R(85,86)                1.0958         calculate D2E/DX2 analytically  !
 ! R94   R(85,87)                1.0915         calculate D2E/DX2 analytically  !
 ! R95   R(85,88)                1.0981         calculate D2E/DX2 analytically  !
 ! R96   R(89,90)                1.0976         calculate D2E/DX2 analytically  !
 ! R97   R(89,91)                1.0921         calculate D2E/DX2 analytically  !
 ! R98   R(89,92)                1.0957         calculate D2E/DX2 analytically  !
 ! R99   R(93,94)                1.355          calculate D2E/DX2 analytically  !
 ! R100  R(93,95)                1.3528         calculate D2E/DX2 analytically  !
 ! R101  R(93,96)                1.349          calculate D2E/DX2 analytically  !
 ! R102  R(97,98)                1.3482         calculate D2E/DX2 analytically  !
 ! R103  R(97,99)                1.3553         calculate D2E/DX2 analytically  !
 ! R104  R(97,100)               1.3492         calculate D2E/DX2 analytically  !
 ! A1    A(2,1,5)              109.8122         calculate D2E/DX2 analytically  !
 ! A2    A(2,1,8)              108.4868         calculate D2E/DX2 analytically  !
 ! A3    A(2,1,14)             107.9048         calculate D2E/DX2 analytically  !
 ! A4    A(5,1,8)              109.8636         calculate D2E/DX2 analytically  !
 ! A5    A(5,1,14)             111.4164         calculate D2E/DX2 analytically  !
 ! A6    A(8,1,14)             109.289          calculate D2E/DX2 analytically  !
 ! A7    A(1,2,3)              110.4073         calculate D2E/DX2 analytically  !
 ! A8    A(1,2,7)              108.3526         calculate D2E/DX2 analytically  !
 ! A9    A(1,2,13)             112.7432         calculate D2E/DX2 analytically  !
 ! A10   A(3,2,7)              106.5339         calculate D2E/DX2 analytically  !
 ! A11   A(3,2,13)             108.5597         calculate D2E/DX2 analytically  !
 ! A12   A(7,2,13)             110.0613         calculate D2E/DX2 analytically  !
 ! A13   A(2,3,6)              110.2926         calculate D2E/DX2 analytically  !
 ! A14   A(2,3,11)             110.8108         calculate D2E/DX2 analytically  !
 ! A15   A(2,3,12)             108.0129         calculate D2E/DX2 analytically  !
 ! A16   A(6,3,11)             105.0327         calculate D2E/DX2 analytically  !
 ! A17   A(6,3,12)             109.8322         calculate D2E/DX2 analytically  !
 ! A18   A(11,3,12)            112.8521         calculate D2E/DX2 analytically  !
 ! A19   A(5,4,9)              108.9258         calculate D2E/DX2 analytically  !
 ! A20   A(5,4,11)             109.7491         calculate D2E/DX2 analytically  !
 ! A21   A(5,4,16)             112.8144         calculate D2E/DX2 analytically  !
 ! A22   A(9,4,11)             108.7102         calculate D2E/DX2 analytically  !
 ! A23   A(9,4,16)             109.9145         calculate D2E/DX2 analytically  !
 ! A24   A(11,4,16)            106.639          calculate D2E/DX2 analytically  !
 ! A25   A(1,5,4)              111.6953         calculate D2E/DX2 analytically  !
 ! A26   A(1,5,10)             108.5641         calculate D2E/DX2 analytically  !
 ! A27   A(1,5,15)             109.0439         calculate D2E/DX2 analytically  !
 ! A28   A(4,5,10)             108.3254         calculate D2E/DX2 analytically  !
 ! A29   A(4,5,15)             109.3107         calculate D2E/DX2 analytically  !
 ! A30   A(10,5,15)            109.884          calculate D2E/DX2 analytically  !
 ! A31   A(3,11,4)             114.8516         calculate D2E/DX2 analytically  !
 ! A32   A(3,11,37)            125.0399         calculate D2E/DX2 analytically  !
 ! A33   A(4,11,37)            101.656          calculate D2E/DX2 analytically  !
 ! A34   A(3,12,79)            112.8865         calculate D2E/DX2 analytically  !
 ! A35   A(2,13,20)            114.0556         calculate D2E/DX2 analytically  !
 ! A36   A(1,14,24)            113.8698         calculate D2E/DX2 analytically  !
 ! A37   A(5,15,28)            112.7587         calculate D2E/DX2 analytically  !
 ! A38   A(4,16,17)            104.2907         calculate D2E/DX2 analytically  !
 ! A39   A(4,16,18)            104.0673         calculate D2E/DX2 analytically  !
 ! A40   A(4,16,19)            114.4838         calculate D2E/DX2 analytically  !
 ! A41   A(17,16,18)           103.9234         calculate D2E/DX2 analytically  !
 ! A42   A(17,16,19)           114.338          calculate D2E/DX2 analytically  !
 ! A43   A(18,16,19)           114.4551         calculate D2E/DX2 analytically  !
 ! A44   A(16,19,37)            99.326          calculate D2E/DX2 analytically  !
 ! A45   A(16,19,64)           117.5246         calculate D2E/DX2 analytically  !
 ! A46   A(37,19,64)            79.693          calculate D2E/DX2 analytically  !
 ! A47   A(13,20,21)           111.2551         calculate D2E/DX2 analytically  !
 ! A48   A(13,20,22)           111.7654         calculate D2E/DX2 analytically  !
 ! A49   A(13,20,23)           106.8318         calculate D2E/DX2 analytically  !
 ! A50   A(21,20,22)           108.6681         calculate D2E/DX2 analytically  !
 ! A51   A(21,20,23)           108.5603         calculate D2E/DX2 analytically  !
 ! A52   A(22,20,23)           109.6971         calculate D2E/DX2 analytically  !
 ! A53   A(14,24,25)           111.373          calculate D2E/DX2 analytically  !
 ! A54   A(14,24,26)           111.0123         calculate D2E/DX2 analytically  !
 ! A55   A(14,24,27)           106.8612         calculate D2E/DX2 analytically  !
 ! A56   A(25,24,26)           109.0423         calculate D2E/DX2 analytically  !
 ! A57   A(25,24,27)           109.6922         calculate D2E/DX2 analytically  !
 ! A58   A(26,24,27)           108.805          calculate D2E/DX2 analytically  !
 ! A59   A(15,28,29)           110.6986         calculate D2E/DX2 analytically  !
 ! A60   A(15,28,30)           110.8047         calculate D2E/DX2 analytically  !
 ! A61   A(15,28,31)           107.1021         calculate D2E/DX2 analytically  !
 ! A62   A(29,28,30)           108.8844         calculate D2E/DX2 analytically  !
 ! A63   A(29,28,31)           108.8211         calculate D2E/DX2 analytically  !
 ! A64   A(30,28,31)           110.5051         calculate D2E/DX2 analytically  !
 ! A65   A(33,32,36)           108.7079         calculate D2E/DX2 analytically  !
 ! A66   A(33,32,39)           109.6298         calculate D2E/DX2 analytically  !
 ! A67   A(33,32,45)           111.3225         calculate D2E/DX2 analytically  !
 ! A68   A(36,32,39)           109.3055         calculate D2E/DX2 analytically  !
 ! A69   A(36,32,45)           107.8088         calculate D2E/DX2 analytically  !
 ! A70   A(39,32,45)           110.0176         calculate D2E/DX2 analytically  !
 ! A71   A(32,33,34)           111.2002         calculate D2E/DX2 analytically  !
 ! A72   A(32,33,38)           109.4346         calculate D2E/DX2 analytically  !
 ! A73   A(32,33,44)           110.8885         calculate D2E/DX2 analytically  !
 ! A74   A(34,33,38)           103.7612         calculate D2E/DX2 analytically  !
 ! A75   A(34,33,44)           110.3391         calculate D2E/DX2 analytically  !
 ! A76   A(38,33,44)           111.0099         calculate D2E/DX2 analytically  !
 ! A77   A(33,34,37)           117.7915         calculate D2E/DX2 analytically  !
 ! A78   A(33,34,42)           118.3372         calculate D2E/DX2 analytically  !
 ! A79   A(33,34,53)           101.6552         calculate D2E/DX2 analytically  !
 ! A80   A(37,34,42)           112.2693         calculate D2E/DX2 analytically  !
 ! A81   A(37,34,53)           101.5804         calculate D2E/DX2 analytically  !
 ! A82   A(42,34,53)           101.1947         calculate D2E/DX2 analytically  !
 ! A83   A(36,35,40)           107.8842         calculate D2E/DX2 analytically  !
 ! A84   A(36,35,42)           114.4446         calculate D2E/DX2 analytically  !
 ! A85   A(36,35,47)           112.7446         calculate D2E/DX2 analytically  !
 ! A86   A(40,35,42)           107.0404         calculate D2E/DX2 analytically  !
 ! A87   A(40,35,47)           107.9574         calculate D2E/DX2 analytically  !
 ! A88   A(42,35,47)           106.4629         calculate D2E/DX2 analytically  !
 ! A89   A(32,36,35)           112.6949         calculate D2E/DX2 analytically  !
 ! A90   A(32,36,41)           108.5476         calculate D2E/DX2 analytically  !
 ! A91   A(32,36,46)           111.7953         calculate D2E/DX2 analytically  !
 ! A92   A(35,36,41)           108.8768         calculate D2E/DX2 analytically  !
 ! A93   A(35,36,46)           104.4777         calculate D2E/DX2 analytically  !
 ! A94   A(41,36,46)           110.3835         calculate D2E/DX2 analytically  !
 ! A95   A(11,37,19)            84.5574         calculate D2E/DX2 analytically  !
 ! A96   A(11,37,34)           139.995          calculate D2E/DX2 analytically  !
 ! A97   A(19,37,34)           104.273          calculate D2E/DX2 analytically  !
 ! A98   A(34,42,35)           120.6373         calculate D2E/DX2 analytically  !
 ! A99   A(33,44,63)           114.0585         calculate D2E/DX2 analytically  !
 ! A100  A(32,45,67)           113.9711         calculate D2E/DX2 analytically  !
 ! A101  A(36,46,71)           114.4831         calculate D2E/DX2 analytically  !
 ! A102  A(35,47,48)           108.2545         calculate D2E/DX2 analytically  !
 ! A103  A(35,47,49)           109.3143         calculate D2E/DX2 analytically  !
 ! A104  A(35,47,50)           109.0826         calculate D2E/DX2 analytically  !
 ! A105  A(48,47,49)           108.5536         calculate D2E/DX2 analytically  !
 ! A106  A(48,47,50)           110.9341         calculate D2E/DX2 analytically  !
 ! A107  A(49,47,50)           110.6538         calculate D2E/DX2 analytically  !
 ! A108  A(47,50,75)           111.8841         calculate D2E/DX2 analytically  !
 ! A109  A(43,51,52)           117.9396         calculate D2E/DX2 analytically  !
 ! A110  A(43,51,53)           113.0048         calculate D2E/DX2 analytically  !
 ! A111  A(43,51,54)           108.6552         calculate D2E/DX2 analytically  !
 ! A112  A(43,51,83)           133.2402         calculate D2E/DX2 analytically  !
 ! A113  A(52,51,53)           104.3935         calculate D2E/DX2 analytically  !
 ! A114  A(52,51,54)           107.2019         calculate D2E/DX2 analytically  !
 ! A115  A(52,51,83)            51.4326         calculate D2E/DX2 analytically  !
 ! A116  A(53,51,54)           104.7233         calculate D2E/DX2 analytically  !
 ! A117  A(53,51,83)            52.9844         calculate D2E/DX2 analytically  !
 ! A118  A(54,51,83)           117.9879         calculate D2E/DX2 analytically  !
 ! A119  A(34,53,51)           122.5891         calculate D2E/DX2 analytically  !
 ! A120  A(51,54,55)           118.8638         calculate D2E/DX2 analytically  !
 ! A121  A(51,54,56)           119.009          calculate D2E/DX2 analytically  !
 ! A122  A(55,54,56)           122.1162         calculate D2E/DX2 analytically  !
 ! A123  A(54,55,57)           118.5804         calculate D2E/DX2 analytically  !
 ! A124  A(54,55,58)           120.1447         calculate D2E/DX2 analytically  !
 ! A125  A(57,55,58)           121.2507         calculate D2E/DX2 analytically  !
 ! A126  A(54,56,59)           118.3589         calculate D2E/DX2 analytically  !
 ! A127  A(54,56,60)           120.5097         calculate D2E/DX2 analytically  !
 ! A128  A(59,56,60)           121.1082         calculate D2E/DX2 analytically  !
 ! A129  A(55,57,61)           120.6092         calculate D2E/DX2 analytically  !
 ! A130  A(55,57,97)           118.797          calculate D2E/DX2 analytically  !
 ! A131  A(61,57,97)           120.4758         calculate D2E/DX2 analytically  !
 ! A132  A(56,59,61)           120.7981         calculate D2E/DX2 analytically  !
 ! A133  A(56,59,93)           120.9417         calculate D2E/DX2 analytically  !
 ! A134  A(61,59,93)           118.2494         calculate D2E/DX2 analytically  !
 ! A135  A(57,61,59)           119.5303         calculate D2E/DX2 analytically  !
 ! A136  A(57,61,62)           120.1841         calculate D2E/DX2 analytically  !
 ! A137  A(59,61,62)           120.2852         calculate D2E/DX2 analytically  !
 ! A138  A(44,63,64)           109.5836         calculate D2E/DX2 analytically  !
 ! A139  A(44,63,65)           109.7767         calculate D2E/DX2 analytically  !
 ! A140  A(44,63,66)           106.4284         calculate D2E/DX2 analytically  !
 ! A141  A(64,63,65)           110.1153         calculate D2E/DX2 analytically  !
 ! A142  A(64,63,66)           112.0097         calculate D2E/DX2 analytically  !
 ! A143  A(65,63,66)           108.8483         calculate D2E/DX2 analytically  !
 ! A144  A(19,64,63)           146.8242         calculate D2E/DX2 analytically  !
 ! A145  A(45,67,68)           110.9132         calculate D2E/DX2 analytically  !
 ! A146  A(45,67,69)           111.5499         calculate D2E/DX2 analytically  !
 ! A147  A(45,67,70)           106.6672         calculate D2E/DX2 analytically  !
 ! A148  A(68,67,69)           109.0355         calculate D2E/DX2 analytically  !
 ! A149  A(68,67,70)           108.8964         calculate D2E/DX2 analytically  !
 ! A150  A(69,67,70)           109.722          calculate D2E/DX2 analytically  !
 ! A151  A(46,71,72)           111.1774         calculate D2E/DX2 analytically  !
 ! A152  A(46,71,73)           110.6987         calculate D2E/DX2 analytically  !
 ! A153  A(46,71,74)           106.44           calculate D2E/DX2 analytically  !
 ! A154  A(72,71,73)           109.3305         calculate D2E/DX2 analytically  !
 ! A155  A(72,71,74)           109.9473         calculate D2E/DX2 analytically  !
 ! A156  A(73,71,74)           109.1958         calculate D2E/DX2 analytically  !
 ! A157  A(50,75,76)           106.9924         calculate D2E/DX2 analytically  !
 ! A158  A(50,75,77)           110.6515         calculate D2E/DX2 analytically  !
 ! A159  A(50,75,78)           111.1948         calculate D2E/DX2 analytically  !
 ! A160  A(76,75,77)           109.5071         calculate D2E/DX2 analytically  !
 ! A161  A(76,75,78)           109.0988         calculate D2E/DX2 analytically  !
 ! A162  A(77,75,78)           109.3473         calculate D2E/DX2 analytically  !
 ! A163  A(12,79,80)           106.785          calculate D2E/DX2 analytically  !
 ! A164  A(12,79,81)           111.5278         calculate D2E/DX2 analytically  !
 ! A165  A(12,79,82)           110.9191         calculate D2E/DX2 analytically  !
 ! A166  A(80,79,81)           109.6199         calculate D2E/DX2 analytically  !
 ! A167  A(80,79,82)           109.2976         calculate D2E/DX2 analytically  !
 ! A168  A(81,79,82)           108.6575         calculate D2E/DX2 analytically  !
 ! A169  A(51,83,84)            97.5631         calculate D2E/DX2 analytically  !
 ! A170  A(83,84,85)           126.1465         calculate D2E/DX2 analytically  !
 ! A171  A(83,84,89)           115.7903         calculate D2E/DX2 analytically  !
 ! A172  A(85,84,89)           112.1905         calculate D2E/DX2 analytically  !
 ! A173  A(84,85,86)           110.1881         calculate D2E/DX2 analytically  !
 ! A174  A(84,85,87)           107.8176         calculate D2E/DX2 analytically  !
 ! A175  A(84,85,88)           110.5075         calculate D2E/DX2 analytically  !
 ! A176  A(86,85,87)           109.2822         calculate D2E/DX2 analytically  !
 ! A177  A(86,85,88)           109.1652         calculate D2E/DX2 analytically  !
 ! A178  A(87,85,88)           109.8596         calculate D2E/DX2 analytically  !
 ! A179  A(84,89,90)           110.7491         calculate D2E/DX2 analytically  !
 ! A180  A(84,89,91)           107.0941         calculate D2E/DX2 analytically  !
 ! A181  A(84,89,92)           110.3681         calculate D2E/DX2 analytically  !
 ! A182  A(90,89,91)           109.8504         calculate D2E/DX2 analytically  !
 ! A183  A(90,89,92)           109.3439         calculate D2E/DX2 analytically  !
 ! A184  A(91,89,92)           109.4026         calculate D2E/DX2 analytically  !
 ! A185  A(59,93,94)           112.2852         calculate D2E/DX2 analytically  !
 ! A186  A(59,93,95)           111.2755         calculate D2E/DX2 analytically  !
 ! A187  A(59,93,96)           111.7811         calculate D2E/DX2 analytically  !
 ! A188  A(94,93,95)           107.0463         calculate D2E/DX2 analytically  !
 ! A189  A(94,93,96)           107.2869         calculate D2E/DX2 analytically  !
 ! A190  A(95,93,96)           106.8606         calculate D2E/DX2 analytically  !
 ! A191  A(57,97,98)           112.1265         calculate D2E/DX2 analytically  !
 ! A192  A(57,97,99)           111.0528         calculate D2E/DX2 analytically  !
 ! A193  A(57,97,100)          111.5837         calculate D2E/DX2 analytically  !
 ! A194  A(98,97,99)           107.1318         calculate D2E/DX2 analytically  !
 ! A195  A(98,97,100)          107.8269         calculate D2E/DX2 analytically  !
 ! A196  A(99,97,100)          106.8532         calculate D2E/DX2 analytically  !
 ! D1    D(5,1,2,3)            -52.8178         calculate D2E/DX2 analytically  !
 ! D2    D(5,1,2,7)             63.4989         calculate D2E/DX2 analytically  !
 ! D3    D(5,1,2,13)          -174.4321         calculate D2E/DX2 analytically  !
 ! D4    D(8,1,2,3)             67.2656         calculate D2E/DX2 analytically  !
 ! D5    D(8,1,2,7)           -176.4177         calculate D2E/DX2 analytically  !
 ! D6    D(8,1,2,13)           -54.3487         calculate D2E/DX2 analytically  !
 ! D7    D(14,1,2,3)          -174.4366         calculate D2E/DX2 analytically  !
 ! D8    D(14,1,2,7)           -58.1199         calculate D2E/DX2 analytically  !
 ! D9    D(14,1,2,13)           63.9491         calculate D2E/DX2 analytically  !
 ! D10   D(2,1,5,4)             52.3729         calculate D2E/DX2 analytically  !
 ! D11   D(2,1,5,10)           -67.0053         calculate D2E/DX2 analytically  !
 ! D12   D(2,1,5,15)           173.2929         calculate D2E/DX2 analytically  !
 ! D13   D(8,1,5,4)            -66.8698         calculate D2E/DX2 analytically  !
 ! D14   D(8,1,5,10)           173.752          calculate D2E/DX2 analytically  !
 ! D15   D(8,1,5,15)            54.0502         calculate D2E/DX2 analytically  !
 ! D16   D(14,1,5,4)           171.8662         calculate D2E/DX2 analytically  !
 ! D17   D(14,1,5,10)           52.488          calculate D2E/DX2 analytically  !
 ! D18   D(14,1,5,15)          -67.2139         calculate D2E/DX2 analytically  !
 ! D19   D(2,1,14,24)         -144.0173         calculate D2E/DX2 analytically  !
 ! D20   D(5,1,14,24)           95.3635         calculate D2E/DX2 analytically  !
 ! D21   D(8,1,14,24)          -26.2349         calculate D2E/DX2 analytically  !
 ! D22   D(1,2,3,6)            172.0023         calculate D2E/DX2 analytically  !
 ! D23   D(1,2,3,11)            56.1295         calculate D2E/DX2 analytically  !
 ! D24   D(1,2,3,12)           -67.9582         calculate D2E/DX2 analytically  !
 ! D25   D(7,2,3,6)             54.5582         calculate D2E/DX2 analytically  !
 ! D26   D(7,2,3,11)           -61.3146         calculate D2E/DX2 analytically  !
 ! D27   D(7,2,3,12)           174.5977         calculate D2E/DX2 analytically  !
 ! D28   D(13,2,3,6)           -63.9395         calculate D2E/DX2 analytically  !
 ! D29   D(13,2,3,11)         -179.8123         calculate D2E/DX2 analytically  !
 ! D30   D(13,2,3,12)           56.1            calculate D2E/DX2 analytically  !
 ! D31   D(1,2,13,20)          -94.2408         calculate D2E/DX2 analytically  !
 ! D32   D(3,2,13,20)          143.1043         calculate D2E/DX2 analytically  !
 ! D33   D(7,2,13,20)           26.86           calculate D2E/DX2 analytically  !
 ! D34   D(2,3,11,4)           -59.891          calculate D2E/DX2 analytically  !
 ! D35   D(2,3,11,37)           66.745          calculate D2E/DX2 analytically  !
 ! D36   D(6,3,11,4)          -178.9849         calculate D2E/DX2 analytically  !
 ! D37   D(6,3,11,37)          -52.3489         calculate D2E/DX2 analytically  !
 ! D38   D(12,3,11,4)           61.3856         calculate D2E/DX2 analytically  !
 ! D39   D(12,3,11,37)        -171.9784         calculate D2E/DX2 analytically  !
 ! D40   D(2,3,12,79)         -174.6221         calculate D2E/DX2 analytically  !
 ! D41   D(6,3,12,79)          -54.2936         calculate D2E/DX2 analytically  !
 ! D42   D(11,3,12,79)          62.5271         calculate D2E/DX2 analytically  !
 ! D43   D(9,4,5,1)             65.6649         calculate D2E/DX2 analytically  !
 ! D44   D(9,4,5,10)          -174.8159         calculate D2E/DX2 analytically  !
 ! D45   D(9,4,5,15)           -55.0997         calculate D2E/DX2 analytically  !
 ! D46   D(11,4,5,1)           -53.2433         calculate D2E/DX2 analytically  !
 ! D47   D(11,4,5,10)           66.2759         calculate D2E/DX2 analytically  !
 ! D48   D(11,4,5,15)         -174.0079         calculate D2E/DX2 analytically  !
 ! D49   D(16,4,5,1)          -171.9993         calculate D2E/DX2 analytically  !
 ! D50   D(16,4,5,10)          -52.4801         calculate D2E/DX2 analytically  !
 ! D51   D(16,4,5,15)           67.2361         calculate D2E/DX2 analytically  !
 ! D52   D(5,4,11,3)            58.0703         calculate D2E/DX2 analytically  !
 ! D53   D(5,4,11,37)          -79.7981         calculate D2E/DX2 analytically  !
 ! D54   D(9,4,11,3)           -60.9707         calculate D2E/DX2 analytically  !
 ! D55   D(9,4,11,37)          161.161          calculate D2E/DX2 analytically  !
 ! D56   D(16,4,11,3)         -179.4312         calculate D2E/DX2 analytically  !
 ! D57   D(16,4,11,37)          42.7004         calculate D2E/DX2 analytically  !
 ! D58   D(5,4,16,17)          -74.9388         calculate D2E/DX2 analytically  !
 ! D59   D(5,4,16,18)          176.4097         calculate D2E/DX2 analytically  !
 ! D60   D(5,4,16,19)           50.744          calculate D2E/DX2 analytically  !
 ! D61   D(9,4,16,17)           46.8405         calculate D2E/DX2 analytically  !
 ! D62   D(9,4,16,18)          -61.8111         calculate D2E/DX2 analytically  !
 ! D63   D(9,4,16,19)          172.5232         calculate D2E/DX2 analytically  !
 ! D64   D(11,4,16,17)         164.5095         calculate D2E/DX2 analytically  !
 ! D65   D(11,4,16,18)          55.8579         calculate D2E/DX2 analytically  !
 ! D66   D(11,4,16,19)         -69.8078         calculate D2E/DX2 analytically  !
 ! D67   D(1,5,15,28)          137.7245         calculate D2E/DX2 analytically  !
 ! D68   D(4,5,15,28)          -99.9084         calculate D2E/DX2 analytically  !
 ! D69   D(10,5,15,28)          18.8431         calculate D2E/DX2 analytically  !
 ! D70   D(3,11,37,19)        -148.0155         calculate D2E/DX2 analytically  !
 ! D71   D(3,11,37,34)         -42.2488         calculate D2E/DX2 analytically  !
 ! D72   D(4,11,37,19)         -16.0431         calculate D2E/DX2 analytically  !
 ! D73   D(4,11,37,34)          89.7236         calculate D2E/DX2 analytically  !
 ! D74   D(3,12,79,80)         176.6501         calculate D2E/DX2 analytically  !
 ! D75   D(3,12,79,81)         -63.6137         calculate D2E/DX2 analytically  !
 ! D76   D(3,12,79,82)          57.6484         calculate D2E/DX2 analytically  !
 ! D77   D(2,13,20,21)         -58.9375         calculate D2E/DX2 analytically  !
 ! D78   D(2,13,20,22)          62.7389         calculate D2E/DX2 analytically  !
 ! D79   D(2,13,20,23)        -177.2642         calculate D2E/DX2 analytically  !
 ! D80   D(1,14,24,25)         -60.5787         calculate D2E/DX2 analytically  !
 ! D81   D(1,14,24,26)          61.1328         calculate D2E/DX2 analytically  !
 ! D82   D(1,14,24,27)         179.6381         calculate D2E/DX2 analytically  !
 ! D83   D(5,15,28,29)         -80.1397         calculate D2E/DX2 analytically  !
 ! D84   D(5,15,28,30)          40.7701         calculate D2E/DX2 analytically  !
 ! D85   D(5,15,28,31)         161.3651         calculate D2E/DX2 analytically  !
 ! D86   D(4,16,19,37)          48.8961         calculate D2E/DX2 analytically  !
 ! D87   D(4,16,19,64)         132.0684         calculate D2E/DX2 analytically  !
 ! D88   D(17,16,19,37)        169.1388         calculate D2E/DX2 analytically  !
 ! D89   D(17,16,19,64)       -107.6889         calculate D2E/DX2 analytically  !
 ! D90   D(18,16,19,37)        -71.1369         calculate D2E/DX2 analytically  !
 ! D91   D(18,16,19,64)         12.0354         calculate D2E/DX2 analytically  !
 ! D92   D(16,19,37,11)        -17.0196         calculate D2E/DX2 analytically  !
 ! D93   D(16,19,37,34)       -157.3491         calculate D2E/DX2 analytically  !
 ! D94   D(64,19,37,11)       -133.5157         calculate D2E/DX2 analytically  !
 ! D95   D(64,19,37,34)         86.1549         calculate D2E/DX2 analytically  !
 ! D96   D(16,19,64,63)       -147.9048         calculate D2E/DX2 analytically  !
 ! D97   D(37,19,64,63)        -52.6857         calculate D2E/DX2 analytically  !
 ! D98   D(36,32,33,34)        -53.3206         calculate D2E/DX2 analytically  !
 ! D99   D(36,32,33,38)         60.7219         calculate D2E/DX2 analytically  !
 ! D100  D(36,32,33,44)       -176.4861         calculate D2E/DX2 analytically  !
 ! D101  D(39,32,33,34)         66.1097         calculate D2E/DX2 analytically  !
 ! D102  D(39,32,33,38)       -179.8477         calculate D2E/DX2 analytically  !
 ! D103  D(39,32,33,44)        -57.0558         calculate D2E/DX2 analytically  !
 ! D104  D(45,32,33,34)       -171.9283         calculate D2E/DX2 analytically  !
 ! D105  D(45,32,33,38)        -57.8858         calculate D2E/DX2 analytically  !
 ! D106  D(45,32,33,44)         64.9062         calculate D2E/DX2 analytically  !
 ! D107  D(33,32,36,35)         52.1652         calculate D2E/DX2 analytically  !
 ! D108  D(33,32,36,41)        -68.513          calculate D2E/DX2 analytically  !
 ! D109  D(33,32,36,46)        169.4927         calculate D2E/DX2 analytically  !
 ! D110  D(39,32,36,35)        -67.4675         calculate D2E/DX2 analytically  !
 ! D111  D(39,32,36,41)        171.8544         calculate D2E/DX2 analytically  !
 ! D112  D(39,32,36,46)         49.8601         calculate D2E/DX2 analytically  !
 ! D113  D(45,32,36,35)        172.9624         calculate D2E/DX2 analytically  !
 ! D114  D(45,32,36,41)         52.2842         calculate D2E/DX2 analytically  !
 ! D115  D(45,32,36,46)        -69.71           calculate D2E/DX2 analytically  !
 ! D116  D(33,32,45,67)        -94.1881         calculate D2E/DX2 analytically  !
 ! D117  D(36,32,45,67)        146.6663         calculate D2E/DX2 analytically  !
 ! D118  D(39,32,45,67)         27.5488         calculate D2E/DX2 analytically  !
 ! D119  D(32,33,34,37)       -172.6266         calculate D2E/DX2 analytically  !
 ! D120  D(32,33,34,42)         46.9366         calculate D2E/DX2 analytically  !
 ! D121  D(32,33,34,53)        -62.7246         calculate D2E/DX2 analytically  !
 ! D122  D(38,33,34,37)         69.8298         calculate D2E/DX2 analytically  !
 ! D123  D(38,33,34,42)        -70.607          calculate D2E/DX2 analytically  !
 ! D124  D(38,33,34,53)        179.7317         calculate D2E/DX2 analytically  !
 ! D125  D(44,33,34,37)        -49.1468         calculate D2E/DX2 analytically  !
 ! D126  D(44,33,34,42)        170.4164         calculate D2E/DX2 analytically  !
 ! D127  D(44,33,34,53)         60.7552         calculate D2E/DX2 analytically  !
 ! D128  D(32,33,44,63)       -134.5767         calculate D2E/DX2 analytically  !
 ! D129  D(34,33,44,63)        101.7628         calculate D2E/DX2 analytically  !
 ! D130  D(38,33,44,63)        -12.7015         calculate D2E/DX2 analytically  !
 ! D131  D(33,34,37,11)       -153.6071         calculate D2E/DX2 analytically  !
 ! D132  D(33,34,37,19)        -54.9292         calculate D2E/DX2 analytically  !
 ! D133  D(42,34,37,11)        -10.8928         calculate D2E/DX2 analytically  !
 ! D134  D(42,34,37,19)         87.7852         calculate D2E/DX2 analytically  !
 ! D135  D(53,34,37,11)         96.4485         calculate D2E/DX2 analytically  !
 ! D136  D(53,34,37,19)       -164.8736         calculate D2E/DX2 analytically  !
 ! D137  D(33,34,42,35)        -36.6864         calculate D2E/DX2 analytically  !
 ! D138  D(37,34,42,35)       -179.1783         calculate D2E/DX2 analytically  !
 ! D139  D(53,34,42,35)         73.2335         calculate D2E/DX2 analytically  !
 ! D140  D(33,34,53,51)        -97.3101         calculate D2E/DX2 analytically  !
 ! D141  D(37,34,53,51)         24.5759         calculate D2E/DX2 analytically  !
 ! D142  D(42,34,53,51)        140.3543         calculate D2E/DX2 analytically  !
 ! D143  D(40,35,36,32)         77.5429         calculate D2E/DX2 analytically  !
 ! D144  D(40,35,36,41)       -161.9676         calculate D2E/DX2 analytically  !
 ! D145  D(40,35,36,46)        -44.0333         calculate D2E/DX2 analytically  !
 ! D146  D(42,35,36,32)        -41.4646         calculate D2E/DX2 analytically  !
 ! D147  D(42,35,36,41)         79.0249         calculate D2E/DX2 analytically  !
 ! D148  D(42,35,36,46)       -163.0409         calculate D2E/DX2 analytically  !
 ! D149  D(47,35,36,32)       -163.3424         calculate D2E/DX2 analytically  !
 ! D150  D(47,35,36,41)        -42.8529         calculate D2E/DX2 analytically  !
 ! D151  D(47,35,36,46)         75.0813         calculate D2E/DX2 analytically  !
 ! D152  D(36,35,42,34)         33.3859         calculate D2E/DX2 analytically  !
 ! D153  D(40,35,42,34)        -86.0958         calculate D2E/DX2 analytically  !
 ! D154  D(47,35,42,34)        158.638          calculate D2E/DX2 analytically  !
 ! D155  D(36,35,47,48)        -67.5886         calculate D2E/DX2 analytically  !
 ! D156  D(36,35,47,49)        174.3358         calculate D2E/DX2 analytically  !
 ! D157  D(36,35,47,50)         53.2224         calculate D2E/DX2 analytically  !
 ! D158  D(40,35,47,48)         51.4835         calculate D2E/DX2 analytically  !
 ! D159  D(40,35,47,49)        -66.5921         calculate D2E/DX2 analytically  !
 ! D160  D(40,35,47,50)        172.2945         calculate D2E/DX2 analytically  !
 ! D161  D(42,35,47,48)        166.1286         calculate D2E/DX2 analytically  !
 ! D162  D(42,35,47,49)         48.0529         calculate D2E/DX2 analytically  !
 ! D163  D(42,35,47,50)        -73.0604         calculate D2E/DX2 analytically  !
 ! D164  D(32,36,46,71)         95.9633         calculate D2E/DX2 analytically  !
 ! D165  D(35,36,46,71)       -141.8687         calculate D2E/DX2 analytically  !
 ! D166  D(41,36,46,71)        -24.9705         calculate D2E/DX2 analytically  !
 ! D167  D(33,44,63,64)        -40.956          calculate D2E/DX2 analytically  !
 ! D168  D(33,44,63,65)         80.0966         calculate D2E/DX2 analytically  !
 ! D169  D(33,44,63,66)       -162.2615         calculate D2E/DX2 analytically  !
 ! D170  D(32,45,67,68)        -58.7871         calculate D2E/DX2 analytically  !
 ! D171  D(32,45,67,69)         62.9691         calculate D2E/DX2 analytically  !
 ! D172  D(32,45,67,70)       -177.2316         calculate D2E/DX2 analytically  !
 ! D173  D(36,46,71,72)        -61.8426         calculate D2E/DX2 analytically  !
 ! D174  D(36,46,71,73)         59.8842         calculate D2E/DX2 analytically  !
 ! D175  D(36,46,71,74)        178.4364         calculate D2E/DX2 analytically  !
 ! D176  D(35,47,50,75)        177.3263         calculate D2E/DX2 analytically  !
 ! D177  D(48,47,50,75)        -63.516          calculate D2E/DX2 analytically  !
 ! D178  D(49,47,50,75)         57.0332         calculate D2E/DX2 analytically  !
 ! D179  D(47,50,75,76)        179.1761         calculate D2E/DX2 analytically  !
 ! D180  D(47,50,75,77)        -61.5936         calculate D2E/DX2 analytically  !
 ! D181  D(47,50,75,78)         60.1339         calculate D2E/DX2 analytically  !
 ! D182  D(43,51,53,34)        -25.6971         calculate D2E/DX2 analytically  !
 ! D183  D(52,51,53,34)       -155.0784         calculate D2E/DX2 analytically  !
 ! D184  D(54,51,53,34)         92.3941         calculate D2E/DX2 analytically  !
 ! D185  D(83,51,53,34)       -153.4291         calculate D2E/DX2 analytically  !
 ! D186  D(43,51,54,55)         -8.3383         calculate D2E/DX2 analytically  !
 ! D187  D(43,51,54,56)        170.4817         calculate D2E/DX2 analytically  !
 ! D188  D(52,51,54,55)        120.1386         calculate D2E/DX2 analytically  !
 ! D189  D(52,51,54,56)        -61.0414         calculate D2E/DX2 analytically  !
 ! D190  D(53,51,54,55)       -129.3492         calculate D2E/DX2 analytically  !
 ! D191  D(53,51,54,56)         49.4708         calculate D2E/DX2 analytically  !
 ! D192  D(83,51,54,55)        175.0714         calculate D2E/DX2 analytically  !
 ! D193  D(83,51,54,56)         -6.1086         calculate D2E/DX2 analytically  !
 ! D194  D(43,51,83,84)       -174.3525         calculate D2E/DX2 analytically  !
 ! D195  D(52,51,83,84)         91.4741         calculate D2E/DX2 analytically  !
 ! D196  D(53,51,83,84)        -86.4826         calculate D2E/DX2 analytically  !
 ! D197  D(54,51,83,84)          1.2111         calculate D2E/DX2 analytically  !
 ! D198  D(51,54,55,57)        177.8645         calculate D2E/DX2 analytically  !
 ! D199  D(51,54,55,58)         -0.3699         calculate D2E/DX2 analytically  !
 ! D200  D(56,54,55,57)         -0.9171         calculate D2E/DX2 analytically  !
 ! D201  D(56,54,55,58)       -179.1515         calculate D2E/DX2 analytically  !
 ! D202  D(51,54,56,59)       -178.0379         calculate D2E/DX2 analytically  !
 ! D203  D(51,54,56,60)          0.2279         calculate D2E/DX2 analytically  !
 ! D204  D(55,54,56,59)          0.7419         calculate D2E/DX2 analytically  !
 ! D205  D(55,54,56,60)        179.0078         calculate D2E/DX2 analytically  !
 ! D206  D(54,55,57,61)          0.3683         calculate D2E/DX2 analytically  !
 ! D207  D(54,55,57,97)       -175.7026         calculate D2E/DX2 analytically  !
 ! D208  D(58,55,57,61)        178.5824         calculate D2E/DX2 analytically  !
 ! D209  D(58,55,57,97)          2.5115         calculate D2E/DX2 analytically  !
 ! D210  D(54,56,59,61)         -0.0155         calculate D2E/DX2 analytically  !
 ! D211  D(54,56,59,93)        178.7742         calculate D2E/DX2 analytically  !
 ! D212  D(60,56,59,61)       -178.2706         calculate D2E/DX2 analytically  !
 ! D213  D(60,56,59,93)          0.5192         calculate D2E/DX2 analytically  !
 ! D214  D(55,57,61,59)          0.3261         calculate D2E/DX2 analytically  !
 ! D215  D(55,57,61,62)       -179.4625         calculate D2E/DX2 analytically  !
 ! D216  D(97,57,61,59)        176.3309         calculate D2E/DX2 analytically  !
 ! D217  D(97,57,61,62)         -3.4577         calculate D2E/DX2 analytically  !
 ! D218  D(55,57,97,98)       -161.8968         calculate D2E/DX2 analytically  !
 ! D219  D(55,57,97,99)         78.2856         calculate D2E/DX2 analytically  !
 ! D220  D(55,57,97,100)       -40.8158         calculate D2E/DX2 analytically  !
 ! D221  D(61,57,97,98)         22.0269         calculate D2E/DX2 analytically  !
 ! D222  D(61,57,97,99)        -97.7907         calculate D2E/DX2 analytically  !
 ! D223  D(61,57,97,100)       143.1079         calculate D2E/DX2 analytically  !
 ! D224  D(56,59,61,57)         -0.5059         calculate D2E/DX2 analytically  !
 ! D225  D(56,59,61,62)        179.2825         calculate D2E/DX2 analytically  !
 ! D226  D(93,59,61,57)       -179.3276         calculate D2E/DX2 analytically  !
 ! D227  D(93,59,61,62)          0.4608         calculate D2E/DX2 analytically  !
 ! D228  D(56,59,93,94)         -2.2471         calculate D2E/DX2 analytically  !
 ! D229  D(56,59,93,95)       -122.2181         calculate D2E/DX2 analytically  !
 ! D230  D(56,59,93,96)        118.3899         calculate D2E/DX2 analytically  !
 ! D231  D(61,59,93,94)        176.5728         calculate D2E/DX2 analytically  !
 ! D232  D(61,59,93,95)         56.6018         calculate D2E/DX2 analytically  !
 ! D233  D(61,59,93,96)        -62.7902         calculate D2E/DX2 analytically  !
 ! D234  D(44,63,64,19)         25.1366         calculate D2E/DX2 analytically  !
 ! D235  D(65,63,64,19)        -95.711          calculate D2E/DX2 analytically  !
 ! D236  D(66,63,64,19)        143.0143         calculate D2E/DX2 analytically  !
 ! D237  D(51,83,84,85)        120.5135         calculate D2E/DX2 analytically  !
 ! D238  D(51,83,84,89)        -88.745          calculate D2E/DX2 analytically  !
 ! D239  D(83,84,85,86)       -149.7438         calculate D2E/DX2 analytically  !
 ! D240  D(83,84,85,87)        -30.5516         calculate D2E/DX2 analytically  !
 ! D241  D(83,84,85,88)         89.5272         calculate D2E/DX2 analytically  !
 ! D242  D(89,84,85,86)         58.6331         calculate D2E/DX2 analytically  !
 ! D243  D(89,84,85,87)        177.8252         calculate D2E/DX2 analytically  !
 ! D244  D(89,84,85,88)        -62.0959         calculate D2E/DX2 analytically  !
 ! D245  D(83,84,89,90)        -92.1539         calculate D2E/DX2 analytically  !
 ! D246  D(83,84,89,91)         27.6086         calculate D2E/DX2 analytically  !
 ! D247  D(83,84,89,92)        146.6153         calculate D2E/DX2 analytically  !
 ! D248  D(85,84,89,90)         62.6168         calculate D2E/DX2 analytically  !
 ! D249  D(85,84,89,91)       -177.6207         calculate D2E/DX2 analytically  !
 ! D250  D(85,84,89,92)        -58.614          calculate D2E/DX2 analytically  !
 --------------------------------------------------------------------------------
 Trust Radius=1.00D-02 FncErr=1.00D-07 GrdErr=1.00D-06 EigMax=2.50D+02 EigMin=1.00D-04
 Number of steps in this run=    560 maximum allowed number of steps=    600.
 Search for a saddle point of order  1.
 Step   0 in ReCalcFC=30 IGetFC= 4 compute analytic Hessian.
 GradGradGradGradGradGradGradGradGradGradGradGradGradGradGradGradGradGrad

 Leave Link  103 at Sun May 26 01:13:16 2019, MaxMem=  6442450944 cpu:               3.9 elap:               0.2
 (Enter /home/ekwan/sw/g16/l202.exe)
 Stoichiometry    C30H47F6NaO15S
 Framework group  C1[X(C30H47F6NaO15S)]
 Deg. of freedom   294
 Full point group                 C1      NOp   1
 Largest Abelian subgroup         C1      NOp   1
 Largest concise Abelian subgroup C1      NOp   1
                         Standard orientation:                         
 ---------------------------------------------------------------------
 Center     Atomic      Atomic             Coordinates (Angstroms)
 Number     Number       Type             X           Y           Z
 ---------------------------------------------------------------------
      1          6           0       -5.086802   -0.776805    0.303231
      2          6           0       -4.132965   -0.824318    1.498714
      3          6           0       -3.340056   -2.134989    1.497643
      4          6           0       -3.490967   -2.340023   -0.893521
      5          6           0       -4.314096   -1.049176   -0.987220
      6          1           0       -2.557748   -2.108028    2.269776
      7          1           0       -3.400145   -0.016188    1.388033
      8          1           0       -5.860008   -1.543635    0.444038
      9          1           0       -4.177299   -3.195424   -0.808248
     10          1           0       -3.628988   -0.217088   -1.164543
     11          8           0       -2.649871   -2.299767    0.285286
     12          8           0       -4.237299   -3.186813    1.763301
     13          8           0       -4.807145   -0.704162    2.745071
     14          8           0       -5.701402    0.516191    0.281589
     15          8           0       -5.240355   -1.156457   -2.072116
     16          6           0       -2.549629   -2.539166   -2.101941
     17          1           0       -3.232005   -2.852933   -2.935917
     18          1           0       -1.980330   -3.473192   -1.853083
     19          8           0       -1.770128   -1.466076   -2.390656
     20          6           0       -4.866863    0.621288    3.244320
     21          1           0       -3.856621    1.042132    3.383483
     22          1           0       -5.432461    1.280740    2.578426
     23          1           0       -5.360199    0.570605    4.219130
     24          6           0       -7.056338    0.501469   -0.144151
     25          1           0       -7.150236    0.111566   -1.162402
     26          1           0       -7.675607   -0.106890    0.531688
     27          1           0       -7.410436    1.535886   -0.111446
     28          6           0       -4.792421   -0.485589   -3.248494
     29          1           0       -4.983450    0.594888   -3.176311
     30          1           0       -3.719077   -0.646591   -3.403796
     31          1           0       -5.366359   -0.890391   -4.088238
     32          6           0        0.699357    1.865602   -1.332297
     33          6           0        0.254127    0.417189   -1.522297
     34          6           0       -0.705176   -0.005910   -0.436408
     35          6           0       -1.525107    2.242958   -0.146268
     36          6           0       -0.541360    2.747527   -1.211285
     37          1           0       -0.993757   -1.046471   -0.396442
     38          1           0       -0.339063    0.335363   -2.440763
     39          1           0        1.295383    1.950587   -0.415704
     40          1           0       -1.131781    2.526834    0.836764
     41          1           0       -1.049576    2.768961   -2.181387
     42          8           0       -1.707744    0.805355   -0.131628
     43          8           0        0.399879   -2.358231    1.374887
     44          8           0        1.365465   -0.449580   -1.559413
     45          8           0        1.451285    2.324553   -2.445048
     46          8           0       -0.212620    4.067334   -0.794932
     47          6           0       -2.908034    2.850687   -0.290120
     48          1           0       -2.839098    3.924029   -0.055600
     49          1           0       -3.589559    2.378199    0.431140
     50          8           0       -3.364423    2.651413   -1.610262
     51         16           0        1.053261   -1.082893    1.665009
     52          8           0        1.235122   -0.701582    3.091080
     53          8           0        0.317171    0.140037    1.026490
     54          6           0        2.670846   -1.084637    0.908374
     55          6           0        3.146248   -2.259827    0.348512
     56          6           0        3.404103    0.100722    0.877534
     57          6           0        4.393059   -2.243386   -0.281729
     58          1           0        2.543594   -3.159488    0.378643
     59          6           0        4.643486    0.094075    0.248893
     60          1           0        3.000296    1.008805    1.309487
     61          6           0        5.142638   -1.073453   -0.337984
     62          1           0        6.105031   -1.066371   -0.836177
     63          6           0        1.314364   -1.422496   -2.615146
     64          1           0        0.292167   -1.812838   -2.706748
     65          1           0        1.629020   -0.960910   -3.561857
     66          1           0        2.029116   -2.204865   -2.349208
     67          6           0        2.858634    2.186259   -2.288343
     68          1           0        3.211068    2.737943   -1.406051
     69          1           0        3.150998    1.136762   -2.193045
     70          1           0        3.317268    2.617144   -3.181615
     71          6           0       -0.073724    5.005391   -1.859565
     72          1           0        0.738628    4.720240   -2.533895
     73          1           0       -1.008733    5.086076   -2.430393
     74          1           0        0.148108    5.969222   -1.395446
     75          6           0       -4.681516    3.144791   -1.794480
     76          1           0       -4.946810    2.964352   -2.838269
     77          1           0       -5.386736    2.617775   -1.141139
     78          1           0       -4.733782    4.225420   -1.591182
     79          6           0       -3.588783   -4.443760    1.906970
     80          1           0       -4.362054   -5.169636    2.168117
     81          1           0       -3.095301   -4.750100    0.977898
     82          1           0       -2.837299   -4.408541    2.709540
     83         11           0        0.166703    1.383466    3.044311
     84          8           0        2.030661    2.656729    2.615015
     85          6           0        2.059586    3.896940    1.902795
     86          1           0        3.019665    4.015040    1.387902
     87          1           0        1.255074    3.877436    1.165339
     88          1           0        1.913885    4.739591    2.591594
     89          6           0        3.083456    2.561968    3.576889
     90          1           0        2.980201    3.339870    4.344314
     91          1           0        3.009535    1.574517    4.037487
     92          1           0        4.058117    2.662892    3.086655
     93          6           0        5.470727    1.346107    0.157742
     94          9           0        4.842432    2.417639    0.699077
     95          9           0        5.749176    1.657896   -1.128892
     96          9           0        6.653433    1.211954    0.792595
     97          6           0        4.870618   -3.489614   -0.975926
     98          9           0        6.201465   -3.472730   -1.191167
     99          9           0        4.272674   -3.633715   -2.183620
    100          9           0        4.581733   -4.597220   -0.261780
 ---------------------------------------------------------------------
 Rotational constants (GHZ):           0.0734361           0.0369901           0.0325016
 Leave Link  202 at Sun May 26 01:13:17 2019, MaxMem=  6442450944 cpu:               5.2 elap:               0.2
 (Enter /home/ekwan/sw/g16/l301.exe)
 Standard basis: 6-31G(d) (6D, 7F)
 Ernie: Thresh=  0.10000D-02 Tol=  0.10000D-05 Strict=F.
 There are   897 symmetry adapted cartesian basis functions of A   symmetry.
 There are   897 symmetry adapted basis functions of A   symmetry.
   897 basis functions,  1720 primitive gaussians,   897 cartesian basis functions
   214 alpha electrons      214 beta electrons
       nuclear repulsion energy      9676.2113172009 Hartrees.
 IExCor=  402 DFT=T Ex+Corr=B3LYP ExCW=0 ScaHFX=  0.200000
 ScaDFX=  0.800000  0.720000  1.000000  0.810000 ScalE2=  1.000000  1.000000
 IRadAn=      5 IRanWt=     -1 IRanGd=            0 ICorTp=0 IEmpDi=141
 NAtoms=  100 NActive=  100 NUniq=  100 SFac= 1.00D+00 NAtFMM=   60 NAOKFM=T Big=T
 Integral buffers will be    131072 words long.
 Raffenetti 2 integral format.
 Two-electron integral symmetry is turned on.
 R6Disp:  Grimme-D3(BJ) Dispersion energy=       -0.2340990419 Hartrees.
 Nuclear repulsion after empirical dispersion term =     9675.9772181590 Hartrees.
 Force inversion solution in PCM.
 ------------------------------------------------------------------------------
 Polarizable Continuum Model (PCM)
 =================================
 Model                : PCM.
 Atomic radii         : UFF (Universal Force Field).
 Polarization charges : Total charges.
 Charge compensation  : None.
 Solution method      : Matrix inversion.
 Cavity type          : Scaled VdW (van der Waals Surface) (Alpha=1.100).
 Cavity algorithm     : GePol (No added spheres)
                        Default sphere list used, NSphG=  100.
                        Lebedev-Laikov grids with approx.  5.0 points / Ang**2.
                        Smoothing algorithm: York/Karplus (Gamma=1.0000).
                        Polarization charges: spherical gaussians, with
                                              point-specific exponents (IZeta= 3).
                        Self-potential: point-specific (ISelfS= 7).
                        Self-field    : sphere-specific E.n sum rule (ISelfD= 2).
 1st derivatives      : Analytical E(r).r(x)/FMM algorithm (CHGder, D1EAlg=3).
                        Cavity 1st derivative terms included.
 2nd derivatives      : Analytical E(r).r(xy)/FMM algorithm (CHGder, D2EAlg=3).
                        Cavity 2nd derivative terms included.
 Solvent              : TetraHydroFuran, Eps=   7.425700 Eps(inf)=   1.974025
 ------------------------------------------------------------------------------
 GePol: Number of generator spheres                  =     100
 GePol: Total number of spheres                      =     100
 GePol: Number of exposed spheres                    =     100 (100.00%)
 GePol: Number of points                             =    6077
 GePol: Average weight of points                     =       0.12
 GePol: Minimum weight of points                     =   0.30D-11
 GePol: Maximum weight of points                     =    0.21593
 GePol: Number of points with low weight             =     449
 GePol: Fraction of low-weight points (<1% of avg)   =       7.39%
 GePol: Cavity surface area                          =    745.464 Ang**2
 GePol: Cavity volume                                =    967.186 Ang**3
 Leave Link  301 at Sun May 26 01:13:17 2019, MaxMem=  6442450944 cpu:               8.0 elap:               0.3
 (Enter /home/ekwan/sw/g16/l302.exe)
 NPDir=0 NMtPBC=     1 NCelOv=     1 NCel=       1 NClECP=     1 NCelD=      1
         NCelK=      1 NCelE2=     1 NClLst=     1 CellRange=     0.0.
 One-electron integrals computed using PRISM.
 One-electron integral symmetry used in STVInt
[...]
 00788,-0.00000852,0.00000725,0.00000804,-0.00000102,0.00000444,0.00006
 497,-0.00001925,0.00002975,-0.00219311,-0.00004981,0.00108641,0.000500
 34,-0.00015493,-0.00063536,0.00107765,-0.00041714,0.00025313,0.0006620
 7,-0.00098824,0.00073889,-0.00209432,-0.00116843,-0.00036253,0.0002703
 1,-0.00066424,-0.00067129,-0.00952281,-0.00371938,-0.03287472,-0.00008
 443,0.00010541,-0.00067376,0.00104402,-0.00075647,0.00099833,-0.000120
 17,0.00018747,-0.00001014,0.00169099,0.00118912,-0.00107161,-0.0004697
 5,0.00019243,-0.00055832,0.00008874,0.00027719,-0.00017362,-0.00000114
 ,-0.00013870,0.00006384,0.00002465,-0.00004680,0.00009310,0.00072695,-
 0.00095455,-0.00005545,-0.00009238,0.00007990,-0.00004290,-0.00001431,
 0.00006455,0.00000093,0.00000121,-0.00004511,-0.00008212,0.00000970,-0
 .00003830,0.00004156,-0.00000555,0.00005464,-0.00005698,-0.00000144,0.
 00000653,0.00000274,0.00001036,-0.00000479,0.00001233,-0.00000183,-0.0
 0001277,0.00000189,-0.00004328,0.00001746,-0.00000615,0.00000574,-0.00
 000153,0.00000539,0.00000708,-0.00000254,-0.00000358,0.00000577,-0.000
 00617,-0.00000151,0.00001685,-0.00003783,-0.00000747,0.00000229,0.0000
 0505,-0.00000131,-0.00000344,0.00000104,0.00000643,-0.00000281,0.00000
 108,0.00000047,-0.00013028,0.00013103,0.00012226,0.00006085,-0.0002475
 4,-0.00014573,-0.00003421,0.00013881,-0.00007203,-0.00000396,0.0000202
 8,0.00000832,-0.00000521,0.00000839,0.00000396,0.00000509,-0.00004323,
 -0.00001264,0.00004386,0.00002162,0.00011646,0.00001246,-0.00003548,-0
 .00002938,-0.00000313,0.00000467,0.00004423,0.00001922,0.00004065,0.00
 002988,0.00133047,0.00136967,-0.00008793,-0.00015959,-0.00060573,-0.00
 012472,-0.00030388,-0.00037671,0.00030959,-0.00053891,-0.00028703,-0.0
 0014352,-0.01291890,-0.07996566,-0.03733709,-0.00490560,0.01220686,-0.
 00085152,0.01386478,0.07413191,-0.00000711,0.00000265,-0.00002015,-0.0
 0002589,-0.00001051,-0.00000623,-0.00005128,-0.00003082,-0.00006037,-0
 .00004966,-0.00001402,-0.00007809,-0.00001863,-0.00001097,-0.00001284,
 0.00000450,-0.00000464,0.00003771,-0.00000432,0.00001103,0.00000300,0.
 00000438,0.00000086,0.00000188,0.00000772,0.00000476,0.00000989,-0.000
 00100,-0.00000002,-0.00000962,0.00006449,0.00002759,0.00009379,0.00003
 294,0.00003025,0.00002753,0.00001912,0.00001157,0.00001854,0.00001812,
 0.00000409,0.00002027,0.00001072,-0.00000142,0.00005989,0.00001988,-0.
 00003294,-0.00000283,0.00002095,0.00002343,0.00001761,0.00000302,0.000
 03062,-0.00001294,-0.00015180,0.00012521,0.00019423,-0.00002351,-0.000
 01078,-0.00000696,0.00000822,0.00000437,0.00000006,0.00000439,-0.00000
 242,0.00000045,0.00000008,0.00000150,-0.00000080,-0.00001461,-0.000001
 47,-0.00000885,0.00000389,0.00000085,0.00000399,0.00000140,0.00000006,
 0.00000029,0.00000114,-0.00000030,-0.00000024,0.00001612,0.00000590,-0
 .00003166,-0.00000339,0.00000046,0.00000303,-0.00000409,-0.00000084,-0
 .00000121,0.00000508,-0.00000037,0.00000646,-0.00014014,0.00000195,-0.
 00021356,0.00025822,-0.00002543,0.00010772,-0.00078873,0.00009128,-0.0
 0101819,-0.00001607,0.00010067,-0.00005783,0.00002038,0.00006167,0.000
 00744,-0.00000596,-0.00008175,0.00002100,0.00001113,-0.00005230,0.0000
 1723,0.00001548,0.00008748,0.00004956,-0.00001257,-0.00000030,0.000021
 84,0.00001439,-0.00002153,0.00000761,0.00024565,-0.00017940,0.00016425
 ,0.00091770,0.00028752,-0.00014197,-0.00023552,0.00064587,0.00075686,0
 .00007435,-0.00000679,0.00018359,-0.00000116,-0.00005095,0.00005891,-0
 .00004013,0.00000476,-0.00003560,0.00000750,-0.00000339,0.00000660,0.0
 0000038,-0.00000139,0.00000606,0.00004840,-0.00000930,0.00004651,-0.00
 297061,0.00037995,0.00090680,0.00072199,-0.00026838,-0.00069899,0.0014
 5507,-0.00071050,0.00063547,0.00072279,-0.00070453,0.00067048,-0.00168
 788,-0.00109361,0.00084877,-0.00025063,-0.00085571,-0.00057853,-0.0155
 9484,-0.01678500,-0.03185675,-0.00038139,0.00052168,-0.00068922,0.0009
 6288,-0.00216480,0.00078180,-0.00014011,0.00019824,-0.00002587,0.00311
 640,0.00082504,-0.00288686,-0.00055804,0.00041337,-0.00073552,0.000491
 21,-0.00158334,0.00002502,0.00006477,0.00024198,0.00002089,-0.00002244
 ,0.00009638,0.00006745,0.00090628,-0.00006261,-0.00076030,-0.00007057,
 -0.00002832,-0.00007159,-0.00002855,0.00013200,0.00002717,-0.00002888,
 -0.00005843,-0.00013796,0.00001371,-0.00005504,0.00004935,-0.00000084,
 0.00004001,-0.00004818,-0.00000673,-0.00000064,0.00000217,0.00001061,-
 0.00000490,0.00000821,-0.00000147,-0.00000335,0.00000287,-0.00002663,0
 .00000944,-0.00001066,0.00000734,-0.00000090,0.00000847,0.00000345,-0.
 00000222,-0.00000088,0.00000460,-0.00000215,-0.00000071,-0.00000808,-0
 .00001362,-0.00003221,0.00000408,0.00000339,-0.00000048,-0.00000474,0.
 00000172,0.00000357,0.00000461,0.00000284,0.00001380,-0.00016827,0.000
 16460,0.00009754,0.00010595,-0.00032586,-0.00013005,-0.00004783,0.0001
 9363,-0.00010514,-0.00001152,0.00002288,0.00000812,-0.00000013,0.00000
 391,-0.00000191,0.00000731,-0.00005463,-0.00000954,0.00002234,0.000041
 52,0.00011125,0.00002152,-0.00004429,-0.00003304,-0.00001020,0.0000003
 5,0.00005949,0.00002836,0.00005475,0.00003769,0.00186684,0.00182137,-0
 .00045173,-0.00018966,-0.00095076,-0.00014984,-0.00043240,-0.00053114,
 0.00061218,-0.00065393,-0.00038558,-0.00012301,-0.05942303,-0.03572204
 ,-0.21763056,-0.03389742,-0.00161961,-0.00026211,0.11939666,0.02481489
 ,0.31304186,0.00001198,-0.00000975,-0.00000273,0.00000800,-0.00000561,
 -0.00001221,0.00002218,-0.00000879,-0.00002253,0.00000977,0.00000235,0
 .00000930,0.00001011,-0.00000663,0.00001398,-0.00000095,0.00000080,-0.
 00000488,0.00000052,-0.00000127,-0.00000027,-0.00000216,0.00000057,0.0
 0000045,-0.00000345,-0.00000208,-0.00000147,0.00000264,-0.00000285,-0.
 00000021,-0.00001359,0.00000789,0.00001473,-0.00002065,0.00001165,0.00
 000672,-0.00001065,0.00001339,0.00001377,-0.00002006,0.00001520,-0.000
 00073,-0.00001294,0.00000904,-0.00001380,0.00003247,-0.00002497,0.0000
 1375,-0.00001459,-0.00000209,-0.00000837,-0.00000566,0.00002858,-0.000
 00814,-0.00004176,0.00001938,-0.00002085,0.00000260,-0.00001172,-0.000
 00421,0.00000061,0.00000135,0.00000030,-0.00000090,0.00000217,-0.00000
 070,-0.00000080,0.00000089,0.00000218,0.00001176,-0.00000071,0.0000025
 7,-0.00000029,-0.00000114,-0.00000062,-0.00000176,-0.00000114,0.000000
 14,-0.00000195,0.00000212,-0.00000025,0.00000019,-0.00000876,0.0000076
 7,-0.00000189,0.00000442,-0.00000089,0.00000475,-0.00000227,0.00000506
 ,-0.00000168,-0.00000031,-0.00000217,-0.00002218,-0.00002026,0.0000241
 7,0.00002976,-0.00003903,-0.00000305,0.00011283,-0.00004677,0.00008413
 ,0.00000247,-0.00004594,0.00000183,0.00000641,-0.00001800,0.00000011,0
 .00001376,-0.00000754,-0.00000883,-0.00000312,0.00000370,-0.00000318,-
 0.00000022,-0.00000386,-0.00000069,0.00000321,0.00000384,-0.00000002,-
 0.00000056,0.00000241,-0.00000027,-0.00005909,0.00006924,0.00000054,-0
 .00012170,0.00010738,0.00008315,-0.00003949,0.00006990,-0.00003168,0.0
 0002426,0.00001949,-0.00002456,0.00000374,0.00003499,-0.00000708,0.000
 00680,-0.00000326,0.00000374,-0.00000253,0.00000392,-0.00000144,0.0000
 0009,-0.00000066,-0.00000157,-0.00001106,0.00000953,-0.00000547,0.0002
 8843,-0.00040566,-0.00027104,-0.00003440,0.00010186,0.00012687,-0.0001
 3643,0.00014968,-0.00006136,0.00060321,-0.00012863,-0.00070187,-0.0021
 0824,0.00067994,-0.00006166,0.00011489,0.00022305,0.00004496,0.0108671
 9,0.00422368,-0.00031025,0.00102653,0.00098718,-0.00000191,0.00042828,
 0.00073064,-0.00015210,0.00009408,0.00003938,0.00002280,-0.00118285,0.
 00077462,0.00063302,0.00024690,0.00049233,0.00017141,0.00002777,-0.000
 06537,0.00002264,0.00001612,-0.00000477,0.00000559,-0.00000758,0.00002
 614,-0.00002368,0.00001802,-0.00001382,0.00002867,-0.00001740,-0.00000
 766,0.00000108,0.00000434,-0.00000703,0.00000256,-0.00000424,0.0000030
 8,0.00001296,0.00000066,0.00000841,-0.00000742,-0.00000196,-0.00001261
 ,0.00001461,0.00000054,-0.00000095,-0.00000238,-0.00000063,0.00000096,
 -0.00000246,0.00000006,0.00000361,-0.00000054,0.00000874,-0.00000605,0
 .00000118,-0.00000120,-0.00000030,-0.00000045,-0.00000076,0.00000008,0
 .00000074,-0.00000099,0.00000281,0.00000074,0.00001513,-0.00001246,-0.
 00000590,-0.00000485,-0.00000102,0.00000168,0.00000036,0.00000638,0.00
 000739,-0.00000153,-0.00000096,-0.00000583,0.00000877,-0.00003925,-0.0
 0002058,0.00000670,0.00003010,0.00001384,0.00000051,-0.00001704,0.0000
 1061,0.00000213,-0.00000180,-0.00000192,0.00000054,-0.00000171,-0.0000
 0036,-0.00000067,0.00000501,0.00000155,-0.00001275,-0.00000265,-0.0000
 1373,-0.00000063,0.00000343,0.00000380,-0.00000294,-0.00000072,-0.0000
 0404,0.00000032,-0.00000210,-0.00000475,-0.00035386,-0.00016235,0.0001
 1402,0.00004108,0.00012488,0.00001105,0.00008220,0.00006289,-0.0000839
 8,0.00015959,0.00004014,0.00002906,-0.07840435,-0.02629455,0.01650311,
 -0.03434586,-0.04707257,0.03309375,0.01210071,0.01147924,-0.01358610,0
 .09055508,-0.00001762,0.00000613,0.00000541,-0.00003277,-0.00001682,0.
 00001893,-0.00008695,-0.00008077,0.00006370,-0.00001206,-0.00001340,-0
 .00003928,-0.00002927,-0.00001028,-0.00000328,-0.00000144,-0.00000511,
 0.00001415,-0.00000704,0.00001580,0.00001036,0.00001281,0.00000125,-0.
 00000118,0.00002576,0.00001767,-0.00000682,-0.00001531,0.00001483,-0.0
 0000843,0.00009327,0.00005496,-0.00003263,0.00002766,0.00012283,-0.000
 03144,0.00002774,0.00001202,-0.00002313,0.00003641,0.00000245,-0.00000
 154,0.00003222,0.00001255,0.00000878,-0.00012129,-0.00031519,0.0000869
 0,0.00005429,0.00005978,0.00002257,-0.00001811,0.00009248,-0.00002944,
 0.00030148,0.00027322,0.00005228,-0.00001865,-0.00000658,0.00000094,0.
 00000468,0.00000085,0.00000231,-0.00000005,-0.00000068,0.00000005,0.00
 000405,-0.00000045,-0.00000479,-0.00002699,-0.00000270,-0.00000373,0.0
 0000110,0.00000079,0.00000230,0.00000590,0.00000357,-0.00000306,0.0000
 0099,-0.00000079,0.00000091,-0.00000853,-0.00000493,0.00000337,0.00000
 045,0.00000096,0.00000185,-0.00001202,0.,-0.00001379,0.00000765,0.0000
 0142,0.00000536,-0.00004331,0.00000766,-0.00015985,-0.00022698,0.00021
 105,0.00006926,-0.00081197,0.00006469,-0.00063727,-0.00003186,0.000144
 72,0.00000621,-0.00006021,0.00012102,0.00003357,-0.00002744,-0.0001054
 0,0.00002782,0.00002443,-0.00005432,0.00002358,-0.00000159,0.00008656,
 0.00003822,-0.00001874,-0.00000905,0.00000271,0.00001082,-0.00002543,0
 .00000479,0.00037352,-0.00024634,0.00000911,0.00096316,0.00053655,-0.0
 0030264,0.00039917,-0.00004695,0.00031867,0.00019778,-0.00009980,0.000
 11651,0.00002386,-0.00017572,0.00002979,-0.00005409,0.00001873,-0.0000
 2999,0.00000971,-0.00001163,0.00000939,0.00001356,-0.00000129,0.000004
 44,0.00008948,-0.00002544,0.00003110,-0.00307021,-0.00014369,0.0015828
 4,0.00073356,-0.00017951,-0.00099753,0.00133408,-0.00050561,0.00027872
 ,-0.00014110,-0.00010056,-0.00108004,-0.00235419,-0.00074417,0.0004322
 7,0.00008564,-0.00098090,-0.00022823,-0.01095302,-0.04608025,0.0234601
 6,0.00155808,-0.00101149,0.00019330,-0.00184129,-0.00184802,-0.0014212
 1,0.00003708,0.00017172,0.00022746,0.00707580,-0.00309454,-0.00281405,
 0.00026406,0.00049631,0.00075725,-0.00003096,0.00005966,-0.00024867,-0
 .00003043,-0.00006615,0.00006306,0.00000960,-0.00000804,0.00007950,-0.
 00015805,-0.00011305,-0.00000870,-0.00017501,0.00013730,-0.00005821,-0
 .00001895,0.00008580,-0.00000532,-0.00000063,-0.00007956,-0.00010462,0
 .00001690,-0.00004697,0.00005428,-0.00001239,0.00007101,-0.00006787,0.
 00000052,0.00001056,0.00000150,0.00001408,-0.00000554,0.00001652,-0.00
 000288,-0.00001778,0.00000128,-0.00006095,0.00002374,-0.00000524,0.000
 00658,-0.00000251,0.00000571,0.00001058,-0.00000342,-0.00000565,0.0000
 0769,-0.00000856,-0.00000200,0.00004219,-0.00006839,0.00000301,0.00000
 088,0.00000727,-0.00000167,-0.00000376,0.00000269,0.00001242,-0.000008
 62,-0.00000053,-0.00000912,-0.00017349,0.00016075,0.00017557,0.0000811
 1,-0.00031182,-0.00022002,-0.00005940,0.00016849,-0.00007999,-0.000001
 60,0.00003608,0.00001057,-0.00000745,0.00001307,0.00000557,0.00000990,
 -0.00005650,-0.00002076,0.00005356,0.00001439,0.00017525,0.00001645,-0
 .00004581,-0.00004344,0.00000250,0.00001057,0.00005192,0.00002849,0.00
 005429,0.00004644,0.00216869,0.00211898,-0.00065674,-0.00014355,-0.001
 32083,-0.00017744,-0.00044123,-0.00057713,0.00046457,-0.00091562,-0.00
 041848,-0.00021579,-0.02115141,-0.22631118,0.06955078,-0.03330156,-0.0
 0648796,0.01653594,0.00654833,0.00017540,0.03303565,0.05389376,0.28619
 540,-0.00000096,0.00000204,-0.00000928,-0.00000272,0.00000213,-0.00000
 566,-0.00000120,0.00001328,-0.00004176,-0.00001840,-0.00000103,-0.0000
 2385,-0.00000173,0.00000024,-0.00000781,0.00000272,-0.00000044,0.00001
 298,0.00000021,0.00000014,-0.00000173,-0.00000128,-0.00000020,0.000000
 89,-0.00000264,-0.00000235,0.00000549,0.00000318,-0.00000307,-0.000001
 11,0.00000253,-0.00000610,0.00004648,0.00001087,-0.00002684,0.00002063
 ,0.00000232,-0.00000203,0.00001205,0.00000222,-0.00000288,0.00000939,-
 0.00000136,-0.00000614,0.00002516,0.00003223,0.00006550,-0.00002648,-0
 .00000277,-0.00000553,0.00000342,0.00000630,-0.00001559,0.00000377,-0.
 00011387,-0.00002556,0.00005910,-0.00000516,0.00000034,-0.00000237,0.0
 0000211,0.00000133,-0.00000085,0.00000220,-0.00000141,0.00000042,-0.00
 000116,0.00000061,0.00000060,-0.00000133,0.00000036,-0.00000332,0.0000
 0136,0.00000040,0.00000121,-0.00000070,-0.00000074,0.00000093,0.000000
 69,-0.00000044,-0.00000031,0.00000857,0.00000589,-0.00001527,-0.000000
 93,-0.00000118,0.00000098,0.00000031,0.00000015,0.00000181,0.00000052,
 -0.00000050,0.00000173,-0.00002578,0.00000416,-0.00004332,0.00013402,-
 0.00005516,0.00001580,-0.00008653,0.00002149,-0.00019820,0.00000148,0.
 00000710,-0.00002314,0.00001966,-0.00000536,-0.00000516,0.00000217,-0.
 00000041,-0.00000013,-0.00000265,-0.00000413,0.00000014,0.00000448,0.0
 0001015,0.00000803,0.00000038,0.00000143,0.00000776,0.00000272,-0.0000
 0175,0.00000156,-0.00000084,-0.00001122,0.00005147,0.00009432,-0.00011
 425,0.00001051,-0.00014812,0.00020062,0.00018085,-0.00003657,0.0000173
 7,0.00004280,-0.00000745,0.00001724,0.00001611,-0.00000182,-0.00000248
 ,-0.00000721,0.00000069,0.00000109,0.00000022,-0.00000365,-0.00000017,
 0.00000155,-0.00000347,0.00000117,0.00001120,-0.00026647,0.00041769,-0
 .00008011,0.00005799,-0.00007671,0.00004966,0.00012456,-0.00014382,0.0
 0017087,-0.00051954,0.00042282,0.00055551,0.00205805,-0.00098833,-0.00
 053265,-0.00044048,-0.00053292,0.00006615,0.00103933,-0.00279514,0.008
 49315,-0.00082540,-0.00051666,-0.00014020,0.00027808,-0.00036399,-0.00
 091574,-0.00007029,-0.00002614,0.00001876,0.00023771,0.00063374,0.0007
 5481,-0.00007824,-0.00030826,0.00016244,0.00014520,-0.00047270,-0.0000
 0744,0.00003053,0.00008278,-0.00000737,-0.00001206,0.00002756,0.000013
 70,0.00027556,0.00003465,-0.00018138,0.00002820,-0.00004215,-0.0000091
 9,-0.00000645,0.00002577,0.00000983,-0.00000732,0.00000045,-0.00002661
 ,0.00000064,-0.00001157,0.00000621,0.00000403,-0.00000036,-0.00000467,
 -0.00000292,-0.00000273,0.00000126,0.00000033,-0.00000068,-0.00000064,
 0.00000030,0.00000252,0.00000087,0.00000444,-0.00000135,-0.00000317,0.
 00000131,0.00000044,0.00000187,-0.00000141,0.,0.00000099,-0.00000008,0
 .00000086,0.00000005,-0.00002064,0.00001722,-0.00001573,0.00000274,-0.
 00000045,0.,-0.00000100,-0.00000137,-0.00000339,0.00000527,0.00000181,
 0.00001071,-0.00001798,0.00002994,-0.00000996,0.00001688,-0.00004256,0
 .00001571,0.00000033,0.00003193,-0.00002047,-0.00000483,-0.00000174,0.
 00000074,0.00000181,-0.00000206,-0.00000201,-0.00000020,-0.00000570,0.
 00000165,-0.00000713,0.00001406,-0.00000941,0.00000427,-0.00000485,-0.
 00000083,-0.00000575,-0.00000322,0.00000889,0.00000295,0.00000698,0.00
 000191,0.00012418,0.00018586,-0.00029805,-0.00001925,0.00000673,0.0000
 6866,-0.00005461,-0.00005328,0.00012878,-0.00005523,-0.00003419,0.0000
 5001,0.01445876,0.07494450,-0.10882139,0.02747298,0.02037005,-0.004457
 10,-0.00817351,0.04753955,-0.06084264,-0.03565079,-0.13844227,0.165658
 91\\-0.00000166,0.00000252,-0.00000529,-0.00000236,0.00000284,-0.00000
 370,-0.00000313,0.00000166,-0.00000086,0.00000045,-0.00000113,-0.00000
 166,0.00000148,-0.00000062,-0.00000364,-0.00000343,0.00000366,0.000000
 24,-0.00000155,0.00000198,-0.00000314,-0.00000114,0.00000147,-0.000004
 31,-0.00000019,0.00000003,-0.00000029,0.00000109,0.00000055,-0.0000019
 7,-0.00000275,0.00000343,0.00000165,-0.00000285,0.00000276,-0.00000030
 ,-0.00000372,0.00000465,-0.00000421,-0.00000133,0.00000120,-0.00000536
 ,0.00000109,0.00000109,-0.00000473,0.00000093,-0.00000159,-0.00000003,
 0.00000312,-0.00000256,0.00000012,0.00000096,-0.00000138,0.00000318,0.
 00000357,-0.00000189,0.00000284,-0.00000406,0.00000511,-0.00000529,-0.
 00000410,0.00000485,-0.00000483,-0.00000330,0.00000433,-0.00000697,-0.
 00000528,0.00000602,-0.00000586,0.00000018,0.00000222,-0.00000879,0.00
 000121,0.00000085,-0.00000751,-0.00000108,0.00000317,-0.00000774,0.000
 00060,0.00000198,-0.00000985,0.00000540,-0.00000165,-0.00000317,0.0000
 0243,0.00000224,-0.00000459,0.00000257,-0.00000281,-0.00000237,0.00000
 471,-0.00000296,-0.00000417,0.00000202,-0.00000106,0.00000082,0.000001
 57,-0.00000133,0.00000059,-0.00000076,-0.00000022,0.00000282,0.0000014
 9,0.00000126,-0.00000215,0.00000201,-0.00000082,-0.00000178,0.00000072
 ,-0.00000134,-0.00000238,0.00000341,-0.00000281,0.00000037,0.00000072,
 -0.00000108,0.00000027,0.00000091,0.00000042,-0.00000290,0.00000336,-0
 .00000251,-0.00000328,0.00000005,-0.00000052,-0.00000336,-0.00000235,0
 .00000097,0.00000384,0.00000099,-0.00000359,0.00000398,0.00000339,-0.0
 0000297,-0.00000007,0.00000170,-0.00000064,-0.00000396,-0.00000050,-0.
 00000142,-0.00000489,0.00000093,0.00000078,-0.00000727,0.00000055,0.00
 000245,-0.00000523,0.00000309,-0.00000051,-0.00000721,-0.00000384,0.00
 000185,0.00000371,-0.00000426,0.00000317,0.00000412,-0.00000146,-0.000
 00004,0.00000235,-0.00000160,-0.00000090,0.00000555,-0.00000092,-0.000
 00026,0.00000779,-0.00000077,0.00000065,0.00000479,-0.00000028,-0.0000
 0213,0.00000912,-0.00000190,-0.00000085,0.00000781,-0.00000014,-0.0000
 0149,0.00000662,-0.00000175,0.00000058,0.00000399,-0.00000046,-0.00000
 114,0.00000843,0.00000033,-0.00000287,0.00000995,0.00000328,-0.0000021
 6,0.00000437,0.00000175,-0.00000288,0.00000193,0.00000342,-0.00000423,
 0.00000420,0.00000234,-0.00000315,0.00000592,0.00000364,-0.00000297,0.
 00000317,0.00000216,-0.00000273,0.00000187,0.00000280,-0.00000348,0.00
 000374,0.00000447,-0.00000436,0.00000231,0.00000342,-0.00000175,-0.000
 00376,0.00000440,-0.00000311,-0.00000307,0.00000424,-0.00000236,-0.000
 00541,0.00000326,-0.00000182,-0.00000518,0.00000308,-0.00000222,-0.000
 00854,0.00000381,-0.00000265,-0.00000765,0.00000180,-0.00000063,-0.000
 00823,0.00000322,0.00000001,-0.00001015,-0.00000420,0.00000315,0.00000
 103,-0.00000457,0.00000357,0.00000135,-0.00000311,0.00000197,0.0000023
 0,-0.00000463,0.00000380,0.00000253,-0.00000403,0.00000312,-0.00000213
 ,-0.00000334,0.00000242,0.00000167,-0.00000086,0.00000106,-0.00000133,
 -0.00000107,0.00000042,0.00000066,-0.00000057,0.00000098,-0.00000094,-
 0.00000193,0.00000220,-0.00000142,-0.00000383,0.00000283,0.00000222,-0
 .00000467,0.00000384,0.00000136,-0.00000474,0.00000318,0.00000323,-0.0
 0000321,0.00000183,0.00000322,-0.00000013,-0.00000230,0.00000640,-0.00
 000039,-0.00000044,0.00000457,0.00000139,-0.00000283,0.00000691,-0.000
 00106,-0.00000115,0.00000772,-0.00000006,-0.00000221,0.00001138,0.0000
 0010,-0.00000343,0.00001286,0.00000147,-0.00000364,0.00000982,-0.00000
 174,-0.00000157,0.00001130\\\@


 IT IS THE BEHAVIOR AND DISTRIBUTION OF THE ELECTRONS 
 AROUND THE NUCLEUS THAT GIVES THE FUNDAMENTAL 
 CHARACTER OF AN ATOM:  IT MUST BE THE SAME FOR MOLECULES.

                               -- C. A. COULSON, 1951
 Job cpu time:       4 days 18 hours 55 minutes 17.8 seconds.
 Elapsed time:       0 days  3 hours 46 minutes 46.6 seconds.
 File lengths (MBytes):  RWF=   9756 Int=      0 D2E=      0 Chk=     86 Scr=      1
 Normal termination of Gaussian 16 at Sun May 26 08:47:38 2019.
