 Entering Gaussian System, Link 0=g16
 Input=clay_new-glu_gluC6-EADL-Na2_1Me2O-bisCF3-ts-b3lyp_d3bj-631gd-pcm_thf.gjf
 Output=clay_new-glu_gluC6-EADL-Na2_1Me2O-bisCF3-ts-b3lyp_d3bj-631gd-pcm_thf.out
 Initial command:
 /home/ekwan/sw/g16/l1.exe "/scratch/users/ekwan/clay_new-glu_gluC6-EADL-Na2_1Me2O-bisCF3-ts-b3lyp_d3bj-631gd-pcm_thf/Gau-48722.inp" -scrdir="/scratch/users/ekwan/clay_new-glu_gluC6-EADL-Na2_1Me2O-bisCF3-ts-b3lyp_d3bj-631gd-pcm_thf/"
 Entering Link 1 = /home/ekwan/sw/g16/l1.exe PID=     48723.
  
 Copyright (c) 1988,1990,1992,1993,1995,1998,2003,2009,2016,
            Gaussian, Inc.  All Rights Reserved.
  
 This is part of the Gaussian(R) 16 program.  It is based on
 the Gaussian(R) 09 system (copyright 2009, Gaussian, Inc.),
 the Gaussian(R) 03 system (copyright 2003, Gaussian, Inc.),
 the Gaussian(R) 98 system (copyright 1998, Gaussian, Inc.),
 the Gaussian(R) 94 system (copyright 1995, Gaussian, Inc.),
 the Gaussian 92(TM) system (copyright 1992, Gaussian, Inc.),
 the Gaussian 90(TM) system (copyright 1990, Gaussian, Inc.),
 the Gaussian 88(TM) system (copyright 1988, Gaussian, Inc.),
 the Gaussian 86(TM) system (copyright 1986, Carnegie Mellon
 University), and the Gaussian 82(TM) system (copyright 1983,
 Carnegie Mellon University). Gaussian is a federally registered
 trademark of Gaussian, Inc.
  
 This software contains proprietary and confidential information,
 including trade secrets, belonging to Gaussian, Inc.
  
 This software is provided under written license and may be
 used, copied, transmitted, or stored only in accord with that
 written license.
  
 The following legend is applicable only to US Government
 contracts under FAR:
  
                    RESTRICTED RIGHTS LEGEND
  
 Use, reproduction and disclosure by the US Government is
 subject to restrictions as set forth in subparagraphs (a)
 and (c) of the Commercial Computer Software - Restricted
 Rights clause in FAR 52.227-19.
  
 Gaussian, Inc.
 340 Quinnipiac St., Bldg. 40, Wallingford CT 06492
  
  
 ---------------------------------------------------------------
 Warning -- This program may not be used in any manner that
 competes with the business of Gaussian, Inc. or will provide
 assistance to any competitor of Gaussian, Inc.  The licensee
 of this program is prohibited from giving any competitor of
 Gaussian, Inc. access to this program.  By using this program,
 the user acknowledges that Gaussian, Inc. is engaged in the
 business of creating and licensing software in the field of
 computational chemistry and represents and warrants to the
 licensee that it is not a competitor of Gaussian, Inc. and that
 it will not use this program in any manner prohibited above.
 ---------------------------------------------------------------
  

 Cite this work as:
 Gaussian 16, Revision A.03,
 M. J. Frisch, G. W. Trucks, H. B. Schlegel, G. E. Scuseria, 
 M. A. Robb, J. R. Cheeseman, G. Scalmani, V. Barone, 
 G. A. Petersson, H. Nakatsuji, X. Li, M. Caricato, A. V. Marenich, 
 J. Bloino, B. G. Janesko, R. Gomperts, B. Mennucci, H. P. Hratchian, 
 J. V. Ortiz, A. F. Izmaylov, J. L. Sonnenberg, D. Williams-Young, 
 F. Ding, F. Lipparini, F. Egidi, J. Goings, B. Peng, A. Petrone, 
 T. Henderson, D. Ranasinghe, V. G. Zakrzewski, J. Gao, N. Rega, 
 G. Zheng, W. Liang, M. Hada, M. Ehara, K. Toyota, R. Fukuda, 
 J. Hasegawa, M. Ishida, T. Nakajima, Y. Honda, O. Kitao, H. Nakai, 
 T. Vreven, K. Throssell, J. A. Montgomery, Jr., J. E. Peralta, 
 F. Ogliaro, M. J. Bearpark, J. J. Heyd, E. N. Brothers, K. N. Kudin, 
 V. N. Staroverov, T. A. Keith, R. Kobayashi, J. Normand, 
 K. Raghavachari, A. P. Rendell, J. C. Burant, S. S. Iyengar, 
 J. Tomasi, M. Cossi, J. M. Millam, M. Klene, C. Adamo, R. Cammi, 
 J. W. Ochterski, R. L. Martin, K. Morokuma, O. Farkas, 
 J. B. Foresman, and D. J. Fox, Gaussian, Inc., Wallingford CT, 2016.
 
 ******************************************
 Gaussian 16:  AS64L-G16RevA.03 25-Dec-2016
                 3-Jun-2019 
 ******************************************
 %mem=48GB
 %nprocshared=32
 Will use up to   32 processors via shared memory.
 ----------------------------------------------------------------------
 #p opt=(ts,noeigentest,calcfc,maxstep=10) freq=noraman b3lyp 6-31g* po
 p=none scrf=(solvent=tetrahydrofuran,pcm) empiricaldispersion=gd3bj
 ----------------------------------------------------------------------
 1/5=1,8=10,10=4,11=1,18=20,26=3,38=1/1,3;
 2/9=110,12=2,17=6,18=5,40=1/2;
 3/5=1,6=6,7=1,11=2,25=1,30=1,70=2201,71=2,72=20,74=-5,124=41,140=1/1,2,3;
 4//1;
 5/5=2,38=5,53=20/2;
 8/6=4,10=90,11=11/1;
 11/6=1,8=1,9=11,15=111,16=1/1,2,10;
 10/6=1,13=1/2;
 7/10=1,18=20,25=1/1,2,3,16;
 1/5=1,8=10,10=4,11=1,18=20,26=3/3(2);
 2/9=110/2;
 99//99;
 2/9=110/2;
 3/5=1,6=6,7=1,11=2,25=1,30=1,70=2205,71=1,72=20,74=-5,124=41/1,2,3;
 4/5=5,16=3,69=1/1;
 5/5=2,38=5,53=20/2;
 7//1,2,3,16;
 1/5=1,8=10,11=1,18=20,26=3/3(-5);
 2/9=110/2;
 99/9=1/99;
 Leave Link    1 at Mon Jun  3 07:11:25 2019, MaxMem=  6442450944 cpu:              34.0 elap:               1.3
 (Enter /home/ekwan/sw/g16/l101.exe)
 -----
 title
 -----
 Symbolic Z-matrix:
 Charge =  0 Multiplicity = 1
 C                     3.31456  -1.56989  -1.13721 
 C                     4.0377   -0.91286   0.03871 
 C                     4.67875   0.41358  -0.39526 
 C                     3.03699   0.72908  -2.14054 
 C                     2.33422  -0.58344  -1.77498 
 H                     5.04798   0.97697   0.47015 
 H                     3.28942  -0.67948   0.80759 
 H                     4.05045  -1.86428  -1.89644 
 H                     3.79399   0.51644  -2.90702 
 H                     1.5353   -0.37424  -1.05638 
 O                     3.69813   1.26493  -0.96691 
 O                     5.72963   0.13474  -1.27724 
 O                     4.9947   -1.82369   0.55655 
 O                     2.59308  -2.71903  -0.70124 
 O                     1.79563  -1.13541  -2.97172 
 C                     2.08409   1.82577  -2.64676 
 H                     1.59066   1.39032  -3.54146 
 H                     2.74491   2.63266  -3.0423 
 O                     1.20776   2.28808  -1.69667 
 C                     5.37817  -1.5444    1.89188 
 H                     5.93568  -0.60039   1.97629 
 H                     4.50286  -1.49483   2.55619 
 H                     6.02733  -2.36195   2.21455 
 C                     3.27924  -3.94303  -0.93757 
 H                     3.43467  -4.10035  -2.01474 
 H                     4.24814  -3.9583   -0.42855 
 H                     2.64642  -4.73943  -0.54893 
 C                     0.44741  -1.56839  -2.85186 
 H                     0.35178  -2.38322  -2.12792 
 H                    -0.21811  -0.74474  -2.55783 
 H                     0.14368  -1.92688  -3.83973 
 C                    -2.59301   3.36452   0.06086 
 C                    -1.1499    3.09726  -0.38557 
 C                    -0.92309   1.6291   -0.53871 
 C                    -3.23359   1.23949  -1.1964 
 C                    -3.52791   2.73084  -0.97235 
 H                     0.06774   1.20903  -0.51377 
 H                    -1.01591   3.48978  -1.40376 
 H                    -2.7635    2.90466   1.03972 
 H                    -3.75631   0.66451  -0.42984 
 H                    -3.40245   3.27845  -1.91873 
 O                    -1.82279   0.85207  -1.01991 
 O                     0.07492   0.0475    3.51113 
 O                    -0.17967   3.67215   0.46671 
 O                    -2.84738   4.75695   0.10629 
 O                    -4.88373   2.75978  -0.56755 
 C                    -3.6126    0.77706  -2.59946 
 H                    -2.94773   1.26587  -3.31974 
 H                    -4.64229   1.10726  -2.79738 
 O                    -3.46117  -0.61368  -2.77227 
 S                    -0.11127   0.17967   2.05303 
 O                     1.16167   0.2374    1.27153 
 O                    -1.04937   1.29987   1.67627 
 C                    -0.9805   -1.28713   1.47842 
 C                    -2.37251  -1.2693    1.56029 
 C                    -0.29898  -2.40384   1.00289 
 C                    -3.09579  -2.38582   1.15365 
 H                    -2.87779  -0.38156   1.9199 
 C                    -1.0442   -3.52553   0.62064 
 H                     0.78176  -2.39877   0.90198 
 C                    -2.43561  -3.52261   0.68738 
 H                    -2.99873  -4.39411   0.37865 
 C                     0.39768   4.86781  -0.08192 
 H                     0.9521    4.61512  -0.99221 
 H                    -0.37894   5.60893  -0.29405 
 H                     1.07343   5.25715   0.68323 
 C                    -2.83434   5.30086   1.42472 
 H                    -3.62224   4.84954   2.042 
 H                    -1.86423   5.14806   1.90959 
 H                    -3.02682   6.37073   1.31988 
 C                    -5.62417   3.88266  -1.04366 
 H                    -5.2222    4.82058  -0.65117 
 H                    -5.61881   3.91791  -2.14202 
 H                    -6.64941   3.74155  -0.69497 
 C                    -4.60491  -1.36139  -2.37746 
 H                    -4.32781  -2.41633  -2.42789 
 H                    -4.919    -1.12901  -1.35445 
 H                    -5.45011  -1.17271  -3.05469 
 C                     6.48613   1.28758  -1.62822 
 H                     7.33391   0.9402   -2.22199 
 H                     5.8915    1.99454  -2.21806 
 H                     6.85742   1.7998   -0.72859 
 Na                    2.03315   2.26356   0.39899 
 O                     3.57779   2.53503   2.07984 
 C                     4.72346   3.37142   2.00983 
 H                     5.6462    2.78      2.0921 
 H                     4.70134   3.8702    1.0382 
 H                     4.7103    4.1244    2.80951 
 C                     3.49763   1.80883   3.30299 
 H                     3.44672   2.49506   4.15915 
 H                     2.59117   1.20491   3.25759 
 H                     4.37199   1.15427   3.42046 
 C                    -4.59367  -2.3772    1.26957 
 F                    -5.01237  -2.77731   2.48873 
 F                    -5.17543  -3.19144   0.36264 
 F                    -5.09803  -1.1306    1.07457 
 C                    -0.33146  -4.75002   0.1145 
 F                     0.09881  -4.60137  -1.16074 
 F                    -1.12535  -5.84201   0.13269 
 F                     0.75645  -5.03079   0.86673 
 
 Add virtual bond connecting atoms H37        and O19        Dist= 3.71D+00.
 Add virtual bond connecting atoms O52        and H7         Dist= 4.47D+00.
 Add virtual bond connecting atoms O52        and H37        Dist= 4.36D+00.
 Add virtual bond connecting atoms O52        and Na83       Dist= 4.48D+00.
 Add virtual bond connecting atoms O53        and C34        Dist= 4.24D+00.
 Add virtual bond connecting atoms F100       and H27        Dist= 4.50D+00.
 ITRead=  0  0  0  0  0  0  0  0  0  0  0  0  0  0  0  0  0  0  0  0
 ITRead=  0  0  0  0  0  0  0  0  0  0  0  0  0  0  0  0  0  0  0  0
 ITRead=  0  0  0  0  0  0  0  0  0  0  0  0  0  0  0  0  0  0  0  0
 ITRead=  0  0  0  0  0  0  0  0  0  0  0  0  0  0  0  0  0  0  0  0
 ITRead=  0  0  0  0  0  0  0  0  0  0  0  0  0  0  0  0  0  0  0  0
 MicOpt= -1 -1 -1 -1 -1 -1 -1 -1 -1 -1 -1 -1 -1 -1 -1 -1 -1 -1 -1 -1
 MicOpt= -1 -1 -1 -1 -1 -1 -1 -1 -1 -1 -1 -1 -1 -1 -1 -1 -1 -1 -1 -1
 MicOpt= -1 -1 -1 -1 -1 -1 -1 -1 -1 -1 -1 -1 -1 -1 -1 -1 -1 -1 -1 -1
 MicOpt= -1 -1 -1 -1 -1 -1 -1 -1 -1 -1 -1 -1 -1 -1 -1 -1 -1 -1 -1 -1
 MicOpt= -1 -1 -1 -1 -1 -1 -1 -1 -1 -1 -1 -1 -1 -1 -1 -1 -1 -1 -1 -1
 NAtoms=    100 NQM=      100 NQMF=       0 NMMI=      0 NMMIF=      0
                NMic=       0 NMicF=      0.
                    Isotopes and Nuclear Properties:
 (Nuclear quadrupole moments (NQMom) in fm**2, nuclear magnetic moments (NMagM)
  in nuclear magnetons)

  Atom         1           2           3           4           5           6           7           8           9          10
 IAtWgt=          12          12          12          12          12           1           1           1           1           1
 AtmWgt=  12.0000000  12.0000000  12.0000000  12.0000000  12.0000000   1.0078250   1.0078250   1.0078250   1.0078250   1.0078250
 NucSpn=           0           0           0           0           0           1           1           1           1           1
 AtZEff=   0.0000000   0.0000000   0.0000000   0.0000000   0.0000000   0.0000000   0.0000000   0.0000000   0.0000000   0.0000000
 NQMom=    0.0000000   0.0000000   0.0000000   0.0000000   0.0000000   0.0000000   0.0000000   0.0000000   0.0000000   0.0000000
 NMagM=    0.0000000   0.0000000   0.0000000   0.0000000   0.0000000   2.7928460   2.7928460   2.7928460   2.7928460   2.7928460
 AtZNuc=   6.0000000   6.0000000   6.0000000   6.0000000   6.0000000   1.0000000   1.0000000   1.0000000   1.0000000   1.0000000

  Atom        11          12          13          14          15          16          17          18          19          20
 IAtWgt=          16          16          16          16          16          12           1           1          16          12
 AtmWgt=  15.9949146  15.9949146  15.9949146  15.9949146  15.9949146  12.0000000   1.0078250   1.0078250  15.9949146  12.0000000
 NucSpn=           0           0           0           0           0           0           1           1           0           0
 AtZEff=   0.0000000   0.0000000   0.0000000   0.0000000   0.0000000   0.0000000   0.0000000   0.0000000   0.0000000   0.0000000
 NQMom=    0.0000000   0.0000000   0.0000000   0.0000000   0.0000000   0.0000000   0.0000000   0.0000000   0.0000000   0.0000000
 NMagM=    0.0000000   0.0000000   0.0000000   0.0000000   0.0000000   0.0000000   2.7928460   2.7928460   0.0000000   0.0000000
 AtZNuc=   8.0000000   8.0000000   8.0000000   8.0000000   8.0000000   6.0000000   1.0000000   1.0000000   8.0000000   6.0000000

  Atom        21          22          23          24          25          26          27          28          29          30
 IAtWgt=           1           1           1          12           1           1           1          12           1           1
 AtmWgt=   1.0078250   1.0078250   1.0078250  12.0000000   1.0078250   1.0078250   1.0078250  12.0000000   1.0078250   1.0078250
 NucSpn=           1           1           1           0           1           1           1           0           1           1
 AtZEff=   0.0000000   0.0000000   0.0000000   0.0000000   0.0000000   0.0000000   0.0000000   0.0000000   0.0000000   0.0000000
 NQMom=    0.0000000   0.0000000   0.0000000   0.0000000   0.0000000   0.0000000   0.0000000   0.0000000   0.0000000   0.0000000
 NMagM=    2.7928460   2.7928460   2.7928460   0.0000000   2.7928460   2.7928460   2.7928460   0.0000000   2.7928460   2.7928460
 AtZNuc=   1.0000000   1.0000000   1.0000000   6.0000000   1.0000000   1.0000000   1.0000000   6.0000000   1.0000000   1.0000000

  Atom        31          32          33          34          35          36          37          38          39          40
 IAtWgt=           1          12          12          12          12          12           1           1           1           1
 AtmWgt=   1.0078250  12.0000000  12.0000000  12.0000000  12.0000000  12.0000000   1.0078250   1.0078250   1.0078250   1.0078250
 NucSpn=           1           0           0           0           0           0           1           1           1           1
 AtZEff=   0.0000000   0.0000000   0.0000000   0.0000000   0.0000000   0.0000000   0.0000000   0.0000000   0.0000000   0.0000000
 NQMom=    0.0000000   0.0000000   0.0000000   0.0000000   0.0000000   0.0000000   0.0000000   0.0000000   0.0000000   0.0000000
 NMagM=    2.7928460   0.0000000   0.0000000   0.0000000   0.0000000   0.0000000   2.7928460   2.7928460   2.7928460   2.7928460
 AtZNuc=   1.0000000   6.0000000   6.0000000   6.0000000   6.0000000   6.0000000   1.0000000   1.0000000   1.0000000   1.0000000

  Atom        41          42          43          44          45          46          47          48          49          50
 IAtWgt=           1          16          16          16          16          16          12           1           1          16
 AtmWgt=   1.0078250  15.9949146  15.9949146  15.9949146  15.9949146  15.9949146  12.0000000   1.0078250   1.0078250  15.9949146
 NucSpn=           1           0           0           0           0           0           0           1           1           0
 AtZEff=   0.0000000   0.0000000   0.0000000   0.0000000   0.0000000   0.0000000   0.0000000   0.0000000   0.0000000   0.0000000
 NQMom=    0.0000000   0.0000000   0.0000000   0.0000000   0.0000000   0.0000000   0.0000000   0.0000000   0.0000000   0.0000000
 NMagM=    2.7928460   0.0000000   0.0000000   0.0000000   0.0000000   0.0000000   0.0000000   2.7928460   2.7928460   0.0000000
 AtZNuc=   1.0000000   8.0000000   8.0000000   8.0000000   8.0000000   8.0000000   6.0000000   1.0000000   1.0000000   8.0000000

  Atom        51          52          53          54          55          56          57          58          59          60
 IAtWgt=          32          16          16          12          12          12          12           1          12           1
 AtmWgt=  31.9720718  15.9949146  15.9949146  12.0000000  12.0000000  12.0000000  12.0000000   1.0078250  12.0000000   1.0078250
 NucSpn=           0           0           0           0           0           0           0           1           0           1
 AtZEff=   0.0000000   0.0000000   0.0000000   0.0000000   0.0000000   0.0000000   0.0000000   0.0000000   0.0000000   0.0000000
 NQMom=    0.0000000   0.0000000   0.0000000   0.0000000   0.0000000   0.0000000   0.0000000   0.0000000   0.0000000   0.0000000
 NMagM=    0.0000000   0.0000000   0.0000000   0.0000000   0.0000000   0.0000000   0.0000000   2.7928460   0.0000000   2.7928460
 AtZNuc=  16.0000000   8.0000000   8.0000000   6.0000000   6.0000000   6.0000000   6.0000000   1.0000000   6.0000000   1.0000000

  Atom        61          62          63          64          65          66          67          68          69          70
 IAtWgt=          12           1          12           1           1           1          12           1           1           1
 AtmWgt=  12.0000000   1.0078250  12.0000000   1.0078250   1.0078250   1.0078250  12.0000000   1.0078250   1.0078250   1.0078250
 NucSpn=           0           1           0           1           1           1           0           1           1           1
 AtZEff=   0.0000000   0.0000000   0.0000000   0.0000000   0.0000000   0.0000000   0.0000000   0.0000000   0.0000000   0.0000000
 NQMom=    0.0000000   0.0000000   0.0000000   0.0000000   0.0000000   0.0000000   0.0000000   0.0000000   0.0000000   0.0000000
 NMagM=    0.0000000   2.7928460   0.0000000   2.7928460   2.7928460   2.7928460   0.0000000   2.7928460   2.7928460   2.7928460
 AtZNuc=   6.0000000   1.0000000   6.0000000   1.0000000   1.0000000   1.0000000   6.0000000   1.0000000   1.0000000   1.0000000

  Atom        71          72          73          74          75          76          77          78          79          80
 IAtWgt=          12           1           1           1          12           1           1           1          12           1
 AtmWgt=  12.0000000   1.0078250   1.0078250   1.0078250  12.0000000   1.0078250   1.0078250   1.0078250  12.0000000   1.0078250
 NucSpn=           0           1           1           1           0           1           1           1           0           1
 AtZEff=   0.0000000   0.0000000   0.0000000   0.0000000   0.0000000   0.0000000   0.0000000   0.0000000   0.0000000   0.0000000
 NQMom=    0.0000000   0.0000000   0.0000000   0.0000000   0.0000000   0.0000000   0.0000000   0.0000000   0.0000000   0.0000000
 NMagM=    0.0000000   2.7928460   2.7928460   2.7928460   0.0000000   2.7928460   2.7928460   2.7928460   0.0000000   2.7928460
 AtZNuc=   6.0000000   1.0000000   1.0000000   1.0000000   6.0000000   1.0000000   1.0000000   1.0000000   6.0000000   1.0000000

  Atom        81          82          83          84          85          86          87          88          89          90
 IAtWgt=           1           1          23          16          12           1           1           1          12           1
 AtmWgt=   1.0078250   1.0078250  22.9897697  15.9949146  12.0000000   1.0078250   1.0078250   1.0078250  12.0000000   1.0078250
 NucSpn=           1           1           3           0           0           1           1           1           0           1
 AtZEff=   0.0000000   0.0000000   0.0000000   0.0000000   0.0000000   0.0000000   0.0000000   0.0000000   0.0000000   0.0000000
 NQMom=    0.0000000   0.0000000  10.4000000   0.0000000   0.0000000   0.0000000   0.0000000   0.0000000   0.0000000   0.0000000
 NMagM=    2.7928460   2.7928460   2.2175200   0.0000000   0.0000000   2.7928460   2.7928460   2.7928460   0.0000000   2.7928460
 AtZNuc=   1.0000000   1.0000000  11.0000000   8.0000000   6.0000000   1.0000000   1.0000000   1.0000000   6.0000000   1.0000000

  Atom        91          92          93          94          95          96          97          98          99         100
 IAtWgt=           1           1          12          19          19          19          12          19          19          19
 AtmWgt=   1.0078250   1.0078250  12.0000000  18.9984033  18.9984033  18.9984033  12.0000000  18.9984033  18.9984033  18.9984033
 NucSpn=           1           1           0           1           1           1           0           1           1           1
 AtZEff=   0.0000000   0.0000000   0.0000000   0.0000000   0.0000000   0.0000000   0.0000000   0.0000000   0.0000000   0.0000000
 NQMom=    0.0000000   0.0000000   0.0000000   0.0000000   0.0000000   0.0000000   0.0000000   0.0000000   0.0000000   0.0000000
 NMagM=    2.7928460   2.7928460   0.0000000   2.6288670   2.6288670   2.6288670   0.0000000   2.6288670   2.6288670   2.6288670
 AtZNuc=   1.0000000   1.0000000   6.0000000   9.0000000   9.0000000   9.0000000   6.0000000   9.0000000   9.0000000   9.0000000
 Leave Link  101 at Mon Jun  3 07:11:27 2019, MaxMem=  6442450944 cpu:              29.1 elap:               2.3
 (Enter /home/ekwan/sw/g16/l103.exe)

 GradGradGradGradGradGradGradGradGradGradGradGradGradGradGradGradGradGrad
 Berny optimization.
 Initialization pass.
                           ----------------------------
                           !    Initial Parameters    !
                           ! (Angstroms and Degrees)  !
 --------------------------                            --------------------------
 ! Name  Definition              Value          Derivative Info.                !
 --------------------------------------------------------------------------------
 ! R1    R(1,2)                  1.5289         calculate D2E/DX2 analytically  !
 ! R2    R(1,5)                  1.53           calculate D2E/DX2 analytically  !
 ! R3    R(1,8)                  1.0976         calculate D2E/DX2 analytically  !
 ! R4    R(1,14)                 1.4252         calculate D2E/DX2 analytically  !
 ! R5    R(2,3)                  1.5358         calculate D2E/DX2 analytically  !
 ! R6    R(2,7)                  1.098          calculate D2E/DX2 analytically  !
 ! R7    R(2,13)                 1.419          calculate D2E/DX2 analytically  !
 ! R8    R(3,6)                  1.0967         calculate D2E/DX2 analytically  !
 ! R9    R(3,11)                 1.4189         calculate D2E/DX2 analytically  !
 ! R10   R(3,12)                 1.4            calculate D2E/DX2 analytically  !
 ! R11   R(4,5)                  1.533          calculate D2E/DX2 analytically  !
 ! R12   R(4,9)                  1.0981         calculate D2E/DX2 analytically  !
 ! R13   R(4,11)                 1.4497         calculate D2E/DX2 analytically  !
 ! R14   R(4,16)                 1.5385         calculate D2E/DX2 analytically  !
 ! R15   R(5,10)                 1.0947         calculate D2E/DX2 analytically  !
 ! R16   R(5,15)                 1.4237         calculate D2E/DX2 analytically  !
 ! R17   R(7,52)                 2.3629         calculate D2E/DX2 analytically  !
 ! R18   R(12,79)                1.4229         calculate D2E/DX2 analytically  !
 ! R19   R(13,20)                1.4171         calculate D2E/DX2 analytically  !
 ! R20   R(14,24)                1.423          calculate D2E/DX2 analytically  !
 ! R21   R(15,28)                1.4211         calculate D2E/DX2 analytically  !
 ! R22   R(16,17)                1.1107         calculate D2E/DX2 analytically  !
 ! R23   R(16,18)                1.1154         calculate D2E/DX2 analytically  !
 ! R24   R(16,19)                1.3727         calculate D2E/DX2 analytically  !
 ! R25   R(19,37)                1.9655         calculate D2E/DX2 analytically  !
 ! R26   R(19,83)                2.2525         calculate D2E/DX2 analytically  !
 ! R27   R(20,21)                1.0996         calculate D2E/DX2 analytically  !
 ! R28   R(20,22)                1.1            calculate D2E/DX2 analytically  !
 ! R29   R(20,23)                1.0927         calculate D2E/DX2 analytically  !
 ! R30   R(24,25)                1.0996         calculate D2E/DX2 analytically  !
 ! R31   R(24,26)                1.0946         calculate D2E/DX2 analytically  !
 ! R32   R(24,27)                1.0889         calculate D2E/DX2 analytically  !
 ! R33   R(27,100)               2.3793         calculate D2E/DX2 analytically  !
 ! R34   R(28,29)                1.0942         calculate D2E/DX2 analytically  !
 ! R35   R(28,30)                1.099          calculate D2E/DX2 analytically  !
 ! R36   R(28,31)                1.0939         calculate D2E/DX2 analytically  !
 ! R37   R(32,33)                1.534          calculate D2E/DX2 analytically  !
 ! R38   R(32,36)                1.5307         calculate D2E/DX2 analytically  !
 ! R39   R(32,39)                1.0949         calculate D2E/DX2 analytically  !
 ! R40   R(32,45)                1.4162         calculate D2E/DX2 analytically  !
 ! R41   R(33,34)                1.4934         calculate D2E/DX2 analytically  !
 ! R42   R(33,38)                1.0994         calculate D2E/DX2 analytically  !
 ! R43   R(33,44)                1.4136         calculate D2E/DX2 analytically  !
 ! R44   R(34,37)                1.0765         calculate D2E/DX2 analytically  !
 ! R45   R(34,42)                1.2825         calculate D2E/DX2 analytically  !
 ! R46   R(34,53)                2.2429         calculate D2E/DX2 analytically  !
 ! R47   R(35,36)                1.5365         calculate D2E/DX2 analytically  !
 ! R48   R(35,40)                1.0915         calculate D2E/DX2 analytically  !
 ! R49   R(35,42)                1.4736         calculate D2E/DX2 analytically  !
 ! R50   R(35,47)                1.5251         calculate D2E/DX2 analytically  !
 ! R51   R(36,41)                1.1006         calculate D2E/DX2 analytically  !
 ! R52   R(36,46)                1.4153         calculate D2E/DX2 analytically  !
 ! R53   R(37,52)                2.3083         calculate D2E/DX2 analytically  !
 ! R54   R(43,51)                1.4759         calculate D2E/DX2 analytically  !
 ! R55   R(44,63)                1.4366         calculate D2E/DX2 analytically  !
 ! R56   R(45,67)                1.4263         calculate D2E/DX2 analytically  !
 ! R57   R(46,71)                1.4268         calculate D2E/DX2 analytically  !
 ! R58   R(47,48)                1.0954         calculate D2E/DX2 analytically  !
 ! R59   R(47,49)                1.0993         calculate D2E/DX2 analytically  !
 ! R60   R(47,50)                1.4096         calculate D2E/DX2 analytically  !
 ! R61   R(50,75)                1.4224         calculate D2E/DX2 analytically  !
 ! R62   R(51,52)                1.4948         calculate D2E/DX2 analytically  !
 ! R63   R(51,53)                1.5089         calculate D2E/DX2 analytically  !
 ! R64   R(51,54)                1.7992         calculate D2E/DX2 analytically  !
 ! R65   R(52,83)                2.3719         calculate D2E/DX2 analytically  !
 ! R66   R(54,55)                1.3945         calculate D2E/DX2 analytically  !
 ! R67   R(54,56)                1.392          calculate D2E/DX2 analytically  !
 ! R68   R(55,57)                1.3911         calculate D2E/DX2 analytically  !
 ! R69   R(55,58)                1.0829         calculate D2E/DX2 analytically  !
 ! R70   R(56,59)                1.3999         calculate D2E/DX2 analytically  !
 ! R71   R(56,60)                1.0855         calculate D2E/DX2 analytically  !
 ! R72   R(57,61)                1.3948         calculate D2E/DX2 analytically  !
 ! R73   R(57,93)                1.5024         calculate D2E/DX2 analytically  !
 ! R74   R(59,61)                1.393          calculate D2E/DX2 analytically  !
 ! R75   R(59,97)                1.5045         calculate D2E/DX2 analytically  !
 ! R76   R(61,62)                1.0826         calculate D2E/DX2 analytically  !
 ! R77   R(63,64)                1.0954         calculate D2E/DX2 analytically  !
 ! R78   R(63,65)                1.0942         calculate D2E/DX2 analytically  !
 ! R79   R(63,66)                1.0926         calculate D2E/DX2 analytically  !
 ! R80   R(67,68)                1.098          calculate D2E/DX2 analytically  !
 ! R81   R(67,69)                1.0952         calculate D2E/DX2 analytically  !
 ! R82   R(67,70)                1.0921         calculate D2E/DX2 analytically  !
 ! R83   R(71,72)                1.0933         calculate D2E/DX2 analytically  !
 ! R84   R(71,73)                1.0989         calculate D2E/DX2 analytically  !
 ! R85   R(71,74)                1.0921         calculate D2E/DX2 analytically  !
 ! R86   R(75,76)                1.0919         calculate D2E/DX2 analytically  !
 ! R87   R(75,77)                1.0951         calculate D2E/DX2 analytically  !
 ! R88   R(75,78)                1.0994         calculate D2E/DX2 analytically  !
 ! R89   R(79,80)                1.0918         calculate D2E/DX2 analytically  !
 ! R90   R(79,81)                1.096          calculate D2E/DX2 analytically  !
 ! R91   R(79,82)                1.0998         calculate D2E/DX2 analytically  !
 ! R92   R(83,84)                2.2989         calculate D2E/DX2 analytically  !
 ! R93   R(84,85)                1.4202         calculate D2E/DX2 analytically  !
 ! R94   R(84,89)                1.4247         calculate D2E/DX2 analytically  !
 ! R95   R(85,86)                1.0991         calculate D2E/DX2 analytically  !
 ! R96   R(85,87)                1.0924         calculate D2E/DX2 analytically  !
 ! R97   R(85,88)                1.0985         calculate D2E/DX2 analytically  !
 ! R98   R(89,90)                1.0984         calculate D2E/DX2 analytically  !
 ! R99   R(89,91)                1.0902         calculate D2E/DX2 analytically  !
 ! R100  R(89,92)                1.0985         calculate D2E/DX2 analytically  !
 ! R101  R(93,94)                1.3497         calculate D2E/DX2 analytically  !
 ! R102  R(93,95)                1.3505         calculate D2E/DX2 analytically  !
 ! R103  R(93,96)                1.3588         calculate D2E/DX2 analytically  !
 ! R104  R(97,98)                1.3541         calculate D2E/DX2 analytically  !
 ! R105  R(97,99)                1.3502         calculate D2E/DX2 analytically  !
 ! R106  R(97,100)               1.3521         calculate D2E/DX2 analytically  !
 ! A1    A(2,1,5)              110.2797         calculate D2E/DX2 analytically  !
 ! A2    A(2,1,8)              109.2807         calculate D2E/DX2 analytically  !
 ! A3    A(2,1,14)             110.5286         calculate D2E/DX2 analytically  !
 ! A4    A(5,1,8)              108.312          calculate D2E/DX2 analytically  !
 ! A5    A(5,1,14)             108.8448         calculate D2E/DX2 analytically  !
 ! A6    A(8,1,14)             109.5578         calculate D2E/DX2 analytically  !
 ! A7    A(1,2,3)              110.5642         calculate D2E/DX2 analytically  !
 ! A8    A(1,2,7)              107.9154         calculate D2E/DX2 analytically  !
 ! A9    A(1,2,13)             108.8945         calculate D2E/DX2 analytically  !
 ! A10   A(3,2,7)              107.3828         calculate D2E/DX2 analytically  !
 ! A11   A(3,2,13)             112.0851         calculate D2E/DX2 analytically  !
 ! A12   A(7,2,13)             109.9073         calculate D2E/DX2 analytically  !
 ! A13   A(2,3,6)              111.1772         calculate D2E/DX2 analytically  !
 ! A14   A(2,3,11)             110.0956         calculate D2E/DX2 analytically  !
 ! A15   A(2,3,12)             108.6215         calculate D2E/DX2 analytically  !
 ! A16   A(6,3,11)             104.0267         calculate D2E/DX2 analytically  !
 ! A17   A(6,3,12)             110.2871         calculate D2E/DX2 analytically  !
 ! A18   A(11,3,12)            112.6109         calculate D2E/DX2 analytically  !
 ! A19   A(5,4,9)              108.4623         calculate D2E/DX2 analytically  !
 ! A20   A(5,4,11)             109.4188         calculate D2E/DX2 analytically  !
 ! A21   A(5,4,16)             113.8803         calculate D2E/DX2 analytically  !
 ! A22   A(9,4,11)             108.8003         calculate D2E/DX2 analytically  !
 ! A23   A(9,4,16)             109.5939         calculate D2E/DX2 analytically  !
 ! A24   A(11,4,16)            106.5802         calculate D2E/DX2 analytically  !
 ! A25   A(1,5,4)              110.9571         calculate D2E/DX2 analytically  !
 ! A26   A(1,5,10)             108.4934         calculate D2E/DX2 analytically  !
 ! A27   A(1,5,15)             110.0489         calculate D2E/DX2 analytically  !
 ! A28   A(4,5,10)             109.1149         calculate D2E/DX2 analytically  !
 ! A29   A(4,5,15)             107.7528         calculate D2E/DX2 analytically  !
 ! A30   A(10,5,15)            110.4735         calculate D2E/DX2 analytically  !
 ! A31   A(2,7,52)             146.4761         calculate D2E/DX2 analytically  !
 ! A32   A(3,11,4)             114.8074         calculate D2E/DX2 analytically  !
 ! A33   A(3,12,79)            113.1492         calculate D2E/DX2 analytically  !
 ! A34   A(2,13,20)            113.5693         calculate D2E/DX2 analytically  !
 ! A35   A(1,14,24)            113.494          calculate D2E/DX2 analytically  !
 ! A36   A(5,15,28)            113.9621         calculate D2E/DX2 analytically  !
 ! A37   A(4,16,17)            105.1142         calculate D2E/DX2 analytically  !
 ! A38   A(4,16,18)            105.3906         calculate D2E/DX2 analytically  !
 ! A39   A(4,16,19)            114.0625         calculate D2E/DX2 analytically  !
 ! A40   A(17,16,18)           105.1388         calculate D2E/DX2 analytically  !
 ! A41   A(17,16,19)           113.9517         calculate D2E/DX2 analytically  !
 ! A42   A(18,16,19)           112.3338         calculate D2E/DX2 analytically  !
 ! A43   A(16,19,37)           127.0074         calculate D2E/DX2 analytically  !
 ! A44   A(16,19,83)           113.975          calculate D2E/DX2 analytically  !
 ! A45   A(37,19,83)            69.3068         calculate D2E/DX2 analytically  !
 ! A46   A(13,20,21)           112.2553         calculate D2E/DX2 analytically  !
 ! A47   A(13,20,22)           111.2622         calculate D2E/DX2 analytically  !
 ! A48   A(13,20,23)           106.9513         calculate D2E/DX2 analytically  !
 ! A49   A(21,20,22)           108.5675         calculate D2E/DX2 analytically  !
 ! A50   A(21,20,23)           108.5697         calculate D2E/DX2 analytically  !
 ! A51   A(22,20,23)           109.1564         calculate D2E/DX2 analytically  !
 ! A52   A(14,24,25)           110.7267         calculate D2E/DX2 analytically  !
 ! A53   A(14,24,26)           111.1985         calculate D2E/DX2 analytically  !
 ! A54   A(14,24,27)           106.8339         calculate D2E/DX2 analytically  !
 ! A55   A(25,24,26)           109.1733         calculate D2E/DX2 analytically  !
 ! A56   A(25,24,27)           109.0935         calculate D2E/DX2 analytically  !
 ! A57   A(26,24,27)           109.7699         calculate D2E/DX2 analytically  !
 ! A58   A(24,27,100)          139.7774         calculate D2E/DX2 analytically  !
 ! A59   A(15,28,29)           111.4457         calculate D2E/DX2 analytically  !
 ! A60   A(15,28,30)           111.6375         calculate D2E/DX2 analytically  !
 ! A61   A(15,28,31)           106.6838         calculate D2E/DX2 analytically  !
 ! A62   A(29,28,30)           109.1588         calculate D2E/DX2 analytically  !
 ! A63   A(29,28,31)           109.2193         calculate D2E/DX2 analytically  !
 ! A64   A(30,28,31)           108.6076         calculate D2E/DX2 analytically  !
 ! A65   A(33,32,36)           107.8185         calculate D2E/DX2 analytically  !
 ! A66   A(33,32,39)           109.4805         calculate D2E/DX2 analytically  !
 ! A67   A(33,32,45)           110.463          calculate D2E/DX2 analytically  !
 ! A68   A(36,32,39)           109.5412         calculate D2E/DX2 analytically  !
 ! A69   A(36,32,45)           108.6013         calculate D2E/DX2 analytically  !
 ! A70   A(39,32,45)           110.8744         calculate D2E/DX2 analytically  !
 ! A71   A(32,33,34)           110.1197         calculate D2E/DX2 analytically  !
 ! A72   A(32,33,38)           108.7814         calculate D2E/DX2 analytically  !
 ! A73   A(32,33,44)           113.5388         calculate D2E/DX2 analytically  !
 ! A74   A(34,33,38)           103.7392         calculate D2E/DX2 analytically  !
 ! A75   A(34,33,44)           110.9399         calculate D2E/DX2 analytically  !
 ! A76   A(38,33,44)           109.2393         calculate D2E/DX2 analytically  !
 ! A77   A(33,34,37)           121.4012         calculate D2E/DX2 analytically  !
 ! A78   A(33,34,42)           121.84           calculate D2E/DX2 analytically  !
 ! A79   A(33,34,53)            91.9764         calculate D2E/DX2 analytically  !
 ! A80   A(37,34,42)           114.7062         calculate D2E/DX2 analytically  !
 ! A81   A(37,34,53)            88.3762         calculate D2E/DX2 analytically  !
 ! A82   A(42,34,53)           104.0109         calculate D2E/DX2 analytically  !
 ! A83   A(36,35,40)           108.4902         calculate D2E/DX2 analytically  !
 ! A84   A(36,35,42)           114.903          calculate D2E/DX2 analytically  !
 ! A85   A(36,35,47)           112.3852         calculate D2E/DX2 analytically  !
 ! A86   A(40,35,42)           103.6428         calculate D2E/DX2 analytically  !
 ! A87   A(40,35,47)           111.5513         calculate D2E/DX2 analytically  !
 ! A88   A(42,35,47)           105.5678         calculate D2E/DX2 analytically  !
 ! A89   A(32,36,35)           112.5345         calculate D2E/DX2 analytically  !
 ! A90   A(32,36,41)           107.7471         calculate D2E/DX2 analytically  !
 ! A91   A(32,36,46)           112.5558         calculate D2E/DX2 analytically  !
 ! A92   A(35,36,41)           109.6158         calculate D2E/DX2 analytically  !
 ! A93   A(35,36,46)           104.1853         calculate D2E/DX2 analytically  !
 ! A94   A(41,36,46)           110.1803         calculate D2E/DX2 analytically  !
 ! A95   A(19,37,34)           107.7996         calculate D2E/DX2 analytically  !
 ! A96   A(19,37,52)           114.9411         calculate D2E/DX2 analytically  !
 ! A97   A(34,37,52)           128.1984         calculate D2E/DX2 analytically  !
 ! A98   A(34,42,35)           123.8668         calculate D2E/DX2 analytically  !
 ! A99   A(33,44,63)           112.5855         calculate D2E/DX2 analytically  !
 ! A100  A(32,45,67)           113.7632         calculate D2E/DX2 analytically  !
 ! A101  A(36,46,71)           114.6965         calculate D2E/DX2 analytically  !
 ! A102  A(35,47,48)           108.5899         calculate D2E/DX2 analytically  !
 ! A103  A(35,47,49)           107.8982         calculate D2E/DX2 analytically  !
 ! A104  A(35,47,50)           112.6582         calculate D2E/DX2 analytically  !
 ! A105  A(48,47,49)           108.4284         calculate D2E/DX2 analytically  !
 ! A106  A(48,47,50)           107.1258         calculate D2E/DX2 analytically  !
 ! A107  A(49,47,50)           112.0185         calculate D2E/DX2 analytically  !
 ! A108  A(47,50,75)           113.4687         calculate D2E/DX2 analytically  !
 ! A109  A(43,51,52)           114.3648         calculate D2E/DX2 analytically  !
 ! A110  A(43,51,53)           113.0541         calculate D2E/DX2 analytically  !
 ! A111  A(43,51,54)           107.6656         calculate D2E/DX2 analytically  !
 ! A112  A(52,51,53)           111.729          calculate D2E/DX2 analytically  !
 ! A113  A(52,51,54)           106.0168         calculate D2E/DX2 analytically  !
 ! A114  A(53,51,54)           103.01           calculate D2E/DX2 analytically  !
 ! A115  A(7,52,37)            115.9916         calculate D2E/DX2 analytically  !
 ! A116  A(7,52,51)            148.7042         calculate D2E/DX2 analytically  !
 ! A117  A(7,52,83)             85.8933         calculate D2E/DX2 analytically  !
 ! A118  A(37,52,51)            90.9765         calculate D2E/DX2 analytically  !
 ! A119  A(37,52,83)            61.9683         calculate D2E/DX2 analytically  !
 ! A120  A(51,52,83)           122.5604         calculate D2E/DX2 analytically  !
 ! A121  A(34,53,51)           108.6968         calculate D2E/DX2 analytically  !
 ! A122  A(51,54,55)           116.9407         calculate D2E/DX2 analytically  !
 ! A123  A(51,54,56)           121.7749         calculate D2E/DX2 analytically  !
 ! A124  A(55,54,56)           121.2671         calculate D2E/DX2 analytically  !
 ! A125  A(54,55,57)           119.4444         calculate D2E/DX2 analytically  !
 ! A126  A(54,55,58)           119.7173         calculate D2E/DX2 analytically  !
 ! A127  A(57,55,58)           120.8267         calculate D2E/DX2 analytically  !
 ! A128  A(54,56,59)           118.3894         calculate D2E/DX2 analytically  !
 ! A129  A(54,56,60)           121.03           calculate D2E/DX2 analytically  !
 ! A130  A(59,56,60)           120.5568         calculate D2E/DX2 analytically  !
 ! A131  A(55,57,61)           120.3828         calculate D2E/DX2 analytically  !
 ! A132  A(55,57,93)           119.4208         calculate D2E/DX2 analytically  !
 ! A133  A(61,57,93)           120.156          calculate D2E/DX2 analytically  !
 ! A134  A(56,59,61)           121.1296         calculate D2E/DX2 analytically  !
 ! A135  A(56,59,97)           119.4601         calculate D2E/DX2 analytically  !
 ! A136  A(61,59,97)           119.4067         calculate D2E/DX2 analytically  !
 ! A137  A(57,61,59)           119.3722         calculate D2E/DX2 analytically  !
 ! A138  A(57,61,62)           120.3476         calculate D2E/DX2 analytically  !
 ! A139  A(59,61,62)           120.2802         calculate D2E/DX2 analytically  !
 ! A140  A(44,63,64)           109.1935         calculate D2E/DX2 analytically  !
 ! A141  A(44,63,65)           110.6395         calculate D2E/DX2 analytically  !
 ! A142  A(44,63,66)           106.1229         calculate D2E/DX2 analytically  !
 ! A143  A(64,63,65)           110.7547         calculate D2E/DX2 analytically  !
 ! A144  A(64,63,66)           110.5579         calculate D2E/DX2 analytically  !
 ! A145  A(65,63,66)           109.4739         calculate D2E/DX2 analytically  !
 ! A146  A(45,67,68)           110.8784         calculate D2E/DX2 analytically  !
 ! A147  A(45,67,69)           111.3537         calculate D2E/DX2 analytically  !
 ! A148  A(45,67,70)           106.4535         calculate D2E/DX2 analytically  !
 ! A149  A(68,67,69)           109.2307         calculate D2E/DX2 analytically  !
 ! A150  A(68,67,70)           109.28           calculate D2E/DX2 analytically  !
 ! A151  A(69,67,70)           109.5899         calculate D2E/DX2 analytically  !
 ! A152  A(46,71,72)           111.3796         calculate D2E/DX2 analytically  !
 ! A153  A(46,71,73)           110.8681         calculate D2E/DX2 analytically  !
 ! A154  A(46,71,74)           106.1982         calculate D2E/DX2 analytically  !
 ! A155  A(72,71,73)           109.2384         calculate D2E/DX2 analytically  !
 ! A156  A(72,71,74)           109.9617         calculate D2E/DX2 analytically  !
 ! A157  A(73,71,74)           109.1377         calculate D2E/DX2 analytically  !
 ! A158  A(50,75,76)           106.9183         calculate D2E/DX2 analytically  !
 ! A159  A(50,75,77)           112.2335         calculate D2E/DX2 analytically  !
 ! A160  A(50,75,78)           110.9159         calculate D2E/DX2 analytically  !
 ! A161  A(76,75,77)           108.7209         calculate D2E/DX2 analytically  !
 ! A162  A(76,75,78)           109.4195         calculate D2E/DX2 analytically  !
 ! A163  A(77,75,78)           108.5752         calculate D2E/DX2 analytically  !
 ! A164  A(12,79,80)           106.811          calculate D2E/DX2 analytically  !
 ! A165  A(12,79,81)           111.5251         calculate D2E/DX2 analytically  !
 ! A166  A(12,79,82)           110.7977         calculate D2E/DX2 analytically  !
 ! A167  A(80,79,81)           109.5012         calculate D2E/DX2 analytically  !
 ! A168  A(80,79,82)           109.3249         calculate D2E/DX2 analytically  !
 ! A169  A(81,79,82)           108.8416         calculate D2E/DX2 analytically  !
 ! A170  A(19,83,52)           102.5277         calculate D2E/DX2 analytically  !
 ! A171  A(19,83,84)           157.6958         calculate D2E/DX2 analytically  !
 ! A172  A(52,83,84)            94.5185         calculate D2E/DX2 analytically  !
 ! A173  A(83,84,85)           125.1363         calculate D2E/DX2 analytically  !
 ! A174  A(83,84,89)           121.9862         calculate D2E/DX2 analytically  !
 ! A175  A(85,84,89)           112.8225         calculate D2E/DX2 analytically  !
 ! A176  A(84,85,86)           110.8954         calculate D2E/DX2 analytically  !
 ! A177  A(84,85,87)           107.2413         calculate D2E/DX2 analytically  !
 ! A178  A(84,85,88)           110.9861         calculate D2E/DX2 analytically  !
 ! A179  A(86,85,87)           109.2245         calculate D2E/DX2 analytically  !
 ! A180  A(86,85,88)           108.9308         calculate D2E/DX2 analytically  !
 ! A181  A(87,85,88)           109.5295         calculate D2E/DX2 analytically  !
 ! A182  A(84,89,90)           110.6918         calculate D2E/DX2 analytically  !
 ! A183  A(84,89,91)           107.0605         calculate D2E/DX2 analytically  !
 ! A184  A(84,89,92)           110.5319         calculate D2E/DX2 analytically  !
 ! A185  A(90,89,91)           109.8775         calculate D2E/DX2 analytically  !
 ! A186  A(90,89,92)           109.0145         calculate D2E/DX2 analytically  !
 ! A187  A(91,89,92)           109.6448         calculate D2E/DX2 analytically  !
 ! A188  A(57,93,94)           112.1654         calculate D2E/DX2 analytically  !
 ! A189  A(57,93,95)           111.9744         calculate D2E/DX2 analytically  !
 ! A190  A(57,93,96)           111.3617         calculate D2E/DX2 analytically  !
 ! A191  A(94,93,95)           107.1107         calculate D2E/DX2 analytically  !
 ! A192  A(94,93,96)           106.6445         calculate D2E/DX2 analytically  !
 ! A193  A(95,93,96)           107.2686         calculate D2E/DX2 analytically  !
 ! A194  A(59,97,98)           112.2113         calculate D2E/DX2 analytically  !
 ! A195  A(59,97,99)           112.0342         calculate D2E/DX2 analytically  !
 ! A196  A(59,97,100)          111.2846         calculate D2E/DX2 analytically  !
 ! A197  A(98,97,99)           106.7574         calculate D2E/DX2 analytically  !
 ! A198  A(98,97,100)          106.9226         calculate D2E/DX2 analytically  !
 ! A199  A(99,97,100)          107.3161         calculate D2E/DX2 analytically  !
 ! A200  A(27,100,97)          106.4201         calculate D2E/DX2 analytically  !
 ! D1    D(5,1,2,3)            -52.9682         calculate D2E/DX2 analytically  !
 ! D2    D(5,1,2,7)             64.2019         calculate D2E/DX2 analytically  !
 ! D3    D(5,1,2,13)          -176.5309         calculate D2E/DX2 analytically  !
 ! D4    D(8,1,2,3)             65.9866         calculate D2E/DX2 analytically  !
 ! D5    D(8,1,2,7)           -176.8433         calculate D2E/DX2 analytically  !
 ! D6    D(8,1,2,13)           -57.5761         calculate D2E/DX2 analytically  !
 ! D7    D(14,1,2,3)          -173.3704         calculate D2E/DX2 analytically  !
 ! D8    D(14,1,2,7)           -56.2003         calculate D2E/DX2 analytically  !
 ! D9    D(14,1,2,13)           63.0669         calculate D2E/DX2 analytically  !
 ! D10   D(2,1,5,4)             53.1511         calculate D2E/DX2 analytically  !
 ! D11   D(2,1,5,10)           -66.7072         calculate D2E/DX2 analytically  !
 ! D12   D(2,1,5,15)           172.3173         calculate D2E/DX2 analytically  !
 ! D13   D(8,1,5,4)            -66.3924         calculate D2E/DX2 analytically  !
 ! D14   D(8,1,5,10)           173.7493         calculate D2E/DX2 analytically  !
 ! D15   D(8,1,5,15)            52.7738         calculate D2E/DX2 analytically  !
 ! D16   D(14,1,5,4)           174.5597         calculate D2E/DX2 analytically  !
 ! D17   D(14,1,5,10)           54.7014         calculate D2E/DX2 analytically  !
 ! D18   D(14,1,5,15)          -66.274          calculate D2E/DX2 analytically  !
 ! D19   D(2,1,14,24)          -98.6741         calculate D2E/DX2 analytically  !
 ! D20   D(5,1,14,24)          140.0694         calculate D2E/DX2 analytically  !
 ! D21   D(8,1,14,24)           21.8035         calculate D2E/DX2 analytically  !
 ! D22   D(1,2,3,6)            170.1163         calculate D2E/DX2 analytically  !
 ! D23   D(1,2,3,11)            55.3752         calculate D2E/DX2 analytically  !
 ! D24   D(1,2,3,12)           -68.3554         calculate D2E/DX2 analytically  !
 ! D25   D(7,2,3,6)             52.6184         calculate D2E/DX2 analytically  !
 ! D26   D(7,2,3,11)           -62.1227         calculate D2E/DX2 analytically  !
 ! D27   D(7,2,3,12)           174.1466         calculate D2E/DX2 analytically  !
 ! D28   D(13,2,3,6)           -68.1833         calculate D2E/DX2 analytically  !
 ! D29   D(13,2,3,11)          177.0756         calculate D2E/DX2 analytically  !
 ! D30   D(13,2,3,12)           53.345          calculate D2E/DX2 analytically  !
 ! D31   D(1,2,7,52)           -46.0688         calculate D2E/DX2 analytically  !
 ! D32   D(3,2,7,52)            73.1424         calculate D2E/DX2 analytically  !
 ! D33   D(13,2,7,52)         -164.6911         calculate D2E/DX2 analytically  !
 ! D34   D(1,2,13,20)         -158.7046         calculate D2E/DX2 analytically  !
 ! D35   D(3,2,13,20)           78.6432         calculate D2E/DX2 analytically  !
 ! D36   D(7,2,13,20)          -40.6869         calculate D2E/DX2 analytically  !
 ! D37   D(2,3,11,4)           -60.0957         calculate D2E/DX2 analytically  !
 ! D38   D(6,3,11,4)          -179.298          calculate D2E/DX2 analytically  !
 ! D39   D(12,3,11,4)           61.2835         calculate D2E/DX2 analytically  !
 ! D40   D(2,3,12,79)         -173.5701         calculate D2E/DX2 analytically  !
 ! D41   D(6,3,12,79)          -51.4985         calculate D2E/DX2 analytically  !
 ! D42   D(11,3,12,79)          64.2152         calculate D2E/DX2 analytically  !
 ! D43   D(9,4,5,1)             63.9584         calculate D2E/DX2 analytically  !
 ! D44   D(9,4,5,10)          -176.5547         calculate D2E/DX2 analytically  !
 ! D45   D(9,4,5,15)           -56.5778         calculate D2E/DX2 analytically  !
 ! D46   D(11,4,5,1)           -54.5929         calculate D2E/DX2 analytically  !
 ! D47   D(11,4,5,10)           64.894          calculate D2E/DX2 analytically  !
 ! D48   D(11,4,5,15)         -175.1292         calculate D2E/DX2 analytically  !
 ! D49   D(16,4,5,1)          -173.7344         calculate D2E/DX2 analytically  !
 ! D50   D(16,4,5,10)          -54.2475         calculate D2E/DX2 analytically  !
 ! D51   D(16,4,5,15)           65.7293         calculate D2E/DX2 analytically  !
 ! D52   D(5,4,11,3)            59.6582         calculate D2E/DX2 analytically  !
 ! D53   D(9,4,11,3)           -58.6828         calculate D2E/DX2 analytically  !
 ! D54   D(16,4,11,3)         -176.7806         calculate D2E/DX2 analytically  !
 ! D55   D(5,4,16,17)          -59.1412         calculate D2E/DX2 analytically  !
 ! D56   D(5,4,16,18)         -169.93           calculate D2E/DX2 analytically  !
 ! D57   D(5,4,16,19)           66.3893         calculate D2E/DX2 analytically  !
 ! D58   D(9,4,16,17)           62.5413         calculate D2E/DX2 analytically  !
 ! D59   D(9,4,16,18)          -48.2475         calculate D2E/DX2 analytically  !
 ! D60   D(9,4,16,19)         -171.9282         calculate D2E/DX2 analytically  !
 ! D61   D(11,4,16,17)        -179.8841         calculate D2E/DX2 analytically  !
 ! D62   D(11,4,16,18)          69.3271         calculate D2E/DX2 analytically  !
 ! D63   D(11,4,16,19)         -54.3536         calculate D2E/DX2 analytically  !
 ! D64   D(1,5,15,28)          106.0305         calculate D2E/DX2 analytically  !
 ! D65   D(4,5,15,28)         -132.8639         calculate D2E/DX2 analytically  !
 ! D66   D(10,5,15,28)         -13.7497         calculate D2E/DX2 analytically  !
 ! D67   D(2,7,52,37)           -5.0409         calculate D2E/DX2 analytically  !
 ! D68   D(2,7,52,51)          141.9423         calculate D2E/DX2 analytically  !
 ! D69   D(2,7,52,83)          -61.0409         calculate D2E/DX2 analytically  !
 ! D70   D(3,12,79,80)         173.8821         calculate D2E/DX2 analytically  !
 ! D71   D(3,12,79,81)         -66.5114         calculate D2E/DX2 analytically  !
 ! D72   D(3,12,79,82)          54.8993         calculate D2E/DX2 analytically  !
 ! D73   D(2,13,20,21)         -66.9203         calculate D2E/DX2 analytically  !
 ! D74   D(2,13,20,22)          54.9784         calculate D2E/DX2 analytically  !
 ! D75   D(2,13,20,23)         174.1032         calculate D2E/DX2 analytically  !
 ! D76   D(1,14,24,25)         -62.4342         calculate D2E/DX2 analytically  !
 ! D77   D(1,14,24,26)          59.1264         calculate D2E/DX2 analytically  !
 ! D78   D(1,14,24,27)         178.8873         calculate D2E/DX2 analytically  !
 ! D79   D(5,15,28,29)         -63.2476         calculate D2E/DX2 analytically  !
 ! D80   D(5,15,28,30)          59.1067         calculate D2E/DX2 analytically  !
 ! D81   D(5,15,28,31)         177.6125         calculate D2E/DX2 analytically  !
 ! D82   D(4,16,19,37)         -49.2943         calculate D2E/DX2 analytically  !
 ! D83   D(4,16,19,83)          32.1318         calculate D2E/DX2 analytically  !
 ! D84   D(17,16,19,37)         71.4246         calculate D2E/DX2 analytically  !
 ! D85   D(17,16,19,83)        152.8507         calculate D2E/DX2 analytically  !
 ! D86   D(18,16,19,37)       -169.1405         calculate D2E/DX2 analytically  !
 ! D87   D(18,16,19,83)        -87.7144         calculate D2E/DX2 analytically  !
 ! D88   D(16,19,37,34)       -133.0451         calculate D2E/DX2 analytically  !
 ! D89   D(16,19,37,52)         77.0055         calculate D2E/DX2 analytically  !
 ! D90   D(83,19,37,34)        121.9315         calculate D2E/DX2 analytically  !
 ! D91   D(83,19,37,52)        -28.0179         calculate D2E/DX2 analytically  !
 ! D92   D(16,19,83,52)        -97.2994         calculate D2E/DX2 analytically  !
 ! D93   D(16,19,83,84)         41.6662         calculate D2E/DX2 analytically  !
 ! D94   D(37,19,83,52)         25.1261         calculate D2E/DX2 analytically  !
 ! D95   D(37,19,83,84)        164.0917         calculate D2E/DX2 analytically  !
 ! D96   D(14,24,27,100)       -14.7784         calculate D2E/DX2 analytically  !
 ! D97   D(25,24,27,100)      -134.5151         calculate D2E/DX2 analytically  !
 ! D98   D(26,24,27,100)       105.8988         calculate D2E/DX2 analytically  !
 ! D99   D(24,27,100,97)        80.8333         calculate D2E/DX2 analytically  !
 ! D100  D(36,32,33,34)        -56.8612         calculate D2E/DX2 analytically  !
 ! D101  D(36,32,33,38)         56.2018         calculate D2E/DX2 analytically  !
 ! D102  D(36,32,33,44)        178.0571         calculate D2E/DX2 analytically  !
 ! D103  D(39,32,33,34)         62.2411         calculate D2E/DX2 analytically  !
 ! D104  D(39,32,33,38)        175.3041         calculate D2E/DX2 analytically  !
 ! D105  D(39,32,33,44)        -62.8406         calculate D2E/DX2 analytically  !
 ! D106  D(45,32,33,34)       -175.3872         calculate D2E/DX2 analytically  !
 ! D107  D(45,32,33,38)        -62.3242         calculate D2E/DX2 analytically  !
 ! D108  D(45,32,33,44)         59.5311         calculate D2E/DX2 analytically  !
 ! D109  D(33,32,36,35)         54.6311         calculate D2E/DX2 analytically  !
 ! D110  D(33,32,36,41)        -66.3274         calculate D2E/DX2 analytically  !
 ! D111  D(33,32,36,46)        171.9943         calculate D2E/DX2 analytically  !
 ! D112  D(39,32,36,35)        -64.4325         calculate D2E/DX2 analytically  !
 ! D113  D(39,32,36,41)        174.609          calculate D2E/DX2 analytically  !
 ! D114  D(39,32,36,46)         52.9307         calculate D2E/DX2 analytically  !
 ! D115  D(45,32,36,35)        174.3428         calculate D2E/DX2 analytically  !
 ! D116  D(45,32,36,41)         53.3843         calculate D2E/DX2 analytically  !
 ! D117  D(45,32,36,46)        -68.2939         calculate D2E/DX2 analytically  !
 ! D118  D(33,32,45,67)       -102.526          calculate D2E/DX2 analytically  !
 ! D119  D(36,32,45,67)        139.4265         calculate D2E/DX2 analytically  !
 ! D120  D(39,32,45,67)         19.0247         calculate D2E/DX2 analytically  !
 ! D121  D(32,33,34,37)       -158.9338         calculate D2E/DX2 analytically  !
 ! D122  D(32,33,34,42)         38.2237         calculate D2E/DX2 analytically  !
 ! D123  D(32,33,34,53)        -69.6302         calculate D2E/DX2 analytically  !
 ! D124  D(38,33,34,37)         84.7993         calculate D2E/DX2 analytically  !
 ! D125  D(38,33,34,42)        -78.0431         calculate D2E/DX2 analytically  !
 ! D126  D(38,33,34,53)        174.103          calculate D2E/DX2 analytically  !
 ! D127  D(44,33,34,37)        -32.3795         calculate D2E/DX2 analytically  !
 ! D128  D(44,33,34,42)        164.7781         calculate D2E/DX2 analytically  !
 ! D129  D(44,33,34,53)         56.9242         calculate D2E/DX2 analytically  !
 ! D130  D(32,33,44,63)       -103.0266         calculate D2E/DX2 analytically  !
 ! D131  D(34,33,44,63)        132.3326         calculate D2E/DX2 analytically  !
 ! D132  D(38,33,44,63)         18.5735         calculate D2E/DX2 analytically  !
 ! D133  D(33,34,37,19)        -47.4876         calculate D2E/DX2 analytically  !
 ! D134  D(33,34,37,52)         97.2177         calculate D2E/DX2 analytically  !
 ! D135  D(42,34,37,19)        116.4991         calculate D2E/DX2 analytically  !
 ! D136  D(42,34,37,52)        -98.7956         calculate D2E/DX2 analytically  !
 ! D137  D(53,34,37,19)       -138.8123         calculate D2E/DX2 analytically  !
 ! D138  D(53,34,37,52)          5.893          calculate D2E/DX2 analytically  !
 ! D139  D(33,34,42,35)        -13.6226         calculate D2E/DX2 analytically  !
 ! D140  D(37,34,42,35)       -177.5315         calculate D2E/DX2 analytically  !
 ! D141  D(53,34,42,35)         87.7273         calculate D2E/DX2 analytically  !
 ! D142  D(33,34,53,51)       -146.299          calculate D2E/DX2 analytically  !
 ! D143  D(37,34,53,51)        -24.9286         calculate D2E/DX2 analytically  !
 ! D144  D(42,34,53,51)         90.1513         calculate D2E/DX2 analytically  !
 ! D145  D(40,35,36,32)         84.4308         calculate D2E/DX2 analytically  !
 ! D146  D(40,35,36,41)       -155.6869         calculate D2E/DX2 analytically  !
 ! D147  D(40,35,36,46)        -37.7932         calculate D2E/DX2 analytically  !
 ! D148  D(42,35,36,32)        -31.0018         calculate D2E/DX2 analytically  !
 ! D149  D(42,35,36,41)         88.8805         calculate D2E/DX2 analytically  !
 ! D150  D(42,35,36,46)       -153.2258         calculate D2E/DX2 analytically  !
 ! D151  D(47,35,36,32)       -151.7464         calculate D2E/DX2 analytically  !
 ! D152  D(47,35,36,41)        -31.8641         calculate D2E/DX2 analytically  !
 ! D153  D(47,35,36,46)         86.0296         calculate D2E/DX2 analytically  !
 ! D154  D(36,35,42,34)          9.3864         calculate D2E/DX2 analytically  !
 ! D155  D(40,35,42,34)       -108.8093         calculate D2E/DX2 analytically  !
 ! D156  D(47,35,42,34)        133.8026         calculate D2E/DX2 analytically  !
 ! D157  D(36,35,47,48)         67.0034         calculate D2E/DX2 analytically  !
 ! D158  D(36,35,47,49)        -50.3261         calculate D2E/DX2 analytically  !
 ! D159  D(36,35,47,50)       -174.5024         calculate D2E/DX2 analytically  !
 ! D160  D(40,35,47,48)       -170.8941         calculate D2E/DX2 analytically  !
 ! D161  D(40,35,47,49)         71.7765         calculate D2E/DX2 analytically  !
 ! D162  D(40,35,47,50)        -52.3999         calculate D2E/DX2 analytically  !
 ! D163  D(42,35,47,48)        -58.9757         calculate D2E/DX2 analytically  !
 ! D164  D(42,35,47,49)       -176.3051         calculate D2E/DX2 analytically  !
 ! D165  D(42,35,47,50)         59.5186         calculate D2E/DX2 analytically  !
 ! D166  D(32,36,46,71)         93.8352         calculate D2E/DX2 analytically  !
 ! D167  D(35,36,46,71)       -143.9549         calculate D2E/DX2 analytically  !
 ! D168  D(41,36,46,71)        -26.4504         calculate D2E/DX2 analytically  !
 ! D169  D(19,37,52,7)         -41.3079         calculate D2E/DX2 analytically  !
 ! D170  D(19,37,52,51)        155.1366         calculate D2E/DX2 analytically  !
 ! D171  D(19,37,52,83)         28.2144         calculate D2E/DX2 analytically  !
 ! D172  D(34,37,52,7)         176.0437         calculate D2E/DX2 analytically  !
 ! D173  D(34,37,52,51)         12.4882         calculate D2E/DX2 analytically  !
 ! D174  D(34,37,52,83)       -114.434          calculate D2E/DX2 analytically  !
 ! D175  D(33,44,63,64)        -64.6217         calculate D2E/DX2 analytically  !
 ! D176  D(33,44,63,65)         57.5243         calculate D2E/DX2 analytically  !
 ! D177  D(33,44,63,66)        176.1906         calculate D2E/DX2 analytically  !
 ! D178  D(32,45,67,68)        -62.0473         calculate D2E/DX2 analytically  !
 ! D179  D(32,45,67,69)         59.7981         calculate D2E/DX2 analytically  !
 ! D180  D(32,45,67,70)        179.1936         calculate D2E/DX2 analytically  !
 ! D181  D(36,46,71,72)        -62.9828         calculate D2E/DX2 analytically  !
 ! D182  D(36,46,71,73)         58.8833         calculate D2E/DX2 analytically  !
 ! D183  D(36,46,71,74)        177.3145         calculate D2E/DX2 analytically  !
 ! D184  D(35,47,50,75)         86.6444         calculate D2E/DX2 analytically  !
 ! D185  D(48,47,50,75)       -154.0076         calculate D2E/DX2 analytically  !
 ! D186  D(49,47,50,75)        -35.2294         calculate D2E/DX2 analytically  !
 ! D187  D(47,50,75,76)       -172.5991         calculate D2E/DX2 analytically  !
 ! D188  D(47,50,75,77)        -53.4711         calculate D2E/DX2 analytically  !
 ! D189  D(47,50,75,78)         68.1728         calculate D2E/DX2 analytically  !
 ! D190  D(43,51,52,7)          49.5671         calculate D2E/DX2 analytically  !
 ! D191  D(43,51,52,37)       -159.7634         calculate D2E/DX2 analytically  !
 ! D192  D(43,51,52,83)       -102.9111         calculate D2E/DX2 analytically  !
 ! D193  D(53,51,52,7)         179.6023         calculate D2E/DX2 analytically  !
 ! D194  D(53,51,52,37)        -29.7282         calculate D2E/DX2 analytically  !
 ! D195  D(53,51,52,83)         27.1242         calculate D2E/DX2 analytically  !
 ! D196  D(54,51,52,7)         -68.8958         calculate D2E/DX2 analytically  !
 ! D197  D(54,51,52,37)         81.7737         calculate D2E/DX2 analytically  !
 ! D198  D(54,51,52,83)        138.6261         calculate D2E/DX2 analytically  !
 ! D199  D(43,51,53,34)        169.2158         calculate D2E/DX2 analytically  !
 ! D200  D(52,51,53,34)         38.5036         calculate D2E/DX2 analytically  !
 ! D201  D(54,51,53,34)        -74.8829         calculate D2E/DX2 analytically  !
 ! D202  D(43,51,54,55)         85.3802         calculate D2E/DX2 analytically  !
 ! D203  D(43,51,54,56)        -93.1206         calculate D2E/DX2 analytically  !
 ! D204  D(52,51,54,55)       -151.8087         calculate D2E/DX2 analytically  !
 ! D205  D(52,51,54,56)         29.6905         calculate D2E/DX2 analytically  !
 ! D206  D(53,51,54,55)        -34.3155         calculate D2E/DX2 analytically  !
 ! D207  D(53,51,54,56)        147.1837         calculate D2E/DX2 analytically  !
 ! D208  D(7,52,83,19)          99.8794         calculate D2E/DX2 analytically  !
 ! D209  D(7,52,83,84)         -65.6467         calculate D2E/DX2 analytically  !
 ! D210  D(37,52,83,19)        -22.5315         calculate D2E/DX2 analytically  !
 ! D211  D(37,52,83,84)        171.9424         calculate D2E/DX2 analytically  !
 ! D212  D(51,52,83,19)        -94.0456         calculate D2E/DX2 analytically  !
 ! D213  D(51,52,83,84)        100.4283         calculate D2E/DX2 analytically  !
 ! D214  D(51,54,55,57)       -178.8053         calculate D2E/DX2 analytically  !
 ! D215  D(51,54,55,58)          2.4225         calculate D2E/DX2 analytically  !
 ! D216  D(56,54,55,57)         -0.2963         calculate D2E/DX2 analytically  !
 ! D217  D(56,54,55,58)       -179.0685         calculate D2E/DX2 analytically  !
 ! D218  D(51,54,56,59)        177.6359         calculate D2E/DX2 analytically  !
 ! D219  D(51,54,56,60)         -4.1285         calculate D2E/DX2 analytically  !
 ! D220  D(55,54,56,59)         -0.8005         calculate D2E/DX2 analytically  !
 ! D221  D(55,54,56,60)        177.4351         calculate D2E/DX2 analytically  !
 ! D222  D(54,55,57,61)          1.0055         calculate D2E/DX2 analytically  !
 ! D223  D(54,55,57,93)        178.6985         calculate D2E/DX2 analytically  !
 ! D224  D(58,55,57,61)        179.7637         calculate D2E/DX2 analytically  !
 ! D225  D(58,55,57,93)         -2.5432         calculate D2E/DX2 analytically  !
 ! D226  D(54,56,59,61)          1.2188         calculate D2E/DX2 analytically  !
 ! D227  D(54,56,59,97)       -179.4716         calculate D2E/DX2 analytically  !
 ! D228  D(60,56,59,61)       -177.0255         calculate D2E/DX2 analytically  !
 ! D229  D(60,56,59,97)          2.2841         calculate D2E/DX2 analytically  !
 ! D230  D(55,57,61,59)         -0.596          calculate D2E/DX2 analytically  !
 ! D231  D(55,57,61,62)        179.5014         calculate D2E/DX2 analytically  !
 ! D232  D(93,57,61,59)       -178.272          calculate D2E/DX2 analytically  !
 ! D233  D(93,57,61,62)          1.8254         calculate D2E/DX2 analytically  !
 ! D234  D(55,57,93,94)        -86.4358         calculate D2E/DX2 analytically  !
 ! D235  D(55,57,93,95)        153.102          calculate D2E/DX2 analytically  !
 ! D236  D(55,57,93,96)         32.9999         calculate D2E/DX2 analytically  !
 ! D237  D(61,57,93,94)         91.2625         calculate D2E/DX2 analytically  !
 ! D238  D(61,57,93,95)        -29.1996         calculate D2E/DX2 analytically  !
 ! D239  D(61,57,93,96)       -149.3018         calculate D2E/DX2 analytically  !
 ! D240  D(56,59,61,57)         -0.5337         calculate D2E/DX2 analytically  !
 ! D241  D(56,59,61,62)        179.369          calculate D2E/DX2 analytically  !
 ! D242  D(97,59,61,57)       -179.8436         calculate D2E/DX2 analytically  !
 ! D243  D(97,59,61,62)          0.059          calculate D2E/DX2 analytically  !
 ! D244  D(56,59,97,98)        -76.6677         calculate D2E/DX2 analytically  !
 ! D245  D(56,59,97,99)        163.2512         calculate D2E/DX2 analytically  !
 ! D246  D(56,59,97,100)        43.1009         calculate D2E/DX2 analytically  !
 ! D247  D(61,59,97,98)        102.6539         calculate D2E/DX2 analytically  !
 ! D248  D(61,59,97,99)        -17.4272         calculate D2E/DX2 analytically  !
 ! D249  D(61,59,97,100)      -137.5775         calculate D2E/DX2 analytically  !
 ! D250  D(19,83,84,85)         21.3157         calculate D2E/DX2 analytically  !
 ! D251  D(19,83,84,89)       -155.7896         calculate D2E/DX2 analytically  !
 ! D252  D(52,83,84,85)        161.3089         calculate D2E/DX2 analytically  !
 ! D253  D(52,83,84,89)        -15.7965         calculate D2E/DX2 analytically  !
 ! D254  D(83,84,85,86)       -117.2669         calculate D2E/DX2 analytically  !
 ! D255  D(83,84,85,87)          1.9104         calculate D2E/DX2 analytically  !
 ! D256  D(83,84,85,88)        121.5096         calculate D2E/DX2 analytically  !
 ! D257  D(89,84,85,86)         60.0696         calculate D2E/DX2 analytically  !
 ! D258  D(89,84,85,87)        179.2468         calculate D2E/DX2 analytically  !
 ! D259  D(89,84,85,88)        -61.1539         calculate D2E/DX2 analytically  !
 ! D260  D(83,84,89,90)       -122.4173         calculate D2E/DX2 analytically  !
 ! D261  D(83,84,89,91)         -2.6752         calculate D2E/DX2 analytically  !
 ! D262  D(83,84,89,92)        116.6951         calculate D2E/DX2 analytically  !
 ! D263  D(85,84,89,90)         60.1507         calculate D2E/DX2 analytically  !
 ! D264  D(85,84,89,91)        179.8929         calculate D2E/DX2 analytically  !
 ! D265  D(85,84,89,92)        -60.7368         calculate D2E/DX2 analytically  !
 ! D266  D(59,97,100,27)      -114.7503         calculate D2E/DX2 analytically  !
 ! D267  D(98,97,100,27)         8.1096         calculate D2E/DX2 analytically  !
 ! D268  D(99,97,100,27)       122.3481         calculate D2E/DX2 analytically  !
 --------------------------------------------------------------------------------
 Trust Radius=1.00D-01 FncErr=1.00D-07 GrdErr=1.00D-06 EigMax=2.50D+02 EigMin=1.00D-04
 Number of steps in this run=    584 maximum allowed number of steps=    600.
 Search for a saddle point of order  1.
 GradGradGradGradGradGradGradGradGradGradGradGradGradGradGradGradGradGrad

 Leave Link  103 at Mon Jun  3 07:11:28 2019, MaxMem=  6442450944 cpu:               5.2 elap:               0.2
 (Enter /home/ekwan/sw/g16/l202.exe)
 Stoichiometry    C30H47F6NaO15S
 Framework group  C1[X(C30H47F6NaO15S)]
 Deg. of freedom   294
 Full point group                 C1      NOp   1
 Largest Abelian subgroup         C1      NOp   1
 Largest concise Abelian subgroup C1      NOp   1
                         Standard orientation:                         
 ---------------------------------------------------------------------
 Center     Atomic      Atomic             Coordinates (Angstroms)
 Number     Number       Type             X           Y           Z
 ---------------------------------------------------------------------
      1          6           0       -3.314563    1.569887   -1.137208
      2          6           0       -4.037698    0.912859    0.038710
      3          6           0       -4.678748   -0.413575   -0.395257
      4          6           0       -3.036987   -0.729079   -2.140539
      5          6           0       -2.334225    0.583438   -1.774977
      6          1           0       -5.047985   -0.976967    0.470146
      7          1           0       -3.289421    0.679477    0.807592
      8          1           0       -4.050452    1.864280   -1.896439
      9          1           0       -3.793993   -0.516439   -2.907018
     10          1           0       -1.535297    0.374238   -1.056375
     11          8           0       -3.698130   -1.264930   -0.966906
     12          8           0       -5.729631   -0.134742   -1.277236
     13          8           0       -4.994703    1.823693    0.556550
     14          8           0       -2.593080    2.719031   -0.701238
     15          8           0       -1.795626    1.135412   -2.971718
     16          6           0       -2.084092   -1.825769   -2.646761
     17          1           0       -1.590659   -1.390318   -3.541461
     18          1           0       -2.744906   -2.632658   -3.042296
     19          8           0       -1.207759   -2.288082   -1.696668
     20          6           0       -5.378167    1.544396    1.891883
     21          1           0       -5.935679    0.600391    1.976288
     22          1           0       -4.502861    1.494829    2.556185
     23          1           0       -6.027332    2.361947    2.214545
     24          6           0       -3.279241    3.943029   -0.937570
     25          1           0       -3.434667    4.100354   -2.014737
     26          1           0       -4.248141    3.958296   -0.428550
     27          1           0       -2.646421    4.739433   -0.548934
     28          6           0       -0.447408    1.568390   -2.851859
     29          1           0       -0.351778    2.383224   -2.127917
     30          1           0        0.218105    0.744738   -2.557826
     31          1           0       -0.143684    1.926876   -3.839728
     32          6           0        2.593009   -3.364523    0.060855
     33          6           0        1.149903   -3.097256   -0.385566
     34          6           0        0.923093   -1.629100   -0.538708
     35          6           0        3.233590   -1.239493   -1.196398
     36          6           0        3.527906   -2.730839   -0.972347
     37          1           0       -0.067735   -1.209028   -0.513773
     38          1           0        1.015906   -3.489779   -1.403759
     39          1           0        2.763495   -2.904660    1.039718
     40          1           0        3.756306   -0.664512   -0.429843
     41          1           0        3.402454   -3.278447   -1.918734
     42          8           0        1.822787   -0.852074   -1.019905
     43          8           0       -0.074924   -0.047502    3.511125
     44          8           0        0.179666   -3.672146    0.466707
     45          8           0        2.847380   -4.756953    0.106286
     46          8           0        4.883727   -2.759784   -0.567554
     47          6           0        3.612601   -0.777060   -2.599460
     48          1           0        2.947732   -1.265871   -3.319743
     49          1           0        4.642287   -1.107258   -2.797379
     50          8           0        3.461174    0.613678   -2.772265
     51         16           0        0.111266   -0.179672    2.053030
     52          8           0       -1.161668   -0.237399    1.271527
     53          8           0        1.049368   -1.299865    1.676268
     54          6           0        0.980500    1.287130    1.478415
     55          6           0        2.372509    1.269302    1.560286
     56          6           0        0.298981    2.403840    1.002887
     57          6           0        3.095789    2.385823    1.153645
     58          1           0        2.877786    0.381561    1.919901
     59          6           0        1.044197    3.525527    0.620644
     60          1           0       -0.781758    2.398770    0.901977
     61          6           0        2.435614    3.522612    0.687380
     62          1           0        2.998731    4.394109    0.378650
     63          6           0       -0.397682   -4.867814   -0.081922
     64          1           0       -0.952095   -4.615117   -0.992208
     65          1           0        0.378935   -5.608927   -0.294046
     66          1           0       -1.073431   -5.257153    0.683228
     67          6           0        2.834340   -5.300861    1.424717
     68          1           0        3.622242   -4.849542    2.042004
     69          1           0        1.864234   -5.148057    1.909586
     70          1           0        3.026816   -6.370729    1.319878
     71          6           0        5.624169   -3.882664   -1.043657
     72          1           0        5.222203   -4.820578   -0.651168
     73          1           0        5.618813   -3.917909   -2.142020
     74          1           0        6.649412   -3.741552   -0.694972
     75          6           0        4.604912    1.361394   -2.377464
     76          1           0        4.327807    2.416330   -2.427891
     77          1           0        4.919004    1.129008   -1.354445
     78          1           0        5.450107    1.172711   -3.054693
     79          6           0       -6.486133   -1.287577   -1.628218
     80          1           0       -7.333905   -0.940199   -2.221992
     81          1           0       -5.891502   -1.994538   -2.218058
     82          1           0       -6.857417   -1.799802   -0.728585
     83         11           0       -2.033155   -2.263555    0.398993
     84          8           0       -3.577790   -2.535026    2.079835
     85          6           0       -4.723462   -3.371424    2.009828
     86          1           0       -5.646199   -2.780004    2.092095
     87          1           0       -4.701335   -3.870196    1.038199
     88          1           0       -4.710300   -4.124398    2.809506
     89          6           0       -3.497634   -1.808829    3.302992
     90          1           0       -3.446716   -2.495056    4.159153
     91          1           0       -2.591171   -1.204912    3.257585
     92          1           0       -4.371991   -1.154270    3.420456
     93          6           0        4.593669    2.377201    1.269571
     94          9           0        5.012373    2.777309    2.488725
     95          9           0        5.175427    3.191445    0.362644
     96          9           0        5.098034    1.130600    1.074572
     97          6           0        0.331463    4.750021    0.114495
     98          9           0       -0.098805    4.601370   -1.160740
     99          9           0        1.125349    5.842014    0.132694
    100          9           0       -0.756450    5.030792    0.866732
 ---------------------------------------------------------------------
 Rotational constants (GHZ):           0.0608214           0.0465504           0.0339760
 Leave Link  202 at Mon Jun  3 07:11:28 2019, MaxMem=  6442450944 cpu:               5.8 elap:               0.3
 (Enter /home/ekwan/sw/g16/l301.exe)
 Standard basis: 6-31G(d) (6D, 7F)
 Ernie: Thresh=  0.10000D-02 Tol=  0.10000D-05 Strict=F.
 There are   897 symmetry adapted cartesian basis functions of A   symmetry.
 There are   897 symmetry adapted basis functions of A   symmetry.
   897 basis functions,  1720 primitive gaussians,   897 cartesian basis functions
   214 alpha electrons      214 beta electrons
       nuclear repulsion energy      9726.8044456752 Hartrees.
 IExCor=  402 DFT=T Ex+Corr=B3LYP ExCW=0 ScaHFX=  0.200000
 ScaDFX=  0.800000  0.720000  1.000000  0.810000 ScalE2=  1.000000  1.000000
 IRadAn=      5 IRanWt=     -1 IRanGd=            0 ICorTp=0 IEmpDi=141
 NAtoms=  100 NActive=  100 NUniq=  100 SFac= 1.00D+00 NAtFMM=   60 NAOKFM=T Big=T
 Integral buffers will be    131072 words long.
 Raffenetti 2 integral format.
 Two-electron integral symmetry is turned on.
 R6Disp:  Grimme-D3(BJ) Dispersion energy=       -0.2331747782 Hartrees.
 Nuclear repulsion after empirical dispersion term =     9726.5712708971 Hartrees.
 Force inversion solution in PCM.
 ------------------------------------------------------------------------------
 Polarizable Continuum Model (PCM)
 =================================
 Model                : PCM.
 Atomic radii         : UFF (Universal Force Field).
 Polarization charges : Total charges.
 Charge compensation  : None.
 Solution method      : Matrix inversion.
 Cavity type          : Scaled VdW (van der Waals Surface) (Alpha=1.100).
 Cavity algorithm     : GePol (No added spheres)
                        Default sphere list used, NSphG=  100.
                        Lebedev-Laikov grids with approx.  5.0 points / Ang**2.
[...]
 0,-0.00000709,0.00000371,0.00001466,0.00002717,0.00000031,0.00001746,0
 .00010469,0.00002972,0.00011509,0.00204566,0.00311517,0.00123948,-0.00
 093598,-0.00089134,0.00005376,0.00015137,-0.00181300,0.00026638,-0.001
 68975,-0.00202641,-0.00139150,0.00014108,-0.00070245,-0.00022743,0.007
 81035,-0.00427020,-0.00121878,0.00040438,-0.00033014,-0.00043054,0.000
 10227,0.00001900,0.00009762,-0.02867909,-0.04132284,-0.00305848,0.0003
 0237,0.00057056,0.00027973,-0.00245672,-0.00133468,-0.00027828,0.00201
 631,-0.00210933,-0.00007579,0.00007248,0.00010656,-0.00002822,-0.00000
 428,0.00000998,0.00001402,0.00000265,-0.00002536,0.00000702,-0.0000133
 3,-0.00001158,-0.00000808,-0.00001013,0.00004074,0.00007165,-0.0000006
 4,0.00000399,-0.00001222,0.00000209,0.00000566,-0.00000537,0.00000382,
 -0.00001793,-0.00000528,-0.00006141,0.00008146,-0.00004969,0.00000012,
 -0.00001399,0.00000442,0.00000151,-0.00000921,0.00001653,0.00001589,-0
 .00000789,0.00000001,-0.00005804,-0.00006559,-0.00009402,-0.00001218,-
 0.00001924,-0.00003295,-0.00005292,0.00004605,-0.00001034,0.00002843,-
 0.00001514,0.00005394,0.00007040,0.00008691,-0.00001717,-0.00001885,-0
 .00000589,0.00001057,-0.00000032,-0.00001149,0.00000119,-0.00000665,-0
 .00001576,-0.00000610,0.00014723,0.00025672,-0.00003491,-0.00008188,-0
 .00007037,-0.00002490,0.00007375,0.00005487,-0.00000696,-0.00001288,-0
 .00000083,-0.00000198,-0.00000499,-0.00000438,0.00000407,-0.00000786,-
 0.00001362,-0.00000994,0.00004854,0.00002523,0.00000983,-0.00001463,-0
 .00002237,-0.00000994,0.00001192,0.00000612,0.00004005,-0.00001851,0.0
 0000117,0.00000743,-0.00250858,-0.00046456,0.00029451,0.00075943,0.000
 22662,-0.00054285,0.00073440,0.00032837,0.00024124,0.00073046,-0.00027
 542,-0.00000559,-0.07225814,-0.22082124,-0.00773841,-0.02708751,-0.014
 50951,0.03061561,0.14653820,0.27933369,-0.00002740,-0.00010700,0.00005
 931,0.00002076,0.00000709,-0.00007339,-0.00000225,0.00000861,-0.000000
 32,-0.00003951,-0.00002941,-0.00001264,-0.00005598,-0.00010929,-0.0001
 9316,0.00000928,0.00000800,0.00000174,0.00000906,0.00000337,0.00001063
 ,-0.00000009,0.00000958,0.00000018,-0.00000658,0.00000375,0.00000577,-
 0.00000934,0.00000235,-0.00000432,0.00002496,0.00002794,0.00004880,0.0
 0000115,0.00000269,0.00001299,0.00000826,0.00000172,0.00007195,0.00018
 002,0.00015354,0.00014866,0.00028027,0.00025549,0.00005325,0.00004060,
 -0.00006351,-0.00006106,0.00000380,0.00000600,0.00002696,-0.00001623,0
 .00001334,0.00001365,-0.00006794,0.00003693,0.00008132,0.00001937,-0.0
 0000132,-0.00005022,-0.00000451,-0.00000142,0.00000980,-0.00001030,0.0
 0000801,0.00001429,0.00000493,-0.00000003,0.00000447,-0.00008972,0.000
 05459,0.00011121,-0.00008558,-0.00004415,0.00004991,0.00004069,0.00003
 279,-0.00001261,-0.00005371,-0.00001036,-0.00032247,-0.00027951,-0.000
 29685,0.00035788,0.00006854,-0.00026574,-0.00011956,0.00000051,0.00012
 710,-0.00008653,0.00000024,0.00001939,-0.00002082,-0.00000960,0.000021
 27,-0.00001120,0.00000680,0.00000372,0.00000213,0.00002902,0.00006463,
 -0.00024510,-0.00002383,0.00002602,-0.00004835,-0.00000846,0.00000701,
 -0.00000139,0.00002208,-0.00000443,-0.00001113,0.00000112,-0.00000930,
 -0.00000131,-0.00001017,0.00000558,0.00000714,-0.00001570,0.00001018,-
 0.00000910,0.00000278,-0.00000755,0.00000438,0.00002871,-0.00000928,0.
 00008980,-0.00018102,-0.00024372,-0.00022343,-0.00001110,-0.00002938,0
 .00001702,0.00000618,-0.00002057,0.00000927,0.00001968,-0.00001317,0.0
 0001475,-0.00000626,-0.00005585,-0.00003299,0.00000021,0.00000234,0.00
 000769,-0.00000096,0.00000794,0.00000529,-0.00001440,0.00004354,0.0000
 3359,0.00052507,0.00090344,-0.00001594,-0.00025716,-0.00021167,0.00010
 865,0.00004110,-0.00038603,0.00015798,0.00015208,-0.00051900,-0.000845
 29,-0.00028470,-0.00043807,-0.00011214,0.00146130,-0.00069474,0.001145
 50,-0.00010408,0.00012107,0.00012701,0.00000464,0.00000185,0.00000581,
 -0.00536189,-0.01270454,0.00805655,0.00007325,0.00012600,0.00011616,0.
 00034035,-0.00074495,-0.00023495,0.00026740,-0.00053889,-0.00019587,0.
 00001561,0.00001918,-0.00000854,-0.00000269,-0.00000137,0.00000308,-0.
 00000016,-0.00000472,0.00000124,-0.00000088,-0.00000115,-0.00000032,0.
 ,0.00000538,-0.00000086,-0.00000260,0.00000030,-0.00000019,0.00000190,
 0.00000152,-0.00000035,0.00000066,-0.00000306,0.00000033,-0.00000910,0
 .00001200,-0.00001214,0.00000030,-0.00000121,0.00000051,0.00000017,-0.
 00000174,0.00000516,0.00000092,-0.00000123,-0.00000043,0.00002463,-0.0
 0003773,-0.00003668,0.00000864,0.00001072,-0.00000889,-0.00001541,0.00
 001994,0.00000272,-0.00000280,0.00000650,0.00000950,-0.00000501,-0.000
 00413,-0.00000214,-0.00000154,-0.00000022,-0.00000042,0.00000063,-0.00
 000133,-0.00000031,0.00000114,0.00000192,0.00000288,0.00003906,0.00003
 834,-0.00004407,-0.00002398,-0.00002040,0.00001713,0.00001802,0.000011
 21,-0.00000355,-0.00000430,-0.00000022,-0.00000206,-0.00000097,-0.0000
 0353,0.00000292,-0.00000283,-0.00000138,-0.00000066,0.00001589,0.00001
 640,-0.00001418,-0.00000315,-0.00000407,0.00000116,0.00000017,0.000002
 90,0.00000613,-0.00000179,-0.00000114,0.00000123,-0.00065411,-0.000005
 85,-0.00003272,0.00016551,0.00002055,-0.00006636,0.00019546,0.00006958
 ,0.00009582,0.00018440,-0.00009227,0.00002207,-0.00106229,-0.00558125,
 -0.07049867,0.03648202,0.04344284,-0.01649076,-0.00458229,-0.00441018,
 0.07623734,0.00046001,0.00092778,-0.00021677,-0.00008180,0.00003357,0.
 00004705,-0.00007107,0.00020246,-0.00019054,0.00014644,-0.00004027,0.0
 0000381,-0.00041541,-0.00007158,-0.00022096,-0.00003055,-0.00005244,0.
 00002078,-0.00003293,0.00003625,-0.00002367,-0.00004405,-0.00012009,0.
 00002562,0.00001041,0.00000190,-0.00000642,0.00004421,-0.00001311,0.00
 003205,0.00011062,-0.00009656,0.00009278,-0.00005377,-0.00013176,0.000
 05448,-0.00005384,-0.00027853,-0.00007717,-0.00030351,-0.00130155,0.00
 042945,0.00051476,0.00014489,0.00011252,-0.00019874,0.00012569,0.00010
 486,0.00001627,-0.00002104,-0.00001138,0.00006984,-0.00003537,-0.00002
 667,0.00025577,-0.00005220,-0.00015110,0.00009779,0.00002568,0.0001233
 4,-0.00004390,-0.00005510,-0.00001913,-0.00000521,0.00003081,0.0000056
 7,0.00001614,0.00001075,-0.00000689,0.00053899,0.00305523,0.00018927,-
 0.00066802,-0.00075308,0.00049029,-0.00036874,-0.00047328,0.00023545,-
 0.00142126,-0.00231062,0.00044889,-0.00040801,-0.00020834,0.00018986,-
 0.00011035,-0.00004192,-0.00008252,0.00003633,-0.00000912,-0.00001569,
 0.00003027,0.00001499,-0.00000755,0.00001870,-0.00008277,-0.00000401,-
 0.00006280,-0.00002177,-0.00002443,-0.00028524,-0.00037043,0.00034944,
 0.00004366,-0.00007647,0.00013384,0.00006862,-0.00005682,-0.00001197,-
 0.00008304,0.00000451,0.00001206,-0.00000048,0.00001634,0.00000937,0.0
 0001997,-0.00001241,-0.00001541,0.00006306,-0.00005048,0.00001239,-0.0
 0000889,0.00002519,-0.00001038,0.00010806,0.00023118,-0.00005639,0.000
 48235,0.00040934,0.00072412,0.00007824,0.00011353,-0.00000242,-0.00001
 322,0.00011454,0.00003601,-0.00007667,0.00008054,-0.00001488,0.0000359
 5,-0.00011433,0.00003504,0.00001038,0.00001511,-0.00001816,-0.00002131
 ,0.00001246,-0.00000266,-0.00003786,0.00012006,-0.00010458,-0.00176461
 ,-0.00189540,-0.00089793,0.00094512,0.00044749,-0.00012591,0.00018099,
 0.00094257,-0.00005117,0.00004089,0.00049235,0.00117050,-0.00045552,0.
 00053477,0.00001228,-0.00198969,-0.00239240,0.00000251,-0.00136857,-0.
 00001429,0.00151721,0.00006676,0.00005988,-0.00015651,-0.03052310,0.01
 533209,-0.01984597,0.00042743,0.00140921,-0.00051168,0.00140443,0.0052
 5803,0.00046689,0.00077370,-0.00020453,-0.00075666,-0.00005059,-0.0000
 6599,0.00002111,0.00000254,0.00000197,-0.00001092,0.00000085,0.0000116
 4,-0.00000476,0.00000872,0.00001036,0.00000520,-0.00000227,-0.00002842
 ,-0.00005059,0.00000236,-0.00000199,0.00000610,0.00000189,-0.00000245,
 0.00000630,-0.00000241,0.00001196,0.00000409,0.00004187,-0.00006184,0.
 00003224,-0.00000081,0.00001316,-0.00000176,-0.00000197,0.00000499,-0.
 00001062,-0.00000827,0.00000314,-0.00000140,0.00000744,-0.00006184,0.0
 0010451,0.00001338,0.00004120,0.00004137,0.00005513,-0.00003883,0.0000
 1073,-0.00001895,0.00003107,-0.00005479,0.00003761,0.00007359,-0.00002
 635,-0.00000890,-0.00000550,0.00000518,0.00000038,-0.00001764,0.000010
 41,-0.00000689,-0.00001095,-0.00000230,-0.00015562,-0.00004654,0.00004
 275,0.00004528,-0.00002766,0.00001291,-0.00002349,0.00000673,0.0000054
 7,0.00001321,-0.00000356,0.00000158,-0.00000137,0.00000159,0.00000146,
 0.00000414,-0.00000073,-0.00000345,-0.00003373,0.00001712,-0.00001394,
 0.00000712,-0.00000392,-0.00000076,-0.00003592,0.00001754,-0.00001916,
 0.00003274,0.00000345,0.00000704,0.00226931,0.00037423,-0.00008601,-0.
 00072614,-0.00024411,0.00056337,-0.00058043,-0.00011716,-0.00011268,-0
 .00076584,0.00044788,-0.00006302,-0.19589884,0.05142878,-0.07137538,0.
 01146095,0.00277462,-0.02210919,-0.05682736,-0.02524705,-0.02743545,0.
 27503090,-0.00001674,0.00027210,0.00003185,0.00010488,-0.00007308,0.00
 003172,0.00010911,0.00000429,-0.00001946,0.00004450,0.00005449,0.00000
 958,0.00010659,0.00000211,-0.00004725,-0.00001446,-0.00001221,-0.00000
 256,0.00001924,0.00000676,0.00002444,-0.00005822,-0.00007370,0.0000439
 1,-0.00002253,-0.00000833,0.00001084,-0.00002904,0.00004289,-0.0000138
 9,-0.00009147,-0.00001036,-0.00001497,-0.00009003,-0.00002191,0.000031
 28,-0.00009829,0.00006059,-0.00007428,-0.00053224,0.00021354,0.0001586
 2,-0.00016627,-0.00007279,0.00007131,0.00005774,-0.00006110,-0.0001063
 0,-0.00000345,0.00002205,0.00002032,-0.00004781,-0.00001892,0.00003935
 ,-0.00013565,-0.00004195,0.00012604,0.00002850,0.00000437,0.00005742,-
 0.00000109,-0.00000199,-0.00001220,0.00000213,-0.00001162,-0.00000352,
 -0.00001968,0.00000542,-0.00001131,0.00000058,-0.00059820,0.00000846,-
 0.00001811,0.00007251,0.00001160,-0.00006214,0.00004122,0.00000605,-0.
 00055437,-0.00007666,0.00069495,0.00013708,0.00014989,-0.00014609,0.00
 002379,0.00000394,-0.00005200,-0.00000374,0.00000240,0.00000045,-0.000
 00561,-0.00001957,0.00005359,-0.00003563,0.00007955,0.00000156,0.00005
 281,0.00002395,0.00002879,0.00013157,0.00028108,-0.00037950,-0.0000942
 1,0.00006931,-0.00012046,-0.00006417,0.00004685,0.00000835,0.00004467,
 0.00001535,-0.00001425,-0.00000219,-0.00001839,-0.00001010,-0.00001958
 ,0.00001186,0.00001378,-0.00004295,0.00003743,-0.00001210,0.00000806,-
 0.00002141,0.00000959,0.00001707,-0.00014381,0.00010011,-0.00030209,-0
 .00041264,-0.00064047,-0.00005220,-0.00011425,0.00000745,0.00002580,-0
 .00010803,-0.00002959,0.00008775,-0.00007063,0.00001683,-0.00002814,0.
 00004032,-0.00004725,-0.00000693,-0.00000491,0.00001343,0.00001836,-0.
 00000379,0.00000779,0.00004757,-0.00003607,0.00008966,0.00099248,0.001
 96514,0.00092769,-0.00062100,-0.00056590,0.00000885,0.00001904,-0.0008
 9747,0.00009049,0.00014985,0.00056186,0.00015116,0.00085740,-0.0002908
 7,-0.00008400,0.00059845,-0.00083777,0.00033271,0.00206697,-0.00015492
 ,-0.00114575,0.00006270,0.00001042,0.00005267,0.03419132,-0.00315384,0
 .01478866,0.00106721,-0.00064758,0.00002214,-0.00130675,-0.00562344,-0
 .00049583,0.00018686,-0.00000083,0.00036669,0.00004542,0.00006584,-0.0
 0001948,-0.00000243,0.00000468,0.00000904,0.00000142,-0.00001401,0.000
 00421,-0.00000851,-0.00000805,-0.00000503,-0.00000281,0.00002670,0.000
 04625,-0.00000133,0.00000232,-0.00000691,0.00000009,0.00000314,-0.0000
 0446,0.00000232,-0.00001164,-0.00000355,-0.00004046,0.00005616,-0.0000
 3235,0.00000038,-0.00001064,0.00000240,0.00000134,-0.00000558,0.000010
 86,0.00000918,-0.00000412,0.00000049,-0.00001534,-0.00000261,-0.000087
 68,-0.00000805,-0.00002249,-0.00003056,-0.00004565,0.00003734,-0.00000
 866,0.00001687,-0.00001724,0.00004524,0.00002974,0.00003066,-0.0000043
 5,-0.00000842,-0.00000242,0.00000505,-0.00000063,-0.00000266,-0.000001
 59,-0.00000238,-0.00000699,-0.00000278,0.00010378,0.00013853,-0.000024
 30,-0.00004982,-0.00002713,-0.00001794,0.00004158,0.00002514,-0.000004
 77,-0.00000923,0.00000083,-0.00000077,-0.00000205,-0.00000209,0.000001
 42,-0.00000456,-0.00000661,-0.00000405,0.00003120,0.00000559,0.0000100
 4,-0.00000844,-0.00000991,-0.00000482,0.00001342,-0.00000042,0.0000242
 1,-0.00001657,0.00000051,0.00000251,-0.00212747,-0.00053746,-0.0000746
 9,0.00071841,0.00025202,-0.00051329,0.00054376,0.00020055,0.00016249,0
 .00070534,-0.00036733,0.00006633,0.04536807,-0.09444114,0.02267991,0.0
 0468937,0.00941003,0.01656954,-0.03852084,0.00772620,-0.01806770,-0.04
 815998,0.08762156,-0.00007579,-0.00011195,0.00004239,-0.00002006,0.000
 04365,-0.00014493,-0.00005405,0.00003861,-0.00001384,-0.00007143,-0.00
 006696,-0.00003289,-0.00013630,-0.00012460,-0.00024219,0.00001722,0.00
 001404,0.00000586,0.00000559,0.00002367,0.00000722,-0.00000866,0.00000
 918,0.00001369,0.00000145,0.00000863,0.00000391,-0.00000105,-0.0000093
 3,-0.00000319,0.00008605,0.00002845,0.00009111,0.00002997,-0.00000329,
 0.00001743,0.00005497,-0.00003992,0.00018536,0.00024788,-0.00001521,0.
 00027092,0.00046928,0.00038148,0.00005054,0.00001666,-0.00004361,-0.00
 002733,0.00000892,-0.00000350,0.00002627,0.00000430,0.00002374,-0.0000
 0195,-0.00000849,0.00006193,0.00004336,0.00004364,0.00000656,-0.000127
 66,-0.00001665,-0.00000976,0.00002983,-0.00002352,0.00003148,0.0000386
 7,0.00002194,-0.00000148,0.00001260,0.00032382,-0.00049404,0.00025397,
 0.00000022,0.00004086,0.00001637,0.00022222,0.00021068,-0.00014188,0.0
 0158837,0.00082194,-0.00220986,-0.00039033,-0.00046848,0.00051902,-0.0
 0006184,-0.00032470,-0.00019775,0.00000469,0.00015806,-0.00010154,0.00
 000609,0.00003058,-0.00004350,0.00000529,-0.00001338,-0.00001598,-0.00
 001975,-0.00000762,-0.00001364,-0.00004680,-0.00006802,-0.00011873,0.0
 0002080,-0.00000120,-0.00000233,0.00001875,-0.00001513,-0.00000510,0.0
 0000075,-0.00001037,-0.00001213,0.00000258,-0.00000194,0.00000411,-0.0
 0000290,0.00000106,0.00000211,0.00000034,-0.00000395,-0.00000537,-0.00
 000020,0.00000047,0.00000082,0.00003959,0.00007368,0.00006417,0.000084
 84,-0.00005670,0.00018682,0.00001634,0.00002049,0.00002007,-0.00000387
 ,0.00002898,0.00002867,-0.00001626,0.00001880,0.00001130,0.00000472,-0
 .00009541,-0.00002056,0.00000378,0.00000572,0.00000344,-0.00001030,0.0
 0001239,0.00000317,-0.00004143,0.00007808,-0.00000088,-0.00028182,0.00
 011917,-0.00030365,0.00008248,-0.00003761,0.00009899,0.00007413,-0.000
 00042,0.00013001,-0.00018511,0.00064704,0.00037299,0.00060016,0.000155
 38,0.00001825,-0.00025597,-0.00191385,-0.00004878,-0.00032018,-0.00060
 519,-0.00063336,0.00004917,0.00003070,0.00000604,-0.00350333,-0.001185
 61,0.00668770,0.00046238,0.00036970,-0.00033002,-0.00058938,0.00141575
 ,0.00079862,0.00030408,-0.00009633,0.00012969,-0.00000386,-0.00000844,
 -0.00000200,-0.00000237,-0.00000363,-0.00000078,-0.00000043,0.00000081
 ,-0.00000053,0.00000336,0.00000322,0.00000240,0.00000040,-0.00000691,-
 0.00002628,-0.00000286,-0.00000067,0.00000323,0.00000305,0.00000052,0.
 00000194,-0.00000035,0.00000178,0.00000239,0.00000739,-0.00001230,-0.0
 0000011,0.00000025,0.00000391,-0.00000042,-0.00000053,0.00000036,0.000
 00156,-0.00000313,0.00000029,-0.00000103,0.00003875,-0.00004629,-0.000
 00604,0.00001249,0.00002626,0.00000356,0.00000078,0.00000679,0.0000071
 4,-0.00001159,0.00001588,-0.00000891,-0.00001525,-0.00000951,-0.000004
 54,-0.00000032,-0.00000024,-0.00000193,0.00000133,-0.00000302,0.000001
 55,0.00000196,0.00000502,0.00000547,-0.00000831,-0.00000182,-0.0000511
 1,-0.00001055,-0.00002993,0.00004029,0.00000905,0.00000960,-0.00000194
 ,-0.00000094,-0.00000128,-0.00000315,-0.00000103,-0.00000491,0.0000045
 0,-0.00000214,0.00000029,-0.00000021,0.00000791,0.00002951,-0.00003203
 ,-0.00000039,-0.00000419,0.00000385,-0.00001608,0.00001192,-0.00000375
 ,0.00001314,-0.00000071,0.00000236,0.00006138,0.00002318,-0.00021363,-
 0.00002419,-0.00002058,0.00011776,-0.00000798,0.00005219,0.00006263,-0
 .00010806,0.00008515,0.00000994,-0.07401553,0.02823324,-0.11364403,-0.
 03726366,0.02022361,-0.06884280,-0.02452011,-0.01195324,0.00276889,0.1
 3708045,-0.03570730,0.17440931\\0.00000014,0.00000090,0.00000190,-0.00
 000085,0.00000230,0.00000179,-0.00000066,0.00000037,0.00000314,0.00000
 067,0.00000016,0.00000230,0.00000128,0.00000059,0.00000192,-0.00000056
 ,0.00000163,0.00000331,0.00000071,-0.00000005,0.00000196,0.00000136,-0
 .00000004,0.00000223,0.00000061,0.00000086,0.00000118,0.00000031,0.000
 00005,-0.00000042,0.00000126,0.00000097,0.00000109,0.00000151,0.000001
 11,0.00000329,0.00000090,0.00000099,0.00000151,0.00000038,0.00000054,0
 .00000127,0.00000120,0.00000096,0.00000004,0.00000018,-0.00000054,0.00
 000136,0.00000205,0.00000092,0.00000001,0.00000105,0.00000067,0.000001
 91,0.00000088,-0.00000066,0.00000086,-0.00000062,0.00000075,0.00000342
 ,-0.00000069,0.00000138,0.00000284,-0.00000108,0.00000111,0.00000220,-
 0.00000092,0.00000139,0.00000292,0.00000135,0.00000145,0.00000118,0.00
 000192,0.00000054,0.00000136,0.00000108,0.00000079,0.00000206,0.,-0.00
 000012,0.00000157,0.00000284,-0.00000136,0.00000058,0.00000123,0.00000
 017,0.00000043,0.00000010,0.00000170,0.00000025,0.00000232,0.00000021,
 -0.00000060,0.,-0.00000104,-0.00000210,-0.00000096,-0.00000115,0.00000
 115,0.00000086,0.00000656,-0.00000317,0.00000059,-0.00000002,-0.000000
 78,-0.00000004,-0.00000118,-0.00000158,-0.00000232,-0.00000703,-0.0000
 0005,-0.00000023,-0.00000007,-0.00000121,-0.00000133,-0.00000091,-0.00
 000107,0.00000087,-0.00000042,-0.00000273,0.00000017,-0.00000048,-0.00
 000220,0.00000099,-0.00000326,-0.00000347,-0.00000248,-0.00000064,-0.0
 0000010,-0.00000176,0.00000009,0.00000019,-0.00000142,-0.00000006,-0.0
 0000114,-0.00000104,-0.00000080,-0.00000306,0.00000122,-0.00000114,-0.
 00000274,0.00000166,-0.00000098,-0.00000227,0.00000148,-0.00000023,-0.
 00000248,0.00000319,-0.00000117,-0.00000041,-0.00000041,-0.00000216,0.
 00000053,0.00000063,0.00000298,0.00000028,0.00000099,0.00000165,-0.000
 00018,-0.00000201,0.00000104,-0.00000074,-0.00000099,-0.00000083,-0.00
 000133,-0.00000045,-0.00000024,-0.00000154,-0.00000095,-0.00000073,-0.
 00000191,-0.00000077,-0.00000119,-0.00000177,-0.00000083,0.00000023,0.
 00000019,-0.00000047,0.00000038,0.00000025,0.00000115,-0.00000045,-0.0
 0000187,0.00000053,-0.00000125,-0.00000179,-0.00000133,-0.00000055,-0.
 00000003,-0.00000052,-0.00000016,0.00000024,-0.00000111,-0.00000042,-0
 .00000007,-0.00000133,0.00000050,0.00000099,-0.00000189,-0.00000023,-0
 .00000161,-0.00000211,-0.00000099,-0.00000192,-0.00000202,-0.00000041,
 -0.00000110,-0.00000216,-0.00000093,-0.00000173,-0.00000009,-0.0000018
 7,-0.00000292,-0.00000067,-0.00000117,-0.00000300,0.00000024,-0.000001
 28,-0.00000304,-0.00000040,-0.00000148,-0.00000366,0.00000051,0.,-0.00
 000229,0.00000188,-0.00000171,-0.00000250,0.00000139,-0.00000142,-0.00
 000442,0.00000188,-0.00000090,-0.00000326,0.00000052,0.00000161,0.0000
 0352,0.00000116,0.00000151,0.00000366,0.00000068,0.00000132,0.00000309
 ,-0.00000008,0.00000142,0.00000339,-0.00000013,0.00000261,0.00000059,-
 0.00000099,-0.00000482,-0.00000315,-0.00000226,0.00000327,0.00000594,-
 0.00000213,0.00000077,0.00000275,-0.00000165,0.00000104,0.00000221,-0.
 00000249,0.00000106,0.00000250,-0.00000257,0.00000173,0.00000541,-0.00
 000250,0.00000087,0.00000191,-0.00000133,0.00000203,-0.00000111,-0.000
 00131,0.00000034,0.00000246,0.00000092,-0.00000193,-0.00000192,-0.0000
 0069,-0.00000090,-0.00000361,0.00000031,-0.00000209,-0.00000227,-0.000
 00082,-0.00000154,-0.00000264,0.00000183,-0.00000107,-0.00000060,0.000
 00308,0.00000051,-0.00000063,0.00000135,-0.00000019,-0.00000067,0.0000
 0104,0.00000025,-0.00000025\\\@


 WE TEND TO MEET ANY NEW SITUATION BY REORGANIZING. IT CAN BE A
 WONDERFUL METHOD FOR CREATING THE ILLUSION OF PROGRESS WHILE PRODUCING
 CONFUSION, INEFFICIENCY, AND DEMORALIZATION.
     -- PETRONIUS ARBITER, 210 B.C.
 Job cpu time:       4 days 13 hours 52 minutes 27.4 seconds.
 Elapsed time:       0 days  3 hours 46 minutes 23.6 seconds.
 File lengths (MBytes):  RWF=   9787 Int=      0 D2E=      0 Chk=     87 Scr=      1
 Normal termination of Gaussian 16 at Mon Jun  3 14:35:04 2019.
