 Entering Gaussian System, Link 0=g16
 Input=clay_new-glu_gluC6-CADR-Na2_1Me2O-bisCF3-ts-b3lyp_d3bj-631gd-pcm_thf.gjf
 Output=clay_new-glu_gluC6-CADR-Na2_1Me2O-bisCF3-ts-b3lyp_d3bj-631gd-pcm_thf.out
 Initial command:
 /home/ekwan/sw/g16/l1.exe "/scratch/users/ekwan/clay_new-glu_gluC6-CADR-Na2_1Me2O-bisCF3-ts-b3lyp_d3bj-631gd-pcm_thf/Gau-2543.inp" -scrdir="/scratch/users/ekwan/clay_new-glu_gluC6-CADR-Na2_1Me2O-bisCF3-ts-b3lyp_d3bj-631gd-pcm_thf/"
 Entering Link 1 = /home/ekwan/sw/g16/l1.exe PID=      2544.
  
 Copyright (c) 1988,1990,1992,1993,1995,1998,2003,2009,2016,
            Gaussian, Inc.  All Rights Reserved.
  
 This is part of the Gaussian(R) 16 program.  It is based on
 the Gaussian(R) 09 system (copyright 2009, Gaussian, Inc.),
 the Gaussian(R) 03 system (copyright 2003, Gaussian, Inc.),
 the Gaussian(R) 98 system (copyright 1998, Gaussian, Inc.),
 the Gaussian(R) 94 system (copyright 1995, Gaussian, Inc.),
 the Gaussian 92(TM) system (copyright 1992, Gaussian, Inc.),
 the Gaussian 90(TM) system (copyright 1990, Gaussian, Inc.),
 the Gaussian 88(TM) system (copyright 1988, Gaussian, Inc.),
 the Gaussian 86(TM) system (copyright 1986, Carnegie Mellon
 University), and the Gaussian 82(TM) system (copyright 1983,
 Carnegie Mellon University). Gaussian is a federally registered
 trademark of Gaussian, Inc.
  
 This software contains proprietary and confidential information,
 including trade secrets, belonging to Gaussian, Inc.
  
 This software is provided under written license and may be
 used, copied, transmitted, or stored only in accord with that
 written license.
  
 The following legend is applicable only to US Government
 contracts under FAR:
  
                    RESTRICTED RIGHTS LEGEND
  
 Use, reproduction and disclosure by the US Government is
 subject to restrictions as set forth in subparagraphs (a)
 and (c) of the Commercial Computer Software - Restricted
 Rights clause in FAR 52.227-19.
  
 Gaussian, Inc.
 340 Quinnipiac St., Bldg. 40, Wallingford CT 06492
  
  
 ---------------------------------------------------------------
 Warning -- This program may not be used in any manner that
 competes with the business of Gaussian, Inc. or will provide
 assistance to any competitor of Gaussian, Inc.  The licensee
 of this program is prohibited from giving any competitor of
 Gaussian, Inc. access to this program.  By using this program,
 the user acknowledges that Gaussian, Inc. is engaged in the
 business of creating and licensing software in the field of
 computational chemistry and represents and warrants to the
 licensee that it is not a competitor of Gaussian, Inc. and that
 it will not use this program in any manner prohibited above.
 ---------------------------------------------------------------
  

 Cite this work as:
 Gaussian 16, Revision A.03,
 M. J. Frisch, G. W. Trucks, H. B. Schlegel, G. E. Scuseria, 
 M. A. Robb, J. R. Cheeseman, G. Scalmani, V. Barone, 
 G. A. Petersson, H. Nakatsuji, X. Li, M. Caricato, A. V. Marenich, 
 J. Bloino, B. G. Janesko, R. Gomperts, B. Mennucci, H. P. Hratchian, 
 J. V. Ortiz, A. F. Izmaylov, J. L. Sonnenberg, D. Williams-Young, 
 F. Ding, F. Lipparini, F. Egidi, J. Goings, B. Peng, A. Petrone, 
 T. Henderson, D. Ranasinghe, V. G. Zakrzewski, J. Gao, N. Rega, 
 G. Zheng, W. Liang, M. Hada, M. Ehara, K. Toyota, R. Fukuda, 
 J. Hasegawa, M. Ishida, T. Nakajima, Y. Honda, O. Kitao, H. Nakai, 
 T. Vreven, K. Throssell, J. A. Montgomery, Jr., J. E. Peralta, 
 F. Ogliaro, M. J. Bearpark, J. J. Heyd, E. N. Brothers, K. N. Kudin, 
 V. N. Staroverov, T. A. Keith, R. Kobayashi, J. Normand, 
 K. Raghavachari, A. P. Rendell, J. C. Burant, S. S. Iyengar, 
 J. Tomasi, M. Cossi, J. M. Millam, M. Klene, C. Adamo, R. Cammi, 
 J. W. Ochterski, R. L. Martin, K. Morokuma, O. Farkas, 
 J. B. Foresman, and D. J. Fox, Gaussian, Inc., Wallingford CT, 2016.
 
 ******************************************
 Gaussian 16:  AS64L-G16RevA.03 25-Dec-2016
                26-May-2019 
 ******************************************
 %mem=48GB
 %nprocshared=32
 Will use up to   32 processors via shared memory.
 ----------------------------------------------------------------------
 #p opt=(ts,noeigentest,calcfc,maxstep=1,modredundant,recalc=30) freq=n
 oraman b3lyp 6-31g* pop=none scrf=(solvent=tetrahydrofuran,pcm) empiri
 caldispersion=gd3bj
 ----------------------------------------------------------------------
 1/5=1,8=1,10=4,11=1,18=120,26=3,38=1,71=30/1,3;
 2/9=110,12=2,17=6,18=5,40=1/2;
 3/5=1,6=6,7=1,11=2,25=1,30=1,70=2201,71=2,72=20,74=-5,124=41,140=1/1,2,3;
 4//1;
 5/5=2,38=5,53=20/2;
 8/6=4,10=90,11=11/1;
 11/6=1,8=1,9=11,15=111,16=1/1,2,10;
 10/6=1,13=1/2;
 7/10=1,18=20,25=1/1,2,3,16;
 1/5=1,8=1,10=4,11=1,18=20,26=3,71=30/3(2);
 2/9=110/2;
 99//99;
 2/9=110/2;
 3/5=1,6=6,7=1,11=2,25=1,30=1,70=2205,71=1,72=20,74=-5,124=41/1,2,3;
 4/5=5,16=3,69=1/1;
 5/5=2,38=5,53=20/2;
 7//1,2,3,16;
 1/5=1,8=1,11=1,18=20,26=3,71=30/3(-5);
 2/9=110/2;
 99/9=1/99;
 Leave Link    1 at Sun May 26 01:13:15 2019, MaxMem=  6442450944 cpu:               5.4 elap:               0.2
 (Enter /home/ekwan/sw/g16/l101.exe)
 -----
 title
 -----
 Symbolic Z-matrix:
 Charge =  0 Multiplicity = 1
 C                     4.69502   0.11782   0.86217 
 C                     4.05637   1.49926   1.00349 
 C                     3.99276   2.19498  -0.36403 
 C                     3.79018   0.08198  -1.53269 
 C                     3.99053  -0.69019  -0.22605 
 H                     3.43027   3.13629  -0.31302 
 H                     3.02158   1.36804   1.35265 
 H                     5.75113   0.23517   0.588 
 H                     4.76443   0.19299  -2.02544 
 H                     3.00733  -0.98015   0.15734 
 O                     3.24568   1.39978  -1.27068 
 O                     5.29822   2.43666  -0.80358 
 O                     4.79601   2.24972   1.95243 
 O                     4.58141  -0.62398   2.07254 
 O                     4.76009  -1.85093  -0.52795 
 C                     2.7872   -0.61605  -2.47278 
 H                     3.22819  -1.61608  -2.67552 
 H                     2.85448  -0.06639  -3.44135 
 O                     1.50786  -0.66317  -1.97626 
 C                     4.06553   3.32067   2.52794 
 H                     3.8385    4.1095    1.79691 
 H                     3.12182   2.96749   2.96785 
 H                     4.69256   3.74553   3.31524 
 C                     5.7209   -0.55585   2.91689 
 H                     6.61909  -0.92369   2.39893 
 H                     5.90353   0.46534   3.26707 
 H                     5.5156   -1.20482   3.77264 
 C                     4.17966  -3.06764  -0.07856 
 H                     4.02191  -3.05462   1.0067 
 H                     3.22404  -3.27181  -0.57758 
 H                     4.88841  -3.8626   -0.32909 
 C                    -1.91287  -2.73162  -0.49973 
 C                    -0.843    -1.72053  -0.92262 
 C                     0.31233  -1.74569   0.02896 
 C                    -0.0545   -4.06631   0.5916 
 C                    -1.23483  -4.0971   -0.39024 
 H                     0.98627  -0.91421   0.10123 
 H                    -0.38544  -2.03772  -1.86977 
 H                    -2.31904  -2.44486   0.47627 
 H                    -0.44945  -4.05767   1.61059 
 H                    -0.87229  -4.3931   -1.38171 
 O                     0.76805  -2.85021   0.50439 
 O                     0.48346   1.10757   1.2134 
 O                    -1.32815  -0.40112  -1.05659 
 O                    -2.94921  -2.81622  -1.46267 
 O                    -2.10909  -5.07957   0.13551 
 C                     0.90193  -5.2266    0.42108 
 H                     0.35112  -6.15646   0.62524 
 H                     1.71757  -5.14022   1.1538 
 O                     1.40251  -5.20037  -0.89891 
 S                    -0.61865   0.4701    1.99464 
 O                    -0.62102   0.79077   3.43207 
 O                    -0.70606  -1.02164   1.73903 
 C                    -2.1453    1.11874   1.30158 
 C                    -3.34162   0.44924   1.55774 
 C                    -2.11292   2.23558   0.48153 
 C                    -4.51197   0.90483   0.9598 
 H                    -3.35068  -0.43614   2.18109 
 C                    -3.29628   2.67972  -0.11354 
 H                    -1.17478   2.72627   0.25815 
 C                    -4.49867   2.02086   0.11601 
 H                    -5.40989   2.35792  -0.36365 
 C                    -1.60364  -0.02868  -2.41416 
 H                    -0.67811  -0.07234  -2.99929 
 H                    -2.35701  -0.6884   -2.85442 
 H                    -1.98788   0.9922   -2.37516 
 C                    -4.13016  -2.10422  -1.10671 
 H                    -4.50276  -2.42169  -0.12441 
 H                    -3.95908  -1.02326  -1.08861 
 H                    -4.87833  -2.33908  -1.86685 
 C                    -2.71088  -5.91424  -0.8512 
 H                    -3.32469  -5.32965  -1.54298 
 H                    -1.94768  -6.46509  -1.4183 
 H                    -3.33878  -6.62601  -0.31049 
 C                     2.33126  -6.24288  -1.14804 
 H                     2.65962  -6.13586  -2.18367 
 H                     3.20309  -6.1677   -0.48243 
 H                     1.86753  -7.23077  -1.01236 
 C                     5.35472   3.20241  -2.0021 
 H                     6.40779   3.42434  -2.18513 
 H                     4.94462   2.64704  -2.85336 
 H                     4.79807   4.14419  -1.89009 
 Na                    0.91555   1.28639  -1.06089 
 O                     0.66647   3.59842  -0.83073 
 C                     0.87769   4.33414   0.37179 
 H                     0.03148   5.0066    0.56349 
 H                     0.96081   3.60284   1.17661 
 H                     1.79992   4.92708   0.30689 
 C                     0.56705   4.44025  -1.97507 
 H                     1.49231   5.01488  -2.11397 
 H                     0.4099    3.7911   -2.83874 
 H                    -0.28009   5.12856  -1.87811 
 C                    -5.81221   0.17811   1.16627 
 F                    -5.65883  -0.9542    1.88382 
 F                    -6.36484  -0.17312  -0.02196 
 F                    -6.72208   0.94497   1.80421 
 C                    -3.20989   3.82963  -1.07568 
 F                    -2.5332    3.4724   -2.20146 
 F                    -2.5333    4.8765   -0.54613 
 F                    -4.41731   4.27745  -1.46331 
 
 Add virtual bond connecting atoms H37        and H10        Dist= 3.82D+00.
 Add virtual bond connecting atoms H37        and O19        Dist= 4.08D+00.
 Add virtual bond connecting atoms O53        and C34        Dist= 4.00D+00.
 Add virtual bond connecting atoms O84        and H60        Dist= 4.37D+00.
 Add virtual bond connecting atoms O84        and Na83       Dist= 4.42D+00.
 The following ModRedundant input section has been read:
 
 ITRead=  0  0  0  0  0  0  0  0  0  0  0  0  0  0  0  0  0  0  0  0
 ITRead=  0  0  0  0  0  0  0  0  0  0  0  0  0  0  0  0  0  0  0  0
 ITRead=  0  0  0  0  0  0  0  0  0  0  0  0  0  0  0  0  0  0  0  0
 ITRead=  0  0  0  0  0  0  0  0  0  0  0  0  0  0  0  0  0  0  0  0
 ITRead=  0  0  0  0  0  0  0  0  0  0  0  0  0  0  0  0  0  0  0  0
 MicOpt= -1 -1 -1 -1 -1 -1 -1 -1 -1 -1 -1 -1 -1 -1 -1 -1 -1 -1 -1 -1
 MicOpt= -1 -1 -1 -1 -1 -1 -1 -1 -1 -1 -1 -1 -1 -1 -1 -1 -1 -1 -1 -1
 MicOpt= -1 -1 -1 -1 -1 -1 -1 -1 -1 -1 -1 -1 -1 -1 -1 -1 -1 -1 -1 -1
 MicOpt= -1 -1 -1 -1 -1 -1 -1 -1 -1 -1 -1 -1 -1 -1 -1 -1 -1 -1 -1 -1
 MicOpt= -1 -1 -1 -1 -1 -1 -1 -1 -1 -1 -1 -1 -1 -1 -1 -1 -1 -1 -1 -1
 NAtoms=    100 NQM=      100 NQMF=       0 NMMI=      0 NMMIF=      0
                NMic=       0 NMicF=      0.
                    Isotopes and Nuclear Properties:
 (Nuclear quadrupole moments (NQMom) in fm**2, nuclear magnetic moments (NMagM)
  in nuclear magnetons)

  Atom         1           2           3           4           5           6           7           8           9          10
 IAtWgt=          12          12          12          12          12           1           1           1           1           1
 AtmWgt=  12.0000000  12.0000000  12.0000000  12.0000000  12.0000000   1.0078250   1.0078250   1.0078250   1.0078250   1.0078250
 NucSpn=           0           0           0           0           0           1           1           1           1           1
 AtZEff=   0.0000000   0.0000000   0.0000000   0.0000000   0.0000000   0.0000000   0.0000000   0.0000000   0.0000000   0.0000000
 NQMom=    0.0000000   0.0000000   0.0000000   0.0000000   0.0000000   0.0000000   0.0000000   0.0000000   0.0000000   0.0000000
 NMagM=    0.0000000   0.0000000   0.0000000   0.0000000   0.0000000   2.7928460   2.7928460   2.7928460   2.7928460   2.7928460
 AtZNuc=   6.0000000   6.0000000   6.0000000   6.0000000   6.0000000   1.0000000   1.0000000   1.0000000   1.0000000   1.0000000

  Atom        11          12          13          14          15          16          17          18          19          20
 IAtWgt=          16          16          16          16          16          12           1           1          16          12
 AtmWgt=  15.9949146  15.9949146  15.9949146  15.9949146  15.9949146  12.0000000   1.0078250   1.0078250  15.9949146  12.0000000
 NucSpn=           0           0           0           0           0           0           1           1           0           0
 AtZEff=   0.0000000   0.0000000   0.0000000   0.0000000   0.0000000   0.0000000   0.0000000   0.0000000   0.0000000   0.0000000
 NQMom=    0.0000000   0.0000000   0.0000000   0.0000000   0.0000000   0.0000000   0.0000000   0.0000000   0.0000000   0.0000000
 NMagM=    0.0000000   0.0000000   0.0000000   0.0000000   0.0000000   0.0000000   2.7928460   2.7928460   0.0000000   0.0000000
 AtZNuc=   8.0000000   8.0000000   8.0000000   8.0000000   8.0000000   6.0000000   1.0000000   1.0000000   8.0000000   6.0000000

  Atom        21          22          23          24          25          26          27          28          29          30
 IAtWgt=           1           1           1          12           1           1           1          12           1           1
 AtmWgt=   1.0078250   1.0078250   1.0078250  12.0000000   1.0078250   1.0078250   1.0078250  12.0000000   1.0078250   1.0078250
 NucSpn=           1           1           1           0           1           1           1           0           1           1
 AtZEff=   0.0000000   0.0000000   0.0000000   0.0000000   0.0000000   0.0000000   0.0000000   0.0000000   0.0000000   0.0000000
 NQMom=    0.0000000   0.0000000   0.0000000   0.0000000   0.0000000   0.0000000   0.0000000   0.0000000   0.0000000   0.0000000
 NMagM=    2.7928460   2.7928460   2.7928460   0.0000000   2.7928460   2.7928460   2.7928460   0.0000000   2.7928460   2.7928460
 AtZNuc=   1.0000000   1.0000000   1.0000000   6.0000000   1.0000000   1.0000000   1.0000000   6.0000000   1.0000000   1.0000000

  Atom        31          32          33          34          35          36          37          38          39          40
 IAtWgt=           1          12          12          12          12          12           1           1           1           1
 AtmWgt=   1.0078250  12.0000000  12.0000000  12.0000000  12.0000000  12.0000000   1.0078250   1.0078250   1.0078250   1.0078250
 NucSpn=           1           0           0           0           0           0           1           1           1           1
 AtZEff=   0.0000000   0.0000000   0.0000000   0.0000000   0.0000000   0.0000000   0.0000000   0.0000000   0.0000000   0.0000000
 NQMom=    0.0000000   0.0000000   0.0000000   0.0000000   0.0000000   0.0000000   0.0000000   0.0000000   0.0000000   0.0000000
 NMagM=    2.7928460   0.0000000   0.0000000   0.0000000   0.0000000   0.0000000   2.7928460   2.7928460   2.7928460   2.7928460
 AtZNuc=   1.0000000   6.0000000   6.0000000   6.0000000   6.0000000   6.0000000   1.0000000   1.0000000   1.0000000   1.0000000

  Atom        41          42          43          44          45          46          47          48          49          50
 IAtWgt=           1          16          16          16          16          16          12           1           1          16
 AtmWgt=   1.0078250  15.9949146  15.9949146  15.9949146  15.9949146  15.9949146  12.0000000   1.0078250   1.0078250  15.9949146
 NucSpn=           1           0           0           0           0           0           0           1           1           0
 AtZEff=   0.0000000   0.0000000   0.0000000   0.0000000   0.0000000   0.0000000   0.0000000   0.0000000   0.0000000   0.0000000
 NQMom=    0.0000000   0.0000000   0.0000000   0.0000000   0.0000000   0.0000000   0.0000000   0.0000000   0.0000000   0.0000000
 NMagM=    2.7928460   0.0000000   0.0000000   0.0000000   0.0000000   0.0000000   0.0000000   2.7928460   2.7928460   0.0000000
 AtZNuc=   1.0000000   8.0000000   8.0000000   8.0000000   8.0000000   8.0000000   6.0000000   1.0000000   1.0000000   8.0000000

  Atom        51          52          53          54          55          56          57          58          59          60
 IAtWgt=          32          16          16          12          12          12          12           1          12           1
 AtmWgt=  31.9720718  15.9949146  15.9949146  12.0000000  12.0000000  12.0000000  12.0000000   1.0078250  12.0000000   1.0078250
 NucSpn=           0           0           0           0           0           0           0           1           0           1
 AtZEff=   0.0000000   0.0000000   0.0000000   0.0000000   0.0000000   0.0000000   0.0000000   0.0000000   0.0000000   0.0000000
 NQMom=    0.0000000   0.0000000   0.0000000   0.0000000   0.0000000   0.0000000   0.0000000   0.0000000   0.0000000   0.0000000
 NMagM=    0.0000000   0.0000000   0.0000000   0.0000000   0.0000000   0.0000000   0.0000000   2.7928460   0.0000000   2.7928460
 AtZNuc=  16.0000000   8.0000000   8.0000000   6.0000000   6.0000000   6.0000000   6.0000000   1.0000000   6.0000000   1.0000000

  Atom        61          62          63          64          65          66          67          68          69          70
 IAtWgt=          12           1          12           1           1           1          12           1           1           1
 AtmWgt=  12.0000000   1.0078250  12.0000000   1.0078250   1.0078250   1.0078250  12.0000000   1.0078250   1.0078250   1.0078250
 NucSpn=           0           1           0           1           1           1           0           1           1           1
 AtZEff=   0.0000000   0.0000000   0.0000000   0.0000000   0.0000000   0.0000000   0.0000000   0.0000000   0.0000000   0.0000000
 NQMom=    0.0000000   0.0000000   0.0000000   0.0000000   0.0000000   0.0000000   0.0000000   0.0000000   0.0000000   0.0000000
 NMagM=    0.0000000   2.7928460   0.0000000   2.7928460   2.7928460   2.7928460   0.0000000   2.7928460   2.7928460   2.7928460
 AtZNuc=   6.0000000   1.0000000   6.0000000   1.0000000   1.0000000   1.0000000   6.0000000   1.0000000   1.0000000   1.0000000

  Atom        71          72          73          74          75          76          77          78          79          80
 IAtWgt=          12           1           1           1          12           1           1           1          12           1
 AtmWgt=  12.0000000   1.0078250   1.0078250   1.0078250  12.0000000   1.0078250   1.0078250   1.0078250  12.0000000   1.0078250
 NucSpn=           0           1           1           1           0           1           1           1           0           1
 AtZEff=   0.0000000   0.0000000   0.0000000   0.0000000   0.0000000   0.0000000   0.0000000   0.0000000   0.0000000   0.0000000
 NQMom=    0.0000000   0.0000000   0.0000000   0.0000000   0.0000000   0.0000000   0.0000000   0.0000000   0.0000000   0.0000000
 NMagM=    0.0000000   2.7928460   2.7928460   2.7928460   0.0000000   2.7928460   2.7928460   2.7928460   0.0000000   2.7928460
 AtZNuc=   6.0000000   1.0000000   1.0000000   1.0000000   6.0000000   1.0000000   1.0000000   1.0000000   6.0000000   1.0000000

  Atom        81          82          83          84          85          86          87          88          89          90
 IAtWgt=           1           1          23          16          12           1           1           1          12           1
 AtmWgt=   1.0078250   1.0078250  22.9897697  15.9949146  12.0000000   1.0078250   1.0078250   1.0078250  12.0000000   1.0078250
 NucSpn=           1           1           3           0           0           1           1           1           0           1
 AtZEff=   0.0000000   0.0000000   0.0000000   0.0000000   0.0000000   0.0000000   0.0000000   0.0000000   0.0000000   0.0000000
 NQMom=    0.0000000   0.0000000  10.4000000   0.0000000   0.0000000   0.0000000   0.0000000   0.0000000   0.0000000   0.0000000
 NMagM=    2.7928460   2.7928460   2.2175200   0.0000000   0.0000000   2.7928460   2.7928460   2.7928460   0.0000000   2.7928460
 AtZNuc=   1.0000000   1.0000000  11.0000000   8.0000000   6.0000000   1.0000000   1.0000000   1.0000000   6.0000000   1.0000000

  Atom        91          92          93          94          95          96          97          98          99         100
 IAtWgt=           1           1          12          19          19          19          12          19          19          19
 AtmWgt=   1.0078250   1.0078250  12.0000000  18.9984033  18.9984033  18.9984033  12.0000000  18.9984033  18.9984033  18.9984033
 NucSpn=           1           1           0           1           1           1           0           1           1           1
 AtZEff=   0.0000000   0.0000000   0.0000000   0.0000000   0.0000000   0.0000000   0.0000000   0.0000000   0.0000000   0.0000000
 NQMom=    0.0000000   0.0000000   0.0000000   0.0000000   0.0000000   0.0000000   0.0000000   0.0000000   0.0000000   0.0000000
 NMagM=    2.7928460   2.7928460   0.0000000   2.6288670   2.6288670   2.6288670   0.0000000   2.6288670   2.6288670   2.6288670
 AtZNuc=   1.0000000   1.0000000   6.0000000   9.0000000   9.0000000   9.0000000   6.0000000   9.0000000   9.0000000   9.0000000
 Leave Link  101 at Sun May 26 01:13:15 2019, MaxMem=  6442450944 cpu:              18.2 elap:               0.7
 (Enter /home/ekwan/sw/g16/l103.exe)

 GradGradGradGradGradGradGradGradGradGradGradGradGradGradGradGradGradGrad
 Berny optimization.
 Initialization pass.
                           ----------------------------
                           !    Initial Parameters    !
                           ! (Angstroms and Degrees)  !
 --------------------------                            --------------------------
 ! Name  Definition              Value          Derivative Info.                !
 --------------------------------------------------------------------------------
 ! R1    R(1,2)                  1.5285         calculate D2E/DX2 analytically  !
 ! R2    R(1,5)                  1.5276         calculate D2E/DX2 analytically  !
 ! R3    R(1,8)                  1.0974         calculate D2E/DX2 analytically  !
 ! R4    R(1,14)                 1.4241         calculate D2E/DX2 analytically  !
 ! R5    R(2,3)                  1.5356         calculate D2E/DX2 analytically  !
 ! R6    R(2,7)                  1.1            calculate D2E/DX2 analytically  !
 ! R7    R(2,13)                 1.418          calculate D2E/DX2 analytically  !
 ! R8    R(3,6)                  1.0978         calculate D2E/DX2 analytically  !
 ! R9    R(3,11)                 1.4186         calculate D2E/DX2 analytically  !
 ! R10   R(3,12)                 1.3985         calculate D2E/DX2 analytically  !
 ! R11   R(4,5)                  1.5309         calculate D2E/DX2 analytically  !
 ! R12   R(4,9)                  1.0974         calculate D2E/DX2 analytically  !
 ! R13   R(4,11)                 1.4497         calculate D2E/DX2 analytically  !
 ! R14   R(4,16)                 1.5417         calculate D2E/DX2 analytically  !
 ! R15   R(5,10)                 1.0944         calculate D2E/DX2 analytically  !
 ! R16   R(5,15)                 1.425          calculate D2E/DX2 analytically  !
 ! R17   R(10,37)                2.0229         calculate D2E/DX2 analytically  !
 ! R18   R(12,79)                1.4234         calculate D2E/DX2 analytically  !
 ! R19   R(13,20)                1.4184         calculate D2E/DX2 analytically  !
 ! R20   R(14,24)                1.4199         calculate D2E/DX2 analytically  !
 ! R21   R(15,28)                1.421          calculate D2E/DX2 analytically  !
 ! R22   R(16,17)                1.1116         calculate D2E/DX2 analytically  !
 ! R23   R(16,18)                1.1157         calculate D2E/DX2 analytically  !
 ! R24   R(16,19)                1.3731         calculate D2E/DX2 analytically  !
 ! R25   R(19,37)                2.1566         calculate D2E/DX2 analytically  !
 ! R26   R(19,83)                2.2337         calculate D2E/DX2 analytically  !
 ! R27   R(20,21)                1.0992         calculate D2E/DX2 analytically  !
 ! R28   R(20,22)                1.0995         calculate D2E/DX2 analytically  !
 ! R29   R(20,23)                1.0925         calculate D2E/DX2 analytically  !
 ! R30   R(24,25)                1.1001         calculate D2E/DX2 analytically  !
 ! R31   R(24,26)                1.0949         calculate D2E/DX2 analytically  !
 ! R32   R(24,27)                1.0934         calculate D2E/DX2 analytically  !
 ! R33   R(28,29)                1.0967         calculate D2E/DX2 analytically  !
 ! R34   R(28,30)                1.0972         calculate D2E/DX2 analytically  !
 ! R35   R(28,31)                1.0941         calculate D2E/DX2 analytically  !
 ! R36   R(32,33)                1.5316         calculate D2E/DX2 analytically  !
 ! R37   R(32,36)                1.5285         calculate D2E/DX2 analytically  !
 ! R38   R(32,39)                1.0953         calculate D2E/DX2 analytically  !
 ! R39   R(32,45)                1.4172         calculate D2E/DX2 analytically  !
 ! R40   R(33,34)                1.497          calculate D2E/DX2 analytically  !
 ! R41   R(33,38)                1.0987         calculate D2E/DX2 analytically  !
 ! R42   R(33,44)                1.4122         calculate D2E/DX2 analytically  !
 ! R43   R(34,37)                1.0727         calculate D2E/DX2 analytically  !
 ! R44   R(34,42)                1.286          calculate D2E/DX2 analytically  !
 ! R45   R(34,53)                2.118          calculate D2E/DX2 analytically  !
 ! R46   R(35,36)                1.5356         calculate D2E/DX2 analytically  !
 ! R47   R(35,40)                1.0929         calculate D2E/DX2 analytically  !
 ! R48   R(35,42)                1.4707         calculate D2E/DX2 analytically  !
 ! R49   R(35,47)                1.5133         calculate D2E/DX2 analytically  !
 ! R50   R(36,41)                1.0964         calculate D2E/DX2 analytically  !
 ! R51   R(36,46)                1.4163         calculate D2E/DX2 analytically  !
 ! R52   R(43,51)                1.4938         calculate D2E/DX2 analytically  !
 ! R53   R(44,63)                1.4344         calculate D2E/DX2 analytically  !
 ! R54   R(45,67)                1.4242         calculate D2E/DX2 analytically  !
 ! R55   R(46,71)                1.4256         calculate D2E/DX2 analytically  !
 ! R56   R(47,48)                1.0999         calculate D2E/DX2 analytically  !
 ! R57   R(47,49)                1.0998         calculate D2E/DX2 analytically  !
 ! R58   R(47,50)                1.412          calculate D2E/DX2 analytically  !
 ! R59   R(50,75)                1.4183         calculate D2E/DX2 analytically  !
 ! R60   R(51,52)                1.4728         calculate D2E/DX2 analytically  !
 ! R61   R(51,53)                1.516          calculate D2E/DX2 analytically  !
 ! R62   R(51,54)                1.7977         calculate D2E/DX2 analytically  !
 ! R63   R(54,55)                1.3947         calculate D2E/DX2 analytically  !
 ! R64   R(54,56)                1.3859         calculate D2E/DX2 analytically  !
 ! R65   R(55,57)                1.391          calculate D2E/DX2 analytically  !
 ! R66   R(55,58)                1.0828         calculate D2E/DX2 analytically  !
 ! R67   R(56,59)                1.397          calculate D2E/DX2 analytically  !
 ! R68   R(56,60)                1.082          calculate D2E/DX2 analytically  !
 ! R69   R(57,61)                1.3992         calculate D2E/DX2 analytically  !
 ! R70   R(57,93)                1.5038         calculate D2E/DX2 analytically  !
 ! R71   R(59,61)                1.3902         calculate D2E/DX2 analytically  !
 ! R72   R(59,97)                1.5018         calculate D2E/DX2 analytically  !
 ! R73   R(60,84)                2.3101         calculate D2E/DX2 analytically  !
 ! R74   R(61,62)                1.0835         calculate D2E/DX2 analytically  !
 ! R75   R(63,64)                1.0959         calculate D2E/DX2 analytically  !
 ! R76   R(63,65)                1.0939         calculate D2E/DX2 analytically  !
 ! R77   R(63,66)                1.0915         calculate D2E/DX2 analytically  !
 ! R78   R(67,68)                1.0975         calculate D2E/DX2 analytically  !
 ! R79   R(67,69)                1.0946         calculate D2E/DX2 analytically  !
 ! R80   R(67,70)                1.0921         calculate D2E/DX2 analytically  !
 ! R81   R(71,72)                1.0941         calculate D2E/DX2 analytically  !
 ! R82   R(71,73)                1.0989         calculate D2E/DX2 analytically  !
 ! R83   R(71,74)                1.0924         calculate D2E/DX2 analytically  !
 ! R84   R(75,76)                1.0917         calculate D2E/DX2 analytically  !
 ! R85   R(75,77)                1.0995         calculate D2E/DX2 analytically  !
 ! R86   R(75,78)                1.0997         calculate D2E/DX2 analytically  !
 ! R87   R(79,80)                1.0916         calculate D2E/DX2 analytically  !
 ! R88   R(79,81)                1.096          calculate D2E/DX2 analytically  !
 ! R89   R(79,82)                1.0997         calculate D2E/DX2 analytically  !
 ! R90   R(83,84)                2.3368         calculate D2E/DX2 analytically  !
 ! R91   R(84,85)                1.4255         calculate D2E/DX2 analytically  !
 ! R92   R(84,89)                1.4241         calculate D2E/DX2 analytically  !
 ! R93   R(85,86)                1.0977         calculate D2E/DX2 analytically  !
 ! R94   R(85,87)                1.0906         calculate D2E/DX2 analytically  !
 ! R95   R(85,88)                1.0983         calculate D2E/DX2 analytically  !
 ! R96   R(89,90)                1.098          calculate D2E/DX2 analytically  !
 ! R97   R(89,91)                1.0918         calculate D2E/DX2 analytically  !
 ! R98   R(89,92)                1.0958         calculate D2E/DX2 analytically  !
 ! R99   R(93,94)                1.3493         calculate D2E/DX2 analytically  !
 ! R100  R(93,95)                1.3567         calculate D2E/DX2 analytically  !
 ! R101  R(93,96)                1.3502         calculate D2E/DX2 analytically  !
 ! R102  R(97,98)                1.3612         calculate D2E/DX2 analytically  !
 ! R103  R(97,99)                1.3543         calculate D2E/DX2 analytically  !
 ! R104  R(97,100)               1.3449         calculate D2E/DX2 analytically  !
 ! A1    A(2,1,5)              110.5631         calculate D2E/DX2 analytically  !
 ! A2    A(2,1,8)              109.182          calculate D2E/DX2 analytically  !
 ! A3    A(2,1,14)             111.03           calculate D2E/DX2 analytically  !
 ! A4    A(5,1,8)              108.8088         calculate D2E/DX2 analytically  !
 ! A5    A(5,1,14)             107.0463         calculate D2E/DX2 analytically  !
 ! A6    A(8,1,14)             110.1702         calculate D2E/DX2 analytically  !
 ! A7    A(1,2,3)              110.1476         calculate D2E/DX2 analytically  !
 ! A8    A(1,2,7)              108.3377         calculate D2E/DX2 analytically  !
 ! A9    A(1,2,13)             108.7992         calculate D2E/DX2 analytically  !
 ! A10   A(3,2,7)              107.3226         calculate D2E/DX2 analytically  !
 ! A11   A(3,2,13)             112.196          calculate D2E/DX2 analytically  !
 ! A12   A(7,2,13)             109.9627         calculate D2E/DX2 analytically  !
 ! A13   A(2,3,6)              111.6122         calculate D2E/DX2 analytically  !
 ! A14   A(2,3,11)             109.6941         calculate D2E/DX2 analytically  !
 ! A15   A(2,3,12)             108.6335         calculate D2E/DX2 analytically  !
 ! A16   A(6,3,11)             103.9171         calculate D2E/DX2 analytically  !
 ! A17   A(6,3,12)             110.1652         calculate D2E/DX2 analytically  !
 ! A18   A(11,3,12)            112.8045         calculate D2E/DX2 analytically  !
 ! A19   A(5,4,9)              108.5464         calculate D2E/DX2 analytically  !
 ! A20   A(5,4,11)             110.6948         calculate D2E/DX2 analytically  !
 ! A21   A(5,4,16)             112.1608         calculate D2E/DX2 analytically  !
 ! A22   A(9,4,11)             108.8222         calculate D2E/DX2 analytically  !
 ! A23   A(9,4,16)             110.4596         calculate D2E/DX2 analytically  !
 ! A24   A(11,4,16)            106.1062         calculate D2E/DX2 analytically  !
 ! A25   A(1,5,4)              113.6774         calculate D2E/DX2 analytically  !
 ! A26   A(1,5,10)             107.7529         calculate D2E/DX2 analytically  !
 ! A27   A(1,5,15)             109.4345         calculate D2E/DX2 analytically  !
 ! A28   A(4,5,10)             108.3637         calculate D2E/DX2 analytically  !
 ! A29   A(4,5,15)             107.4994         calculate D2E/DX2 analytically  !
 ! A30   A(10,5,15)            110.0944         calculate D2E/DX2 analytically  !
 ! A31   A(5,10,37)            151.5468         calculate D2E/DX2 analytically  !
 ! A32   A(3,11,4)             115.2928         calculate D2E/DX2 analytically  !
 ! A33   A(3,12,79)            113.245          calculate D2E/DX2 analytically  !
 ! A34   A(2,13,20)            113.735          calculate D2E/DX2 analytically  !
 ! A35   A(1,14,24)            114.6067         calculate D2E/DX2 analytically  !
 ! A36   A(5,15,28)            114.1955         calculate D2E/DX2 analytically  !
 ! A37   A(4,16,17)            105.0962         calculate D2E/DX2 analytically  !
 ! A38   A(4,16,18)            105.4897         calculate D2E/DX2 analytically  !
 ! A39   A(4,16,19)            113.651          calculate D2E/DX2 analytically  !
 ! A40   A(17,16,18)           105.127          calculate D2E/DX2 analytically  !
 ! A41   A(17,16,19)           113.8724         calculate D2E/DX2 analytically  !
 ! A42   A(18,16,19)           112.7684         calculate D2E/DX2 analytically  !
 ! A43   A(16,19,37)           125.2862         calculate D2E/DX2 analytically  !
 ! A44   A(16,19,83)           111.4252         calculate D2E/DX2 analytically  !
 ! A45   A(37,19,83)            69.0658         calculate D2E/DX2 analytically  !
 ! A46   A(13,20,21)           112.2341         calculate D2E/DX2 analytically  !
 ! A47   A(13,20,22)           111.2144         calculate D2E/DX2 analytically  !
 ! A48   A(13,20,23)           106.8855         calculate D2E/DX2 analytically  !
 ! A49   A(21,20,22)           108.6236         calculate D2E/DX2 analytically  !
 ! A50   A(21,20,23)           108.5859         calculate D2E/DX2 analytically  !
 ! A51   A(22,20,23)           109.2215         calculate D2E/DX2 analytically  !
 ! A52   A(14,24,25)           111.0509         calculate D2E/DX2 analytically  !
 ! A53   A(14,24,26)           111.642          calculate D2E/DX2 analytically  !
 ! A54   A(14,24,27)           106.6328         calculate D2E/DX2 analytically  !
 ! A55   A(25,24,26)           109.0411         calculate D2E/DX2 analytically  !
 ! A56   A(25,24,27)           108.8637         calculate D2E/DX2 analytically  !
 ! A57   A(26,24,27)           109.5454         calculate D2E/DX2 analytically  !
 ! A58   A(15,28,29)           111.194          calculate D2E/DX2 analytically  !
 ! A59   A(15,28,30)           111.7925         calculate D2E/DX2 analytically  !
 ! A60   A(15,28,31)           106.5657         calculate D2E/DX2 analytically  !
 ! A61   A(29,28,30)           109.085          calculate D2E/DX2 analytically  !
 ! A62   A(29,28,31)           109.1712         calculate D2E/DX2 analytically  !
 ! A63   A(30,28,31)           108.956          calculate D2E/DX2 analytically  !
 ! A64   A(33,32,36)           107.4374         calculate D2E/DX2 analytically  !
 ! A65   A(33,32,39)           109.4041         calculate D2E/DX2 analytically  !
 ! A66   A(33,32,45)           111.2608         calculate D2E/DX2 analytically  !
 ! A67   A(36,32,39)           109.5451         calculate D2E/DX2 analytically  !
 ! A68   A(36,32,45)           108.6465         calculate D2E/DX2 analytically  !
 ! A69   A(39,32,45)           110.4816         calculate D2E/DX2 analytically  !
 ! A70   A(32,33,34)           110.6407         calculate D2E/DX2 analytically  !
 ! A71   A(32,33,38)           109.7776         calculate D2E/DX2 analytically  !
 ! A72   A(32,33,44)           113.767          calculate D2E/DX2 analytically  !
 ! A73   A(34,33,38)           102.8103         calculate D2E/DX2 analytically  !
 ! A74   A(34,33,44)           109.9473         calculate D2E/DX2 analytically  !
 ! A75   A(38,33,44)           109.3314         calculate D2E/DX2 analytically  !
 ! A76   A(33,34,37)           120.9749         calculate D2E/DX2 analytically  !
 ! A77   A(33,34,42)           121.5305         calculate D2E/DX2 analytically  !
 ! A78   A(33,34,53)            97.8397         calculate D2E/DX2 analytically  !
 ! A79   A(37,34,42)           114.7209         calculate D2E/DX2 analytically  !
 ! A80   A(37,34,53)            89.0088         calculate D2E/DX2 analytically  !
 ! A81   A(42,34,53)            99.5272         calculate D2E/DX2 analytically  !
 ! A82   A(36,35,40)           108.5742         calculate D2E/DX2 analytically  !
 ! A83   A(36,35,42)           114.1137         calculate D2E/DX2 analytically  !
 ! A84   A(36,35,47)           113.4764         calculate D2E/DX2 analytically  !
 ! A85   A(40,35,42)           104.5282         calculate D2E/DX2 analytically  !
 ! A86   A(40,35,47)           109.8476         calculate D2E/DX2 analytically  !
 ! A87   A(42,35,47)           105.8916         calculate D2E/DX2 analytically  !
 ! A88   A(32,36,35)           111.6449         calculate D2E/DX2 analytically  !
 ! A89   A(32,36,41)           108.8502         calculate D2E/DX2 analytically  !
 ! A90   A(32,36,46)           111.8679         calculate D2E/DX2 analytically  !
 ! A91   A(35,36,41)           109.2346         calculate D2E/DX2 analytically  !
 ! A92   A(35,36,46)           104.5383         calculate D2E/DX2 analytically  !
 ! A93   A(41,36,46)           110.6416         calculate D2E/DX2 analytically  !
 ! A94   A(10,37,19)            77.812          calculate D2E/DX2 analytically  !
 ! A95   A(10,37,34)           127.1756         calculate D2E/DX2 analytically  !
 ! A96   A(19,37,34)           100.2102         calculate D2E/DX2 analytically  !
 ! A97   A(34,42,35)           122.2708         calculate D2E/DX2 analytically  !
 ! A98   A(33,44,63)           113.4759         calculate D2E/DX2 analytically  !
 ! A99   A(32,45,67)           113.9978         calculate D2E/DX2 analytically  !
 ! A100  A(36,46,71)           114.1907         calculate D2E/DX2 analytically  !
 ! A101  A(35,47,48)           108.1063         calculate D2E/DX2 analytically  !
 ! A102  A(35,47,49)           109.4765         calculate D2E/DX2 analytically  !
 ! A103  A(35,47,50)           108.3707         calculate D2E/DX2 analytically  !
 ! A104  A(48,47,49)           108.3084         calculate D2E/DX2 analytically  !
 ! A105  A(48,47,50)           111.5169         calculate D2E/DX2 analytically  !
 ! A106  A(49,47,50)           111.0048         calculate D2E/DX2 analytically  !
 ! A107  A(47,50,75)           112.5028         calculate D2E/DX2 analytically  !
 ! A108  A(43,51,52)           114.7537         calculate D2E/DX2 analytically  !
 ! A109  A(43,51,53)           111.9801         calculate D2E/DX2 analytically  !
 ! A110  A(43,51,54)           105.7207         calculate D2E/DX2 analytically  !
 ! A111  A(52,51,53)           112.2543         calculate D2E/DX2 analytically  !
 ! A112  A(52,51,54)           107.2383         calculate D2E/DX2 analytically  !
 ! A113  A(53,51,54)           103.95           calculate D2E/DX2 analytically  !
 ! A114  A(34,53,51)           116.4107         calculate D2E/DX2 analytically  !
 ! A115  A(51,54,55)           118.9756         calculate D2E/DX2 analytically  !
 ! A116  A(51,54,56)           119.9357         calculate D2E/DX2 analytically  !
 ! A117  A(55,54,56)           121.0348         calculate D2E/DX2 analytically  !
 ! A118  A(54,55,57)           119.0483         calculate D2E/DX2 analytically  !
 ! A119  A(54,55,58)           120.359          calculate D2E/DX2 analytically  !
 ! A120  A(57,55,58)           120.5464         calculate D2E/DX2 analytically  !
 ! A121  A(54,56,59)           119.237          calculate D2E/DX2 analytically  !
 ! A122  A(54,56,60)           120.5205         calculate D2E/DX2 analytically  !
 ! A123  A(59,56,60)           120.1524         calculate D2E/DX2 analytically  !
 ! A124  A(55,57,61)           120.8303         calculate D2E/DX2 analytically  !
 ! A125  A(55,57,93)           120.6768         calculate D2E/DX2 analytically  !
 ! A126  A(61,57,93)           118.4559         calculate D2E/DX2 analytically  !
 ! A127  A(56,59,61)           120.7725         calculate D2E/DX2 analytically  !
 ! A128  A(56,59,97)           117.8773         calculate D2E/DX2 analytically  !
 ! A129  A(61,59,97)           121.2271         calculate D2E/DX2 analytically  !
 ! A130  A(56,60,84)           163.6536         calculate D2E/DX2 analytically  !
 ! A131  A(57,61,59)           119.0677         calculate D2E/DX2 analytically  !
 ! A132  A(57,61,62)           120.471          calculate D2E/DX2 analytically  !
 ! A133  A(59,61,62)           120.4549         calculate D2E/DX2 analytically  !
 ! A134  A(44,63,64)           109.4379         calculate D2E/DX2 analytically  !
 ! A135  A(44,63,65)           110.8898         calculate D2E/DX2 analytically  !
 ! A136  A(44,63,66)           106.0595         calculate D2E/DX2 analytically  !
 ! A137  A(64,63,65)           110.0441         calculate D2E/DX2 analytically  !
 ! A138  A(64,63,66)           110.7115         calculate D2E/DX2 analytically  !
 ! A139  A(65,63,66)           109.634          calculate D2E/DX2 analytically  !
 ! A140  A(45,67,68)           111.1371         calculate D2E/DX2 analytically  !
 ! A141  A(45,67,69)           111.6078         calculate D2E/DX2 analytically  !
 ! A142  A(45,67,70)           106.6537         calculate D2E/DX2 analytically  !
 ! A143  A(68,67,69)           108.901          calculate D2E/DX2 analytically  !
 ! A144  A(68,67,70)           109.1577         calculate D2E/DX2 analytically  !
 ! A145  A(69,67,70)           109.3275         calculate D2E/DX2 analytically  !
 ! A146  A(46,71,72)           111.1987         calculate D2E/DX2 analytically  !
 ! A147  A(46,71,73)           110.9469         calculate D2E/DX2 analytically  !
 ! A148  A(46,71,74)           106.3515         calculate D2E/DX2 analytically  !
 ! A149  A(72,71,73)           109.3403         calculate D2E/DX2 analytically  !
 ! A150  A(72,71,74)           109.7945         calculate D2E/DX2 analytically  !
 ! A151  A(73,71,74)           109.1508         calculate D2E/DX2 analytically  !
 ! A152  A(50,75,76)           106.951          calculate D2E/DX2 analytically  !
 ! A153  A(50,75,77)           111.2643         calculate D2E/DX2 analytically  !
 ! A154  A(50,75,78)           111.2545         calculate D2E/DX2 analytically  !
 ! A155  A(76,75,77)           109.2137         calculate D2E/DX2 analytically  !
 ! A156  A(76,75,78)           109.3859         calculate D2E/DX2 analytically  !
 ! A157  A(77,75,78)           108.7302         calculate D2E/DX2 analytically  !
 ! A158  A(12,79,80)           106.7881         calculate D2E/DX2 analytically  !
 ! A159  A(12,79,81)           111.5016         calculate D2E/DX2 analytically  !
 ! A160  A(12,79,82)           110.7849         calculate D2E/DX2 analytically  !
 ! A161  A(80,79,81)           109.4965         calculate D2E/DX2 analytically  !
 ! A162  A(80,79,82)           109.3454         calculate D2E/DX2 analytically  !
 ! A163  A(81,79,82)           108.8845         calculate D2E/DX2 analytically  !
 ! A164  A(19,83,84)           158.776          calculate D2E/DX2 analytically  !
 ! A165  A(60,84,83)            75.9862         calculate D2E/DX2 analytically  !
 ! A166  A(60,84,85)            85.1423         calculate D2E/DX2 analytically  !
 ! A167  A(60,84,89)           123.1131         calculate D2E/DX2 analytically  !
 ! A168  A(83,84,85)           125.307          calculate D2E/DX2 analytically  !
 ! A169  A(83,84,89)           120.8751         calculate D2E/DX2 analytically  !
 ! A170  A(85,84,89)           112.527          calculate D2E/DX2 analytically  !
 ! A171  A(84,85,86)           110.443          calculate D2E/DX2 analytically  !
 ! A172  A(84,85,87)           106.723          calculate D2E/DX2 analytically  !
 ! A173  A(84,85,88)           110.6835         calculate D2E/DX2 analytically  !
 ! A174  A(86,85,87)           109.9164         calculate D2E/DX2 analytically  !
 ! A175  A(86,85,88)           109.0794         calculate D2E/DX2 analytically  !
 ! A176  A(87,85,88)           109.9749         calculate D2E/DX2 analytically  !
 ! A177  A(84,89,90)           110.6215         calculate D2E/DX2 analytically  !
 ! A178  A(84,89,91)           107.1112         calculate D2E/DX2 analytically  !
 ! A179  A(84,89,92)           110.7429         calculate D2E/DX2 analytically  !
 ! A180  A(90,89,91)           109.4134         calculate D2E/DX2 analytically  !
 ! A181  A(90,89,92)           109.5063         calculate D2E/DX2 analytically  !
 ! A182  A(91,89,92)           109.4017         calculate D2E/DX2 analytically  !
 ! A183  A(57,93,94)           112.351          calculate D2E/DX2 analytically  !
 ! A184  A(57,93,95)           110.9195         calculate D2E/DX2 analytically  !
 ! A185  A(57,93,96)           111.9054         calculate D2E/DX2 analytically  !
 ! A186  A(94,93,95)           107.1467         calculate D2E/DX2 analytically  !
 ! A187  A(94,93,96)           107.5764         calculate D2E/DX2 analytically  !
 ! A188  A(95,93,96)           106.6402         calculate D2E/DX2 analytically  !
 ! A189  A(59,97,98)           110.9465         calculate D2E/DX2 analytically  !
 ! A190  A(59,97,99)           111.7214         calculate D2E/DX2 analytically  !
 ! A191  A(59,97,100)          112.828          calculate D2E/DX2 analytically  !
 ! A192  A(98,97,99)           106.1341         calculate D2E/DX2 analytically  !
 ! A193  A(98,97,100)          107.1776         calculate D2E/DX2 analytically  !
 ! A194  A(99,97,100)          107.6884         calculate D2E/DX2 analytically  !
 ! D1    D(5,1,2,3)            -52.5211         calculate D2E/DX2 analytically  !
 ! D2    D(5,1,2,7)             64.591          calculate D2E/DX2 analytically  !
 ! D3    D(5,1,2,13)          -175.8861         calculate D2E/DX2 analytically  !
 ! D4    D(8,1,2,3)             67.1552         calculate D2E/DX2 analytically  !
 ! D5    D(8,1,2,7)           -175.7327         calculate D2E/DX2 analytically  !
 ! D6    D(8,1,2,13)           -56.2098         calculate D2E/DX2 analytically  !
 ! D7    D(14,1,2,3)          -171.1846         calculate D2E/DX2 analytically  !
 ! D8    D(14,1,2,7)           -54.0725         calculate D2E/DX2 analytically  !
 ! D9    D(14,1,2,13)           65.4504         calculate D2E/DX2 analytically  !
 ! D10   D(2,1,5,4)             48.096          calculate D2E/DX2 analytically  !
 ! D11   D(2,1,5,10)           -72.0096         calculate D2E/DX2 analytically  !
 ! D12   D(2,1,5,15)           168.2873         calculate D2E/DX2 analytically  !
 ! D13   D(8,1,5,4)            -71.8047         calculate D2E/DX2 analytically  !
 ! D14   D(8,1,5,10)           168.0897         calculate D2E/DX2 analytically  !
 ! D15   D(8,1,5,15)            48.3866         calculate D2E/DX2 analytically  !
 ! D16   D(14,1,5,4)           169.1544         calculate D2E/DX2 analytically  !
 ! D17   D(14,1,5,10)           49.0489         calculate D2E/DX2 analytically  !
 ! D18   D(14,1,5,15)          -70.6542         calculate D2E/DX2 analytically  !
 ! D19   D(2,1,14,24)          -95.9225         calculate D2E/DX2 analytically  !
 ! D20   D(5,1,14,24)          143.3152         calculate D2E/DX2 analytically  !
 ! D21   D(8,1,14,24)           25.1582         calculate D2E/DX2 analytically  !
 ! D22   D(1,2,3,6)            173.1261         calculate D2E/DX2 analytically  !
 ! D23   D(1,2,3,11)            58.507          calculate D2E/DX2 analytically  !
 ! D24   D(1,2,3,12)           -65.2129         calculate D2E/DX2 analytically  !
 ! D25   D(7,2,3,6)             55.3848         calculate D2E/DX2 analytically  !
 ! D26   D(7,2,3,11)           -59.2343         calculate D2E/DX2 analytically  !
 ! D27   D(7,2,3,12)           177.0459         calculate D2E/DX2 analytically  !
 ! D28   D(13,2,3,6)           -65.5132         calculate D2E/DX2 analytically  !
 ! D29   D(13,2,3,11)          179.8678         calculate D2E/DX2 analytically  !
 ! D30   D(13,2,3,12)           56.1479         calculate D2E/DX2 analytically  !
 ! D31   D(1,2,13,20)         -158.3462         calculate D2E/DX2 analytically  !
 ! D32   D(3,2,13,20)           79.5225         calculate D2E/DX2 analytically  !
 ! D33   D(7,2,13,20)          -39.8407         calculate D2E/DX2 analytically  !
 ! D34   D(2,3,11,4)           -61.1751         calculate D2E/DX2 analytically  !
 ! D35   D(6,3,11,4)           179.3706         calculate D2E/DX2 analytically  !
 ! D36   D(12,3,11,4)           60.0658         calculate D2E/DX2 analytically  !
 ! D37   D(2,3,12,79)         -173.959          calculate D2E/DX2 analytically  !
 ! D38   D(6,3,12,79)          -51.4176         calculate D2E/DX2 analytically  !
 ! D39   D(11,3,12,79)          64.1997         calculate D2E/DX2 analytically  !
 ! D40   D(9,4,5,1)             71.8272         calculate D2E/DX2 analytically  !
 ! D41   D(9,4,5,10)          -168.4131         calculate D2E/DX2 analytically  !
 ! D42   D(9,4,5,15)           -49.4511         calculate D2E/DX2 analytically  !
 ! D43   D(11,4,5,1)           -47.5474         calculate D2E/DX2 analytically  !
 ! D44   D(11,4,5,10)           72.2123         calculate D2E/DX2 analytically  !
 ! D45   D(11,4,5,15)         -168.8257         calculate D2E/DX2 analytically  !
 ! D46   D(16,4,5,1)          -165.8461         calculate D2E/DX2 analytically  !
 ! D47   D(16,4,5,10)          -46.0864         calculate D2E/DX2 analytically  !
 ! D48   D(16,4,5,15)           72.8756         calculate D2E/DX2 analytically  !
 ! D49   D(5,4,11,3)            55.2045         calculate D2E/DX2 analytically  !
 ! D50   D(9,4,11,3)           -64.0038         calculate D2E/DX2 analytically  !
 ! D51   D(16,4,11,3)          177.1274         calculate D2E/DX2 analytically  !
 ! D52   D(5,4,16,17)          -59.913          calculate D2E/DX2 analytically  !
 ! D53   D(5,4,16,18)         -170.7205         calculate D2E/DX2 analytically  !
 ! D54   D(5,4,16,19)           65.2384         calculate D2E/DX2 analytically  !
 ! D55   D(9,4,16,17)           61.3199         calculate D2E/DX2 analytically  !
 ! D56   D(9,4,16,18)          -49.4876         calculate D2E/DX2 analytically  !
 ! D57   D(9,4,16,19)         -173.5287         calculate D2E/DX2 analytically  !
 ! D58   D(11,4,16,17)         179.1047         calculate D2E/DX2 analytically  !
 ! D59   D(11,4,16,18)          68.2972         calculate D2E/DX2 analytically  !
 ! D60   D(11,4,16,19)         -55.7439         calculate D2E/DX2 analytically  !
 ! D61   D(1,5,10,37)          115.4795         calculate D2E/DX2 analytically  !
 ! D62   D(4,5,10,37)           -7.9265         calculate D2E/DX2 analytically  !
 ! D63   D(15,5,10,37)        -125.2366         calculate D2E/DX2 analytically  !
 ! D64   D(1,5,15,28)          108.9706         calculate D2E/DX2 analytically  !
 ! D65   D(4,5,15,28)         -127.1285         calculate D2E/DX2 analytically  !
 ! D66   D(10,5,15,28)          -9.2829         calculate D2E/DX2 analytically  !
 ! D67   D(5,10,37,19)          30.8167         calculate D2E/DX2 analytically  !
 ! D68   D(5,10,37,34)         124.4746         calculate D2E/DX2 analytically  !
 ! D69   D(3,12,79,80)         173.6724         calculate D2E/DX2 analytically  !
 ! D70   D(3,12,79,81)         -66.7547         calculate D2E/DX2 analytically  !
 ! D71   D(3,12,79,82)          54.6857         calculate D2E/DX2 analytically  !
 ! D72   D(2,13,20,21)         -67.4252         calculate D2E/DX2 analytically  !
 ! D73   D(2,13,20,22)          54.4963         calculate D2E/DX2 analytically  !
 ! D74   D(2,13,20,23)         173.6326         calculate D2E/DX2 analytically  !
 ! D75   D(1,14,24,25)         -58.7108         calculate D2E/DX2 analytically  !
 ! D76   D(1,14,24,26)          63.2137         calculate D2E/DX2 analytically  !
 ! D77   D(1,14,24,27)        -177.1709         calculate D2E/DX2 analytically  !
 ! D78   D(5,15,28,29)         -58.4364         calculate D2E/DX2 analytically  !
 ! D79   D(5,15,28,30)          63.7525         calculate D2E/DX2 analytically  !
 ! D80   D(5,15,28,31)        -177.3055         calculate D2E/DX2 analytically  !
 ! D81   D(4,16,19,37)         -35.4529         calculate D2E/DX2 analytically  !
 ! D82   D(4,16,19,83)          43.4476         calculate D2E/DX2 analytically  !
 ! D83   D(17,16,19,37)         84.8613         calculate D2E/DX2 analytically  !
 ! D84   D(17,16,19,83)        163.7618         calculate D2E/DX2 analytically  !
 ! D85   D(18,16,19,37)       -155.4532         calculate D2E/DX2 analytically  !
 ! D86   D(18,16,19,83)        -76.5527         calculate D2E/DX2 analytically  !
 ! D87   D(16,19,37,10)         -1.049          calculate D2E/DX2 analytically  !
 ! D88   D(16,19,37,34)       -127.152          calculate D2E/DX2 analytically  !
 ! D89   D(83,19,37,10)       -103.0781         calculate D2E/DX2 analytically  !
 ! D90   D(83,19,37,34)        130.8188         calculate D2E/DX2 analytically  !
 ! D91   D(16,19,83,84)         44.7            calculate D2E/DX2 analytically  !
 ! D92   D(37,19,83,84)        165.6498         calculate D2E/DX2 analytically  !
 ! D93   D(36,32,33,34)        -55.2776         calculate D2E/DX2 analytically  !
 ! D94   D(36,32,33,38)         57.5049         calculate D2E/DX2 analytically  !
 ! D95   D(36,32,33,44)       -179.6257         calculate D2E/DX2 analytically  !
 ! D96   D(39,32,33,34)         63.5658         calculate D2E/DX2 analytically  !
 ! D97   D(39,32,33,38)        176.3483         calculate D2E/DX2 analytically  !
 ! D98   D(39,32,33,44)        -60.7823         calculate D2E/DX2 analytically  !
 ! D99   D(45,32,33,34)       -174.0818         calculate D2E/DX2 analytically  !
 ! D100  D(45,32,33,38)        -61.2993         calculate D2E/DX2 analytically  !
 ! D101  D(45,32,33,44)         61.5701         calculate D2E/DX2 analytically  !
 ! D102  D(33,32,36,35)         56.9094         calculate D2E/DX2 analytically  !
 ! D103  D(33,32,36,41)        -63.7542         calculate D2E/DX2 analytically  !
 ! D104  D(33,32,36,46)        173.6708         calculate D2E/DX2 analytically  !
 ! D105  D(39,32,36,35)        -61.8433         calculate D2E/DX2 analytically  !
 ! D106  D(39,32,36,41)        177.4931         calculate D2E/DX2 analytically  !
 ! D107  D(39,32,36,46)         54.9181         calculate D2E/DX2 analytically  !
 ! D108  D(45,32,36,35)        177.3819         calculate D2E/DX2 analytically  !
 ! D109  D(45,32,36,41)         56.7183         calculate D2E/DX2 analytically  !
 ! D110  D(45,32,36,46)        -65.8566         calculate D2E/DX2 analytically  !
 ! D111  D(33,32,45,67)       -101.5683         calculate D2E/DX2 analytically  !
 ! D112  D(36,32,45,67)        140.3546         calculate D2E/DX2 analytically  !
 ! D113  D(39,32,45,67)         20.1594         calculate D2E/DX2 analytically  !
 ! D114  D(32,33,34,37)       -159.2897         calculate D2E/DX2 analytically  !
 ! D115  D(32,33,34,42)         40.5708         calculate D2E/DX2 analytically  !
 ! D116  D(32,33,34,53)        -65.7188         calculate D2E/DX2 analytically  !
 ! D117  D(38,33,34,37)         83.5512         calculate D2E/DX2 analytically  !
 ! D118  D(38,33,34,42)        -76.5882         calculate D2E/DX2 analytically  !
 ! D119  D(38,33,34,53)        177.1221         calculate D2E/DX2 analytically  !
 ! D120  D(44,33,34,37)        -32.7872         calculate D2E/DX2 analytically  !
 ! D121  D(44,33,34,42)        167.0734         calculate D2E/DX2 analytically  !
 ! D122  D(44,33,34,53)         60.7837         calculate D2E/DX2 analytically  !
 ! D123  D(32,33,44,63)        -99.4635         calculate D2E/DX2 analytically  !
 ! D124  D(34,33,44,63)        135.8158         calculate D2E/DX2 analytically  !
 ! D125  D(38,33,44,63)         23.6501         calculate D2E/DX2 analytically  !
 ! D126  D(33,34,37,10)       -134.4329         calculate D2E/DX2 analytically  !
 ! D127  D(33,34,37,19)        -52.0548         calculate D2E/DX2 analytically  !
 ! D128  D(42,34,37,10)         26.9774         calculate D2E/DX2 analytically  !
 ! D129  D(42,34,37,19)        109.3554         calculate D2E/DX2 analytically  !
 ! D130  D(53,34,37,10)        127.0139         calculate D2E/DX2 analytically  !
 ! D131  D(53,34,37,19)       -150.608          calculate D2E/DX2 analytically  !
 ! D132  D(33,34,42,35)        -23.8283         calculate D2E/DX2 analytically  !
 ! D133  D(37,34,42,35)        174.8752         calculate D2E/DX2 analytically  !
 ! D134  D(53,34,42,35)         81.5526         calculate D2E/DX2 analytically  !
 ! D135  D(33,34,53,51)        -94.8147         calculate D2E/DX2 analytically  !
 ! D136  D(37,34,53,51)         26.3309         calculate D2E/DX2 analytically  !
 ! D137  D(42,34,53,51)        141.2417         calculate D2E/DX2 analytically  !
 ! D138  D(40,35,36,32)         75.6695         calculate D2E/DX2 analytically  !
 ! D139  D(40,35,36,41)       -163.8917         calculate D2E/DX2 analytically  !
 ! D140  D(40,35,36,46)        -45.4543         calculate D2E/DX2 analytically  !
 ! D141  D(42,35,36,32)        -40.4569         calculate D2E/DX2 analytically  !
 ! D142  D(42,35,36,41)         79.9819         calculate D2E/DX2 analytically  !
 ! D143  D(42,35,36,46)       -161.5808         calculate D2E/DX2 analytically  !
 ! D144  D(47,35,36,32)       -161.8883         calculate D2E/DX2 analytically  !
 ! D145  D(47,35,36,41)        -41.4495         calculate D2E/DX2 analytically  !
 ! D146  D(47,35,36,46)         76.9878         calculate D2E/DX2 analytically  !
 ! D147  D(36,35,42,34)         23.1355         calculate D2E/DX2 analytically  !
 ! D148  D(40,35,42,34)        -95.322          calculate D2E/DX2 analytically  !
 ! D149  D(47,35,42,34)        148.673          calculate D2E/DX2 analytically  !
 ! D150  D(36,35,47,48)        -62.1695         calculate D2E/DX2 analytically  !
 ! D151  D(36,35,47,49)       -179.957          calculate D2E/DX2 analytically  !
 ! D152  D(36,35,47,50)         58.8405         calculate D2E/DX2 analytically  !
 ! D153  D(40,35,47,48)         59.565          calculate D2E/DX2 analytically  !
 ! D154  D(40,35,47,49)        -58.2225         calculate D2E/DX2 analytically  !
 ! D155  D(40,35,47,50)       -179.425          calculate D2E/DX2 analytically  !
 ! D156  D(42,35,47,48)        171.9025         calculate D2E/DX2 analytically  !
 ! D157  D(42,35,47,49)         54.115          calculate D2E/DX2 analytically  !
 ! D158  D(42,35,47,50)        -67.0875         calculate D2E/DX2 analytically  !
 ! D159  D(32,36,46,71)         99.079          calculate D2E/DX2 analytically  !
 ! D160  D(35,36,46,71)       -139.945          calculate D2E/DX2 analytically  !
 ! D161  D(41,36,46,71)        -22.4693         calculate D2E/DX2 analytically  !
 ! D162  D(33,44,63,64)        -61.7579         calculate D2E/DX2 analytically  !
 ! D163  D(33,44,63,65)         59.8241         calculate D2E/DX2 analytically  !
 ! D164  D(33,44,63,66)        178.7793         calculate D2E/DX2 analytically  !
 ! D165  D(32,45,67,68)        -54.9566         calculate D2E/DX2 analytically  !
 ! D166  D(32,45,67,69)         66.8249         calculate D2E/DX2 analytically  !
 ! D167  D(32,45,67,70)       -173.8312         calculate D2E/DX2 analytically  !
 ! D168  D(36,46,71,72)        -61.3916         calculate D2E/DX2 analytically  !
 ! D169  D(36,46,71,73)         60.5342         calculate D2E/DX2 analytically  !
 ! D170  D(36,46,71,74)        179.1145         calculate D2E/DX2 analytically  !
 ! D171  D(35,47,50,75)        178.9545         calculate D2E/DX2 analytically  !
 ! D172  D(48,47,50,75)        -62.1689         calculate D2E/DX2 analytically  !
 ! D173  D(49,47,50,75)         58.7            calculate D2E/DX2 analytically  !
 ! D174  D(47,50,75,76)       -179.8166         calculate D2E/DX2 analytically  !
 ! D175  D(47,50,75,77)        -60.6211         calculate D2E/DX2 analytically  !
 ! D176  D(47,50,75,78)         60.7845         calculate D2E/DX2 analytically  !
 ! D177  D(43,51,53,34)        -16.1796         calculate D2E/DX2 analytically  !
 ! D178  D(52,51,53,34)       -146.951          calculate D2E/DX2 analytically  !
 ! D179  D(54,51,53,34)         97.4815         calculate D2E/DX2 analytically  !
 ! D180  D(43,51,54,55)        162.3706         calculate D2E/DX2 analytically  !
 ! D181  D(43,51,54,56)        -14.9884         calculate D2E/DX2 analytically  !
 ! D182  D(52,51,54,55)        -74.7558         calculate D2E/DX2 analytically  !
 ! D183  D(52,51,54,56)        107.8852         calculate D2E/DX2 analytically  !
 ! D184  D(53,51,54,55)         44.2997         calculate D2E/DX2 analytically  !
 ! D185  D(53,51,54,56)       -133.0594         calculate D2E/DX2 analytically  !
 ! D186  D(51,54,55,57)       -176.3315         calculate D2E/DX2 analytically  !
 ! D187  D(51,54,55,58)          1.2078         calculate D2E/DX2 analytically  !
 ! D188  D(56,54,55,57)          0.9976         calculate D2E/DX2 analytically  !
 ! D189  D(56,54,55,58)        178.5368         calculate D2E/DX2 analytically  !
 ! D190  D(51,54,56,59)        176.1966         calculate D2E/DX2 analytically  !
 ! D191  D(51,54,56,60)         -0.3589         calculate D2E/DX2 analytically  !
 ! D192  D(55,54,56,59)         -1.107          calculate D2E/DX2 analytically  !
 ! D193  D(55,54,56,60)       -177.6625         calculate D2E/DX2 analytically  !
 ! D194  D(54,55,57,61)         -0.2278         calculate D2E/DX2 analytically  !
 ! D195  D(54,55,57,93)        177.5269         calculate D2E/DX2 analytically  !
 ! D196  D(58,55,57,61)       -177.7624         calculate D2E/DX2 analytically  !
 ! D197  D(58,55,57,93)         -0.0076         calculate D2E/DX2 analytically  !
 ! D198  D(54,56,59,61)          0.4485         calculate D2E/DX2 analytically  !
 ! D199  D(54,56,59,97)       -175.5676         calculate D2E/DX2 analytically  !
 ! D200  D(60,56,59,61)        177.017          calculate D2E/DX2 analytically  !
 ! D201  D(60,56,59,97)          1.0009         calculate D2E/DX2 analytically  !
 ! D202  D(54,56,60,84)        118.1633         calculate D2E/DX2 analytically  !
 ! D203  D(59,56,60,84)        -58.3607         calculate D2E/DX2 analytically  !
 ! D204  D(55,57,61,59)         -0.4096         calculate D2E/DX2 analytically  !
 ! D205  D(55,57,61,62)        178.6748         calculate D2E/DX2 analytically  !
 ! D206  D(93,57,61,59)       -178.2132         calculate D2E/DX2 analytically  !
 ! D207  D(93,57,61,62)          0.8712         calculate D2E/DX2 analytically  !
 ! D208  D(55,57,93,94)         -4.3634         calculate D2E/DX2 analytically  !
 ! D209  D(55,57,93,95)       -124.2599         calculate D2E/DX2 analytically  !
 ! D210  D(55,57,93,96)        116.7845         calculate D2E/DX2 analytically  !
 ! D211  D(61,57,93,94)        173.4437         calculate D2E/DX2 analytically  !
 ! D212  D(61,57,93,95)         53.5472         calculate D2E/DX2 analytically  !
 ! D213  D(61,57,93,96)        -65.4084         calculate D2E/DX2 analytically  !
 ! D214  D(56,59,61,57)          0.2994         calculate D2E/DX2 analytically  !
 ! D215  D(56,59,61,62)       -178.7852         calculate D2E/DX2 analytically  !
 ! D216  D(97,59,61,57)        176.1809         calculate D2E/DX2 analytically  !
 ! D217  D(97,59,61,62)         -2.9037         calculate D2E/DX2 analytically  !
 ! D218  D(56,59,97,98)         67.2377         calculate D2E/DX2 analytically  !
 ! D219  D(56,59,97,99)        -50.9778         calculate D2E/DX2 analytically  !
 ! D220  D(56,59,97,100)      -172.4813         calculate D2E/DX2 analytically  !
 ! D221  D(61,59,97,98)       -108.7593         calculate D2E/DX2 analytically  !
 ! D222  D(61,59,97,99)        133.0252         calculate D2E/DX2 analytically  !
 ! D223  D(61,59,97,100)        11.5216         calculate D2E/DX2 analytically  !
 ! D224  D(56,60,84,83)        -67.7101         calculate D2E/DX2 analytically  !
 ! D225  D(56,60,84,85)        164.0434         calculate D2E/DX2 analytically  !
 ! D226  D(56,60,84,89)         50.2386         calculate D2E/DX2 analytically  !
 ! D227  D(19,83,84,60)        148.8931         calculate D2E/DX2 analytically  !
 ! D228  D(19,83,84,85)       -137.5887         calculate D2E/DX2 analytically  !
 ! D229  D(19,83,84,89)         28.4428         calculate D2E/DX2 analytically  !
 ! D230  D(60,84,85,86)        -62.1701         calculate D2E/DX2 analytically  !
 ! D231  D(60,84,85,87)         57.2752         calculate D2E/DX2 analytically  !
 ! D232  D(60,84,85,88)        176.9253         calculate D2E/DX2 analytically  !
 ! D233  D(83,84,85,86)       -131.193          calculate D2E/DX2 analytically  !
 ! D234  D(83,84,85,87)        -11.7477         calculate D2E/DX2 analytically  !
 ! D235  D(83,84,85,88)        107.9023         calculate D2E/DX2 analytically  !
 ! D236  D(89,84,85,86)         61.7684         calculate D2E/DX2 analytically  !
 ! D237  D(89,84,85,87)       -178.7863         calculate D2E/DX2 analytically  !
 ! D238  D(89,84,85,88)        -59.1363         calculate D2E/DX2 analytically  !
 ! D239  D(60,84,89,90)        159.9607         calculate D2E/DX2 analytically  !
 ! D240  D(60,84,89,91)        -80.8673         calculate D2E/DX2 analytically  !
 ! D241  D(60,84,89,92)         38.3588         calculate D2E/DX2 analytically  !
 ! D242  D(83,84,89,90)       -106.9946         calculate D2E/DX2 analytically  !
 ! D243  D(83,84,89,91)         12.1774         calculate D2E/DX2 analytically  !
 ! D244  D(83,84,89,92)        131.4035         calculate D2E/DX2 analytically  !
 ! D245  D(85,84,89,90)         60.692          calculate D2E/DX2 analytically  !
 ! D246  D(85,84,89,91)        179.8639         calculate D2E/DX2 analytically  !
 ! D247  D(85,84,89,92)        -60.91           calculate D2E/DX2 analytically  !
 --------------------------------------------------------------------------------
 Trust Radius=1.00D-02 FncErr=1.00D-07 GrdErr=1.00D-06 EigMax=2.50D+02 EigMin=1.00D-04
 Number of steps in this run=    555 maximum allowed number of steps=    600.
 Search for a saddle point of order  1.
 Step   0 in ReCalcFC=30 IGetFC= 4 compute analytic Hessian.
 GradGradGradGradGradGradGradGradGradGradGradGradGradGradGradGradGradGrad

 Leave Link  103 at Sun May 26 01:13:16 2019, MaxMem=  6442450944 cpu:               7.9 elap:               0.3
 (Enter /home/ekwan/sw/g16/l202.exe)
 Stoichiometry    C30H47F6NaO15S
 Framework group  C1[X(C30H47F6NaO15S)]
 Deg. of freedom   294
 Full point group                 C1      NOp   1
 Largest Abelian subgroup         C1      NOp   1
 Largest concise Abelian subgroup C1      NOp   1
                         Standard orientation:                         
 ---------------------------------------------------------------------
 Center     Atomic      Atomic             Coordinates (Angstroms)
 Number     Number       Type             X           Y           Z
 ---------------------------------------------------------------------
      1          6           0       -4.695023   -0.117823    0.862173
      2          6           0       -4.056370   -1.499255    1.003491
      3          6           0       -3.992764   -2.194978   -0.364034
      4          6           0       -3.790175   -0.081982   -1.532686
      5          6           0       -3.990531    0.690192   -0.226047
      6          1           0       -3.430273   -3.136294   -0.313016
      7          1           0       -3.021579   -1.368042    1.352647
      8          1           0       -5.751131   -0.235170    0.587997
      9          1           0       -4.764425   -0.192989   -2.025439
     10          1           0       -3.007326    0.980151    0.157335
     11          8           0       -3.245684   -1.399783   -1.270681
     12          8           0       -5.298224   -2.436658   -0.803577
     13          8           0       -4.796008   -2.249717    1.952429
     14          8           0       -4.581408    0.623978    2.072544
     15          8           0       -4.760092    1.850925   -0.527953
     16          6           0       -2.787196    0.616049   -2.472781
     17          1           0       -3.228187    1.616081   -2.675520
     18          1           0       -2.854477    0.066390   -3.441346
     19          8           0       -1.507858    0.663172   -1.976262
     20          6           0       -4.065526   -3.320666    2.527941
     21          1           0       -3.838502   -4.109504    1.796914
     22          1           0       -3.121822   -2.967490    2.967848
     23          1           0       -4.692557   -3.745534    3.315245
     24          6           0       -5.720902    0.555852    2.916885
     25          1           0       -6.619085    0.923686    2.398929
     26          1           0       -5.903527   -0.465336    3.267074
     27          1           0       -5.515596    1.204819    3.772643
     28          6           0       -4.179662    3.067639   -0.078558
     29          1           0       -4.021908    3.054615    1.006696
     30          1           0       -3.224036    3.271813   -0.577579
     31          1           0       -4.888412    3.862600   -0.329089
     32          6           0        1.912869    2.731619   -0.499727
     33          6           0        0.843003    1.720533   -0.922619
     34          6           0       -0.312334    1.745690    0.028956
     35          6           0        0.054500    4.066310    0.591596
     36          6           0        1.234834    4.097100   -0.390242
     37          1           0       -0.986270    0.914205    0.101232
     38          1           0        0.385435    2.037719   -1.869774
     39          1           0        2.319037    2.444860    0.476269
     40          1           0        0.449449    4.057667    1.610592
     41          1           0        0.872290    4.393096   -1.381708
     42          8           0       -0.768053    2.850214    0.504391
     43          8           0       -0.483463   -1.107568    1.213399
     44          8           0        1.328149    0.401119   -1.056595
     45          8           0        2.949205    2.816223   -1.462667
     46          8           0        2.109094    5.079574    0.135505
     47          6           0       -0.901933    5.226597    0.421080
     48          1           0       -0.351115    6.156465    0.625238
     49          1           0       -1.717569    5.140218    1.153803
     50          8           0       -1.402509    5.200374   -0.898906
     51         16           0        0.618645   -0.470095    1.994639
     52          8           0        0.621016   -0.790767    3.432071
     53          8           0        0.706057    1.021642    1.739030
     54          6           0        2.145296   -1.118739    1.301577
     55          6           0        3.341624   -0.449236    1.557742
     56          6           0        2.112915   -2.235580    0.481534
     57          6           0        4.511967   -0.904828    0.959801
     58          1           0        3.350676    0.436138    2.181092
     59          6           0        3.296281   -2.679720   -0.113537
     60          1           0        1.174781   -2.726268    0.258153
     61          6           0        4.498667   -2.020858    0.116012
     62          1           0        5.409889   -2.357917   -0.363648
     63          6           0        1.603638    0.028678   -2.414164
     64          1           0        0.678105    0.072337   -2.999290
     65          1           0        2.357011    0.688403   -2.854416
     66          1           0        1.987879   -0.992199   -2.375161
     67          6           0        4.130158    2.104218   -1.106708
     68          1           0        4.502762    2.421692   -0.124408
     69          1           0        3.959076    1.023259   -1.088606
     70          1           0        4.878332    2.339083   -1.866851
     71          6           0        2.710879    5.914243   -0.851200
     72          1           0        3.324693    5.329648   -1.542983
     73          1           0        1.947678    6.465087   -1.418304
     74          1           0        3.338778    6.626009   -0.310485
     75          6           0       -2.331255    6.242879   -1.148039
     76          1           0       -2.659623    6.135865   -2.183674
     77          1           0       -3.203094    6.167698   -0.482426
     78          1           0       -1.867533    7.230774   -1.012361
     79          6           0       -5.354723   -3.202410   -2.002103
     80          1           0       -6.407788   -3.424343   -2.185126
     81          1           0       -4.944621   -2.647039   -2.853357
     82          1           0       -4.798073   -4.144190   -1.890087
     83         11           0       -0.915545   -1.286393   -1.060894
     84          8           0       -0.666467   -3.598415   -0.830733
     85          6           0       -0.877685   -4.334137    0.371792
     86          1           0       -0.031484   -5.006601    0.563494
     87          1           0       -0.960807   -3.602843    1.176606
     88          1           0       -1.799917   -4.927078    0.306890
     89          6           0       -0.567048   -4.440247   -1.975068
     90          1           0       -1.492310   -5.014882   -2.113975
     91          1           0       -0.409901   -3.791096   -2.838736
     92          1           0        0.280090   -5.128558   -1.878108
     93          6           0        5.812210   -0.178107    1.166265
     94          9           0        5.658833    0.954198    1.883817
     95          9           0        6.364836    0.173117   -0.021962
     96          9           0        6.722081   -0.944969    1.804208
     97          6           0        3.209892   -3.829634   -1.075684
     98          9           0        2.533196   -3.472403   -2.201457
     99          9           0        2.533295   -4.876499   -0.546129
    100          9           0        4.417309   -4.277452   -1.463308
 ---------------------------------------------------------------------
 Rotational constants (GHZ):           0.0607282           0.0443433           0.0313019
 Leave Link  202 at Sun May 26 01:13:16 2019, MaxMem=  6442450944 cpu:               3.9 elap:               0.2
 (Enter /home/ekwan/sw/g16/l301.exe)
 Standard basis: 6-31G(d) (6D, 7F)
 Ernie: Thresh=  0.10000D-02 Tol=  0.10000D-05 Strict=F.
 There are   897 symmetry adapted cartesian basis functions of A   symmetry.
 There are   897 symmetry adapted basis functions of A   symmetry.
   897 basis functions,  1720 primitive gaussians,   897 cartesian basis functions
   214 alpha electrons      214 beta electrons
       nuclear repulsion energy      9652.4979225421 Hartrees.
 IExCor=  402 DFT=T Ex+Corr=B3LYP ExCW=0 ScaHFX=  0.200000
 ScaDFX=  0.800000  0.720000  1.000000  0.810000 ScalE2=  1.000000  1.000000
 IRadAn=      5 IRanWt=     -1 IRanGd=            0 ICorTp=0 IEmpDi=141
 NAtoms=  100 NActive=  100 NUniq=  100 SFac= 1.00D+00 NAtFMM=   60 NAOKFM=T Big=T
 Integral buffers will be    131072 words long.
 Raffenetti 2 integral format.
 Two-electron integral symmetry is turned on.
 R6Disp:  Grimme-D3(BJ) Dispersion energy=       -0.2360158821 Hartrees.
 Nuclear repulsion after empirical dispersion term =     9652.2619066600 Hartrees.
 Force inversion solution in PCM.
 ------------------------------------------------------------------------------
 Polarizable Continuum Model (PCM)
 =================================
 Model                : PCM.
 Atomic radii         : UFF (Universal Force Field).
 Polarization charges : Total charges.
 Charge compensation  : None.
 Solution method      : Matrix inversion.
 Cavity type          : Scaled VdW (van der Waals Surface) (Alpha=1.100).
 Cavity algorithm     : GePol (No added spheres)
                        Default sphere list used, NSphG=  100.
                        Lebedev-Laikov grids with approx.  5.0 points / Ang**2.
                        Smoothing algorithm: York/Karplus (Gamma=1.0000).
                        Polarization charges: spherical gaussians, with
                                              point-specific exponents (IZeta= 3).
                        Self-potential: point-specific (ISelfS= 7).
                        Self-field    : sphere-specific E.n sum rule (ISelfD= 2).
 1st derivatives      : Analytical E(r).r(x)/FMM algorithm (CHGder, D1EAlg=3).
                        Cavity 1st derivative terms included.
 2nd derivatives      : Analytical E(r).r(xy)/FMM algorithm (CHGder, D2EAlg=3).
                        Cavity 2nd derivative terms included.
 Solvent              : TetraHydroFuran, Eps=   7.425700 Eps(inf)=   1.974025
 ------------------------------------------------------------------------------
 GePol: Number of generator spheres                  =     100
 GePol: Total number of spheres                      =     100
 GePol: Number of exposed spheres                    =     100 (100.00%)
 GePol: Number of points                             =    6118
 GePol: Average weight of points                     =       0.12
 GePol: Minimum weight of points                     =   0.42D-10
 GePol: Maximum weight of points                     =    0.21371
 GePol: Number of points with low weight             =     482
 GePol: Fraction of low-weight points (<1% of avg)   =       7.88%
 GePol: Cavity surface area                          =    752.422 Ang**2
 GePol: Cavity volume                                =    973.098 Ang**3
 Leave Link  301 at Sun May 26 01:13:17 2019, MaxMem=  6442450944 cpu:              12.0 elap:               0.5
 (Enter /home/ekwan/sw/g16/l302.exe)
 NPDir=0 NMtPBC=     1 NCelOv=     1 NCel=       1 NClECP=     1 NCelD=      1
         NCelK=      1 NCelE2=     1 NClLst=     1 CellRange=     0.0.
 One-electron integrals computed using PRISM.
 One-electron integral symmetry used in STVInt
 NBasis=   897 RedAO= T EigKep=  3.67D-04  NBF=   897
 NBsUse=   897 1.00D-06 EigRej= -1.00D+00 NBFU=   897
 Precomputing XC quadrature grid using
 IXCGrd= 4 IRadAn=           5 IRanWt=          -1 IRanGd=           0 AccXCQ= 0.00D+00.
 Generated NRdTot=       0 NPtTot=           0 NUsed=           0 NTot=          32
[...]
 0006275,0.00121532,0.00010681,0.00001720,0.00028315,-0.00039229,-0.000
 16834,0.00012854,-0.00022460,-0.00006243,-0.00006912,-0.00017348,-0.00
 000926,-0.00004066,0.00003617,0.00002789,0.00000241,-0.00001253,-0.000
 01013,0.00001800,-0.00000513,-0.00000429,0.00006596,-0.00006128,-0.000
 02918,-0.00281075,0.00094332,-0.00145278,0.00066460,-0.00008822,0.0009
 3625,0.00085693,-0.00102015,0.00000880,-0.00014957,0.00019436,0.000679
 21,-0.00039537,-0.00072074,0.00030125,-0.00200801,0.00047450,-0.000128
 50,-0.00199435,-0.00067241,0.00195296,0.00005524,-0.00005307,-0.000114
 06,-0.02914437,-0.03660244,-0.01111341,0.00020026,-0.00136505,0.000023
 99,0.00522759,-0.00459737,0.00241631,0.00018823,-0.00005669,-0.0007369
 1,-0.00012517,0.00031866,0.00011996,0.00003770,-0.00008236,-0.00004615
 ,0.00000390,-0.00007520,-0.00002528,-0.00006638,0.00013252,0.00006843,
 -0.00007345,0.00028952,0.00003161,0.00000731,0.00005616,-0.00001415,-0
 .00002098,-0.00008132,0.00010494,-0.00001494,-0.00006230,-0.00004445,0
 .00002616,0.00007366,0.00006461,0.00000511,0.00000952,-0.00000205,0.00
 000815,-0.00001274,-0.00001569,-0.00001049,-0.00001446,-0.00000025,-0.
 00004495,0.00004910,0.00000843,0.00000420,-0.00000398,-0.00000584,0.00
 001012,-0.00000485,0.00000601,0.00000266,-0.00001106,0.00000155,0.0000
 1324,-0.00005455,0.00000449,-0.00000097,0.00000373,-0.00000198,-0.0000
 0047,0.00000387,0.00000427,-0.00000641,0.00001656,0.00000169,-0.000500
 11,-0.00025094,0.00008078,0.00012247,0.00088529,-0.00007948,0.00072731
 ,-0.00113697,-0.00071320,0.00043329,0.00068447,0.00079448,-0.00022114,
 0.00006160,-0.00003292,-0.00026519,0.00017523,0.00004765,0.00091669,-0
 .00132377,0.00029567,-0.00028524,0.00020581,0.00009261,-0.00030176,0.0
 0022201,0.00017863,0.00025518,0.00062294,-0.00077048,0.00284420,0.0009
 2203,0.00007911,-0.00065506,-0.00093540,0.00039894,-0.00067914,-0.0003
 6160,-0.00027111,-0.00098628,0.00013835,0.00033853,-0.06867703,-0.1996
 9634,-0.03622963,-0.00037548,-0.02553031,-0.04451687,0.11383624,0.2538
 9002,0.00000389,-0.00001070,-0.00000860,0.00002005,-0.00000715,-0.0000
 2367,0.00002202,-0.00004178,-0.00005225,0.00001015,-0.00001005,-0.0000
 0901,0.00000935,0.00000132,-0.00001511,0.00000623,0.00000977,-0.000007
 62,0.00000455,-0.00000358,0.00000539,-0.00000461,0.00000276,0.00000042
 ,-0.00000205,0.00000169,0.00000239,-0.00000315,-0.00000213,-0.00000045
 ,0.,0.00002674,0.00004859,-0.00002104,-0.00000245,0.00004344,-0.000028
 48,0.00003124,0.00003341,-0.00000879,0.00000439,0.00001203,-0.00000377
 ,0.00000833,0.00001445,-0.00000871,-0.00000416,-0.00000765,0.00000391,
 -0.00000072,0.00000118,-0.00001737,-0.00000450,0.00002161,0.00003762,-
 0.00003782,0.00008536,0.00003443,-0.00002161,-0.00001539,0.00000618,0.
 00000818,-0.00000344,-0.00000914,-0.00000746,0.00001347,-0.00000407,0.
 00000271,-0.00000176,0.00000568,-0.00000382,-0.00000019,-0.00000357,0.
 00000177,0.00000257,0.00000257,0.00000139,0.00000074,0.00000101,-0.000
 00156,0.00000098,-0.00000109,-0.00000090,-0.00000651,0.00000151,-0.000
 00043,0.00000429,0.00000236,0.00000033,-0.00000210,-0.00000164,0.00000
 148,0.00000012,0.00001731,-0.00001720,-0.00006627,-0.00001806,0.000114
 46,0.00005806,0.00011620,-0.00015359,-0.00027419,-0.00000872,-0.000022
 64,-0.00001908,-0.00001355,-0.00000631,-0.00000144,0.00000526,-0.00000
 170,0.00000462,-0.00000007,0.00001507,-0.00000189,-0.00001196,-0.00002
 005,0.00001488,0.00000312,-0.00000158,0.00000380,-0.00000150,0.0000083
 9,0.00000398,-0.00000637,0.00006072,0.00005207,-0.00026934,0.00015573,
 0.00002093,0.00007863,-0.00020488,0.00028917,-0.00002259,0.00000444,0.
 00007469,0.00000796,0.00000581,0.00001967,0.00000832,-0.00000469,-0.00
 001494,-0.00000155,0.00000098,0.00000190,0.00000216,-0.00000061,0.0000
 0277,-0.00000701,0.00000567,0.00001867,0.00060389,-0.00069633,0.000243
 83,-0.00015613,0.00013332,-0.00013505,-0.00018748,0.00042289,0.0001288
 8,0.00027759,-0.00057764,0.00043067,0.00067421,0.00040682,-0.00013902,
 -0.00062138,0.00127496,-0.00047185,0.00015568,0.00029830,-0.00130193,0
 .00004932,0.00001024,0.00003598,0.00617904,0.01239948,0.01060678,0.000
 53164,0.00027132,-0.00032091,-0.00137592,0.00043583,0.00024194,0.00019
 258,0.00029540,0.00020804,-0.00023530,0.00048344,-0.00024172,0.0000012
 0,-0.00005435,0.00002205,0.00003686,-0.00008492,0.00001820,-0.00000476
 ,0.00020297,-0.00009862,0.00002754,-0.00002172,-0.00001829,-0.00000543
 ,-0.00003905,0.00001900,0.00000955,0.00000671,-0.00005970,0.00000797,0
 .00002762,0.00001105,-0.00000619,-0.00000853,-0.00001535,0.00000307,-0
 .00000047,0.00000105,-0.00000222,0.00000236,0.00000156,-0.00000018,-0.
 00000070,0.00000130,0.00000237,-0.00000419,-0.00000566,-0.00000223,0.0
 0000118,0.00000263,0.00000075,0.00000105,0.00000110,-0.00000082,0.0000
 0090,-0.00000023,-0.00000105,0.00000570,-0.00003211,0.00000061,-0.0000
 0169,0.00000324,-0.00000242,0.00000657,0.00000797,-0.00000062,-0.00000
 326,-0.00000152,-0.00009087,-0.00001836,-0.00030050,-0.00006126,0.0000
 4093,0.00059872,0.00030419,-0.00074470,-0.00049503,-0.00018075,0.00064
 909,0.00016573,-0.00001628,0.00004577,0.00006064,-0.00017922,0.0001340
 0,0.00006872,-0.00000778,0.00063859,-0.00048401,0.00015143,-0.00016749
 ,0.00009483,-0.00016287,0.00004692,0.00013493,0.00085121,-0.00041202,-
 0.00073809,-0.00077816,-0.00034745,-0.00023925,0.00014757,0.00017359,-
 0.00001504,0.00022074,0.00011548,0.00016879,0.00025180,-0.00000134,-0.
 00002289,-0.02626598,-0.04126660,-0.08631847,-0.00701907,-0.05502751,-
 0.04154395,0.05950605,0.09519160,0.12382549,0.00002036,-0.00003526,0.0
 0002972,0.00005154,0.00002207,0.00003277,0.00016448,-0.00002306,0.0000
 0258,0.00002806,-0.00007122,-0.00002719,0.00003964,-0.00003861,-0.0000
 0283,0.00002035,0.00003213,-0.00000337,0.00000584,-0.00000623,0.000013
 20,-0.00001173,0.00000399,-0.00000452,-0.00002548,0.00000336,0.0000037
 0,0.00000050,-0.00000768,0.00001412,-0.00009993,0.00006486,-0.00000370
 ,-0.00011517,-0.00000540,0.00003845,-0.00005829,-0.00000232,-0.0000297
 7,-0.00004355,0.00002920,-0.00005606,-0.00003666,0.00006332,-0.0000080
 9,0.00018341,-0.00001355,-0.00006689,-0.00004533,0.00003676,0.00001638
 ,-0.00002563,-0.00002129,0.00002753,-0.00022962,0.00008123,0.00008342,
 0.00002006,-0.00001043,0.00001354,0.00001999,0.00001674,-0.00000395,-0
 .00000319,-0.00000858,0.00002188,-0.00001226,0.00000077,-0.00001141,0.
 00004246,-0.00000290,0.00002699,-0.00001046,0.00000148,0.00000230,-0.0
 0000152,-0.00000296,-0.00000060,-0.00000206,0.00000232,-0.00000593,0.0
 0000188,-0.00002947,0.00001632,0.00000597,0.00000198,-0.00000189,0.000
 00013,-0.00000206,-0.00001047,-0.00000774,0.00001007,0.00000037,-0.000
 10389,-0.00002468,-0.00006760,0.00007284,-0.00025727,0.00002581,0.0002
 9565,-0.00030596,-0.00021405,-0.00004886,-0.00015034,0.00001044,0.0000
 0229,-0.00007791,0.00001158,0.00001745,-0.00000996,0.00001910,0.000000
 69,0.00002540,0.00000958,-0.00001220,-0.00002440,0.00001400,0.00001395
 ,0.00000921,0.00000164,-0.00000026,0.00000894,-0.00000071,-0.00011165,
 0.00032231,-0.00005496,-0.00043463,0.00024157,-0.00019528,-0.00010581,
 0.00036017,0.00003575,0.00009763,0.00006933,0.00004744,0.00006989,0.00
 012154,0.00001216,0.00002416,-0.00002048,-0.00001319,-0.00000287,0.000
 01310,0.00000625,-0.00000656,0.,0.00000385,-0.00003042,0.00004452,0.00
 001845,0.00116738,-0.00072808,0.00083252,-0.00028589,0.00007778,-0.000
 58726,-0.00038841,0.00079799,0.00003446,-0.00105455,-0.00017833,-0.000
 13818,0.00037134,0.00001911,0.00003269,0.00214618,0.00294060,-0.002009
 95,0.00122194,0.00092313,-0.00060172,0.00017983,0.00000129,0.00008194,
 -0.01462340,0.00892427,-0.00762814,0.00061370,-0.00037197,0.00038084,-
 0.00374505,-0.00333254,0.00102816,0.00256219,0.00023702,0.00058581,0.0
 0019603,-0.00042261,-0.00000950,-0.00001524,0.00004325,0.00000748,-0.0
 0002497,0.00016695,0.00002234,-0.00008534,-0.00025182,-0.00006851,-0.0
 0006804,-0.00005330,0.00000724,0.00000283,-0.00002588,0.00000371,-0.00
 001764,0.00002250,-0.00005353,0.00002047,0.00004202,0.00002563,-0.0000
 3073,-0.00004553,-0.00005343,-0.00000051,-0.00000485,0.00000756,-0.000
 00086,0.00000651,0.00000992,0.00000672,0.00001155,0.00000114,0.0000238
 8,-0.00003361,-0.00000692,-0.00000362,0.00000146,0.00000291,-0.0000045
 9,0.00000238,-0.00000152,-0.00000048,0.00000922,-0.00000176,0.00001878
 ,0.00000377,-0.00002998,-0.00001423,-0.00000153,0.00000235,0.00000836,
 -0.00000594,-0.00000043,0.00000472,0.00000873,0.00000628,0.00044644,-0
 .00034443,-0.00000731,-0.00076186,-0.00017430,-0.00013013,0.00049758,-
 0.00011072,0.00027051,0.00018278,0.00031777,0.00027358,-0.00003867,0.0
 0003909,-0.00000685,-0.00021902,-0.00001231,-0.00000478,0.00060029,-0.
 00034041,-0.00011336,-0.00035401,0.00005936,-0.00005491,0.00013025,-0.
 00000839,-0.00008062,0.00013791,0.00056274,-0.00016152,-0.00116519,-0.
 00004279,-0.00017141,0.00023500,0.00012248,-0.00004247,0.00034314,0.00
 011530,0.00023423,0.00042437,-0.00009967,-0.00011776,-0.21446060,0.072
 86653,-0.06323151,-0.05660398,0.03018445,0.02299383,-0.05597428,-0.018
 04283,-0.03275478,0.33878561,-0.00001002,0.00001041,-0.00001807,-0.000
 06569,-0.00002840,-0.00001303,-0.00008498,-0.00006406,-0.00000480,-0.0
 0000411,0.00000433,0.00001207,-0.00005077,0.00001621,0.00001114,-0.000
 00221,0.,0.00000056,-0.00000925,-0.00000267,-0.00001290,0.00001205,-0.
 00000287,0.00000405,0.00002107,0.00000594,-0.00000210,0.00000163,0.000
 01076,-0.00001555,0.00006303,0.00002677,0.00000800,0.00006231,0.000040
 78,-0.00003403,0.00004226,0.00004229,0.00002757,0.00003723,-0.00000565
 ,0.00003207,0.00003827,-0.00002264,0.00000026,-0.00021471,0.00000981,0
 .00006222,0.00004561,-0.00002691,-0.00001262,0.00004754,0.00002434,-0.
 00004529,0.00026814,0.00000646,-0.00013213,-0.00000670,-0.00003116,0.0
 0000022,-0.00000597,0.00000330,-0.00000567,0.00000642,0.00000313,-0.00
 001317,0.00000561,0.00000337,0.00000538,-0.00003389,-0.00000082,-0.000
 02122,0.00000850,-0.00000133,-0.00000199,0.00000240,0.00000294,0.00000
 265,0.00000094,-0.00000023,0.00000237,-0.00001526,0.00000927,-0.000009
 86,-0.00000538,-0.00000101,-0.00000176,0.00000170,0.00000305,0.0000131
 9,0.00000858,-0.00000655,-0.00000076,0.00004054,0.00003064,0.00006670,
 -0.00006995,0.00022562,-0.00005292,-0.00045204,0.00041884,0.00044179,0
 .00004515,0.00016098,-0.00000528,0.00000368,0.00009411,-0.00001263,-0.
 00002083,-0.00000796,-0.00002539,-0.00000522,-0.00004461,-0.00001150,0
 .00002343,0.00004112,-0.00002157,-0.00001723,-0.00000684,-0.00000339,0
 .00000014,-0.00001447,-0.00000152,0.00014819,-0.00037500,0.00002336,0.
 00092181,-0.00005002,0.00002778,0.00012760,-0.00024020,-0.00019525,0.0
 0001993,-0.00013326,-0.00006651,-0.00006665,-0.00013493,-0.00001572,-0
 .00003434,0.00002767,0.00002275,0.00000331,-0.00001299,-0.00000847,0.0
 0001063,-0.00000176,-0.00000460,0.00004743,-0.00005194,-0.00002777,-0.
 00246184,0.00083107,-0.00112643,0.00058754,-0.00010568,0.00088772,0.00
 079847,-0.00122072,-0.00007244,0.00203367,-0.00063632,0.00096202,0.000
 32020,-0.00036926,0.00036340,-0.00359195,-0.00452568,0.00361831,0.0003
 8745,0.00000365,0.00032163,0.00001030,-0.00003448,-0.00002164,0.033692
 62,-0.00732215,0.01489391,-0.00019712,0.00008083,-0.00012990,0.0007918
 0,-0.00086964,0.00048179,0.00040579,-0.00198294,0.00124410,-0.00004359
 ,0.00013405,0.00013508,0.00002341,-0.00003289,-0.00002978,-0.00000608,
 -0.00005791,-0.00002617,-0.00003200,0.00008878,0.00009836,-0.00000834,
 0.00016151,0.00001461,0.00000225,0.00003831,-0.00000873,-0.00000925,-0
 .00004397,0.00007067,-0.00001678,-0.00004381,-0.00003037,0.00002639,0.
 00005672,0.00005686,0.00000168,0.00000624,-0.00000469,0.00000479,-0.00
 000935,-0.00001202,-0.00000795,-0.00001174,-0.00000103,-0.00003351,0.0
 0004025,0.00000867,0.00000428,-0.00000297,-0.00000489,0.00000677,-0.00
 000362,0.00000334,0.00000176,-0.00000984,0.00000154,-0.00000248,-0.000
 02749,0.00002487,0.00000616,0.00000272,-0.00000296,-0.00000393,0.00000
 250,-0.00000009,-0.00000497,0.00000403,-0.00000189,-0.00039264,0.00004
 107,0.00013834,0.00032881,0.00034858,-0.00004618,0.00001025,-0.0002831
 0,-0.00025208,0.00002285,0.00007196,0.00009141,-0.00006346,-0.00000370
 ,-0.00001955,0.00001672,0.00006131,0.00000610,0.00003026,-0.00022814,0
 .00012291,0.00005560,0.00004167,0.00002079,-0.00008517,0.00004999,0.00
 005387,0.00002745,0.00001125,-0.00009411,0.00171279,0.00068673,-0.0003
 1947,-0.00034130,-0.00039524,0.00021314,-0.00049862,-0.00025400,-0.000
 18716,-0.00064809,0.00006269,0.00023042,0.06399816,-0.11130200,0.03448
 876,0.02828918,-0.00053425,-0.01008279,-0.03172859,0.01444089,-0.01412
 403,-0.09430970,0.11309031,0.00000880,-0.00001456,0.00000471,0.0000529
 1,0.00001279,-0.00000652,0.00006660,0.00000688,-0.00003215,0.00000977,
 -0.00001358,-0.00001459,0.00003650,-0.00000938,-0.00001689,0.00000582,
 0.00000788,-0.00000428,0.00000867,-0.00000109,0.00001160,-0.00001027,0
 .00000369,-0.00000230,-0.00001405,-0.00000231,0.00000241,-0.00000296,-
 0.00000760,0.00000947,-0.00003904,0.00000815,0.00002900,-0.00005153,-0
 .00002310,0.00004837,-0.00004370,-0.00000504,0.00000450,-0.00002824,0.
 00000704,-0.00001083,-0.00002487,0.00002118,0.00000970,0.00011813,-0.0
 0000972,-0.00004186,-0.00002451,0.00001594,0.00000789,-0.00003860,-0.0
 0001821,0.00004146,-0.00012931,-0.00002833,0.00014002,0.00002544,0.000
 00467,-0.00000932,0.00000723,0.00000305,0.00000118,-0.00000966,-0.0000
 0615,0.00001631,-0.00000581,-0.00000039,-0.00000414,0.00002377,-0.0000
 0213,0.00001231,-0.00000748,0.00000191,0.00000291,0.00000029,-0.000000
 75,-0.00000100,0.00000009,-0.00000091,-0.00000079,0.00000726,-0.000006
 98,0.00000116,0.00000402,0.00000050,0.00000414,0.00000052,-0.00000132,
 -0.00000942,-0.00000628,0.00000504,0.00000041,-0.00002805,-0.00003165,
 -0.00009789,0.00002865,-0.00005629,0.00007061,0.00035618,-0.00036115,-
 0.00046853,-0.00003577,-0.00011639,-0.00001168,-0.00001082,-0.00005884
 ,0.00000582,0.00001646,0.00000319,0.00001999,0.00000388,0.00003499,0.0
 0000633,-0.00002303,-0.00003697,0.00002401,0.00001279,0.00000315,0.000
 00480,-0.00000144,0.00001465,0.00000389,-0.00009460,0.00027297,0.00002
 446,-0.00075989,0.00012139,0.00002635,-0.00001845,0.00000747,0.0003199
 9,-0.00000058,0.00006831,0.00009853,0.00004730,0.00008408,0.00002505,0
 .00002651,-0.00001905,-0.00002407,-0.00000338,0.00000868,0.00000634,-0
 .00000402,0.00000028,0.00000487,-0.00003155,0.00003418,0.00003028,0.00
 207438,-0.00101288,0.00062698,-0.00056987,0.00015181,-0.00072022,-0.00
 059817,0.00105269,0.00017279,-0.00136487,0.00038183,-0.00128272,-0.000
 36160,0.00032698,-0.00029920,0.00271115,0.00472830,-0.00138901,-0.0001
 0924,0.00012045,-0.00017447,0.00001942,0.00001843,0.00002575,-0.029072
 59,0.01443101,-0.00348240,0.00027244,-0.00016955,0.00025857,-0.0009604
 8,0.00009940,-0.00067029,0.00008891,0.00134397,-0.00088695,-0.00013965
 ,0.00019607,-0.00026283,-0.00001525,-0.00000068,0.00003736,0.00002307,
 -0.00000124,0.00003435,0.00002223,0.00007447,-0.00009521,0.00000652,-0
 .00008776,-0.00002062,-0.00000335,-0.00005312,0.00002001,0.00000728,0.
 00002861,-0.00008838,0.00001869,0.00004948,0.00002521,-0.00002184,-0.0
 0003869,-0.00004656,0.00000195,-0.00000377,0.00000423,-0.00000399,0.00
 000706,0.00000811,0.00000444,0.00000634,0.00000192,0.00002041,-0.00002
 598,-0.00000943,-0.00000432,0.00000259,0.00000477,-0.00000309,0.000002
 87,-0.00000082,-0.00000162,0.00000640,-0.00000111,0.00000158,0.0000161
 0,-0.00003569,-0.00000379,-0.00000247,0.00000365,0.00000085,0.00000257
 ,0.00000496,0.00000243,-0.00000299,0.00000058,0.00017390,-0.00004698,-
 0.00028778,-0.00023695,-0.00007789,0.00028265,0.00020745,-0.00013333,-
 0.00006731,0.00006897,0.00018867,0.00013100,0.00002384,0.00002902,0.00
 004102,-0.00009687,0.00001586,0.00003907,0.00004936,-0.00003446,-0.000
 30154,-0.00004945,-0.00001477,0.00008350,-0.00006636,0.00007829,0.0000
 8387,0.00001932,0.00000647,-0.00015111,-0.00145337,-0.00063540,0.00005
 860,0.00029333,0.00032466,-0.00013634,0.00045378,0.00023012,0.00026070
 ,0.00050129,-0.00000359,-0.00015013,-0.05608889,0.03491864,-0.09890479
 ,0.03679619,-0.01660817,0.00985019,-0.03350355,-0.00788471,-0.00442799
 ,0.08144624,-0.03192092,0.10157044\\-0.00000038,0.00000196,-0.00000083
 ,-0.00000007,0.00000289,-0.00000223,-0.00000062,0.00000064,-0.00000307
 ,-0.00000067,-0.00000054,-0.00000049,0.00000134,0.00000117,0.00000027,
 -0.00000114,0.00000047,-0.00000417,-0.00000026,0.00000221,-0.00000255,
 -0.00000006,0.00000250,-0.00000092,-0.00000001,-0.00000091,-0.00000081
 ,0.00000002,0.00000117,0.00000185,-0.00000155,-0.00000040,-0.00000293,
 -0.00000092,0.00000080,-0.00000305,-0.00000121,0.00000248,-0.00000300,
 0.00000029,0.00000397,-0.00000036,0.00000056,0.00000035,0.00000192,-0.
 00000038,-0.00000268,0.00000220,0.00000045,-0.00000188,0.00000150,-0.0
 0000088,-0.00000311,-0.00000041,-0.00000615,-0.00000535,0.00000951,-0.
 00000067,0.00000507,-0.00000394,-0.00000118,0.00000315,-0.00000520,-0.
 00000087,0.00000445,-0.00000380,-0.00000141,0.00000515,-0.00000522,0.0
 0000066,0.00000537,-0.00000024,0.00000042,0.00000486,0.00000040,0.0000
 0008,0.00000549,-0.00000129,0.00000054,0.00000601,0.00000094,0.0000013
 3,0.00000162,0.00000370,0.00000074,0.00000226,0.00000271,-0.00000013,-
 0.00000029,0.00000294,0.00000111,0.00000124,0.00000366,0.00000101,-0.0
 0000090,0.00000370,-0.00000263,0.00000137,0.00000674,0.00001302,-0.000
 00629,-0.00000356,-0.00000009,-0.00000034,0.00000281,0.00000120,-0.000
 00034,0.00000425,-0.00000090,-0.00000125,-0.00000228,0.00000212,-0.000
 00224,0.00000295,0.00000079,0.00000025,0.00000247,0.00000124,0.0000019
 0,0.00000435,0.00000110,-0.00000186,0.00000500,-0.00000563,0.00001479,
 0.00000091,0.00000145,0.00000339,-0.00000285,0.00000030,-0.00000105,0.
 00000140,0.00000130,-0.00000309,0.00000331,0.00000266,0.00000033,0.000
 00604,0.00000155,0.00000122,0.00000602,0.00000181,0.00000055,0.0000074
 2,0.00000101,0.00000177,0.00000542,0.00000159,-0.00000025,0.00000494,-
 0.00000239,-0.00000922,-0.00000063,-0.00000036,0.00000459,-0.00000017,
 0.00000382,0.00000606,-0.00000574,-0.00000006,0.00000185,-0.00000213,0
 .00000021,0.00000009,-0.00000107,-0.00000102,-0.00000137,-0.00000290,-
 0.00000056,-0.00000078,-0.00000109,0.00000054,0.00000153,0.00000062,-0
 .00000069,-0.00000094,-0.00000328,-0.00000091,-0.00000009,-0.00000356,
 -0.00000159,-0.00000107,-0.00000273,-0.00000047,-0.00000221,-0.0000024
 5,0.00000205,-0.00000294,0.00000149,-0.00000037,-0.00000400,0.00000015
 ,-0.00000016,-0.00000399,0.00000061,-0.00000123,-0.00000340,-0.0000014
 0,-0.00000016,-0.00000190,0.00000260,0.00000093,-0.00000143,0.00000333
 ,0.00000007,-0.00000205,0.00000166,0.00000056,-0.00000363,0.00000289,0
 .00000142,-0.00000258,0.00000692,0.00000128,-0.00000251,0.00000581,0.0
 0000180,-0.00000228,0.00000734,0.00000207,-0.00000118,0.00000753,0.000
 00225,-0.00000057,0.00000655,0.00000143,-0.00000183,0.00000713,0.00000
 167,0.00000026,0.00000673,0.00000226,-0.00000031,0.00000751,-0.0000015
 6,-0.00000067,-0.00000463,-0.00000114,-0.00000060,-0.00000463,-0.00000
 094,-0.00000164,-0.00000349,-0.00000136,-0.00000091,-0.00000542,-0.000
 00049,-0.00000303,-0.00000063,-0.00000207,0.00000158,-0.00000499,-0.00
 000119,0.00000119,-0.00000516,-0.00000134,0.00000055,-0.00000610,-0.00
 000116,0.00000175,-0.00000470,-0.00000161,0.00000086,-0.00000620,-0.00
 000104,-0.00000194,-0.00000596,-0.00000181,-0.00000177,-0.00000594,-0.
 00000181,-0.00000373,-0.00000445,-0.00000162,-0.00000214,-0.00000620,0
 .00000092,-0.00000016,-0.00000056,-0.00000003,0.00000030,0.00000094,0.
 00000009,-0.00000216,0.00000033,-0.00000055,0.00000021,-0.00000079,-0.
 00000139,-0.00000237,-0.00000483,-0.00000130,-0.00000324,-0.00000406,-
 0.00000161,-0.00000126,-0.00000559,-0.00000127,-0.00000304,-0.00000481
 \\\@


 THE CAUTIOUS SELDOM ERR...CONFUCIUS                   
 Job cpu time:       4 days 14 hours 52 minutes 20.8 seconds.
 Elapsed time:       0 days  3 hours 40 minutes 13.4 seconds.
 File lengths (MBytes):  RWF=   9766 Int=      0 D2E=      0 Chk=     86 Scr=      1
 Normal termination of Gaussian 16 at Sun May 26 08:30:21 2019.
