 Entering Gaussian System, Link 0=g16
 Input=clay_new-glu_gluC6-BDUL-Na2_1Me2O-bisCF3-ts-b3lyp_d3bj-631gd-pcm_thf.gjf
 Output=clay_new-glu_gluC6-BDUL-Na2_1Me2O-bisCF3-ts-b3lyp_d3bj-631gd-pcm_thf.out
 Initial command:
 /home/ekwan/sw/g16/l1.exe "/scratch/users/ekwan/clay_new-glu_gluC6-BDUL-Na2_1Me2O-bisCF3-ts-b3lyp_d3bj-631gd-pcm_thf/Gau-63618.inp" -scrdir="/scratch/users/ekwan/clay_new-glu_gluC6-BDUL-Na2_1Me2O-bisCF3-ts-b3lyp_d3bj-631gd-pcm_thf/"
 Entering Link 1 = /home/ekwan/sw/g16/l1.exe PID=     63619.
  
 Copyright (c) 1988,1990,1992,1993,1995,1998,2003,2009,2016,
            Gaussian, Inc.  All Rights Reserved.
  
 This is part of the Gaussian(R) 16 program.  It is based on
 the Gaussian(R) 09 system (copyright 2009, Gaussian, Inc.),
 the Gaussian(R) 03 system (copyright 2003, Gaussian, Inc.),
 the Gaussian(R) 98 system (copyright 1998, Gaussian, Inc.),
 the Gaussian(R) 94 system (copyright 1995, Gaussian, Inc.),
 the Gaussian 92(TM) system (copyright 1992, Gaussian, Inc.),
 the Gaussian 90(TM) system (copyright 1990, Gaussian, Inc.),
 the Gaussian 88(TM) system (copyright 1988, Gaussian, Inc.),
 the Gaussian 86(TM) system (copyright 1986, Carnegie Mellon
 University), and the Gaussian 82(TM) system (copyright 1983,
 Carnegie Mellon University). Gaussian is a federally registered
 trademark of Gaussian, Inc.
  
 This software contains proprietary and confidential information,
 including trade secrets, belonging to Gaussian, Inc.
  
 This software is provided under written license and may be
 used, copied, transmitted, or stored only in accord with that
 written license.
  
 The following legend is applicable only to US Government
 contracts under FAR:
  
                    RESTRICTED RIGHTS LEGEND
  
 Use, reproduction and disclosure by the US Government is
 subject to restrictions as set forth in subparagraphs (a)
 and (c) of the Commercial Computer Software - Restricted
 Rights clause in FAR 52.227-19.
  
 Gaussian, Inc.
 340 Quinnipiac St., Bldg. 40, Wallingford CT 06492
  
  
 ---------------------------------------------------------------
 Warning -- This program may not be used in any manner that
 competes with the business of Gaussian, Inc. or will provide
 assistance to any competitor of Gaussian, Inc.  The licensee
 of this program is prohibited from giving any competitor of
 Gaussian, Inc. access to this program.  By using this program,
 the user acknowledges that Gaussian, Inc. is engaged in the
 business of creating and licensing software in the field of
 computational chemistry and represents and warrants to the
 licensee that it is not a competitor of Gaussian, Inc. and that
 it will not use this program in any manner prohibited above.
 ---------------------------------------------------------------
  

 Cite this work as:
 Gaussian 16, Revision A.03,
 M. J. Frisch, G. W. Trucks, H. B. Schlegel, G. E. Scuseria, 
 M. A. Robb, J. R. Cheeseman, G. Scalmani, V. Barone, 
 G. A. Petersson, H. Nakatsuji, X. Li, M. Caricato, A. V. Marenich, 
 J. Bloino, B. G. Janesko, R. Gomperts, B. Mennucci, H. P. Hratchian, 
 J. V. Ortiz, A. F. Izmaylov, J. L. Sonnenberg, D. Williams-Young, 
 F. Ding, F. Lipparini, F. Egidi, J. Goings, B. Peng, A. Petrone, 
 T. Henderson, D. Ranasinghe, V. G. Zakrzewski, J. Gao, N. Rega, 
 G. Zheng, W. Liang, M. Hada, M. Ehara, K. Toyota, R. Fukuda, 
 J. Hasegawa, M. Ishida, T. Nakajima, Y. Honda, O. Kitao, H. Nakai, 
 T. Vreven, K. Throssell, J. A. Montgomery, Jr., J. E. Peralta, 
 F. Ogliaro, M. J. Bearpark, J. J. Heyd, E. N. Brothers, K. N. Kudin, 
 V. N. Staroverov, T. A. Keith, R. Kobayashi, J. Normand, 
 K. Raghavachari, A. P. Rendell, J. C. Burant, S. S. Iyengar, 
 J. Tomasi, M. Cossi, J. M. Millam, M. Klene, C. Adamo, R. Cammi, 
 J. W. Ochterski, R. L. Martin, K. Morokuma, O. Farkas, 
 J. B. Foresman, and D. J. Fox, Gaussian, Inc., Wallingford CT, 2016.
 
 ******************************************
 Gaussian 16:  AS64L-G16RevA.03 25-Dec-2016
                24-May-2019 
 ******************************************
 %mem=48GB
 %nprocshared=32
 Will use up to   32 processors via shared memory.
 ----------------------------------------------------------------------
 #p opt=(ts,noeigentest,calcfc,maxstep=3,modredundant,recalc=30) freq=n
 oraman b3lyp 6-31g* pop=none scrf=(solvent=tetrahydrofuran,pcm) empiri
 caldispersion=gd3bj
 ----------------------------------------------------------------------
 1/5=1,8=3,10=4,11=1,18=120,26=3,38=1,71=30/1,3;
 2/9=110,12=2,17=6,18=5,40=1/2;
 3/5=1,6=6,7=1,11=2,25=1,30=1,70=2201,71=2,72=20,74=-5,124=41,140=1/1,2,3;
 4//1;
 5/5=2,38=5,53=20/2;
 8/6=4,10=90,11=11/1;
 11/6=1,8=1,9=11,15=111,16=1/1,2,10;
 10/6=1,13=1/2;
 7/10=1,18=20,25=1/1,2,3,16;
 1/5=1,8=3,10=4,11=1,18=20,26=3,71=30/3(2);
 2/9=110/2;
 99//99;
 2/9=110/2;
 3/5=1,6=6,7=1,11=2,25=1,30=1,70=2205,71=1,72=20,74=-5,124=41/1,2,3;
 4/5=5,16=3,69=1/1;
 5/5=2,38=5,53=20/2;
 7//1,2,3,16;
 1/5=1,8=3,11=1,18=20,26=3,71=30/3(-5);
 2/9=110/2;
 99/9=1/99;
 Leave Link    1 at Fri May 24 00:02:49 2019, MaxMem=  6442450944 cpu:               5.3 elap:               0.2
 (Enter /home/ekwan/sw/g16/l101.exe)
 -----
 title
 -----
 Symbolic Z-matrix:
 Charge =  0 Multiplicity = 1
 C                    -5.80015  -0.71938  -0.01541 
 C                    -5.45154   0.56943   0.72841 
 C                    -3.95741   0.58248   1.0906 
 C                    -3.37763  -0.78451  -0.80576 
 C                    -4.85081  -0.9496   -1.19202 
 H                    -3.6504    1.55742   1.49224 
 H                    -5.62471   1.42254   0.05204 
 H                    -5.69668  -1.56369   0.67766 
 H                    -3.07981  -1.63263  -0.17816 
 H                    -5.09432  -0.22147  -1.97939 
 O                    -3.18126   0.43726  -0.07442 
 O                    -3.73958  -0.41628   2.05207 
 O                    -6.30412   0.67028   1.85464 
 O                    -7.12685  -0.67096  -0.53307 
 O                    -5.02561  -2.27841  -1.68284 
 C                    -2.44339  -0.71303  -2.02409 
 H                    -2.74107   0.21317  -2.56994 
 H                    -2.75064  -1.55508  -2.68265 
 O                    -1.11121  -0.73422  -1.69898 
 C                    -6.23349   1.91629   2.52598 
 H                    -5.28999   2.03637   3.07541 
 H                    -6.34342   2.75683   1.82401 
 H                    -7.05964   1.93864   3.2407 
 C                    -8.09974  -1.30466   0.28521 
 H                    -7.86162  -2.36863   0.43109 
 H                    -8.18161  -0.81926   1.26325 
 H                    -9.05361  -1.22569  -0.2437 
 C                    -5.79375  -2.37289  -2.87248 
 H                    -6.80091  -1.9668   -2.72963 
 H                    -5.30564  -1.84422  -3.70441 
 H                    -5.85999  -3.43576  -3.12058 
 C                     1.63698   2.50541  -0.78307 
 C                     0.86611   1.20264  -1.01859 
 C                    -0.20522   1.01778   0.01181 
 C                    -0.44237   3.40563   0.35011 
 C                     0.62019   3.64488  -0.72984 
 H                    -0.64994   0.05389   0.17872 
 H                     0.29895   1.28622  -1.95581 
 H                     2.17329   2.44503   0.17033 
 H                    -0.0092    3.64131   1.32534 
 H                     0.13076   3.72373  -1.70785 
 O                    -0.87812   2.00784   0.4658 
 O                     0.62057  -1.70895   1.50935 
 O                     1.69396   0.06144  -1.06673 
 O                     2.53714   2.76197  -1.84801 
 O                     1.22131   4.87691  -0.37291 
 C                    -1.71538   4.19865   0.13765 
 H                    -1.48092   5.27121   0.20583 
 H                    -2.42732   3.94999   0.93816 
 O                    -2.23657   3.85589  -1.12835 
 S                     1.5054   -0.6704    2.1194 
 O                     1.69915  -0.81573   3.574 
 O                     1.10494   0.73152   1.72771 
 C                     3.10881  -0.90433   1.34172 
 C                     4.04757   0.12517   1.39531 
 C                     3.37947  -2.082     0.6618 
 C                     5.25999  -0.03015   0.73145 
 H                     3.81894   1.0458    1.91739 
 C                     4.59244  -2.21586  -0.01837 
 H                     2.64104  -2.87434   0.63821 
 C                     5.53627  -1.19509   0.00827 
 H                     6.46977  -1.29785  -0.53211 
 C                     1.97268  -0.38474  -2.40043 
 H                     1.03677  -0.67944  -2.88778 
 H                     2.46942   0.40029  -2.9788 
 H                     2.64134  -1.24205  -2.29935 
 C                     3.89453   2.45114  -1.55309 
 H                     4.23266   2.97387  -0.64966 
 H                     4.04103   1.37505  -1.41751 
 H                     4.48584   2.79144  -2.406 
 C                     1.51455   5.72698  -1.47917 
 H                     2.22764   5.25615  -2.16232 
 H                     0.59923   5.9846   -2.02995 
 H                     1.94904   6.63762  -1.06051 
 C                    -3.5855    4.25359  -1.2978 
 H                    -3.88569   3.94069  -2.29993 
 H                    -4.23868   3.7671   -0.5581 
 H                    -3.70132   5.3437   -1.20836 
 C                    -2.42728  -0.39942   2.60714 
 H                    -2.45707  -1.01691   3.50772 
 H                    -1.68683  -0.81458   1.91911 
 H                    -2.12671   0.6224    2.87538 
 Na                   -0.01273  -2.26478  -0.61917 
 O                    -1.5179   -3.87307   0.08083 
 C                    -2.04504  -3.83122   1.40385 
 H                    -2.26291  -4.84557   1.76498 
 H                    -1.28323  -3.36836   2.03245 
 H                    -2.96334  -3.22982   1.44215 
 C                    -2.42193  -4.46572  -0.84949 
 H                    -3.35089  -3.88804  -0.92291 
 H                    -1.92383  -4.46677  -1.82214 
 H                    -2.64949  -5.50038  -0.55818 
 C                     6.28869   1.06661   0.74402 
 F                     6.6546    1.40577  -0.51726 
 F                     7.41568   0.69021   1.38547 
 F                     5.83593   2.188     1.34312 
 C                     4.80431  -3.44345  -0.85772 
 F                     6.07736  -3.57395  -1.27443 
 F                     4.02029  -3.40774  -1.97028 
 F                     4.46844  -4.56968  -0.1927 
 
 Add virtual bond connecting atoms C34        and O53        Dist= 4.12D+00.
 Add virtual bond connecting atoms H37        and O19        Dist= 3.95D+00.
 Add virtual bond connecting atoms H37        and H81        Dist= 4.17D+00.
 Add virtual bond connecting atoms O84        and Na83       Dist= 4.37D+00.
 Add virtual bond connecting atoms H88        and H9         Dist= 4.31D+00.
 Add virtual bond connecting atoms H90        and H9         Dist= 4.52D+00.
 The following ModRedundant input section has been read:
 
 ITRead=  0  0  0  0  0  0  0  0  0  0  0  0  0  0  0  0  0  0  0  0
 ITRead=  0  0  0  0  0  0  0  0  0  0  0  0  0  0  0  0  0  0  0  0
 ITRead=  0  0  0  0  0  0  0  0  0  0  0  0  0  0  0  0  0  0  0  0
 ITRead=  0  0  0  0  0  0  0  0  0  0  0  0  0  0  0  0  0  0  0  0
 ITRead=  0  0  0  0  0  0  0  0  0  0  0  0  0  0  0  0  0  0  0  0
 MicOpt= -1 -1 -1 -1 -1 -1 -1 -1 -1 -1 -1 -1 -1 -1 -1 -1 -1 -1 -1 -1
 MicOpt= -1 -1 -1 -1 -1 -1 -1 -1 -1 -1 -1 -1 -1 -1 -1 -1 -1 -1 -1 -1
 MicOpt= -1 -1 -1 -1 -1 -1 -1 -1 -1 -1 -1 -1 -1 -1 -1 -1 -1 -1 -1 -1
 MicOpt= -1 -1 -1 -1 -1 -1 -1 -1 -1 -1 -1 -1 -1 -1 -1 -1 -1 -1 -1 -1
 MicOpt= -1 -1 -1 -1 -1 -1 -1 -1 -1 -1 -1 -1 -1 -1 -1 -1 -1 -1 -1 -1
 NAtoms=    100 NQM=      100 NQMF=       0 NMMI=      0 NMMIF=      0
                NMic=       0 NMicF=      0.
                    Isotopes and Nuclear Properties:
 (Nuclear quadrupole moments (NQMom) in fm**2, nuclear magnetic moments (NMagM)
  in nuclear magnetons)

  Atom         1           2           3           4           5           6           7           8           9          10
 IAtWgt=          12          12          12          12          12           1           1           1           1           1
 AtmWgt=  12.0000000  12.0000000  12.0000000  12.0000000  12.0000000   1.0078250   1.0078250   1.0078250   1.0078250   1.0078250
 NucSpn=           0           0           0           0           0           1           1           1           1           1
 AtZEff=   0.0000000   0.0000000   0.0000000   0.0000000   0.0000000   0.0000000   0.0000000   0.0000000   0.0000000   0.0000000
 NQMom=    0.0000000   0.0000000   0.0000000   0.0000000   0.0000000   0.0000000   0.0000000   0.0000000   0.0000000   0.0000000
 NMagM=    0.0000000   0.0000000   0.0000000   0.0000000   0.0000000   2.7928460   2.7928460   2.7928460   2.7928460   2.7928460
 AtZNuc=   6.0000000   6.0000000   6.0000000   6.0000000   6.0000000   1.0000000   1.0000000   1.0000000   1.0000000   1.0000000

  Atom        11          12          13          14          15          16          17          18          19          20
 IAtWgt=          16          16          16          16          16          12           1           1          16          12
 AtmWgt=  15.9949146  15.9949146  15.9949146  15.9949146  15.9949146  12.0000000   1.0078250   1.0078250  15.9949146  12.0000000
 NucSpn=           0           0           0           0           0           0           1           1           0           0
 AtZEff=   0.0000000   0.0000000   0.0000000   0.0000000   0.0000000   0.0000000   0.0000000   0.0000000   0.0000000   0.0000000
 NQMom=    0.0000000   0.0000000   0.0000000   0.0000000   0.0000000   0.0000000   0.0000000   0.0000000   0.0000000   0.0000000
 NMagM=    0.0000000   0.0000000   0.0000000   0.0000000   0.0000000   0.0000000   2.7928460   2.7928460   0.0000000   0.0000000
 AtZNuc=   8.0000000   8.0000000   8.0000000   8.0000000   8.0000000   6.0000000   1.0000000   1.0000000   8.0000000   6.0000000

  Atom        21          22          23          24          25          26          27          28          29          30
 IAtWgt=           1           1           1          12           1           1           1          12           1           1
 AtmWgt=   1.0078250   1.0078250   1.0078250  12.0000000   1.0078250   1.0078250   1.0078250  12.0000000   1.0078250   1.0078250
 NucSpn=           1           1           1           0           1           1           1           0           1           1
 AtZEff=   0.0000000   0.0000000   0.0000000   0.0000000   0.0000000   0.0000000   0.0000000   0.0000000   0.0000000   0.0000000
 NQMom=    0.0000000   0.0000000   0.0000000   0.0000000   0.0000000   0.0000000   0.0000000   0.0000000   0.0000000   0.0000000
 NMagM=    2.7928460   2.7928460   2.7928460   0.0000000   2.7928460   2.7928460   2.7928460   0.0000000   2.7928460   2.7928460
 AtZNuc=   1.0000000   1.0000000   1.0000000   6.0000000   1.0000000   1.0000000   1.0000000   6.0000000   1.0000000   1.0000000

  Atom        31          32          33          34          35          36          37          38          39          40
 IAtWgt=           1          12          12          12          12          12           1           1           1           1
 AtmWgt=   1.0078250  12.0000000  12.0000000  12.0000000  12.0000000  12.0000000   1.0078250   1.0078250   1.0078250   1.0078250
 NucSpn=           1           0           0           0           0           0           1           1           1           1
 AtZEff=   0.0000000   0.0000000   0.0000000   0.0000000   0.0000000   0.0000000   0.0000000   0.0000000   0.0000000   0.0000000
 NQMom=    0.0000000   0.0000000   0.0000000   0.0000000   0.0000000   0.0000000   0.0000000   0.0000000   0.0000000   0.0000000
 NMagM=    2.7928460   0.0000000   0.0000000   0.0000000   0.0000000   0.0000000   2.7928460   2.7928460   2.7928460   2.7928460
 AtZNuc=   1.0000000   6.0000000   6.0000000   6.0000000   6.0000000   6.0000000   1.0000000   1.0000000   1.0000000   1.0000000

  Atom        41          42          43          44          45          46          47          48          49          50
 IAtWgt=           1          16          16          16          16          16          12           1           1          16
 AtmWgt=   1.0078250  15.9949146  15.9949146  15.9949146  15.9949146  15.9949146  12.0000000   1.0078250   1.0078250  15.9949146
 NucSpn=           1           0           0           0           0           0           0           1           1           0
 AtZEff=   0.0000000   0.0000000   0.0000000   0.0000000   0.0000000   0.0000000   0.0000000   0.0000000   0.0000000   0.0000000
 NQMom=    0.0000000   0.0000000   0.0000000   0.0000000   0.0000000   0.0000000   0.0000000   0.0000000   0.0000000   0.0000000
 NMagM=    2.7928460   0.0000000   0.0000000   0.0000000   0.0000000   0.0000000   0.0000000   2.7928460   2.7928460   0.0000000
 AtZNuc=   1.0000000   8.0000000   8.0000000   8.0000000   8.0000000   8.0000000   6.0000000   1.0000000   1.0000000   8.0000000

  Atom        51          52          53          54          55          56          57          58          59          60
 IAtWgt=          32          16          16          12          12          12          12           1          12           1
 AtmWgt=  31.9720718  15.9949146  15.9949146  12.0000000  12.0000000  12.0000000  12.0000000   1.0078250  12.0000000   1.0078250
 NucSpn=           0           0           0           0           0           0           0           1           0           1
 AtZEff=   0.0000000   0.0000000   0.0000000   0.0000000   0.0000000   0.0000000   0.0000000   0.0000000   0.0000000   0.0000000
 NQMom=    0.0000000   0.0000000   0.0000000   0.0000000   0.0000000   0.0000000   0.0000000   0.0000000   0.0000000   0.0000000
 NMagM=    0.0000000   0.0000000   0.0000000   0.0000000   0.0000000   0.0000000   0.0000000   2.7928460   0.0000000   2.7928460
 AtZNuc=  16.0000000   8.0000000   8.0000000   6.0000000   6.0000000   6.0000000   6.0000000   1.0000000   6.0000000   1.0000000

  Atom        61          62          63          64          65          66          67          68          69          70
 IAtWgt=          12           1          12           1           1           1          12           1           1           1
 AtmWgt=  12.0000000   1.0078250  12.0000000   1.0078250   1.0078250   1.0078250  12.0000000   1.0078250   1.0078250   1.0078250
 NucSpn=           0           1           0           1           1           1           0           1           1           1
 AtZEff=   0.0000000   0.0000000   0.0000000   0.0000000   0.0000000   0.0000000   0.0000000   0.0000000   0.0000000   0.0000000
 NQMom=    0.0000000   0.0000000   0.0000000   0.0000000   0.0000000   0.0000000   0.0000000   0.0000000   0.0000000   0.0000000
 NMagM=    0.0000000   2.7928460   0.0000000   2.7928460   2.7928460   2.7928460   0.0000000   2.7928460   2.7928460   2.7928460
 AtZNuc=   6.0000000   1.0000000   6.0000000   1.0000000   1.0000000   1.0000000   6.0000000   1.0000000   1.0000000   1.0000000

  Atom        71          72          73          74          75          76          77          78          79          80
 IAtWgt=          12           1           1           1          12           1           1           1          12           1
 AtmWgt=  12.0000000   1.0078250   1.0078250   1.0078250  12.0000000   1.0078250   1.0078250   1.0078250  12.0000000   1.0078250
 NucSpn=           0           1           1           1           0           1           1           1           0           1
 AtZEff=   0.0000000   0.0000000   0.0000000   0.0000000   0.0000000   0.0000000   0.0000000   0.0000000   0.0000000   0.0000000
 NQMom=    0.0000000   0.0000000   0.0000000   0.0000000   0.0000000   0.0000000   0.0000000   0.0000000   0.0000000   0.0000000
 NMagM=    0.0000000   2.7928460   2.7928460   2.7928460   0.0000000   2.7928460   2.7928460   2.7928460   0.0000000   2.7928460
 AtZNuc=   6.0000000   1.0000000   1.0000000   1.0000000   6.0000000   1.0000000   1.0000000   1.0000000   6.0000000   1.0000000

  Atom        81          82          83          84          85          86          87          88          89          90
 IAtWgt=           1           1          23          16          12           1           1           1          12           1
 AtmWgt=   1.0078250   1.0078250  22.9897697  15.9949146  12.0000000   1.0078250   1.0078250   1.0078250  12.0000000   1.0078250
 NucSpn=           1           1           3           0           0           1           1           1           0           1
 AtZEff=   0.0000000   0.0000000   0.0000000   0.0000000   0.0000000   0.0000000   0.0000000   0.0000000   0.0000000   0.0000000
 NQMom=    0.0000000   0.0000000  10.4000000   0.0000000   0.0000000   0.0000000   0.0000000   0.0000000   0.0000000   0.0000000
 NMagM=    2.7928460   2.7928460   2.2175200   0.0000000   0.0000000   2.7928460   2.7928460   2.7928460   0.0000000   2.7928460
 AtZNuc=   1.0000000   1.0000000  11.0000000   8.0000000   6.0000000   1.0000000   1.0000000   1.0000000   6.0000000   1.0000000

  Atom        91          92          93          94          95          96          97          98          99         100
 IAtWgt=           1           1          12          19          19          19          12          19          19          19
 AtmWgt=   1.0078250   1.0078250  12.0000000  18.9984033  18.9984033  18.9984033  12.0000000  18.9984033  18.9984033  18.9984033
 NucSpn=           1           1           0           1           1           1           0           1           1           1
 AtZEff=   0.0000000   0.0000000   0.0000000   0.0000000   0.0000000   0.0000000   0.0000000   0.0000000   0.0000000   0.0000000
 NQMom=    0.0000000   0.0000000   0.0000000   0.0000000   0.0000000   0.0000000   0.0000000   0.0000000   0.0000000   0.0000000
 NMagM=    2.7928460   2.7928460   0.0000000   2.6288670   2.6288670   2.6288670   0.0000000   2.6288670   2.6288670   2.6288670
 AtZNuc=   1.0000000   1.0000000   6.0000000   9.0000000   9.0000000   9.0000000   6.0000000   9.0000000   9.0000000   9.0000000
 Leave Link  101 at Fri May 24 00:02:50 2019, MaxMem=  6442450944 cpu:              16.6 elap:               0.7
 (Enter /home/ekwan/sw/g16/l103.exe)

 GradGradGradGradGradGradGradGradGradGradGradGradGradGradGradGradGradGrad
 Berny optimization.
 Initialization pass.
                           ----------------------------
                           !    Initial Parameters    !
                           ! (Angstroms and Degrees)  !
 --------------------------                            --------------------------
 ! Name  Definition              Value          Derivative Info.                !
 --------------------------------------------------------------------------------
 ! R1    R(1,2)                  1.5283         calculate D2E/DX2 analytically  !
 ! R2    R(1,5)                  1.5293         calculate D2E/DX2 analytically  !
 ! R3    R(1,8)                  1.0972         calculate D2E/DX2 analytically  !
 ! R4    R(1,14)                 1.4249         calculate D2E/DX2 analytically  !
 ! R5    R(2,3)                  1.5375         calculate D2E/DX2 analytically  !
 ! R6    R(2,7)                  1.1024         calculate D2E/DX2 analytically  !
 ! R7    R(2,13)                 1.4161         calculate D2E/DX2 analytically  !
 ! R8    R(3,6)                  1.0982         calculate D2E/DX2 analytically  !
 ! R9    R(3,11)                 1.4074         calculate D2E/DX2 analytically  !
 ! R10   R(3,12)                 1.4033         calculate D2E/DX2 analytically  !
 ! R11   R(4,5)                  1.5319         calculate D2E/DX2 analytically  !
 ! R12   R(4,9)                  1.0963         calculate D2E/DX2 analytically  !
 ! R13   R(4,11)                 1.4374         calculate D2E/DX2 analytically  !
 ! R14   R(4,16)                 1.537          calculate D2E/DX2 analytically  !
 ! R15   R(5,10)                 1.0997         calculate D2E/DX2 analytically  !
 ! R16   R(5,15)                 1.4273         calculate D2E/DX2 analytically  !
 ! R17   R(9,88)                 2.2782         calculate D2E/DX2 analytically  !
 ! R18   R(9,90)                 2.3906         calculate D2E/DX2 analytically  !
 ! R19   R(12,79)                1.425          calculate D2E/DX2 analytically  !
 ! R20   R(13,20)                1.4171         calculate D2E/DX2 analytically  !
 ! R21   R(14,24)                1.4204         calculate D2E/DX2 analytically  !
 ! R22   R(15,28)                1.4192         calculate D2E/DX2 analytically  !
 ! R23   R(16,17)                1.1155         calculate D2E/DX2 analytically  !
 ! R24   R(16,18)                1.1123         calculate D2E/DX2 analytically  !
 ! R25   R(16,19)                1.3714         calculate D2E/DX2 analytically  !
 ! R26   R(19,37)                2.088          calculate D2E/DX2 analytically  !
 ! R27   R(19,83)                2.1715         calculate D2E/DX2 analytically  !
 ! R28   R(20,21)                1.0984         calculate D2E/DX2 analytically  !
 ! R29   R(20,22)                1.1006         calculate D2E/DX2 analytically  !
 ! R30   R(20,23)                1.0926         calculate D2E/DX2 analytically  !
 ! R31   R(24,25)                1.1            calculate D2E/DX2 analytically  !
 ! R32   R(24,26)                1.0949         calculate D2E/DX2 analytically  !
 ! R33   R(24,27)                1.0935         calculate D2E/DX2 analytically  !
 ! R34   R(28,29)                1.0953         calculate D2E/DX2 analytically  !
 ! R35   R(28,30)                1.0999         calculate D2E/DX2 analytically  !
 ! R36   R(28,31)                1.0935         calculate D2E/DX2 analytically  !
 ! R37   R(32,33)                1.532          calculate D2E/DX2 analytically  !
 ! R38   R(32,36)                1.5281         calculate D2E/DX2 analytically  !
 ! R39   R(32,39)                1.0956         calculate D2E/DX2 analytically  !
 ! R40   R(32,45)                1.4178         calculate D2E/DX2 analytically  !
 ! R41   R(33,34)                1.4979         calculate D2E/DX2 analytically  !
 ! R42   R(33,38)                1.0987         calculate D2E/DX2 analytically  !
 ! R43   R(33,44)                1.4107         calculate D2E/DX2 analytically  !
 ! R44   R(34,37)                1.0746         calculate D2E/DX2 analytically  !
 ! R45   R(34,42)                1.2803         calculate D2E/DX2 analytically  !
 ! R46   R(34,53)                2.1778         calculate D2E/DX2 analytically  !
 ! R47   R(35,36)                1.5338         calculate D2E/DX2 analytically  !
 ! R48   R(35,40)                1.0928         calculate D2E/DX2 analytically  !
 ! R49   R(35,42)                1.4687         calculate D2E/DX2 analytically  !
 ! R50   R(35,47)                1.5148         calculate D2E/DX2 analytically  !
 ! R51   R(36,41)                1.0965         calculate D2E/DX2 analytically  !
 ! R52   R(36,46)                1.4166         calculate D2E/DX2 analytically  !
 ! R53   R(37,81)                2.2042         calculate D2E/DX2 analytically  !
 ! R54   R(43,51)                1.4945         calculate D2E/DX2 analytically  !
 ! R55   R(43,83)                2.2892         calculate D2E/DX2 analytically  !
 ! R56   R(44,63)                1.4337         calculate D2E/DX2 analytically  !
 ! R57   R(45,67)                1.4234         calculate D2E/DX2 analytically  !
 ! R58   R(46,71)                1.4256         calculate D2E/DX2 analytically  !
 ! R59   R(47,48)                1.1            calculate D2E/DX2 analytically  !
 ! R60   R(47,49)                1.0998         calculate D2E/DX2 analytically  !
 ! R61   R(47,50)                1.4113         calculate D2E/DX2 analytically  !
 ! R62   R(50,75)                1.4165         calculate D2E/DX2 analytically  !
 ! R63   R(51,52)                1.4746         calculate D2E/DX2 analytically  !
 ! R64   R(51,53)                1.5097         calculate D2E/DX2 analytically  !
 ! R65   R(51,54)                1.7973         calculate D2E/DX2 analytically  !
 ! R66   R(54,55)                1.3943         calculate D2E/DX2 analytically  !
 ! R67   R(54,56)                1.3865         calculate D2E/DX2 analytically  !
 ! R68   R(55,57)                1.391          calculate D2E/DX2 analytically  !
 ! R69   R(55,58)                1.0828         calculate D2E/DX2 analytically  !
 ! R70   R(56,59)                1.3971         calculate D2E/DX2 analytically  !
 ! R71   R(56,60)                1.0833         calculate D2E/DX2 analytically  !
 ! R72   R(57,61)                1.3987         calculate D2E/DX2 analytically  !
 ! R73   R(57,93)                1.5038         calculate D2E/DX2 analytically  !
 ! R74   R(59,61)                1.3905         calculate D2E/DX2 analytically  !
 ! R75   R(59,97)                1.5021         calculate D2E/DX2 analytically  !
 ! R76   R(61,62)                1.0835         calculate D2E/DX2 analytically  !
 ! R77   R(63,64)                1.0956         calculate D2E/DX2 analytically  !
 ! R78   R(63,65)                1.0943         calculate D2E/DX2 analytically  !
 ! R79   R(63,66)                1.0919         calculate D2E/DX2 analytically  !
 ! R80   R(67,68)                1.0972         calculate D2E/DX2 analytically  !
 ! R81   R(67,69)                1.0944         calculate D2E/DX2 analytically  !
 ! R82   R(67,70)                1.0922         calculate D2E/DX2 analytically  !
 ! R83   R(71,72)                1.094          calculate D2E/DX2 analytically  !
 ! R84   R(71,73)                1.0989         calculate D2E/DX2 analytically  !
 ! R85   R(71,74)                1.0924         calculate D2E/DX2 analytically  !
 ! R86   R(75,76)                1.0919         calculate D2E/DX2 analytically  !
 ! R87   R(75,77)                1.1002         calculate D2E/DX2 analytically  !
 ! R88   R(75,78)                1.0999         calculate D2E/DX2 analytically  !
 ! R89   R(79,80)                1.0923         calculate D2E/DX2 analytically  !
 ! R90   R(79,81)                1.0927         calculate D2E/DX2 analytically  !
 ! R91   R(79,82)                1.0984         calculate D2E/DX2 analytically  !
 ! R92   R(83,84)                2.3113         calculate D2E/DX2 analytically  !
 ! R93   R(84,85)                1.4248         calculate D2E/DX2 analytically  !
 ! R94   R(84,89)                1.4262         calculate D2E/DX2 analytically  !
 ! R95   R(85,86)                1.0985         calculate D2E/DX2 analytically  !
 ! R96   R(85,87)                1.0907         calculate D2E/DX2 analytically  !
 ! R97   R(85,88)                1.0984         calculate D2E/DX2 analytically  !
 ! R98   R(89,90)                1.0964         calculate D2E/DX2 analytically  !
 ! R99   R(89,91)                1.0928         calculate D2E/DX2 analytically  !
 ! R100  R(89,92)                1.0987         calculate D2E/DX2 analytically  !
 ! R101  R(93,94)                1.3564         calculate D2E/DX2 analytically  !
 ! R102  R(93,95)                1.3503         calculate D2E/DX2 analytically  !
 ! R103  R(93,96)                1.3496         calculate D2E/DX2 analytically  !
 ! R104  R(97,98)                1.3459         calculate D2E/DX2 analytically  !
 ! R105  R(97,99)                1.3615         calculate D2E/DX2 analytically  !
 ! R106  R(97,100)               1.3504         calculate D2E/DX2 analytically  !
 ! A1    A(2,1,5)              111.0884         calculate D2E/DX2 analytically  !
 ! A2    A(2,1,8)              108.6611         calculate D2E/DX2 analytically  !
 ! A3    A(2,1,14)             111.1326         calculate D2E/DX2 analytically  !
 ! A4    A(5,1,8)              108.1558         calculate D2E/DX2 analytically  !
 ! A5    A(5,1,14)             107.6732         calculate D2E/DX2 analytically  !
 ! A6    A(8,1,14)             110.085          calculate D2E/DX2 analytically  !
 ! A7    A(1,2,3)              110.0889         calculate D2E/DX2 analytically  !
 ! A8    A(1,2,7)              108.5511         calculate D2E/DX2 analytically  !
 ! A9    A(1,2,13)             108.0464         calculate D2E/DX2 analytically  !
 ! A10   A(3,2,7)              106.895          calculate D2E/DX2 analytically  !
 ! A11   A(3,2,13)             113.3985         calculate D2E/DX2 analytically  !
 ! A12   A(7,2,13)             109.7711         calculate D2E/DX2 analytically  !
 ! A13   A(2,3,6)              111.4299         calculate D2E/DX2 analytically  !
 ! A14   A(2,3,11)             109.8803         calculate D2E/DX2 analytically  !
 ! A15   A(2,3,12)             107.8303         calculate D2E/DX2 analytically  !
 ! A16   A(6,3,11)             103.8973         calculate D2E/DX2 analytically  !
 ! A17   A(6,3,12)             109.7457         calculate D2E/DX2 analytically  !
 ! A18   A(11,3,12)            114.0855         calculate D2E/DX2 analytically  !
 ! A19   A(5,4,9)              108.797          calculate D2E/DX2 analytically  !
 ! A20   A(5,4,11)             110.5653         calculate D2E/DX2 analytically  !
 ! A21   A(5,4,16)             112.9352         calculate D2E/DX2 analytically  !
 ! A22   A(9,4,11)             109.2193         calculate D2E/DX2 analytically  !
 ! A23   A(9,4,16)             108.9432         calculate D2E/DX2 analytically  !
 ! A24   A(11,4,16)            106.3046         calculate D2E/DX2 analytically  !
 ! A25   A(1,5,4)              112.7531         calculate D2E/DX2 analytically  !
 ! A26   A(1,5,10)             108.2838         calculate D2E/DX2 analytically  !
 ! A27   A(1,5,15)             109.1906         calculate D2E/DX2 analytically  !
 ! A28   A(4,5,10)             108.7902         calculate D2E/DX2 analytically  !
 ! A29   A(4,5,15)             107.7473         calculate D2E/DX2 analytically  !
 ! A30   A(10,5,15)            110.0651         calculate D2E/DX2 analytically  !
 ! A31   A(4,9,88)             164.4556         calculate D2E/DX2 analytically  !
 ! A32   A(4,9,90)             121.3808         calculate D2E/DX2 analytically  !
 ! A33   A(88,9,90)             64.2737         calculate D2E/DX2 analytically  !
 ! A34   A(3,11,4)             115.6921         calculate D2E/DX2 analytically  !
 ! A35   A(3,12,79)            113.6662         calculate D2E/DX2 analytically  !
 ! A36   A(2,13,20)            114.165          calculate D2E/DX2 analytically  !
 ! A37   A(1,14,24)            114.4101         calculate D2E/DX2 analytically  !
 ! A38   A(5,15,28)            114.6146         calculate D2E/DX2 analytically  !
 ! A39   A(4,16,17)            105.3238         calculate D2E/DX2 analytically  !
 ! A40   A(4,16,18)            105.4392         calculate D2E/DX2 analytically  !
 ! A41   A(4,16,19)            113.6917         calculate D2E/DX2 analytically  !
 ! A42   A(17,16,18)           105.375          calculate D2E/DX2 analytically  !
 ! A43   A(17,16,19)           112.8324         calculate D2E/DX2 analytically  !
 ! A44   A(18,16,19)           113.3909         calculate D2E/DX2 analytically  !
 ! A45   A(16,19,37)           114.9578         calculate D2E/DX2 analytically  !
 ! A46   A(16,19,83)           128.3277         calculate D2E/DX2 analytically  !
 ! A47   A(37,19,83)            72.9683         calculate D2E/DX2 analytically  !
 ! A48   A(13,20,21)           112.0797         calculate D2E/DX2 analytically  !
 ! A49   A(13,20,22)           111.3689         calculate D2E/DX2 analytically  !
 ! A50   A(13,20,23)           106.8692         calculate D2E/DX2 analytically  !
 ! A51   A(21,20,22)           108.7436         calculate D2E/DX2 analytically  !
 ! A52   A(21,20,23)           108.6653         calculate D2E/DX2 analytically  !
 ! A53   A(22,20,23)           109.0297         calculate D2E/DX2 analytically  !
 ! A54   A(14,24,25)           111.0785         calculate D2E/DX2 analytically  !
 ! A55   A(14,24,26)           111.5927         calculate D2E/DX2 analytically  !
 ! A56   A(14,24,27)           106.6541         calculate D2E/DX2 analytically  !
 ! A57   A(25,24,26)           109.0574         calculate D2E/DX2 analytically  !
 ! A58   A(25,24,27)           108.8335         calculate D2E/DX2 analytically  !
 ! A59   A(26,24,27)           109.5597         calculate D2E/DX2 analytically  !
 ! A60   A(15,28,29)           111.3264         calculate D2E/DX2 analytically  !
 ! A61   A(15,28,30)           111.2114         calculate D2E/DX2 analytically  !
 ! A62   A(15,28,31)           106.7198         calculate D2E/DX2 analytically  !
 ! A63   A(29,28,30)           109.1775         calculate D2E/DX2 analytically  !
 ! A64   A(29,28,31)           109.5285         calculate D2E/DX2 analytically  !
 ! A65   A(30,28,31)           108.8122         calculate D2E/DX2 analytically  !
 ! A66   A(33,32,36)           107.7372         calculate D2E/DX2 analytically  !
 ! A67   A(33,32,39)           109.4661         calculate D2E/DX2 analytically  !
 ! A68   A(33,32,45)           110.97           calculate D2E/DX2 analytically  !
 ! A69   A(36,32,39)           109.6649         calculate D2E/DX2 analytically  !
 ! A70   A(36,32,45)           108.2813         calculate D2E/DX2 analytically  !
 ! A71   A(39,32,45)           110.66           calculate D2E/DX2 analytically  !
 ! A72   A(32,33,34)           111.0443         calculate D2E/DX2 analytically  !
 ! A73   A(32,33,38)           109.0391         calculate D2E/DX2 analytically  !
 ! A74   A(32,33,44)           113.4468         calculate D2E/DX2 analytically  !
 ! A75   A(34,33,38)           103.1198         calculate D2E/DX2 analytically  !
 ! A76   A(34,33,44)           110.0819         calculate D2E/DX2 analytically  !
 ! A77   A(38,33,44)           109.5965         calculate D2E/DX2 analytically  !
 ! A78   A(33,34,37)           120.901          calculate D2E/DX2 analytically  !
 ! A79   A(33,34,42)           121.6285         calculate D2E/DX2 analytically  !
 ! A80   A(33,34,53)            97.351          calculate D2E/DX2 analytically  !
 ! A81   A(37,34,42)           114.9015         calculate D2E/DX2 analytically  !
 ! A82   A(37,34,53)            90.4978         calculate D2E/DX2 analytically  !
 ! A83   A(42,34,53)            97.9582         calculate D2E/DX2 analytically  !
 ! A84   A(36,35,40)           108.669          calculate D2E/DX2 analytically  !
 ! A85   A(36,35,42)           114.1705         calculate D2E/DX2 analytically  !
 ! A86   A(36,35,47)           113.6887         calculate D2E/DX2 analytically  !
 ! A87   A(40,35,42)           104.629          calculate D2E/DX2 analytically  !
 ! A88   A(40,35,47)           110.2043         calculate D2E/DX2 analytically  !
 ! A89   A(42,35,47)           105.0678         calculate D2E/DX2 analytically  !
 ! A90   A(32,36,35)           111.6644         calculate D2E/DX2 analytically  !
 ! A91   A(32,36,41)           108.6366         calculate D2E/DX2 analytically  !
 ! A92   A(32,36,46)           112.0216         calculate D2E/DX2 analytically  !
 ! A93   A(35,36,41)           109.2698         calculate D2E/DX2 analytically  !
 ! A94   A(35,36,46)           104.6092         calculate D2E/DX2 analytically  !
 ! A95   A(41,36,46)           110.5866         calculate D2E/DX2 analytically  !
 ! A96   A(19,37,34)           106.8766         calculate D2E/DX2 analytically  !
 ! A97   A(19,37,81)           117.2215         calculate D2E/DX2 analytically  !
 ! A98   A(34,37,81)           132.1258         calculate D2E/DX2 analytically  !
 ! A99   A(34,42,35)           123.5118         calculate D2E/DX2 analytically  !
 ! A100  A(51,43,83)           135.4003         calculate D2E/DX2 analytically  !
 ! A101  A(33,44,63)           113.4271         calculate D2E/DX2 analytically  !
 ! A102  A(32,45,67)           114.2241         calculate D2E/DX2 analytically  !
 ! A103  A(36,46,71)           114.2276         calculate D2E/DX2 analytically  !
 ! A104  A(35,47,48)           108.8228         calculate D2E/DX2 analytically  !
 ! A105  A(35,47,49)           108.8784         calculate D2E/DX2 analytically  !
 ! A106  A(35,47,50)           107.9997         calculate D2E/DX2 analytically  !
 ! A107  A(48,47,49)           108.2594         calculate D2E/DX2 analytically  !
 ! A108  A(48,47,50)           111.7848         calculate D2E/DX2 analytically  !
 ! A109  A(49,47,50)           111.0366         calculate D2E/DX2 analytically  !
 ! A110  A(47,50,75)           113.0032         calculate D2E/DX2 analytically  !
 ! A111  A(43,51,52)           114.3266         calculate D2E/DX2 analytically  !
 ! A112  A(43,51,53)           112.4785         calculate D2E/DX2 analytically  !
 ! A113  A(43,51,54)           105.1354         calculate D2E/DX2 analytically  !
 ! A114  A(52,51,53)           112.4765         calculate D2E/DX2 analytically  !
 ! A115  A(52,51,54)           107.2637         calculate D2E/DX2 analytically  !
 ! A116  A(53,51,54)           104.1962         calculate D2E/DX2 analytically  !
 ! A117  A(34,53,51)           119.0826         calculate D2E/DX2 analytically  !
 ! A118  A(51,54,55)           119.2036         calculate D2E/DX2 analytically  !
 ! A119  A(51,54,56)           119.7932         calculate D2E/DX2 analytically  !
 ! A120  A(55,54,56)           120.9685         calculate D2E/DX2 analytically  !
 ! A121  A(54,55,57)           119.0828         calculate D2E/DX2 analytically  !
 ! A122  A(54,55,58)           120.2762         calculate D2E/DX2 analytically  !
 ! A123  A(57,55,58)           120.6048         calculate D2E/DX2 analytically  !
 ! A124  A(54,56,59)           119.3144         calculate D2E/DX2 analytically  !
 ! A125  A(54,56,60)           119.9233         calculate D2E/DX2 analytically  !
 ! A126  A(59,56,60)           120.7377         calculate D2E/DX2 analytically  !
 ! A127  A(55,57,61)           120.7929         calculate D2E/DX2 analytically  !
 ! A128  A(55,57,93)           120.72           calculate D2E/DX2 analytically  !
 ! A129  A(61,57,93)           118.4665         calculate D2E/DX2 analytically  !
 ! A130  A(56,59,61)           120.6409         calculate D2E/DX2 analytically  !
 ! A131  A(56,59,97)           118.2163         calculate D2E/DX2 analytically  !
 ! A132  A(61,59,97)           120.9907         calculate D2E/DX2 analytically  !
 ! A133  A(57,61,59)           119.1588         calculate D2E/DX2 analytically  !
 ! A134  A(57,61,62)           120.466          calculate D2E/DX2 analytically  !
 ! A135  A(59,61,62)           120.3728         calculate D2E/DX2 analytically  !
 ! A136  A(44,63,64)           109.357          calculate D2E/DX2 analytically  !
 ! A137  A(44,63,65)           110.895          calculate D2E/DX2 analytically  !
 ! A138  A(44,63,66)           106.0973         calculate D2E/DX2 analytically  !
 ! A139  A(64,63,65)           110.2202         calculate D2E/DX2 analytically  !
 ! A140  A(64,63,66)           110.6772         calculate D2E/DX2 analytically  !
 ! A141  A(65,63,66)           109.5229         calculate D2E/DX2 analytically  !
 ! A142  A(45,67,68)           111.1285         calculate D2E/DX2 analytically  !
 ! A143  A(45,67,69)           111.5938         calculate D2E/DX2 analytically  !
 ! A144  A(45,67,70)           106.6455         calculate D2E/DX2 analytically  !
 ! A145  A(68,67,69)           108.9767         calculate D2E/DX2 analytically  !
 ! A146  A(68,67,70)           109.1305         calculate D2E/DX2 analytically  !
 ! A147  A(69,67,70)           109.3062         calculate D2E/DX2 analytically  !
 ! A148  A(46,71,72)           111.2235         calculate D2E/DX2 analytically  !
 ! A149  A(46,71,73)           110.9403         calculate D2E/DX2 analytically  !
 ! A150  A(46,71,74)           106.3493         calculate D2E/DX2 analytically  !
 ! A151  A(72,71,73)           109.3197         calculate D2E/DX2 analytically  !
 ! A152  A(72,71,74)           109.8053         calculate D2E/DX2 analytically  !
 ! A153  A(73,71,74)           109.1451         calculate D2E/DX2 analytically  !
 ! A154  A(50,75,76)           106.9254         calculate D2E/DX2 analytically  !
 ! A155  A(50,75,77)           111.1489         calculate D2E/DX2 analytically  !
 ! A156  A(50,75,78)           111.6424         calculate D2E/DX2 analytically  !
 ! A157  A(76,75,77)           109.0935         calculate D2E/DX2 analytically  !
 ! A158  A(76,75,78)           109.2502         calculate D2E/DX2 analytically  !
 ! A159  A(77,75,78)           108.7278         calculate D2E/DX2 analytically  !
 ! A160  A(12,79,80)           106.8189         calculate D2E/DX2 analytically  !
 ! A161  A(12,79,81)           111.9801         calculate D2E/DX2 analytically  !
 ! A162  A(12,79,82)           110.9867         calculate D2E/DX2 analytically  !
 ! A163  A(80,79,81)           108.8335         calculate D2E/DX2 analytically  !
 ! A164  A(80,79,82)           109.3909         calculate D2E/DX2 analytically  !
 ! A165  A(81,79,82)           108.7718         calculate D2E/DX2 analytically  !
 ! A166  A(37,81,79)           131.7775         calculate D2E/DX2 analytically  !
 ! A167  A(19,83,43)           115.5414         calculate D2E/DX2 analytically  !
 ! A168  A(19,83,84)           108.1575         calculate D2E/DX2 analytically  !
 ! A169  A(43,83,84)            93.8708         calculate D2E/DX2 analytically  !
 ! A170  A(83,84,85)           120.1144         calculate D2E/DX2 analytically  !
 ! A171  A(83,84,89)           120.291          calculate D2E/DX2 analytically  !
 ! A172  A(85,84,89)           112.5451         calculate D2E/DX2 analytically  !
 ! A173  A(84,85,86)           110.5798         calculate D2E/DX2 analytically  !
 ! A174  A(84,85,87)           106.81           calculate D2E/DX2 analytically  !
 ! A175  A(84,85,88)           110.9638         calculate D2E/DX2 analytically  !
 ! A176  A(86,85,87)           109.9318         calculate D2E/DX2 analytically  !
 ! A177  A(86,85,88)           109.1651         calculate D2E/DX2 analytically  !
 ! A178  A(87,85,88)           109.3594         calculate D2E/DX2 analytically  !
 ! A179  A(9,88,85)            113.6917         calculate D2E/DX2 analytically  !
 ! A180  A(84,89,90)           111.2115         calculate D2E/DX2 analytically  !
 ! A181  A(84,89,91)           106.9824         calculate D2E/DX2 analytically  !
 ! A182  A(84,89,92)           110.4665         calculate D2E/DX2 analytically  !
 ! A183  A(90,89,91)           109.0932         calculate D2E/DX2 analytically  !
 ! A184  A(90,89,92)           109.7822         calculate D2E/DX2 analytically  !
 ! A185  A(91,89,92)           109.238          calculate D2E/DX2 analytically  !
 ! A186  A(9,90,89)            112.3432         calculate D2E/DX2 analytically  !
 ! A187  A(57,93,94)           111.048          calculate D2E/DX2 analytically  !
 ! A188  A(57,93,95)           111.8153         calculate D2E/DX2 analytically  !
 ! A189  A(57,93,96)           112.3484         calculate D2E/DX2 analytically  !
 ! A190  A(94,93,95)           106.6361         calculate D2E/DX2 analytically  !
 ! A191  A(94,93,96)           107.1891         calculate D2E/DX2 analytically  !
 ! A192  A(95,93,96)           107.5021         calculate D2E/DX2 analytically  !
 ! A193  A(59,97,98)           112.6854         calculate D2E/DX2 analytically  !
 ! A194  A(59,97,99)           110.7286         calculate D2E/DX2 analytically  !
 ! A195  A(59,97,100)          111.7978         calculate D2E/DX2 analytically  !
 ! A196  A(98,97,99)           107.111          calculate D2E/DX2 analytically  !
 ! A197  A(98,97,100)          107.8716         calculate D2E/DX2 analytically  !
 ! A198  A(99,97,100)          106.3241         calculate D2E/DX2 analytically  !
 ! D1    D(5,1,2,3)            -51.5951         calculate D2E/DX2 analytically  !
 ! D2    D(5,1,2,7)             65.0934         calculate D2E/DX2 analytically  !
 ! D3    D(5,1,2,13)          -175.9201         calculate D2E/DX2 analytically  !
 ! D4    D(8,1,2,3)             67.2694         calculate D2E/DX2 analytically  !
 ! D5    D(8,1,2,7)           -176.0421         calculate D2E/DX2 analytically  !
 ! D6    D(8,1,2,13)           -57.0557         calculate D2E/DX2 analytically  !
 ! D7    D(14,1,2,3)          -171.4559         calculate D2E/DX2 analytically  !
 ! D8    D(14,1,2,7)           -54.7675         calculate D2E/DX2 analytically  !
 ! D9    D(14,1,2,13)           64.219          calculate D2E/DX2 analytically  !
 ! D10   D(2,1,5,4)             48.3236         calculate D2E/DX2 analytically  !
 ! D11   D(2,1,5,10)           -72.1025         calculate D2E/DX2 analytically  !
 ! D12   D(2,1,5,15)           168.0569         calculate D2E/DX2 analytically  !
 ! D13   D(8,1,5,4)            -70.844          calculate D2E/DX2 analytically  !
 ! D14   D(8,1,5,10)           168.7298         calculate D2E/DX2 analytically  !
 ! D15   D(8,1,5,15)            48.8893         calculate D2E/DX2 analytically  !
 ! D16   D(14,1,5,4)           170.2224         calculate D2E/DX2 analytically  !
 ! D17   D(14,1,5,10)           49.7962         calculate D2E/DX2 analytically  !
 ! D18   D(14,1,5,15)          -70.0444         calculate D2E/DX2 analytically  !
 ! D19   D(2,1,14,24)          -96.9704         calculate D2E/DX2 analytically  !
 ! D20   D(5,1,14,24)          141.1583         calculate D2E/DX2 analytically  !
 ! D21   D(8,1,14,24)           23.4662         calculate D2E/DX2 analytically  !
 ! D22   D(1,2,3,6)            171.6107         calculate D2E/DX2 analytically  !
 ! D23   D(1,2,3,11)            57.0094         calculate D2E/DX2 analytically  !
 ! D24   D(1,2,3,12)           -67.892          calculate D2E/DX2 analytically  !
 ! D25   D(7,2,3,6)             53.8926         calculate D2E/DX2 analytically  !
 ! D26   D(7,2,3,11)           -60.7087         calculate D2E/DX2 analytically  !
 ! D27   D(7,2,3,12)           174.3898         calculate D2E/DX2 analytically  !
 ! D28   D(13,2,3,6)           -67.2135         calculate D2E/DX2 analytically  !
 ! D29   D(13,2,3,11)          178.1852         calculate D2E/DX2 analytically  !
 ! D30   D(13,2,3,12)           53.2837         calculate D2E/DX2 analytically  !
 ! D31   D(1,2,13,20)         -170.898          calculate D2E/DX2 analytically  !
 ! D32   D(3,2,13,20)           66.7851         calculate D2E/DX2 analytically  !
 ! D33   D(7,2,13,20)          -52.6892         calculate D2E/DX2 analytically  !
 ! D34   D(2,3,11,4)           -61.2762         calculate D2E/DX2 analytically  !
 ! D35   D(6,3,11,4)           179.4027         calculate D2E/DX2 analytically  !
 ! D36   D(12,3,11,4)           59.942          calculate D2E/DX2 analytically  !
 ! D37   D(2,3,12,79)         -172.2473         calculate D2E/DX2 analytically  !
 ! D38   D(6,3,12,79)          -50.6981         calculate D2E/DX2 analytically  !
 ! D39   D(11,3,12,79)          65.4046         calculate D2E/DX2 analytically  !
 ! D40   D(9,4,5,1)             71.2951         calculate D2E/DX2 analytically  !
 ! D41   D(9,4,5,10)          -168.5695         calculate D2E/DX2 analytically  !
 ! D42   D(9,4,5,15)           -49.2681         calculate D2E/DX2 analytically  !
 ! D43   D(11,4,5,1)           -48.6453         calculate D2E/DX2 analytically  !
 ! D44   D(11,4,5,10)           71.4901         calculate D2E/DX2 analytically  !
 ! D45   D(11,4,5,15)         -169.2086         calculate D2E/DX2 analytically  !
 ! D46   D(16,4,5,1)          -167.6151         calculate D2E/DX2 analytically  !
 ! D47   D(16,4,5,10)          -47.4797         calculate D2E/DX2 analytically  !
 ! D48   D(16,4,5,15)           71.8217         calculate D2E/DX2 analytically  !
 ! D49   D(5,4,9,88)           -51.6267         calculate D2E/DX2 analytically  !
 ! D50   D(5,4,9,90)            55.5605         calculate D2E/DX2 analytically  !
 ! D51   D(11,4,9,88)           69.1454         calculate D2E/DX2 analytically  !
 ! D52   D(11,4,9,90)          176.3326         calculate D2E/DX2 analytically  !
 ! D53   D(16,4,9,88)         -175.1336         calculate D2E/DX2 analytically  !
 ! D54   D(16,4,9,90)          -67.9463         calculate D2E/DX2 analytically  !
 ! D55   D(5,4,11,3)            56.7352         calculate D2E/DX2 analytically  !
 ! D56   D(9,4,11,3)           -62.9514         calculate D2E/DX2 analytically  !
 ! D57   D(16,4,11,3)          179.6505         calculate D2E/DX2 analytically  !
 ! D58   D(5,4,16,17)           63.7022         calculate D2E/DX2 analytically  !
 ! D59   D(5,4,16,18)          -47.452          calculate D2E/DX2 analytically  !
 ! D60   D(5,4,16,19)         -172.2692         calculate D2E/DX2 analytically  !
 ! D61   D(9,4,16,17)         -175.2911         calculate D2E/DX2 analytically  !
 ! D62   D(9,4,16,18)           73.5547         calculate D2E/DX2 analytically  !
 ! D63   D(9,4,16,19)          -51.2624         calculate D2E/DX2 analytically  !
 ! D64   D(11,4,16,17)         -57.7095         calculate D2E/DX2 analytically  !
 ! D65   D(11,4,16,18)        -168.8636         calculate D2E/DX2 analytically  !
 ! D66   D(11,4,16,19)          66.3192         calculate D2E/DX2 analytically  !
 ! D67   D(1,5,15,28)          102.2412         calculate D2E/DX2 analytically  !
 ! D68   D(4,5,15,28)         -134.9816         calculate D2E/DX2 analytically  !
 ! D69   D(10,5,15,28)         -16.495          calculate D2E/DX2 analytically  !
 ! D70   D(4,9,88,85)         -173.1089         calculate D2E/DX2 analytically  !
 ! D71   D(90,9,88,85)          71.7603         calculate D2E/DX2 analytically  !
 ! D72   D(4,9,90,89)          127.2693         calculate D2E/DX2 analytically  !
 ! D73   D(88,9,90,89)         -69.241          calculate D2E/DX2 analytically  !
 ! D74   D(3,12,79,80)         164.9828         calculate D2E/DX2 analytically  !
 ! D75   D(3,12,79,81)         -75.9598         calculate D2E/DX2 analytically  !
 ! D76   D(3,12,79,82)          45.8101         calculate D2E/DX2 analytically  !
 ! D77   D(2,13,20,21)         -71.7031         calculate D2E/DX2 analytically  !
 ! D78   D(2,13,20,22)          50.3754         calculate D2E/DX2 analytically  !
 ! D79   D(2,13,20,23)         169.3563         calculate D2E/DX2 analytically  !
 ! D80   D(1,14,24,25)         -59.502          calculate D2E/DX2 analytically  !
 ! D81   D(1,14,24,26)          62.4284         calculate D2E/DX2 analytically  !
 ! D82   D(1,14,24,27)        -177.9536         calculate D2E/DX2 analytically  !
 ! D83   D(5,15,28,29)         -59.5735         calculate D2E/DX2 analytically  !
 ! D84   D(5,15,28,30)          62.4179         calculate D2E/DX2 analytically  !
 ! D85   D(5,15,28,31)        -179.0433         calculate D2E/DX2 analytically  !
 ! D86   D(4,16,19,37)         -28.3599         calculate D2E/DX2 analytically  !
 ! D87   D(4,16,19,83)          59.1239         calculate D2E/DX2 analytically  !
 ! D88   D(17,16,19,37)         91.4997         calculate D2E/DX2 analytically  !
 ! D89   D(17,16,19,83)        178.9835         calculate D2E/DX2 analytically  !
 ! D90   D(18,16,19,37)       -148.7943         calculate D2E/DX2 analytically  !
 ! D91   D(18,16,19,83)        -61.3105         calculate D2E/DX2 analytically  !
 ! D92   D(16,19,37,34)       -105.2936         calculate D2E/DX2 analytically  !
 ! D93   D(16,19,37,81)         55.4948         calculate D2E/DX2 analytically  !
 ! D94   D(83,19,37,34)        129.758          calculate D2E/DX2 analytically  !
 ! D95   D(83,19,37,81)        -69.4536         calculate D2E/DX2 analytically  !
 ! D96   D(16,19,83,43)       -107.9383         calculate D2E/DX2 analytically  !
 ! D97   D(16,19,83,84)         -4.3196         calculate D2E/DX2 analytically  !
 ! D98   D(37,19,83,43)          0.7475         calculate D2E/DX2 analytically  !
 ! D99   D(37,19,83,84)        104.3661         calculate D2E/DX2 analytically  !
 ! D100  D(36,32,33,34)        -54.4181         calculate D2E/DX2 analytically  !
 ! D101  D(36,32,33,38)         58.5399         calculate D2E/DX2 analytically  !
 ! D102  D(36,32,33,44)       -179.0208         calculate D2E/DX2 analytically  !
 ! D103  D(39,32,33,34)         64.7771         calculate D2E/DX2 analytically  !
 ! D104  D(39,32,33,38)        177.7352         calculate D2E/DX2 analytically  !
 ! D105  D(39,32,33,44)        -59.8256         calculate D2E/DX2 analytically  !
 ! D106  D(45,32,33,34)       -172.7961         calculate D2E/DX2 analytically  !
 ! D107  D(45,32,33,38)        -59.8381         calculate D2E/DX2 analytically  !
 ! D108  D(45,32,33,44)         62.6012         calculate D2E/DX2 analytically  !
 ! D109  D(33,32,36,35)         56.7408         calculate D2E/DX2 analytically  !
 ! D110  D(33,32,36,41)        -63.8375         calculate D2E/DX2 analytically  !
 ! D111  D(33,32,36,46)        173.704          calculate D2E/DX2 analytically  !
 ! D112  D(39,32,36,35)        -62.3278         calculate D2E/DX2 analytically  !
 ! D113  D(39,32,36,41)        177.094          calculate D2E/DX2 analytically  !
 ! D114  D(39,32,36,46)         54.6355         calculate D2E/DX2 analytically  !
 ! D115  D(45,32,36,35)        176.832          calculate D2E/DX2 analytically  !
 ! D116  D(45,32,36,41)         56.2538         calculate D2E/DX2 analytically  !
 ! D117  D(45,32,36,46)        -66.2047         calculate D2E/DX2 analytically  !
 ! D118  D(33,32,45,67)       -102.1458         calculate D2E/DX2 analytically  !
 ! D119  D(36,32,45,67)        139.8059         calculate D2E/DX2 analytically  !
 ! D120  D(39,32,45,67)         19.5853         calculate D2E/DX2 analytically  !
 ! D121  D(32,33,34,37)       -162.261          calculate D2E/DX2 analytically  !
 ! D122  D(32,33,34,42)         36.8418         calculate D2E/DX2 analytically  !
 ! D123  D(32,33,34,53)        -67.2457         calculate D2E/DX2 analytically  !
 ! D124  D(38,33,34,37)         81.0872         calculate D2E/DX2 analytically  !
 ! D125  D(38,33,34,42)        -79.81           calculate D2E/DX2 analytically  !
 ! D126  D(38,33,34,53)        176.1024         calculate D2E/DX2 analytically  !
 ! D127  D(44,33,34,37)        -35.7775         calculate D2E/DX2 analytically  !
 ! D128  D(44,33,34,42)        163.3253         calculate D2E/DX2 analytically  !
 ! D129  D(44,33,34,53)         59.2378         calculate D2E/DX2 analytically  !
 ! D130  D(32,33,44,63)       -100.3778         calculate D2E/DX2 analytically  !
 ! D131  D(34,33,44,63)        134.5012         calculate D2E/DX2 analytically  !
 ! D132  D(38,33,44,63)         21.7521         calculate D2E/DX2 analytically  !
 ! D133  D(33,34,37,19)        -46.6995         calculate D2E/DX2 analytically  !
 ! D134  D(33,34,37,81)        156.5372         calculate D2E/DX2 analytically  !
 ! D135  D(42,34,37,19)        115.409          calculate D2E/DX2 analytically  !
 ! D136  D(42,34,37,81)        -41.3543         calculate D2E/DX2 analytically  !
 ! D137  D(53,34,37,19)       -145.5767         calculate D2E/DX2 analytically  !
 ! D138  D(53,34,37,81)         57.66           calculate D2E/DX2 analytically  !
 ! D139  D(33,34,42,35)        -18.4657         calculate D2E/DX2 analytically  !
 ! D140  D(37,34,42,35)        179.569          calculate D2E/DX2 analytically  !
 ! D141  D(53,34,42,35)         85.2926         calculate D2E/DX2 analytically  !
 ! D142  D(33,34,53,51)        -92.7225         calculate D2E/DX2 analytically  !
 ! D143  D(37,34,53,51)         28.5395         calculate D2E/DX2 analytically  !
 ! D144  D(42,34,53,51)        143.7778         calculate D2E/DX2 analytically  !
 ! D145  D(40,35,36,32)         77.5367         calculate D2E/DX2 analytically  !
 ! D146  D(40,35,36,41)       -162.2558         calculate D2E/DX2 analytically  !
 ! D147  D(40,35,36,46)        -43.8273         calculate D2E/DX2 analytically  !
 ! D148  D(42,35,36,32)        -38.8127         calculate D2E/DX2 analytically  !
 ! D149  D(42,35,36,41)         81.3949         calculate D2E/DX2 analytically  !
 ! D150  D(42,35,36,46)       -160.1767         calculate D2E/DX2 analytically  !
 ! D151  D(47,35,36,32)       -159.3476         calculate D2E/DX2 analytically  !
 ! D152  D(47,35,36,41)        -39.1401         calculate D2E/DX2 analytically  !
 ! D153  D(47,35,36,46)         79.2884         calculate D2E/DX2 analytically  !
 ! D154  D(36,35,42,34)         19.0042         calculate D2E/DX2 analytically  !
 ! D155  D(40,35,42,34)        -99.6657         calculate D2E/DX2 analytically  !
 ! D156  D(47,35,42,34)        144.2355         calculate D2E/DX2 analytically  !
 ! D157  D(36,35,47,48)        -63.5748         calculate D2E/DX2 analytically  !
 ! D158  D(36,35,47,49)        178.6241         calculate D2E/DX2 analytically  !
 ! D159  D(36,35,47,50)         57.9603         calculate D2E/DX2 analytically  !
 ! D160  D(40,35,47,48)         58.6968         calculate D2E/DX2 analytically  !
 ! D161  D(40,35,47,49)        -59.1043         calculate D2E/DX2 analytically  !
 ! D162  D(40,35,47,50)       -179.7681         calculate D2E/DX2 analytically  !
 ! D163  D(42,35,47,48)        170.8928         calculate D2E/DX2 analytically  !
 ! D164  D(42,35,47,49)         53.0917         calculate D2E/DX2 analytically  !
 ! D165  D(42,35,47,50)        -67.5721         calculate D2E/DX2 analytically  !
 ! D166  D(32,36,46,71)         98.631          calculate D2E/DX2 analytically  !
 ! D167  D(35,36,46,71)       -140.241          calculate D2E/DX2 analytically  !
 ! D168  D(41,36,46,71)        -22.7112         calculate D2E/DX2 analytically  !
 ! D169  D(19,37,81,79)       -112.633          calculate D2E/DX2 analytically  !
 ! D170  D(34,37,81,79)         42.2441         calculate D2E/DX2 analytically  !
 ! D171  D(83,43,51,52)       -173.9742         calculate D2E/DX2 analytically  !
 ! D172  D(83,43,51,53)         56.151          calculate D2E/DX2 analytically  !
 ! D173  D(83,43,51,54)        -56.6085         calculate D2E/DX2 analytically  !
 ! D174  D(51,43,83,19)        -62.3168         calculate D2E/DX2 analytically  !
 ! D175  D(51,43,83,84)       -174.5579         calculate D2E/DX2 analytically  !
 ! D176  D(33,44,63,64)        -62.457          calculate D2E/DX2 analytically  !
 ! D177  D(33,44,63,65)         59.2951         calculate D2E/DX2 analytically  !
 ! D178  D(33,44,63,66)        178.1423         calculate D2E/DX2 analytically  !
 ! D179  D(32,45,67,68)        -55.2796         calculate D2E/DX2 analytically  !
 ! D180  D(32,45,67,69)         66.5832         calculate D2E/DX2 analytically  !
 ! D181  D(32,45,67,70)       -174.1117         calculate D2E/DX2 analytically  !
 ! D182  D(36,46,71,72)        -61.6544         calculate D2E/DX2 analytically  !
 ! D183  D(36,46,71,73)         60.2577         calculate D2E/DX2 analytically  !
 ! D184  D(36,46,71,74)        178.8262         calculate D2E/DX2 analytically  !
 ! D185  D(35,47,50,75)        164.4287         calculate D2E/DX2 analytically  !
 ! D186  D(48,47,50,75)        -75.8889         calculate D2E/DX2 analytically  !
 ! D187  D(49,47,50,75)         45.1232         calculate D2E/DX2 analytically  !
 ! D188  D(47,50,75,76)       -179.874          calculate D2E/DX2 analytically  !
 ! D189  D(47,50,75,77)        -60.9051         calculate D2E/DX2 analytically  !
 ! D190  D(47,50,75,78)         60.6866         calculate D2E/DX2 analytically  !
 ! D191  D(43,51,53,34)        -16.9892         calculate D2E/DX2 analytically  !
 ! D192  D(52,51,53,34)       -147.8066         calculate D2E/DX2 analytically  !
 ! D193  D(54,51,53,34)         96.348          calculate D2E/DX2 analytically  !
 ! D194  D(43,51,54,55)        161.7011         calculate D2E/DX2 analytically  !
 ! D195  D(43,51,54,56)        -16.178          calculate D2E/DX2 analytically  !
 ! D196  D(52,51,54,55)        -76.2305         calculate D2E/DX2 analytically  !
 ! D197  D(52,51,54,56)        105.8904         calculate D2E/DX2 analytically  !
 ! D198  D(53,51,54,55)         43.213          calculate D2E/DX2 analytically  !
 ! D199  D(53,51,54,56)       -134.666          calculate D2E/DX2 analytically  !
 ! D200  D(51,54,55,57)       -176.5634         calculate D2E/DX2 analytically  !
 ! D201  D(51,54,55,58)          1.2619         calculate D2E/DX2 analytically  !
 ! D202  D(56,54,55,57)          1.29           calculate D2E/DX2 analytically  !
 ! D203  D(56,54,55,58)        179.1152         calculate D2E/DX2 analytically  !
 ! D204  D(51,54,56,59)        175.525          calculate D2E/DX2 analytically  !
 ! D205  D(51,54,56,60)         -2.6857         calculate D2E/DX2 analytically  !
 ! D206  D(55,54,56,59)         -2.3158         calculate D2E/DX2 analytically  !
 ! D207  D(55,54,56,60)        179.4735         calculate D2E/DX2 analytically  !
 ! D208  D(54,55,57,61)          0.56           calculate D2E/DX2 analytically  !
 ! D209  D(54,55,57,93)        178.8817         calculate D2E/DX2 analytically  !
 ! D210  D(58,55,57,61)       -177.2579         calculate D2E/DX2 analytically  !
 ! D211  D(58,55,57,93)          1.0638         calculate D2E/DX2 analytically  !
 ! D212  D(54,56,59,61)          1.5104         calculate D2E/DX2 analytically  !
 ! D213  D(54,56,59,97)       -174.051          calculate D2E/DX2 analytically  !
 ! D214  D(60,56,59,61)        179.7062         calculate D2E/DX2 analytically  !
 ! D215  D(60,56,59,97)          4.1448         calculate D2E/DX2 analytically  !
 ! D216  D(55,57,61,59)         -1.3385         calculate D2E/DX2 analytically  !
 ! D217  D(55,57,61,62)        178.1013         calculate D2E/DX2 analytically  !
 ! D218  D(93,57,61,59)       -179.6973         calculate D2E/DX2 analytically  !
 ! D219  D(93,57,61,62)         -0.2574         calculate D2E/DX2 analytically  !
 ! D220  D(55,57,93,94)       -125.6447         calculate D2E/DX2 analytically  !
 ! D221  D(55,57,93,95)        115.3782         calculate D2E/DX2 analytically  !
 ! D222  D(55,57,93,96)         -5.6065         calculate D2E/DX2 analytically  !
 ! D223  D(61,57,93,94)         52.7153         calculate D2E/DX2 analytically  !
 ! D224  D(61,57,93,95)        -66.2618         calculate D2E/DX2 analytically  !
 ! D225  D(61,57,93,96)        172.7535         calculate D2E/DX2 analytically  !
 ! D226  D(56,59,61,57)          0.2936         calculate D2E/DX2 analytically  !
 ! D227  D(56,59,61,62)       -179.1468         calculate D2E/DX2 analytically  !
 ! D228  D(97,59,61,57)        175.731          calculate D2E/DX2 analytically  !
 ! D229  D(97,59,61,62)         -3.7094         calculate D2E/DX2 analytically  !
 ! D230  D(56,59,97,98)       -169.3263         calculate D2E/DX2 analytically  !
 ! D231  D(56,59,97,99)         70.7295         calculate D2E/DX2 analytically  !
 ! D232  D(56,59,97,100)       -47.6307         calculate D2E/DX2 analytically  !
 ! D233  D(61,59,97,98)         15.1285         calculate D2E/DX2 analytically  !
 ! D234  D(61,59,97,99)       -104.8158         calculate D2E/DX2 analytically  !
 ! D235  D(61,59,97,100)       136.824          calculate D2E/DX2 analytically  !
 ! D236  D(12,79,81,37)         80.0872         calculate D2E/DX2 analytically  !
 ! D237  D(80,79,81,37)       -162.0505         calculate D2E/DX2 analytically  !
 ! D238  D(82,79,81,37)        -42.9446         calculate D2E/DX2 analytically  !
 ! D239  D(19,83,84,85)        -96.815          calculate D2E/DX2 analytically  !
 ! D240  D(19,83,84,89)         51.6288         calculate D2E/DX2 analytically  !
 ! D241  D(43,83,84,85)         21.6737         calculate D2E/DX2 analytically  !
 ! D242  D(43,83,84,89)        170.1175         calculate D2E/DX2 analytically  !
 ! D243  D(83,84,85,86)       -149.0974         calculate D2E/DX2 analytically  !
 ! D244  D(83,84,85,87)        -29.5049         calculate D2E/DX2 analytically  !
 ! D245  D(83,84,85,88)         89.6116         calculate D2E/DX2 analytically  !
 ! D246  D(89,84,85,86)         60.1958         calculate D2E/DX2 analytically  !
 ! D247  D(89,84,85,87)        179.7883         calculate D2E/DX2 analytically  !
 ! D248  D(89,84,85,88)        -61.0953         calculate D2E/DX2 analytically  !
 ! D249  D(83,84,89,90)        -88.745          calculate D2E/DX2 analytically  !
 ! D250  D(83,84,89,91)         30.2937         calculate D2E/DX2 analytically  !
 ! D251  D(83,84,89,92)        149.0906         calculate D2E/DX2 analytically  !
 ! D252  D(85,84,89,90)         61.9041         calculate D2E/DX2 analytically  !
 ! D253  D(85,84,89,91)       -179.0572         calculate D2E/DX2 analytically  !
 ! D254  D(85,84,89,92)        -60.2602         calculate D2E/DX2 analytically  !
 ! D255  D(84,85,88,9)         -26.586          calculate D2E/DX2 analytically  !
 ! D256  D(86,85,88,9)        -148.7048         calculate D2E/DX2 analytically  !
 ! D257  D(87,85,88,9)          90.987          calculate D2E/DX2 analytically  !
 ! D258  D(84,89,90,9)          21.0555         calculate D2E/DX2 analytically  !
 ! D259  D(91,89,90,9)         -96.712          calculate D2E/DX2 analytically  !
 ! D260  D(92,89,90,9)         143.6156         calculate D2E/DX2 analytically  !
 --------------------------------------------------------------------------------
 Trust Radius=3.00D-02 FncErr=1.00D-07 GrdErr=1.00D-06 EigMax=2.50D+02 EigMin=1.00D-04
 Number of steps in this run=    574 maximum allowed number of steps=    600.
 Search for a saddle point of order  1.
 Step   0 in ReCalcFC=30 IGetFC= 4 compute analytic Hessian.
 GradGradGradGradGradGradGradGradGradGradGradGradGradGradGradGradGradGrad

 Leave Link  103 at Fri May 24 00:02:50 2019, MaxMem=  6442450944 cpu:               3.7 elap:               0.2
 (Enter /home/ekwan/sw/g16/l202.exe)
 Stoichiometry    C30H47F6NaO15S
 Framework group  C1[X(C30H47F6NaO15S)]
 Deg. of freedom   294
 Full point group                 C1      NOp   1
 Largest Abelian subgroup         C1      NOp   1
 Largest concise Abelian subgroup C1      NOp   1
                         Standard orientation:                         
 ---------------------------------------------------------------------
 Center     Atomic      Atomic             Coordinates (Angstroms)
 Number     Number       Type             X           Y           Z
 ---------------------------------------------------------------------
      1          6           0       -5.800152   -0.719378   -0.015410
      2          6           0       -5.451543    0.569426    0.728413
      3          6           0       -3.957405    0.582479    1.090597
      4          6           0       -3.377634   -0.784506   -0.805756
      5          6           0       -4.850812   -0.949603   -1.192019
      6          1           0       -3.650400    1.557417    1.492244
      7          1           0       -5.624707    1.422538    0.052041
      8          1           0       -5.696682   -1.563694    0.677655
      9          1           0       -3.079813   -1.632628   -0.178162
     10          1           0       -5.094317   -0.221465   -1.979388
     11          8           0       -3.181262    0.437255   -0.074421
     12          8           0       -3.739579   -0.416277    2.052066
     13          8           0       -6.304115    0.670281    1.854644
     14          8           0       -7.126847   -0.670964   -0.533068
     15          8           0       -5.025613   -2.278413   -1.682843
     16          6           0       -2.443385   -0.713034   -2.024092
     17          1           0       -2.741071    0.213171   -2.569938
     18          1           0       -2.750642   -1.555080   -2.682645
     19          8           0       -1.111208   -0.734216   -1.698976
     20          6           0       -6.233490    1.916291    2.525977
     21          1           0       -5.289989    2.036371    3.075407
     22          1           0       -6.343418    2.756831    1.824014
     23          1           0       -7.059638    1.938643    3.240703
     24          6           0       -8.099739   -1.304664    0.285206
     25          1           0       -7.861620   -2.368633    0.431093
     26          1           0       -8.181612   -0.819257    1.263252
     27          1           0       -9.053606   -1.225689   -0.243702
     28          6           0       -5.793750   -2.372889   -2.872478
     29          1           0       -6.800910   -1.966795   -2.729629
     30          1           0       -5.305635   -1.844216   -3.704405
     31          1           0       -5.859994   -3.435763   -3.120584
     32          6           0        1.636984    2.505407   -0.783070
     33          6           0        0.866114    1.202636   -1.018593
     34          6           0       -0.205219    1.017775    0.011812
     35          6           0       -0.442371    3.405625    0.350107
     36          6           0        0.620189    3.644879   -0.729843
     37          1           0       -0.649941    0.053886    0.178724
     38          1           0        0.298950    1.286224   -1.955809
     39          1           0        2.173293    2.445027    0.170326
     40          1           0       -0.009201    3.641311    1.325343
     41          1           0        0.130761    3.723728   -1.707847
     42          8           0       -0.878121    2.007835    0.465799
     43          8           0        0.620572   -1.708948    1.509354
     44          8           0        1.693960    0.061440   -1.066726
     45          8           0        2.537141    2.761969   -1.848006
     46          8           0        1.221306    4.876908   -0.372906
     47          6           0       -1.715380    4.198654    0.137645
     48          1           0       -1.480917    5.271212    0.205831
     49          1           0       -2.427321    3.949994    0.938164
     50          8           0       -2.236566    3.855891   -1.128353
     51         16           0        1.505400   -0.670398    2.119400
     52          8           0        1.699147   -0.815733    3.573995
     53          8           0        1.104935    0.731517    1.727705
     54          6           0        3.108810   -0.904330    1.341719
     55          6           0        4.047573    0.125170    1.395309
     56          6           0        3.379466   -2.081996    0.661797
     57          6           0        5.259989   -0.030154    0.731450
     58          1           0        3.818942    1.045801    1.917385
     59          6           0        4.592441   -2.215858   -0.018372
     60          1           0        2.641041   -2.874343    0.638206
     61          6           0        5.536274   -1.195091    0.008266
     62          1           0        6.469766   -1.297847   -0.532106
     63          6           0        1.972677   -0.384735   -2.400429
     64          1           0        1.036774   -0.679439   -2.887784
     65          1           0        2.469418    0.400291   -2.978804
     66          1           0        2.641342   -1.242051   -2.299348
     67          6           0        3.894530    2.451141   -1.553091
     68          1           0        4.232663    2.973869   -0.649663
     69          1           0        4.041033    1.375051   -1.417508
     70          1           0        4.485838    2.791439   -2.405995
     71          6           0        1.514547    5.726983   -1.479166
     72          1           0        2.227641    5.256154   -2.162316
     73          1           0        0.599233    5.984599   -2.029948
     74          1           0        1.949035    6.637623   -1.060511
     75          6           0       -3.585502    4.253593   -1.297795
     76          1           0       -3.885685    3.940692   -2.299929
     77          1           0       -4.238681    3.767097   -0.558103
     78          1           0       -3.701316    5.343704   -1.208359
     79          6           0       -2.427276   -0.399420    2.607140
     80          1           0       -2.457065   -1.016907    3.507719
     81          1           0       -1.686830   -0.814584    1.919114
     82          1           0       -2.126705    0.622404    2.875378
     83         11           0       -0.012727   -2.264782   -0.619172
     84          8           0       -1.517902   -3.873065    0.080832
     85          6           0       -2.045038   -3.831215    1.403854
     86          1           0       -2.262911   -4.845565    1.764982
     87          1           0       -1.283230   -3.368355    2.032447
     88          1           0       -2.963343   -3.229824    1.442147
     89          6           0       -2.421926   -4.465720   -0.849486
     90          1           0       -3.350892   -3.888039   -0.922911
     91          1           0       -1.923825   -4.466771   -1.822135
     92          1           0       -2.649485   -5.500382   -0.558175
     93          6           0        6.288687    1.066613    0.744015
     94          9           0        6.654597    1.405772   -0.517264
     95          9           0        7.415677    0.690206    1.385469
     96          9           0        5.835929    2.188005    1.343123
     97          6           0        4.804314   -3.443448   -0.857717
     98          9           0        6.077358   -3.573948   -1.274425
     99          9           0        4.020294   -3.407738   -1.970279
    100          9           0        4.468441   -4.569677   -0.192701
 ---------------------------------------------------------------------
 Rotational constants (GHZ):           0.0751593           0.0334393           0.0275478
 Leave Link  202 at Fri May 24 00:02:50 2019, MaxMem=  6442450944 cpu:               6.6 elap:               0.3
 (Enter /home/ekwan/sw/g16/l301.exe)
 Standard basis: 6-31G(d) (6D, 7F)
 Ernie: Thresh=  0.10000D-02 Tol=  0.10000D-05 Strict=F.
 There are   897 symmetry adapted cartesian basis functions of A   symmetry.
 There are   897 symmetry adapted basis functions of A   symmetry.
   897 basis functions,  1720 primitive gaussians,   897 cartesian basis functions
   214 alpha electrons      214 beta electrons
       nuclear repulsion energy      9446.2566761542 Hartrees.
 IExCor=  402 DFT=T Ex+Corr=B3LYP ExCW=0 ScaHFX=  0.200000
 ScaDFX=  0.800000  0.720000  1.000000  0.810000 ScalE2=  1.000000  1.000000
 IRadAn=      5 IRanWt=     -1 IRanGd=            0 ICorTp=0 IEmpDi=141
 NAtoms=  100 NActive=  100 NUniq=  100 SFac= 1.00D+00 NAtFMM=   60 NAOKFM=T Big=T
 Integral buffers will be    131072 words long.
 Raffenetti 2 integral format.
 Two-electron integral symmetry is turned on.
 R6Disp:  Grimme-D3(BJ) Dispersion energy=       -0.2312650885 Hartrees.
 Nuclear repulsion after empirical dispersion term =     9446.0254110656 Hartrees.
 Force inversion solution in PCM.
 ------------------------------------------------------------------------------
 Polarizable Continuum Model (PCM)
 =================================
 Model                : PCM.
 Atomic radii         : UFF (Universal Force Field).
 Polarization charges : Total charges.
 Charge compensation  : None.
 Solution method      : Matrix inversion.
 Cavity type          : Scaled VdW (van der Waals Surface) (Alpha=1.100).
 Cavity algorithm     : GePol (No added spheres)
                        Default sphere list used, NSphG=  100.
                        Lebedev-Laikov grids with approx.  5.0 points / Ang**2.
                        Smoothing algorithm: York/Karplus (Gamma=1.0000).
                        Polarization charges: spherical gaussians, with
                                              point-specific exponents (IZeta= 3).
                        Self-potential: point-specific (ISelfS= 7).
                        Self-field    : sphere-specific E.n sum rule (ISelfD= 2).
 1st derivatives      : Analytical E(r).r(x)/FMM algorithm (CHGder, D1EAlg=3).
                        Cavity 1st derivative terms included.
 2nd derivatives      : Analytical E(r).r(xy)/FMM algorithm (CHGder, D2EAlg=3).
                        Cavity 2nd derivative terms included.
[...]
 37,0.00025472,-0.00004620,0.00040822,-0.00032239,0.00003552,0.00009391
 ,-0.00012030,0.00004640,-0.00001252,-0.00013278,0.00002537,-0.00003744
 ,0.00001357,-0.00002458,0.00000617,-0.00000679,0.00000661,0.00001138,0
 .00000094,0.00000320,0.00006081,-0.00002160,0.00002594,-0.00174694,0.0
 0010265,0.00102606,0.00034279,-0.00000988,-0.00057160,0.00073503,-0.00
 044062,-0.00003144,0.00027206,-0.00061575,0.00070878,-0.00018670,-0.00
 060760,-0.00045538,-0.00189266,-0.00059216,-0.00042845,0.00104566,-0.0
 0128341,0.00066237,-0.00005117,0.00007082,-0.00006929,-0.01403248,0.00
 063927,-0.02799644,0.00005078,0.00003993,-0.00044726,0.00172334,0.0013
 4498,-0.00127163,-0.00042466,0.00023192,-0.00047072,-0.00030505,0.0005
 3695,0.00022118,0.00012606,-0.00018585,0.00004868,0.00011541,-0.000152
 10,0.00004858,0.00043878,-0.00179566,-0.00015529,-0.00007402,0.0001592
 1,-0.00003293,0.00000019,0.00003316,-0.00000705,-0.00000186,-0.0000524
 9,-0.00006480,0.00000229,-0.00004094,0.00003576,0.00000232,0.00005066,
 -0.00005723,0.00000094,0.00000810,0.00000123,0.00000905,-0.00000587,0.
 00001151,-0.00000392,-0.00001165,0.00000249,-0.00004434,0.00001402,-0.
 00000482,0.00000484,-0.00000049,0.00000356,0.00000644,0.00000017,-0.00
 000441,0.00000637,-0.00000633,-0.00000119,-0.00004836,0.00000563,0.000
 01628,0.00000634,0.00000069,-0.00000943,-0.00001540,-0.00001375,-0.000
 01304,-0.00000264,0.00000814,0.00000406,-0.00019022,-0.00027743,-0.000
 10052,-0.00001670,0.00005300,0.00003924,-0.00000239,-0.00002004,-0.000
 03977,0.00000984,0.00001168,0.00000465,-0.00000265,-0.00002376,0.00001
 983,-0.00000946,0.00000208,0.00000463,0.00000009,-0.00001886,-0.000026
 29,-0.00000355,0.00000086,0.00000606,0.00000462,-0.00000581,0.00000922
 ,0.00000933,0.00000899,-0.00000041,0.00143066,0.00094120,0.00010356,-0
 .00032971,-0.00029131,0.00021563,-0.00052011,-0.00013450,-0.00015821,-
 0.00025427,-0.00048073,-0.00015997,-0.00767611,-0.07255869,-0.01639053
 ,0.00802807,0.01172886,0.00520855,-0.00554642,0.07369486,-0.00000316,-
 0.00000683,-0.00001615,-0.00000562,-0.00000203,-0.00001117,-0.00000006
 ,0.00003879,-0.00009997,-0.00001973,-0.00003625,-0.00004691,-0.0000012
 0,-0.00001619,-0.00001494,-0.00000351,0.00000192,0.00001081,0.00000544
 ,-0.00000371,0.00000420,0.00000048,-0.00000480,0.00000079,0.00000408,-
 0.00000046,0.00000179,0.00000289,0.00000111,0.00000400,0.00000058,0.00
 003545,0.00008549,0.00009065,-0.00003695,0.00007485,0.00000228,0.00000
 979,0.00002390,-0.00000235,0.00000353,0.00001977,-0.00000169,0.0000282
 9,0.00003872,0.00001488,0.00001455,0.00001593,0.00000207,-0.00000144,0
 .00000336,0.00004432,0.00000812,0.00002175,-0.00014206,0.00016867,0.00
 024474,-0.00001052,-0.00000698,-0.00001211,0.00000558,0.00000221,0.000
 00264,0.00000096,-0.00000078,0.00000242,-0.00000045,0.00000141,0.00000
 069,0.00000461,0.00000223,-0.00000788,-0.00000030,-0.00000076,-0.00000
 128,-0.00000247,0.00000144,0.00000282,0.00000094,-0.00000081,0.0000006
 2,0.00000194,-0.00000018,-0.00002916,-0.00000400,0.00000108,0.00000325
 ,-0.00000010,-0.00000956,0.00000822,0.00000649,0.00000441,0.00000037,-
 0.00011481,-0.00000269,-0.00017319,0.00009243,-0.00022245,0.00016707,-
 0.00048122,0.00023418,-0.00074192,-0.00000818,0.00005313,-0.00005548,0
 .00002517,0.00004122,0.00000067,-0.00001349,-0.00005210,0.00002111,0.0
 0002953,-0.00004129,0.00000516,0.00001809,0.00008567,0.00004223,-0.000
 00938,0.00000314,0.00001198,0.00001288,-0.00002247,0.00001065,0.000080
 24,-0.00013708,0.00013994,0.00110856,0.00022365,0.00009808,-0.00025393
 ,0.00060972,0.00071709,0.00016922,0.00000328,0.00019567,-0.00000495,-0
 .00002618,0.00005081,-0.00003416,0.00000403,-0.00003901,0.00000521,0.0
 0000029,0.00000558,-0.00000040,0.00000019,0.00000664,0.00003808,-0.000
 00279,0.00004670,-0.00293348,0.00070022,0.00100397,0.00063419,-0.00013
 768,-0.00073432,0.00122545,-0.00096414,0.00028982,0.00043849,-0.000674
 61,0.00063038,-0.00054790,-0.00071024,-0.00050272,-0.00183328,-0.00072
 926,0.00105416,0.00058324,-0.00267013,0.00049839,-0.00005416,0.0000625
 2,-0.00010259,-0.02480879,-0.01222327,-0.03119437,-0.00022986,0.000464
 32,-0.00054312,0.00342304,0.00078025,-0.00375589,-0.00046635,0.0005466
 7,-0.00059076,0.00098152,-0.00122429,-0.00039427,-0.00003430,0.0001532
 7,0.00003179,-0.00015030,0.00020794,0.00002670,0.00023242,-0.00050674,
 -0.00046002,-0.00015773,0.00008646,-0.00006471,-0.00000446,0.00012078,
 0.00002339,-0.00004910,-0.00006636,-0.00017024,0.00000658,-0.00007703,
 0.00004464,0.00000109,0.00002813,-0.00004445,-0.00000660,0.00000061,0.
 00000022,0.00001039,-0.00000503,0.00000602,-0.00000103,0.00000112,0.00
 000289,-0.00002048,0.00000328,-0.00001292,0.00000708,-0.00000053,0.000
 00794,0.00000210,-0.00000267,0.00000008,0.00000405,-0.00000038,-0.0000
 0031,-0.00007783,0.00000615,-0.00000511,0.00000333,-0.00000580,0.00000
 043,-0.00002556,-0.00000688,-0.00002659,0.00000184,0.00000970,0.000001
 58,0.00007902,-0.00022634,-0.00070667,0.00000771,0.00004001,0.00015576
 ,-0.00000527,-0.00001885,-0.00012851,-0.00000219,0.00000076,0.00001891
 ,-0.00000896,-0.00001110,0.00004088,-0.00000693,0.00000345,0.00002303,
 -0.00000197,-0.00001759,-0.00009966,0.00000023,0.00000355,0.00001137,0
 .00001101,0.00000465,0.00002931,0.00000455,0.00000100,0.00001395,0.002
 31017,0.00152642,-0.00020763,-0.00054201,-0.00051605,0.00054969,-0.000
 74332,-0.00024135,-0.00017946,-0.00039393,-0.00094686,-0.00024623,-0.0
 7190181,-0.01466106,-0.19101975,-0.02326059,0.00287710,0.01084754,0.13
 560467,-0.01029008,0.26577231,0.00000595,-0.00000360,0.00000052,0.0000
 0408,-0.00000461,-0.00000233,0.00000857,-0.00001378,-0.00000434,0.0000
 0303,-0.00001977,0.00000110,0.00000362,-0.00000557,-0.00000058,0.00000
 035,0.00000350,0.00000155,-0.00000096,0.00000150,-0.00000042,0.0000010
 0,0.00000084,-0.00000083,0.00000159,0.00000326,-0.00000485,-0.00000143
 ,0.00000250,-0.00000191,-0.00000654,0.00001805,0.00000836,-0.00000736,
 0.00001247,-0.00000061,-0.00000525,0.00000845,0.00000531,-0.00000854,0
 .00000327,0.00000082,-0.00001035,0.00001000,-0.00000412,0.00002659,-0.
 00000519,0.00000903,-0.00000749,0.00000862,-0.00000558,0.00000577,-0.0
 0000228,0.00000140,-0.00003280,0.00005612,0.00000366,0.00000080,-0.000
 00750,-0.00000197,0.00000010,0.00000034,0.00000026,-0.00000007,0.00000
 144,-0.00000098,-0.00000039,0.00000034,0.00000074,0.00000311,-0.000001
 62,-0.00000150,-0.00000022,0.00000103,0.00000010,-0.00000017,-0.000000
 40,0.00000122,-0.00000133,-0.00000017,-0.00000044,0.00000552,-0.000000
 99,0.00000681,-0.00000261,0.00000076,-0.00000055,0.00000094,-0.0000005
 4,-0.00000115,0.00000174,0.00000082,0.00000014,-0.00003069,-0.00001196
 ,0.00000121,-0.00000026,-0.00001828,0.00000086,-0.00001357,-0.00003104
 ,-0.00002630,-0.00000543,-0.00002166,0.00000071,-0.00000058,-0.0000001
 5,0.00000318,0.00000329,-0.00000905,-0.00000264,0.00000292,-0.00000497
 ,-0.00000060,-0.00000081,0.00000878,0.00000377,0.00000029,0.00000226,0
 .00000030,0.00000093,-0.00000189,0.00000072,-0.00000719,0.00003275,0.0
 0000951,0.00005952,0.00017763,0.00007736,0.00001207,0.00006317,0.00002
 058,0.00005349,-0.00000076,-0.00000097,0.00000759,0.00000863,-0.000001
 99,-0.00000083,-0.00000013,-0.00000259,-0.00000084,0.00000201,-0.00000
 015,0.00000147,-0.00000075,-0.00000020,0.00000243,0.00000374,0.0000010
 4,-0.00024680,-0.00031917,-0.00004787,0.00006560,0.00005509,-0.0000285
 6,0.00008519,0.00005092,-0.00000966,0.00040204,-0.00016766,-0.00095973
 ,0.00011655,0.00000021,0.00001927,-0.00188989,0.00041307,0.00018651,0.
 00030900,0.00044454,-0.00043623,0.00010116,0.00001319,0.00006710,0.009
 59360,-0.00401396,0.00238021,0.00100713,0.00049289,0.00001871,-0.00025
 459,0.00057504,0.00029194,0.00037294,0.00035906,0.00036045,0.00005485,
 -0.00009599,-0.00000398,0.00000803,-0.00000303,0.00000538,-0.00001166,
 0.00002849,-0.00000240,0.00002017,-0.00008969,-0.00001645,-0.00004372,
 0.00002018,-0.00000869,0.00000278,0.00000493,0.00000160,-0.00000637,-0
 .00000821,-0.00000736,0.00000354,-0.00000011,0.00000082,-0.00000396,-0
 .00000121,0.00000392,0.00000023,0.00000019,-0.00000198,0.00000152,-0.0
 0000014,-0.00000023,-0.00000007,0.00000120,-0.00000020,-0.00000100,-0.
 00000235,0.00000011,0.00000011,-0.00000056,0.00000077,0.00000074,-0.00
 000026,-0.00000080,0.00000015,0.00000115,0.00000019,0.00000460,-0.0000
 0732,-0.00000319,0.00000157,-0.00000120,-0.00000254,-0.00000250,-0.000
 00312,0.00000245,-0.00000123,0.00000415,0.00000089,0.00014258,-0.00017
 668,-0.00001994,-0.00006427,0.00000681,0.00002035,0.00002506,-0.000009
 55,-0.00004360,0.00000430,-0.00000039,0.00000382,0.00000734,-0.0000115
 6,-0.00000195,-0.00001585,0.00000544,0.00000288,0.00003089,0.00001133,
 0.00002110,-0.00000909,0.00000009,0.00000209,0.00000985,-0.00000395,0.
 00000479,0.00000203,-0.00000252,-0.00000084,0.00001527,0.00014712,0.00
 005438,0.00000488,-0.00003135,-0.00001750,0.00001493,-0.00001789,-0.00
 000226,0.00000254,-0.00004985,-0.00001459,-0.08064369,-0.03583194,0.01
 807321,-0.03496184,-0.04254434,0.03570241,0.01115886,0.01800628,-0.017
 95386,0.09451547,-0.00001878,-0.00001297,0.00001108,-0.00002305,0.0000
 0573,0.00000953,-0.00004301,0.00000954,0.00002718,0.00001687,-0.000044
 35,0.00000203,-0.00001475,-0.00003547,-0.00003634,-0.00000262,0.000000
 77,0.00000341,0.00000267,0.00000203,-0.00000083,0.00000280,0.00000174,
 -0.00000271,-0.00000472,0.00000148,-0.00000121,-0.00000191,0.00000379,
 0.00000083,0.00007033,0.00002158,-0.00000612,0.00007928,0.00000782,-0.
 00000174,0.00002497,0.00000176,-0.00001314,0.00004179,0.00001916,-0.00
 000686,0.00002528,0.00004342,0.00001173,-0.00023066,0.00002634,-0.0000
 5328,0.00003968,-0.00002509,0.00001224,0.00006970,0.00002110,0.0000381
 4,0.00028636,0.00016412,0.00011519,-0.00000648,0.00000204,0.00000113,0
 .00000097,-0.00000112,0.00000267,-0.00000082,0.00000045,-0.00000140,0.
 00000353,-0.00000128,-0.00000182,-0.00001280,-0.00002027,0.00001429,-0
 .00000018,0.00000663,-0.00000230,0.00000017,0.00000060,-0.00000213,0.0
 0000335,0.00000123,-0.00000121,-0.00001376,-0.00001056,-0.00001398,0.0
 0000220,-0.00000068,0.00000204,0.00000082,0.00000095,-0.00000196,0.000
 00357,0.00000647,0.00000472,-0.00004216,0.00000670,-0.00006664,-0.0002
 1506,0.00027928,-0.00000239,-0.00058607,0.00019470,-0.00034721,-0.0000
 1907,0.00014187,-0.00000060,-0.00003319,0.00012216,0.00002261,-0.00002
 190,-0.00005819,0.00002009,0.00003677,-0.00005003,0.00003110,0.0000032
 6,0.00008250,0.00003067,-0.00001358,-0.00001059,0.00000718,0.00000588,
 -0.00002057,0.00000631,0.00023926,-0.00029044,-0.00005128,0.00116686,0
 .00047531,-0.00010189,0.00039308,-0.00022095,0.00022709,0.00022504,-0.
 00016522,0.00007588,-0.00001282,-0.00017186,0.00003107,-0.00005317,0.0
 0002001,-0.00003049,0.00000819,-0.00000935,0.00000903,0.00001783,0.000
 00135,0.00000345,0.00008844,-0.00003099,0.00003222,-0.00299555,0.00013
 673,0.00170437,0.00062187,0.00002924,-0.00103786,0.00115102,-0.0007240
 1,-0.00002732,-0.00019977,-0.00001980,-0.00095920,-0.00012807,-0.00085
 037,-0.00020416,-0.00247824,-0.00036090,0.00036566,-0.00199349,-0.0014
 5498,-0.00173652,0.00010617,-0.00003546,0.00013023,-0.01534727,-0.0458
 0977,0.01957798,0.00127562,-0.00084040,0.00022344,0.00646331,-0.003379
 59,-0.00293925,0.00033536,0.00021794,0.00079821,-0.00015553,0.00019643
 ,-0.00016583,0.00005667,-0.00007167,0.00006634,0.00001595,-0.00004230,
 0.00003729,-0.00009957,0.00005478,-0.00009138,-0.00017807,0.00026007,-
 0.00006004,0.00000038,0.00006023,-0.00001143,-0.00002234,-0.00009454,-
 0.00011089,0.00000916,-0.00006107,0.00005205,-0.00000187,0.00006967,-0
 .00007157,0.00000261,0.00001147,-0.00000044,0.00001342,-0.00000764,0.0
 0001571,-0.00000592,-0.00001566,0.00000252,-0.00006492,0.00001976,-0.0
 0000390,0.00000619,-0.00000097,0.00000419,0.00000977,0.00000083,-0.000
 00741,0.00000892,-0.00000914,-0.00000169,-0.00006785,0.00000476,0.0000
 3336,0.00001169,0.00000160,-0.00001831,-0.00002566,-0.00002244,-0.0000
 1892,-0.00000501,0.00001329,0.00000559,-0.00024300,-0.00043791,-0.0000
 7798,-0.00004364,0.00009442,0.00001252,0.00000227,-0.00003602,-0.00003
 938,0.00002502,0.00002561,0.00000451,0.00000111,-0.00005055,0.00002728
 ,-0.00001920,0.00000709,-0.00000019,0.00000771,-0.00002443,-0.00000024
 ,-0.00000860,0.00000237,0.00000695,0.00000921,-0.00001262,0.00000726,0
 .00001597,0.00001679,-0.00000613,0.00254344,0.00180612,-0.00046366,-0.
 00054505,-0.00054189,0.00038867,-0.00102722,-0.00021838,-0.00026762,-0
 .00038396,-0.00121854,-0.00024425,-0.03216450,-0.22724035,0.06040922,-
 0.02914916,0.00022546,0.01721222,0.01068526,-0.01019601,0.03835924,0.0
 6248699,0.29003009,-0.00000031,0.00000105,-0.00000907,0.00000030,-0.00
 000019,-0.00000616,0.00000435,0.00002056,-0.00004609,-0.00001098,-0.00
 000094,-0.00002008,0.00000087,0.00000063,-0.00000081,-0.00000116,-0.00
 000077,0.00000353,0.00000211,-0.00000254,0.00000224,-0.00000113,-0.000
 00273,0.00000102,0.00000177,-0.00000188,0.00000207,0.00000202,-0.00000
 115,0.00000222,-0.00001050,0.00000399,0.00003469,0.00002636,-0.0000221
 2,0.00003367,-0.00000145,0.00000069,0.00001114,-0.00000490,-0.00000311
 ,0.00000967,-0.00000152,0.00000186,0.00001632,0.00003390,0.00000186,0.
 00000844,-0.00000383,-0.00000046,0.00000131,0.00000590,-0.00000035,0.0
 0000179,-0.00008596,0.00002141,0.00007355,-0.00000389,-0.00000049,-0.0
 0000493,0.00000237,0.00000111,0.00000054,0.00000065,-0.00000101,0.0000
 0180,-0.00000076,0.00000075,0.00000034,0.00000315,0.00000511,-0.000005
 54,-0.00000003,-0.00000190,-0.00000027,-0.00000110,0.00000082,0.000001
 14,0.00000040,-0.00000053,0.00000068,0.00000081,0.00000165,-0.00001286
 ,-0.00000111,0.00000034,0.00000122,-0.00000049,-0.00000406,0.00000424,
 0.00000178,0.00000062,-0.00000068,-0.00002044,0.00000248,-0.00005669,0
 .00006823,-0.00011653,0.00005489,-0.00007391,0.00005766,-0.00020432,0.
 00000156,0.00000329,-0.00002156,0.00001410,-0.00000406,-0.00000408,-0.
 00000198,-0.00000638,0.00000365,0.00000438,-0.00000500,-0.00000351,0.0
 0000489,0.00001653,0.00000956,-0.00000101,0.00000216,0.00000333,0.0000
 0377,-0.00000458,0.00000281,-0.00000817,-0.00001031,0.00005554,0.00017
 525,-0.00010653,0.00002208,-0.00014499,0.00021552,0.00022447,0.0000007
 8,0.00002682,0.00006168,-0.00000301,0.00001358,0.00001621,-0.00000394,
 -0.00000178,-0.00001016,0.00000091,0.00000107,0.00000063,-0.00000396,0
 .00000003,0.00000222,-0.00000083,0.00000315,0.00001342,-0.00042670,0.0
 0046728,0.00005624,0.00009839,-0.00009674,-0.00002138,0.00016953,-0.00
 023512,0.00013274,-0.00043562,0.00047775,0.00057640,-0.00050595,-0.000
 51108,-0.00000127,0.00153306,-0.00112111,-0.00055941,0.00000148,-0.000
 40201,-0.00102828,-0.00006402,-0.00002424,0.00001793,-0.00080284,-0.00
 734765,0.01008574,-0.00079341,-0.00048874,-0.00021343,0.00084406,0.000
 18880,0.00040735,-0.00013128,-0.00032231,0.00016570,0.00033305,-0.0004
 3722,-0.00016893,-0.00002033,0.00006753,0.00000026,-0.00005312,0.00006
 521,0.00000640,0.00008091,-0.00019076,-0.00007957,-0.00001024,-0.00001
 594,-0.00001010,-0.00000274,0.00003240,0.00000974,-0.00000942,-0.00000
 411,-0.00004498,-0.00000032,-0.00002104,0.00000884,0.00000287,0.000000
 29,-0.00000829,-0.00000324,-0.00000162,0.00000117,0.00000123,-0.000000
 72,-0.00000005,0.00000070,0.00000253,0.00000079,0.00000312,-0.00000092
 ,-0.00000489,0.00000176,0.00000020,0.00000229,-0.00000116,-0.00000117,
 0.00000164,0.00000012,0.00000101,0.00000006,-0.00002176,0.00000507,-0.
 00000944,-0.00000288,-0.00000197,0.00000540,-0.00000434,0.00000362,-0.
 00000811,0.00000192,0.00000001,-0.00000070,0.00004028,0.00006782,-0.00
 026272,0.00002926,-0.00000379,0.00006549,-0.00001076,0.00000064,-0.000
 04054,-0.00000861,-0.00000574,0.00000593,-0.00000557,0.00000989,0.0000
 1096,0.00000612,-0.00000244,0.00000976,-0.00001240,-0.00000775,-0.0000
 4985,0.00000506,0.00000122,0.00000300,-0.00000061,0.00000589,0.0000104
 3,-0.00000079,-0.00000162,0.00000642,0.00034606,0.00031666,-0.00030821
 ,-0.00010697,-0.00008989,0.00015752,-0.00013207,-0.00004992,0.00002892
 ,-0.00004759,-0.00008457,0.00004510,0.01778107,0.06600596,-0.10093142,
 0.03167979,0.02352142,-0.01077368,-0.01158072,0.05100829,-0.05073622,-
 0.03773362,-0.13088467,0.15316397\\0.00000034,-0.00000184,0.00000013,-
 0.00000022,-0.00000134,-0.00000039,-0.00000019,-0.00000062,-0.00000042
 ,0.00000041,-0.00000126,0.00000036,0.00000053,-0.00000203,0.00000029,-
 0.00000061,-0.00000041,-0.00000077,-0.00000043,-0.00000174,-0.00000081
 ,0.00000064,-0.00000152,0.00000054,0.00000070,-0.00000087,0.00000071,0
 .00000028,-0.00000247,-0.00000005,0.,-0.00000058,-0.00000039,0.0000001
 3,-0.00000015,0.00000023,-0.00000034,-0.00000115,-0.00000057,0.0000003
 3,-0.00000260,0.00000004,0.00000106,-0.00000229,0.00000087,0.00000056,
 -0.00000144,0.00000031,0.00000014,-0.00000177,-0.00000009,0.00000082,-
 0.00000188,0.00000069,0.00000049,-0.00000080,0.00000040,-0.00000080,-0
 .00000082,-0.00000112,-0.00000089,-0.00000023,-0.00000107,-0.00000108,
 -0.00000122,-0.00000147,-0.00000086,-0.00000084,-0.00000114,0.00000058
 ,-0.00000253,0.00000028,0.00000096,-0.00000243,0.00000076,0.00000035,-
 0.00000215,0.00000005,0.00000056,-0.00000320,0.00000018,0.00000117,-0.
 00000313,0.00000092,0.00000100,-0.00000345,0.00000066,0.00000100,-0.00
 000332,0.00000068,0.00000158,-0.00000327,0.00000137,-0.00000082,0.0000
 0071,-0.00000090,-0.00000024,0.00000028,-0.00000041,-0.00000051,0.0000
 0025,-0.00000030,-0.00000126,0.00000031,-0.00000144,-0.00000135,0.0000
 0035,-0.00000145,0.00000005,0.00000019,0.00000001,-0.00000031,-0.00000
 038,-0.00000042,-0.00000088,0.00000128,-0.00000080,-0.00000138,0.00000
 101,-0.00000151,-0.00000126,-0.00000036,-0.00000151,-0.00000079,0.0000
 0031,-0.00000079,0.00000057,0.00000140,0.00000090,-0.00000009,0.000000
 54,0.00000014,-0.00000086,0.00000053,-0.00000099,-0.00000177,0.0000007
 2,-0.00000199,-0.00000151,-0.00000024,-0.00000188,-0.00000197,-0.00000
 008,-0.00000232,-0.00000149,-0.00000010,-0.00000178,-0.00000130,-0.000
 00111,-0.00000156,0.00000025,0.00000189,0.00000089,0.00000015,0.000002
 71,0.00000043,-0.00000029,0.00000166,-0.00000017,0.00000025,0.00000228
 ,0.00000079,-0.00000002,0.00000268,0.00000033,0.00000082,0.00000211,0.
 00000124,0.00000010,0.00000276,0.00000045,-0.00000046,0.00000278,-0.00
 000012,0.00000101,0.00000216,0.00000138,0.00000111,0.00000179,0.000001
 59,0.00000056,0.00000257,0.00000102,0.00000061,0.00000263,0.00000112,0
 .00000003,-0.00000022,0.00000078,0.00000047,-0.00000058,0.00000057,0.0
 0000010,0.00000002,0.00000009,0.00000068,0.00000043,0.00000085,-0.0000
 0078,0.00000122,-0.00000073,-0.00000104,0.00000175,-0.00000095,-0.0000
 0038,0.00000133,-0.00000024,-0.00000086,0.00000104,-0.00000086,-0.0000
 0206,0.00000031,-0.00000236,-0.00000183,0.00000029,-0.00000213,-0.0000
 0212,-0.00000028,-0.00000253,-0.00000242,0.00000068,-0.00000275,-0.000
 00156,-0.00000155,-0.00000193,-0.00000132,-0.00000213,-0.00000186,-0.0
 0000135,-0.00000144,-0.00000182,-0.00000193,-0.00000155,-0.00000250,0.
 00000007,0.00000069,0.00000020,0.00000027,0.00000105,0.00000047,0.0000
 0026,0.00000064,0.00000039,-0.00000031,0.00000087,-0.00000024,0.000001
 36,0.00000006,0.00000109,0.00000166,-0.00000023,0.00000178,0.00000150,
 0.00000029,0.00000175,0.00000184,0.00000033,0.00000223,0.00000129,0.00
 000082,0.00000160,0.00000122,-0.00000007,0.00000144,0.00000185,-0.0000
 0093,0.00000208,0.00000161,-0.00000131,0.00000175,0.00000200,-0.000001
 17,0.00000209,0.00000222,-0.00000088,0.00000250,-0.00000037,0.00000314
 ,0.,-0.00000047,0.00000275,-0.00000007,-0.00000027,0.00000390,0.000000
 26,-0.00000086,0.00000330,-0.00000050,0.00000139,0.00000183,0.00000195
 ,0.00000157,0.00000218,0.00000212,0.00000153,0.00000112,0.00000191,0.0
 0000189,0.00000203,0.00000250\\\@


 WHEN ALL ELSE FAILS, TRY THE BOSS'S SUGGESTION.
 Job cpu time:       4 days  5 hours 42 minutes 37.9 seconds.
 Elapsed time:       0 days  3 hours 32 minutes  3.4 seconds.
 File lengths (MBytes):  RWF=   9765 Int=      0 D2E=      0 Chk=    106 Scr=      1
 Normal termination of Gaussian 16 at Fri May 24 07:16:00 2019.
