 Entering Gaussian System, Link 0=g16
 Input=clay_new-glu_gluC6-EADR-Na2_1Me2O-bisCF3-ts-b3lyp_d3bj-631gd-pcm_thf.gjf
 Output=clay_new-glu_gluC6-EADR-Na2_1Me2O-bisCF3-ts-b3lyp_d3bj-631gd-pcm_thf.out
 Initial command:
 /home/ekwan/sw/g16/l1.exe "/scratch/users/ekwan/clay_new-glu_gluC6-EADR-Na2_1Me2O-bisCF3-ts-b3lyp_d3bj-631gd-pcm_thf/Gau-13296.inp" -scrdir="/scratch/users/ekwan/clay_new-glu_gluC6-EADR-Na2_1Me2O-bisCF3-ts-b3lyp_d3bj-631gd-pcm_thf/"
 Entering Link 1 = /home/ekwan/sw/g16/l1.exe PID=     13297.
  
 Copyright (c) 1988,1990,1992,1993,1995,1998,2003,2009,2016,
            Gaussian, Inc.  All Rights Reserved.
  
 This is part of the Gaussian(R) 16 program.  It is based on
 the Gaussian(R) 09 system (copyright 2009, Gaussian, Inc.),
 the Gaussian(R) 03 system (copyright 2003, Gaussian, Inc.),
 the Gaussian(R) 98 system (copyright 1998, Gaussian, Inc.),
 the Gaussian(R) 94 system (copyright 1995, Gaussian, Inc.),
 the Gaussian 92(TM) system (copyright 1992, Gaussian, Inc.),
 the Gaussian 90(TM) system (copyright 1990, Gaussian, Inc.),
 the Gaussian 88(TM) system (copyright 1988, Gaussian, Inc.),
 the Gaussian 86(TM) system (copyright 1986, Carnegie Mellon
 University), and the Gaussian 82(TM) system (copyright 1983,
 Carnegie Mellon University). Gaussian is a federally registered
 trademark of Gaussian, Inc.
  
 This software contains proprietary and confidential information,
 including trade secrets, belonging to Gaussian, Inc.
  
 This software is provided under written license and may be
 used, copied, transmitted, or stored only in accord with that
 written license.
  
 The following legend is applicable only to US Government
 contracts under FAR:
  
                    RESTRICTED RIGHTS LEGEND
  
 Use, reproduction and disclosure by the US Government is
 subject to restrictions as set forth in subparagraphs (a)
 and (c) of the Commercial Computer Software - Restricted
 Rights clause in FAR 52.227-19.
  
 Gaussian, Inc.
 340 Quinnipiac St., Bldg. 40, Wallingford CT 06492
  
  
 ---------------------------------------------------------------
 Warning -- This program may not be used in any manner that
 competes with the business of Gaussian, Inc. or will provide
 assistance to any competitor of Gaussian, Inc.  The licensee
 of this program is prohibited from giving any competitor of
 Gaussian, Inc. access to this program.  By using this program,
 the user acknowledges that Gaussian, Inc. is engaged in the
 business of creating and licensing software in the field of
 computational chemistry and represents and warrants to the
 licensee that it is not a competitor of Gaussian, Inc. and that
 it will not use this program in any manner prohibited above.
 ---------------------------------------------------------------
  

 Cite this work as:
 Gaussian 16, Revision A.03,
 M. J. Frisch, G. W. Trucks, H. B. Schlegel, G. E. Scuseria, 
 M. A. Robb, J. R. Cheeseman, G. Scalmani, V. Barone, 
 G. A. Petersson, H. Nakatsuji, X. Li, M. Caricato, A. V. Marenich, 
 J. Bloino, B. G. Janesko, R. Gomperts, B. Mennucci, H. P. Hratchian, 
 J. V. Ortiz, A. F. Izmaylov, J. L. Sonnenberg, D. Williams-Young, 
 F. Ding, F. Lipparini, F. Egidi, J. Goings, B. Peng, A. Petrone, 
 T. Henderson, D. Ranasinghe, V. G. Zakrzewski, J. Gao, N. Rega, 
 G. Zheng, W. Liang, M. Hada, M. Ehara, K. Toyota, R. Fukuda, 
 J. Hasegawa, M. Ishida, T. Nakajima, Y. Honda, O. Kitao, H. Nakai, 
 T. Vreven, K. Throssell, J. A. Montgomery, Jr., J. E. Peralta, 
 F. Ogliaro, M. J. Bearpark, J. J. Heyd, E. N. Brothers, K. N. Kudin, 
 V. N. Staroverov, T. A. Keith, R. Kobayashi, J. Normand, 
 K. Raghavachari, A. P. Rendell, J. C. Burant, S. S. Iyengar, 
 J. Tomasi, M. Cossi, J. M. Millam, M. Klene, C. Adamo, R. Cammi, 
 J. W. Ochterski, R. L. Martin, K. Morokuma, O. Farkas, 
 J. B. Foresman, and D. J. Fox, Gaussian, Inc., Wallingford CT, 2016.
 
 ******************************************
 Gaussian 16:  AS64L-G16RevA.03 25-Dec-2016
                 3-Jun-2019 
 ******************************************
 %mem=48GB
 %nprocshared=32
 Will use up to   32 processors via shared memory.
 ----------------------------------------------------------------------
 #p opt=(ts,noeigentest,calcfc,maxstep=10) freq=noraman b3lyp 6-31g* po
 p=none scrf=(solvent=tetrahydrofuran,pcm) empiricaldispersion=gd3bj
 ----------------------------------------------------------------------
 1/5=1,8=10,10=4,11=1,18=20,26=3,38=1/1,3;
 2/9=110,12=2,17=6,18=5,40=1/2;
 3/5=1,6=6,7=1,11=2,25=1,30=1,70=2201,71=2,72=20,74=-5,124=41,140=1/1,2,3;
 4//1;
 5/5=2,38=5,53=20/2;
 8/6=4,10=90,11=11/1;
 11/6=1,8=1,9=11,15=111,16=1/1,2,10;
 10/6=1,13=1/2;
 7/10=1,18=20,25=1/1,2,3,16;
 1/5=1,8=10,10=4,11=1,18=20,26=3/3(2);
 2/9=110/2;
 99//99;
 2/9=110/2;
 3/5=1,6=6,7=1,11=2,25=1,30=1,70=2205,71=1,72=20,74=-5,124=41/1,2,3;
 4/5=5,16=3,69=1/1;
 5/5=2,38=5,53=20/2;
 7//1,2,3,16;
 1/5=1,8=10,11=1,18=20,26=3/3(-5);
 2/9=110/2;
 99/9=1/99;
 Leave Link    1 at Mon Jun  3 19:39:24 2019, MaxMem=  6442450944 cpu:               4.9 elap:               0.2
 (Enter /home/ekwan/sw/g16/l101.exe)
 -----
 title
 -----
 Symbolic Z-matrix:
 Charge =  0 Multiplicity = 1
 C                     2.15027   1.06183  -2.29477 
 C                     2.42821   1.99009  -1.11085 
 C                     1.77391   3.35495  -1.33791 
 C                     0.03433   2.39522  -2.71419 
 C                     0.6459    0.9962   -2.56377 
 H                     1.84936   3.97029  -0.43088 
 H                     1.96216   1.56578  -0.2139 
 H                     2.66373   1.45891  -3.17999 
 H                     0.46429   2.86212  -3.6098 
 H                     0.18662   0.48733  -1.71 
 O                     0.37827   3.20358  -1.55864 
 O                     2.41029   3.98857  -2.41047 
 O                     3.81781   2.18894  -0.90193 
 O                     2.66154  -0.22956  -1.97548 
 O                     0.4156    0.25138  -3.75663 
 C                    -1.50068   2.40626  -2.82129 
 H                    -1.7334    1.8461   -3.75175 
 H                    -1.76758   3.4646   -3.04973 
 O                    -2.15426   1.93494  -1.70641 
 C                     4.3734    1.33734   0.09077 
 H                     3.89218   1.49449   1.06714 
 H                     4.27515   0.28337  -0.1838 
 H                     5.43169   1.59792   0.1748 
 C                     3.2634   -0.90496  -3.07064 
 H                     2.53975  -1.09891  -3.86893 
 H                     4.10148  -0.32233  -3.47991 
 H                     3.64389  -1.85173  -2.68417 
 C                    -0.58136  -0.75589  -3.62275 
 H                    -0.27783  -1.5291   -2.90946 
 H                    -1.53833  -0.33263  -3.29564 
 H                    -0.70441  -1.20823  -4.61054 
 C                    -4.29669  -0.60998   0.95337 
 C                    -3.4754    0.47551   0.24927 
 C                    -2.17084  -0.07856  -0.22444 
 C                    -3.08664  -2.30368  -0.49779 
 C                    -4.44796  -1.78872  -0.01065 
 H                    -1.31857   0.55156  -0.38665 
 H                    -3.97625   0.76116  -0.687 
 H                    -3.76404  -0.94191   1.84971 
 H                    -2.64076  -2.89347   0.30594 
 H                    -5.0522   -1.45919  -0.86878 
 O                    -2.09098  -1.25004  -0.74926 
 O                    -0.01005   0.53936   3.55247 
 O                    -3.27354   1.63434   1.03553 
 O                    -5.58376  -0.12011   1.28629 
 O                    -5.04804  -2.90868   0.61396 
 C                    -3.19321  -3.10142  -1.79126 
 H                    -3.55165  -2.43959  -2.58594 
 H                    -3.93938  -3.89298  -1.62862 
 O                    -1.96458  -3.62802  -2.2359 
 S                    -0.12404   0.23647   2.11441 
 O                     0.08075   1.40876   1.20993 
 O                    -1.37523  -0.53121   1.75631 
 C                     1.22993  -0.87531   1.70902 
 C                     1.10923  -1.76061   0.64159 
 C                     2.41587  -0.77574   2.43247 
 C                     2.2019   -2.55634   0.29843 
 H                     0.18165  -1.83284   0.08635 
 C                     3.50057  -1.57251   2.07005 
 H                     2.48202  -0.09145   3.26982 
 C                     3.39965  -2.46653   1.00426 
 H                     4.24419  -3.08592   0.72884 
 C                    -4.19836   2.68746   0.7106 
 H                    -4.05421   2.9913   -0.33243 
 H                    -5.22867   2.35991   0.87008 
 H                    -3.96393   3.51662   1.38059 
 C                    -5.75157   0.14707   2.677 
 H                    -5.6376   -0.7702    3.26901 
 H                    -5.03174   0.89491   3.02887 
 H                    -6.76628   0.53191   2.79887 
 C                    -6.45616  -3.0167    0.4105 
 H                    -6.98407  -2.15141   0.82078 
 H                    -6.69204  -3.11294  -0.65845 
 H                    -6.77074  -3.92457   0.92956 
 C                    -1.50721  -4.74772  -1.48974 
 H                    -0.62002  -5.12231  -2.00061 
 H                    -1.22399  -4.47773  -0.46409 
 H                    -2.27329  -5.53524  -1.45183 
 C                     1.98194   5.33169  -2.60557 
 H                     2.60842   5.75043  -3.3954 
 H                     0.92995   5.37734  -2.90989 
 H                     2.1134    5.92068  -1.68637 
 Na                   -1.24204   2.92414   0.11325 
 O                    -1.30473   4.36918   1.92253 
 C                    -0.18254   5.24411   1.95033 
 H                     0.739     4.69138   2.18155 
 H                    -0.09778   5.69568   0.95884 
 H                    -0.32211   6.03568   2.69869 
 C                    -1.49855   3.71059   3.17536 
 H                    -1.71765   4.44462   3.96216 
 H                    -2.34546   3.03385   3.05373 
 H                    -0.61549   3.12227   3.44793 
 C                     2.06134  -3.5697   -0.80227 
 F                     1.52324  -4.72663  -0.34367 
 F                     3.2538   -3.88798  -1.35491 
 F                     1.25662  -3.13527  -1.7962 
 C                     4.81106  -1.41717   2.79055 
 F                     5.58677  -0.46767   2.20883 
 F                     5.52756  -2.56099   2.78613 
 F                     4.63786  -1.04553   4.07568 
 
 Add virtual bond connecting atoms H37        and H10        Dist= 3.79D+00.
 Add virtual bond connecting atoms H37        and O19        Dist= 3.94D+00.
 Add virtual bond connecting atoms O84        and Na83       Dist= 4.38D+00.
 Add virtual bond connecting atoms H91        and H66        Dist= 4.49D+00.
 ITRead=  0  0  0  0  0  0  0  0  0  0  0  0  0  0  0  0  0  0  0  0
 ITRead=  0  0  0  0  0  0  0  0  0  0  0  0  0  0  0  0  0  0  0  0
 ITRead=  0  0  0  0  0  0  0  0  0  0  0  0  0  0  0  0  0  0  0  0
 ITRead=  0  0  0  0  0  0  0  0  0  0  0  0  0  0  0  0  0  0  0  0
 ITRead=  0  0  0  0  0  0  0  0  0  0  0  0  0  0  0  0  0  0  0  0
 MicOpt= -1 -1 -1 -1 -1 -1 -1 -1 -1 -1 -1 -1 -1 -1 -1 -1 -1 -1 -1 -1
 MicOpt= -1 -1 -1 -1 -1 -1 -1 -1 -1 -1 -1 -1 -1 -1 -1 -1 -1 -1 -1 -1
 MicOpt= -1 -1 -1 -1 -1 -1 -1 -1 -1 -1 -1 -1 -1 -1 -1 -1 -1 -1 -1 -1
 MicOpt= -1 -1 -1 -1 -1 -1 -1 -1 -1 -1 -1 -1 -1 -1 -1 -1 -1 -1 -1 -1
 MicOpt= -1 -1 -1 -1 -1 -1 -1 -1 -1 -1 -1 -1 -1 -1 -1 -1 -1 -1 -1 -1
 NAtoms=    100 NQM=      100 NQMF=       0 NMMI=      0 NMMIF=      0
                NMic=       0 NMicF=      0.
                    Isotopes and Nuclear Properties:
 (Nuclear quadrupole moments (NQMom) in fm**2, nuclear magnetic moments (NMagM)
  in nuclear magnetons)

  Atom         1           2           3           4           5           6           7           8           9          10
 IAtWgt=          12          12          12          12          12           1           1           1           1           1
 AtmWgt=  12.0000000  12.0000000  12.0000000  12.0000000  12.0000000   1.0078250   1.0078250   1.0078250   1.0078250   1.0078250
 NucSpn=           0           0           0           0           0           1           1           1           1           1
 AtZEff=   0.0000000   0.0000000   0.0000000   0.0000000   0.0000000   0.0000000   0.0000000   0.0000000   0.0000000   0.0000000
 NQMom=    0.0000000   0.0000000   0.0000000   0.0000000   0.0000000   0.0000000   0.0000000   0.0000000   0.0000000   0.0000000
 NMagM=    0.0000000   0.0000000   0.0000000   0.0000000   0.0000000   2.7928460   2.7928460   2.7928460   2.7928460   2.7928460
 AtZNuc=   6.0000000   6.0000000   6.0000000   6.0000000   6.0000000   1.0000000   1.0000000   1.0000000   1.0000000   1.0000000

  Atom        11          12          13          14          15          16          17          18          19          20
 IAtWgt=          16          16          16          16          16          12           1           1          16          12
 AtmWgt=  15.9949146  15.9949146  15.9949146  15.9949146  15.9949146  12.0000000   1.0078250   1.0078250  15.9949146  12.0000000
 NucSpn=           0           0           0           0           0           0           1           1           0           0
 AtZEff=   0.0000000   0.0000000   0.0000000   0.0000000   0.0000000   0.0000000   0.0000000   0.0000000   0.0000000   0.0000000
 NQMom=    0.0000000   0.0000000   0.0000000   0.0000000   0.0000000   0.0000000   0.0000000   0.0000000   0.0000000   0.0000000
 NMagM=    0.0000000   0.0000000   0.0000000   0.0000000   0.0000000   0.0000000   2.7928460   2.7928460   0.0000000   0.0000000
 AtZNuc=   8.0000000   8.0000000   8.0000000   8.0000000   8.0000000   6.0000000   1.0000000   1.0000000   8.0000000   6.0000000

  Atom        21          22          23          24          25          26          27          28          29          30
 IAtWgt=           1           1           1          12           1           1           1          12           1           1
 AtmWgt=   1.0078250   1.0078250   1.0078250  12.0000000   1.0078250   1.0078250   1.0078250  12.0000000   1.0078250   1.0078250
 NucSpn=           1           1           1           0           1           1           1           0           1           1
 AtZEff=   0.0000000   0.0000000   0.0000000   0.0000000   0.0000000   0.0000000   0.0000000   0.0000000   0.0000000   0.0000000
 NQMom=    0.0000000   0.0000000   0.0000000   0.0000000   0.0000000   0.0000000   0.0000000   0.0000000   0.0000000   0.0000000
 NMagM=    2.7928460   2.7928460   2.7928460   0.0000000   2.7928460   2.7928460   2.7928460   0.0000000   2.7928460   2.7928460
 AtZNuc=   1.0000000   1.0000000   1.0000000   6.0000000   1.0000000   1.0000000   1.0000000   6.0000000   1.0000000   1.0000000

  Atom        31          32          33          34          35          36          37          38          39          40
 IAtWgt=           1          12          12          12          12          12           1           1           1           1
 AtmWgt=   1.0078250  12.0000000  12.0000000  12.0000000  12.0000000  12.0000000   1.0078250   1.0078250   1.0078250   1.0078250
 NucSpn=           1           0           0           0           0           0           1           1           1           1
 AtZEff=   0.0000000   0.0000000   0.0000000   0.0000000   0.0000000   0.0000000   0.0000000   0.0000000   0.0000000   0.0000000
 NQMom=    0.0000000   0.0000000   0.0000000   0.0000000   0.0000000   0.0000000   0.0000000   0.0000000   0.0000000   0.0000000
 NMagM=    2.7928460   0.0000000   0.0000000   0.0000000   0.0000000   0.0000000   2.7928460   2.7928460   2.7928460   2.7928460
 AtZNuc=   1.0000000   6.0000000   6.0000000   6.0000000   6.0000000   6.0000000   1.0000000   1.0000000   1.0000000   1.0000000

  Atom        41          42          43          44          45          46          47          48          49          50
 IAtWgt=           1          16          16          16          16          16          12           1           1          16
 AtmWgt=   1.0078250  15.9949146  15.9949146  15.9949146  15.9949146  15.9949146  12.0000000   1.0078250   1.0078250  15.9949146
 NucSpn=           1           0           0           0           0           0           0           1           1           0
 AtZEff=   0.0000000   0.0000000   0.0000000   0.0000000   0.0000000   0.0000000   0.0000000   0.0000000   0.0000000   0.0000000
 NQMom=    0.0000000   0.0000000   0.0000000   0.0000000   0.0000000   0.0000000   0.0000000   0.0000000   0.0000000   0.0000000
 NMagM=    2.7928460   0.0000000   0.0000000   0.0000000   0.0000000   0.0000000   0.0000000   2.7928460   2.7928460   0.0000000
 AtZNuc=   1.0000000   8.0000000   8.0000000   8.0000000   8.0000000   8.0000000   6.0000000   1.0000000   1.0000000   8.0000000

  Atom        51          52          53          54          55          56          57          58          59          60
 IAtWgt=          32          16          16          12          12          12          12           1          12           1
 AtmWgt=  31.9720718  15.9949146  15.9949146  12.0000000  12.0000000  12.0000000  12.0000000   1.0078250  12.0000000   1.0078250
 NucSpn=           0           0           0           0           0           0           0           1           0           1
 AtZEff=   0.0000000   0.0000000   0.0000000   0.0000000   0.0000000   0.0000000   0.0000000   0.0000000   0.0000000   0.0000000
 NQMom=    0.0000000   0.0000000   0.0000000   0.0000000   0.0000000   0.0000000   0.0000000   0.0000000   0.0000000   0.0000000
 NMagM=    0.0000000   0.0000000   0.0000000   0.0000000   0.0000000   0.0000000   0.0000000   2.7928460   0.0000000   2.7928460
 AtZNuc=  16.0000000   8.0000000   8.0000000   6.0000000   6.0000000   6.0000000   6.0000000   1.0000000   6.0000000   1.0000000

  Atom        61          62          63          64          65          66          67          68          69          70
 IAtWgt=          12           1          12           1           1           1          12           1           1           1
 AtmWgt=  12.0000000   1.0078250  12.0000000   1.0078250   1.0078250   1.0078250  12.0000000   1.0078250   1.0078250   1.0078250
 NucSpn=           0           1           0           1           1           1           0           1           1           1
 AtZEff=   0.0000000   0.0000000   0.0000000   0.0000000   0.0000000   0.0000000   0.0000000   0.0000000   0.0000000   0.0000000
 NQMom=    0.0000000   0.0000000   0.0000000   0.0000000   0.0000000   0.0000000   0.0000000   0.0000000   0.0000000   0.0000000
 NMagM=    0.0000000   2.7928460   0.0000000   2.7928460   2.7928460   2.7928460   0.0000000   2.7928460   2.7928460   2.7928460
 AtZNuc=   6.0000000   1.0000000   6.0000000   1.0000000   1.0000000   1.0000000   6.0000000   1.0000000   1.0000000   1.0000000

  Atom        71          72          73          74          75          76          77          78          79          80
 IAtWgt=          12           1           1           1          12           1           1           1          12           1
 AtmWgt=  12.0000000   1.0078250   1.0078250   1.0078250  12.0000000   1.0078250   1.0078250   1.0078250  12.0000000   1.0078250
 NucSpn=           0           1           1           1           0           1           1           1           0           1
 AtZEff=   0.0000000   0.0000000   0.0000000   0.0000000   0.0000000   0.0000000   0.0000000   0.0000000   0.0000000   0.0000000
 NQMom=    0.0000000   0.0000000   0.0000000   0.0000000   0.0000000   0.0000000   0.0000000   0.0000000   0.0000000   0.0000000
 NMagM=    0.0000000   2.7928460   2.7928460   2.7928460   0.0000000   2.7928460   2.7928460   2.7928460   0.0000000   2.7928460
 AtZNuc=   6.0000000   1.0000000   1.0000000   1.0000000   6.0000000   1.0000000   1.0000000   1.0000000   6.0000000   1.0000000

  Atom        81          82          83          84          85          86          87          88          89          90
 IAtWgt=           1           1          23          16          12           1           1           1          12           1
 AtmWgt=   1.0078250   1.0078250  22.9897697  15.9949146  12.0000000   1.0078250   1.0078250   1.0078250  12.0000000   1.0078250
 NucSpn=           1           1           3           0           0           1           1           1           0           1
 AtZEff=   0.0000000   0.0000000   0.0000000   0.0000000   0.0000000   0.0000000   0.0000000   0.0000000   0.0000000   0.0000000
 NQMom=    0.0000000   0.0000000  10.4000000   0.0000000   0.0000000   0.0000000   0.0000000   0.0000000   0.0000000   0.0000000
 NMagM=    2.7928460   2.7928460   2.2175200   0.0000000   0.0000000   2.7928460   2.7928460   2.7928460   0.0000000   2.7928460
 AtZNuc=   1.0000000   1.0000000  11.0000000   8.0000000   6.0000000   1.0000000   1.0000000   1.0000000   6.0000000   1.0000000

  Atom        91          92          93          94          95          96          97          98          99         100
 IAtWgt=           1           1          12          19          19          19          12          19          19          19
 AtmWgt=   1.0078250   1.0078250  12.0000000  18.9984033  18.9984033  18.9984033  12.0000000  18.9984033  18.9984033  18.9984033
 NucSpn=           1           1           0           1           1           1           0           1           1           1
 AtZEff=   0.0000000   0.0000000   0.0000000   0.0000000   0.0000000   0.0000000   0.0000000   0.0000000   0.0000000   0.0000000
 NQMom=    0.0000000   0.0000000   0.0000000   0.0000000   0.0000000   0.0000000   0.0000000   0.0000000   0.0000000   0.0000000
 NMagM=    2.7928460   2.7928460   0.0000000   2.6288670   2.6288670   2.6288670   0.0000000   2.6288670   2.6288670   2.6288670
 AtZNuc=   1.0000000   1.0000000   6.0000000   9.0000000   9.0000000   9.0000000   6.0000000   9.0000000   9.0000000   9.0000000
 Leave Link  101 at Mon Jun  3 19:39:24 2019, MaxMem=  6442450944 cpu:              17.6 elap:               0.7
 (Enter /home/ekwan/sw/g16/l103.exe)

 GradGradGradGradGradGradGradGradGradGradGradGradGradGradGradGradGradGrad
 Berny optimization.
 Initialization pass.
                           ----------------------------
                           !    Initial Parameters    !
                           ! (Angstroms and Degrees)  !
 --------------------------                            --------------------------
 ! Name  Definition              Value          Derivative Info.                !
 --------------------------------------------------------------------------------
 ! R1    R(1,2)                  1.5299         calculate D2E/DX2 analytically  !
 ! R2    R(1,5)                  1.5296         calculate D2E/DX2 analytically  !
 ! R3    R(1,8)                  1.0977         calculate D2E/DX2 analytically  !
 ! R4    R(1,14)                 1.4251         calculate D2E/DX2 analytically  !
 ! R5    R(2,3)                  1.5305         calculate D2E/DX2 analytically  !
 ! R6    R(2,7)                  1.0962         calculate D2E/DX2 analytically  !
 ! R7    R(2,13)                 1.4192         calculate D2E/DX2 analytically  !
 ! R8    R(3,6)                  1.0987         calculate D2E/DX2 analytically  !
 ! R9    R(3,11)                 1.4211         calculate D2E/DX2 analytically  !
 ! R10   R(3,12)                 1.3989         calculate D2E/DX2 analytically  !
 ! R11   R(4,5)                  1.5342         calculate D2E/DX2 analytically  !
 ! R12   R(4,9)                  1.0977         calculate D2E/DX2 analytically  !
 ! R13   R(4,11)                 1.4516         calculate D2E/DX2 analytically  !
 ! R14   R(4,16)                 1.5388         calculate D2E/DX2 analytically  !
 ! R15   R(5,10)                 1.0949         calculate D2E/DX2 analytically  !
 ! R16   R(5,15)                 1.425          calculate D2E/DX2 analytically  !
 ! R17   R(10,37)                2.0052         calculate D2E/DX2 analytically  !
 ! R18   R(12,79)                1.4232         calculate D2E/DX2 analytically  !
 ! R19   R(13,20)                1.421          calculate D2E/DX2 analytically  !
 ! R20   R(14,24)                1.4205         calculate D2E/DX2 analytically  !
 ! R21   R(15,28)                1.4235         calculate D2E/DX2 analytically  !
 ! R22   R(16,17)                1.1107         calculate D2E/DX2 analytically  !
 ! R23   R(16,18)                1.1151         calculate D2E/DX2 analytically  !
 ! R24   R(16,19)                1.3756         calculate D2E/DX2 analytically  !
 ! R25   R(19,37)                2.0866         calculate D2E/DX2 analytically  !
 ! R26   R(19,83)                2.2631         calculate D2E/DX2 analytically  !
 ! R27   R(20,21)                1.0998         calculate D2E/DX2 analytically  !
 ! R28   R(20,22)                1.0936         calculate D2E/DX2 analytically  !
 ! R29   R(20,23)                1.0931         calculate D2E/DX2 analytically  !
 ! R30   R(24,25)                1.0948         calculate D2E/DX2 analytically  !
 ! R31   R(24,26)                1.0997         calculate D2E/DX2 analytically  !
 ! R32   R(24,27)                1.0911         calculate D2E/DX2 analytically  !
 ! R33   R(28,29)                1.0949         calculate D2E/DX2 analytically  !
 ! R34   R(28,30)                1.0963         calculate D2E/DX2 analytically  !
 ! R35   R(28,31)                1.0934         calculate D2E/DX2 analytically  !
 ! R36   R(32,33)                1.5325         calculate D2E/DX2 analytically  !
 ! R37   R(32,36)                1.5302         calculate D2E/DX2 analytically  !
 ! R38   R(32,39)                1.0942         calculate D2E/DX2 analytically  !
 ! R39   R(32,45)                1.4168         calculate D2E/DX2 analytically  !
 ! R40   R(33,34)                1.4944         calculate D2E/DX2 analytically  !
 ! R41   R(33,38)                1.0996         calculate D2E/DX2 analytically  !
 ! R42   R(33,44)                1.4149         calculate D2E/DX2 analytically  !
 ! R43   R(34,37)                1.0723         calculate D2E/DX2 analytically  !
 ! R44   R(34,42)                1.2862         calculate D2E/DX2 analytically  !
 ! R45   R(35,36)                1.5348         calculate D2E/DX2 analytically  !
 ! R46   R(35,40)                1.0921         calculate D2E/DX2 analytically  !
 ! R47   R(35,42)                1.4713         calculate D2E/DX2 analytically  !
 ! R48   R(35,47)                1.5234         calculate D2E/DX2 analytically  !
 ! R49   R(36,41)                1.1            calculate D2E/DX2 analytically  !
 ! R50   R(36,46)                1.4158         calculate D2E/DX2 analytically  !
 ! R51   R(43,51)                1.474          calculate D2E/DX2 analytically  !
 ! R52   R(44,63)                1.4387         calculate D2E/DX2 analytically  !
 ! R53   R(45,67)                1.426          calculate D2E/DX2 analytically  !
 ! R54   R(46,71)                1.4268         calculate D2E/DX2 analytically  !
 ! R55   R(47,48)                1.0945         calculate D2E/DX2 analytically  !
 ! R56   R(47,49)                1.0999         calculate D2E/DX2 analytically  !
 ! R57   R(47,50)                1.4087         calculate D2E/DX2 analytically  !
 ! R58   R(50,75)                1.4211         calculate D2E/DX2 analytically  !
 ! R59   R(51,52)                1.4947         calculate D2E/DX2 analytically  !
 ! R60   R(51,53)                1.511          calculate D2E/DX2 analytically  !
 ! R61   R(51,54)                1.7982         calculate D2E/DX2 analytically  !
 ! R62   R(52,83)                2.291          calculate D2E/DX2 analytically  !
 ! R63   R(54,55)                1.392          calculate D2E/DX2 analytically  !
 ! R64   R(54,56)                1.3928         calculate D2E/DX2 analytically  !
 ! R65   R(55,57)                1.3946         calculate D2E/DX2 analytically  !
 ! R66   R(55,58)                1.0835         calculate D2E/DX2 analytically  !
 ! R67   R(56,59)                1.3938         calculate D2E/DX2 analytically  !
 ! R68   R(56,60)                1.0834         calculate D2E/DX2 analytically  !
 ! R69   R(57,61)                1.3932         calculate D2E/DX2 analytically  !
 ! R70   R(57,93)                1.5027         calculate D2E/DX2 analytically  !
 ! R71   R(59,61)                1.3948         calculate D2E/DX2 analytically  !
 ! R72   R(59,97)                1.5035         calculate D2E/DX2 analytically  !
 ! R73   R(61,62)                1.0829         calculate D2E/DX2 analytically  !
 ! R74   R(63,64)                1.0959         calculate D2E/DX2 analytically  !
 ! R75   R(63,65)                1.0928         calculate D2E/DX2 analytically  !
 ! R76   R(63,66)                1.0915         calculate D2E/DX2 analytically  !
 ! R77   R(66,91)                2.3774         calculate D2E/DX2 analytically  !
 ! R78   R(67,68)                1.0977         calculate D2E/DX2 analytically  !
 ! R79   R(67,69)                1.096          calculate D2E/DX2 analytically  !
 ! R80   R(67,70)                1.0921         calculate D2E/DX2 analytically  !
 ! R81   R(71,72)                1.0935         calculate D2E/DX2 analytically  !
 ! R82   R(71,73)                1.0989         calculate D2E/DX2 analytically  !
 ! R83   R(71,74)                1.0921         calculate D2E/DX2 analytically  !
 ! R84   R(75,76)                1.0901         calculate D2E/DX2 analytically  !
 ! R85   R(75,77)                1.0978         calculate D2E/DX2 analytically  !
 ! R86   R(75,78)                1.0993         calculate D2E/DX2 analytically  !
 ! R87   R(79,80)                1.0916         calculate D2E/DX2 analytically  !
 ! R88   R(79,81)                1.0961         calculate D2E/DX2 analytically  !
 ! R89   R(79,82)                1.0996         calculate D2E/DX2 analytically  !
 ! R90   R(83,84)                2.3164         calculate D2E/DX2 analytically  !
 ! R91   R(84,85)                1.4232         calculate D2E/DX2 analytically  !
 ! R92   R(84,89)                1.4286         calculate D2E/DX2 analytically  !
 ! R93   R(85,86)                1.0992         calculate D2E/DX2 analytically  !
 ! R94   R(85,87)                1.0928         calculate D2E/DX2 analytically  !
 ! R95   R(85,88)                1.0982         calculate D2E/DX2 analytically  !
 ! R96   R(89,90)                1.0981         calculate D2E/DX2 analytically  !
 ! R97   R(89,91)                1.0909         calculate D2E/DX2 analytically  !
 ! R98   R(89,92)                1.0955         calculate D2E/DX2 analytically  !
 ! R99   R(93,94)                1.3559         calculate D2E/DX2 analytically  !
 ! R100  R(93,95)                1.3523         calculate D2E/DX2 analytically  !
 ! R101  R(93,96)                1.3506         calculate D2E/DX2 analytically  !
 ! R102  R(97,98)                1.3571         calculate D2E/DX2 analytically  !
 ! R103  R(97,99)                1.3497         calculate D2E/DX2 analytically  !
 ! R104  R(97,100)               1.3489         calculate D2E/DX2 analytically  !
 ! A1    A(2,1,5)              109.9251         calculate D2E/DX2 analytically  !
 ! A2    A(2,1,8)              108.6388         calculate D2E/DX2 analytically  !
 ! A3    A(2,1,14)             108.1348         calculate D2E/DX2 analytically  !
 ! A4    A(5,1,8)              109.4961         calculate D2E/DX2 analytically  !
 ! A5    A(5,1,14)             110.6918         calculate D2E/DX2 analytically  !
 ! A6    A(8,1,14)             109.9168         calculate D2E/DX2 analytically  !
 ! A7    A(1,2,3)              110.4019         calculate D2E/DX2 analytically  !
 ! A8    A(1,2,7)              108.7287         calculate D2E/DX2 analytically  !
 ! A9    A(1,2,13)             112.1361         calculate D2E/DX2 analytically  !
 ! A10   A(3,2,7)              106.5473         calculate D2E/DX2 analytically  !
 ! A11   A(3,2,13)             108.3895         calculate D2E/DX2 analytically  !
 ! A12   A(7,2,13)             110.4898         calculate D2E/DX2 analytically  !
 ! A13   A(2,3,6)              110.3423         calculate D2E/DX2 analytically  !
 ! A14   A(2,3,11)             110.3591         calculate D2E/DX2 analytically  !
 ! A15   A(2,3,12)             108.8563         calculate D2E/DX2 analytically  !
 ! A16   A(6,3,11)             104.7935         calculate D2E/DX2 analytically  !
 ! A17   A(6,3,12)             110.3694         calculate D2E/DX2 analytically  !
 ! A18   A(11,3,12)            112.0819         calculate D2E/DX2 analytically  !
 ! A19   A(5,4,9)              108.1627         calculate D2E/DX2 analytically  !
 ! A20   A(5,4,11)             109.5911         calculate D2E/DX2 analytically  !
 ! A21   A(5,4,16)             114.2674         calculate D2E/DX2 analytically  !
 ! A22   A(9,4,11)             108.6526         calculate D2E/DX2 analytically  !
 ! A23   A(9,4,16)             109.3232         calculate D2E/DX2 analytically  !
 ! A24   A(11,4,16)            106.7246         calculate D2E/DX2 analytically  !
 ! A25   A(1,5,4)              111.7242         calculate D2E/DX2 analytically  !
 ! A26   A(1,5,10)             107.1791         calculate D2E/DX2 analytically  !
 ! A27   A(1,5,15)             109.1822         calculate D2E/DX2 analytically  !
 ! A28   A(4,5,10)             109.4539         calculate D2E/DX2 analytically  !
 ! A29   A(4,5,15)             109.2753         calculate D2E/DX2 analytically  !
 ! A30   A(10,5,15)            110.0001         calculate D2E/DX2 analytically  !
 ! A31   A(5,10,37)            144.5467         calculate D2E/DX2 analytically  !
 ! A32   A(3,11,4)             114.5617         calculate D2E/DX2 analytically  !
 ! A33   A(3,12,79)            113.3066         calculate D2E/DX2 analytically  !
 ! A34   A(2,13,20)            113.684          calculate D2E/DX2 analytically  !
 ! A35   A(1,14,24)            114.2125         calculate D2E/DX2 analytically  !
 ! A36   A(5,15,28)            113.8467         calculate D2E/DX2 analytically  !
 ! A37   A(4,16,17)            105.2896         calculate D2E/DX2 analytically  !
 ! A38   A(4,16,18)            105.0596         calculate D2E/DX2 analytically  !
 ! A39   A(4,16,19)            114.5256         calculate D2E/DX2 analytically  !
 ! A40   A(17,16,18)           104.8848         calculate D2E/DX2 analytically  !
 ! A41   A(17,16,19)           113.991          calculate D2E/DX2 analytically  !
 ! A42   A(18,16,19)           112.1784         calculate D2E/DX2 analytically  !
 ! A43   A(16,19,37)           123.3315         calculate D2E/DX2 analytically  !
 ! A44   A(16,19,83)           108.082          calculate D2E/DX2 analytically  !
 ! A45   A(37,19,83)            67.654          calculate D2E/DX2 analytically  !
 ! A46   A(13,20,21)           111.3131         calculate D2E/DX2 analytically  !
 ! A47   A(13,20,22)           111.5337         calculate D2E/DX2 analytically  !
 ! A48   A(13,20,23)           106.8196         calculate D2E/DX2 analytically  !
 ! A49   A(21,20,22)           108.7421         calculate D2E/DX2 analytically  !
 ! A50   A(21,20,23)           108.7414         calculate D2E/DX2 analytically  !
 ! A51   A(22,20,23)           109.6353         calculate D2E/DX2 analytically  !
 ! A52   A(14,24,25)           111.4907         calculate D2E/DX2 analytically  !
 ! A53   A(14,24,26)           110.9724         calculate D2E/DX2 analytically  !
 ! A54   A(14,24,27)           106.6934         calculate D2E/DX2 analytically  !
 ! A55   A(25,24,26)           109.0398         calculate D2E/DX2 analytically  !
 ! A56   A(25,24,27)           109.5766         calculate D2E/DX2 analytically  !
 ! A57   A(26,24,27)           109.0129         calculate D2E/DX2 analytically  !
 ! A58   A(15,28,29)           111.5197         calculate D2E/DX2 analytically  !
 ! A59   A(15,28,30)           111.4815         calculate D2E/DX2 analytically  !
 ! A60   A(15,28,31)           106.6541         calculate D2E/DX2 analytically  !
 ! A61   A(29,28,30)           108.6779         calculate D2E/DX2 analytically  !
 ! A62   A(29,28,31)           109.123          calculate D2E/DX2 analytically  !
 ! A63   A(30,28,31)           109.3314         calculate D2E/DX2 analytically  !
 ! A64   A(33,32,36)           108.0075         calculate D2E/DX2 analytically  !
 ! A65   A(33,32,39)           109.2901         calculate D2E/DX2 analytically  !
 ! A66   A(33,32,45)           110.4812         calculate D2E/DX2 analytically  !
 ! A67   A(36,32,39)           109.2993         calculate D2E/DX2 analytically  !
 ! A68   A(36,32,45)           108.939          calculate D2E/DX2 analytically  !
 ! A69   A(39,32,45)           110.7696         calculate D2E/DX2 analytically  !
 ! A70   A(32,33,34)           110.5397         calculate D2E/DX2 analytically  !
 ! A71   A(32,33,38)           109.3364         calculate D2E/DX2 analytically  !
 ! A72   A(32,33,44)           113.6577         calculate D2E/DX2 analytically  !
 ! A73   A(34,33,38)           102.9466         calculate D2E/DX2 analytically  !
 ! A74   A(34,33,44)           110.8103         calculate D2E/DX2 analytically  !
 ! A75   A(38,33,44)           108.9895         calculate D2E/DX2 analytically  !
 ! A76   A(33,34,37)           121.5967         calculate D2E/DX2 analytically  !
 ! A77   A(33,34,42)           121.4162         calculate D2E/DX2 analytically  !
 ! A78   A(37,34,42)           115.0992         calculate D2E/DX2 analytically  !
 ! A79   A(36,35,40)           108.0431         calculate D2E/DX2 analytically  !
 ! A80   A(36,35,42)           114.4685         calculate D2E/DX2 analytically  !
 ! A81   A(36,35,47)           112.5276         calculate D2E/DX2 analytically  !
 ! A82   A(40,35,42)           103.6653         calculate D2E/DX2 analytically  !
 ! A83   A(40,35,47)           111.755          calculate D2E/DX2 analytically  !
 ! A84   A(42,35,47)           106.0947         calculate D2E/DX2 analytically  !
 ! A85   A(32,36,35)           111.7601         calculate D2E/DX2 analytically  !
 ! A86   A(32,36,41)           108.3604         calculate D2E/DX2 analytically  !
 ! A87   A(32,36,46)           111.9192         calculate D2E/DX2 analytically  !
 ! A88   A(35,36,41)           109.8836         calculate D2E/DX2 analytically  !
 ! A89   A(35,36,46)           104.5096         calculate D2E/DX2 analytically  !
 ! A90   A(41,36,46)           110.3833         calculate D2E/DX2 analytically  !
 ! A91   A(10,37,19)            84.5173         calculate D2E/DX2 analytically  !
 ! A92   A(10,37,34)           132.6598         calculate D2E/DX2 analytically  !
 ! A93   A(19,37,34)            99.6108         calculate D2E/DX2 analytically  !
 ! A94   A(34,42,35)           122.7193         calculate D2E/DX2 analytically  !
 ! A95   A(33,44,63)           112.4763         calculate D2E/DX2 analytically  !
 ! A96   A(32,45,67)           113.6303         calculate D2E/DX2 analytically  !
 ! A97   A(36,46,71)           114.5356         calculate D2E/DX2 analytically  !
 ! A98   A(35,47,48)           108.8278         calculate D2E/DX2 analytically  !
 ! A99   A(35,47,49)           107.383          calculate D2E/DX2 analytically  !
 ! A100  A(35,47,50)           113.7484         calculate D2E/DX2 analytically  !
 ! A101  A(48,47,49)           108.6844         calculate D2E/DX2 analytically  !
 ! A102  A(48,47,50)           106.4089         calculate D2E/DX2 analytically  !
 ! A103  A(49,47,50)           111.673          calculate D2E/DX2 analytically  !
 ! A104  A(47,50,75)           114.1727         calculate D2E/DX2 analytically  !
 ! A105  A(43,51,52)           114.7453         calculate D2E/DX2 analytically  !
 ! A106  A(43,51,53)           113.5565         calculate D2E/DX2 analytically  !
 ! A107  A(43,51,54)           106.7838         calculate D2E/DX2 analytically  !
 ! A108  A(52,51,53)           111.6232         calculate D2E/DX2 analytically  !
 ! A109  A(52,51,54)           104.2005         calculate D2E/DX2 analytically  !
 ! A110  A(53,51,54)           104.8294         calculate D2E/DX2 analytically  !
 ! A111  A(51,52,83)           136.8274         calculate D2E/DX2 analytically  !
 ! A112  A(51,54,55)           120.0524         calculate D2E/DX2 analytically  !
 ! A113  A(51,54,56)           118.6746         calculate D2E/DX2 analytically  !
 ! A114  A(55,54,56)           121.1726         calculate D2E/DX2 analytically  !
 ! A115  A(54,55,57)           118.9231         calculate D2E/DX2 analytically  !
 ! A116  A(54,55,58)           120.637          calculate D2E/DX2 analytically  !
 ! A117  A(57,55,58)           120.4398         calculate D2E/DX2 analytically  !
 ! A118  A(54,56,59)           119.1256         calculate D2E/DX2 analytically  !
 ! A119  A(54,56,60)           119.908          calculate D2E/DX2 analytically  !
 ! A120  A(59,56,60)           120.9642         calculate D2E/DX2 analytically  !
 ! A121  A(55,57,61)           120.8077         calculate D2E/DX2 analytically  !
 ! A122  A(55,57,93)           119.4539         calculate D2E/DX2 analytically  !
 ! A123  A(61,57,93)           119.6692         calculate D2E/DX2 analytically  !
 ! A124  A(56,59,61)           120.5832         calculate D2E/DX2 analytically  !
 ! A125  A(56,59,97)           119.6455         calculate D2E/DX2 analytically  !
 ! A126  A(61,59,97)           119.7007         calculate D2E/DX2 analytically  !
 ! A127  A(57,61,59)           119.3852         calculate D2E/DX2 analytically  !
 ! A128  A(57,61,62)           120.3151         calculate D2E/DX2 analytically  !
 ! A129  A(59,61,62)           120.2996         calculate D2E/DX2 analytically  !
 ! A130  A(44,63,64)           109.4717         calculate D2E/DX2 analytically  !
 ! A131  A(44,63,65)           110.7131         calculate D2E/DX2 analytically  !
 ! A132  A(44,63,66)           106.2219         calculate D2E/DX2 analytically  !
 ! A133  A(64,63,65)           110.2436         calculate D2E/DX2 analytically  !
 ! A134  A(64,63,66)           110.2026         calculate D2E/DX2 analytically  !
 ! A135  A(65,63,66)           109.9134         calculate D2E/DX2 analytically  !
 ! A136  A(63,66,91)           115.0844         calculate D2E/DX2 analytically  !
 ! A137  A(45,67,68)           110.9272         calculate D2E/DX2 analytically  !
 ! A138  A(45,67,69)           111.3245         calculate D2E/DX2 analytically  !
 ! A139  A(45,67,70)           106.5108         calculate D2E/DX2 analytically  !
 ! A140  A(68,67,69)           109.1986         calculate D2E/DX2 analytically  !
 ! A141  A(68,67,70)           109.3159         calculate D2E/DX2 analytically  !
 ! A142  A(69,67,70)           109.5108         calculate D2E/DX2 analytically  !
 ! A143  A(46,71,72)           111.286          calculate D2E/DX2 analytically  !
 ! A144  A(46,71,73)           110.9264         calculate D2E/DX2 analytically  !
 ! A145  A(46,71,74)           106.2269         calculate D2E/DX2 analytically  !
 ! A146  A(72,71,73)           109.3082         calculate D2E/DX2 analytically  !
 ! A147  A(72,71,74)           109.904          calculate D2E/DX2 analytically  !
 ! A148  A(73,71,74)           109.1303         calculate D2E/DX2 analytically  !
 ! A149  A(50,75,76)           106.6548         calculate D2E/DX2 analytically  !
 ! A150  A(50,75,77)           112.3219         calculate D2E/DX2 analytically  !
 ! A151  A(50,75,78)           110.9923         calculate D2E/DX2 analytically  !
 ! A152  A(76,75,77)           108.2033         calculate D2E/DX2 analytically  !
 ! A153  A(76,75,78)           109.7023         calculate D2E/DX2 analytically  !
 ! A154  A(77,75,78)           108.8902         calculate D2E/DX2 analytically  !
 ! A155  A(12,79,80)           106.7661         calculate D2E/DX2 analytically  !
 ! A156  A(12,79,81)           111.4833         calculate D2E/DX2 analytically  !
 ! A157  A(12,79,82)           110.7888         calculate D2E/DX2 analytically  !
 ! A158  A(80,79,81)           109.5091         calculate D2E/DX2 analytically  !
 ! A159  A(80,79,82)           109.3148         calculate D2E/DX2 analytically  !
 ! A160  A(81,79,82)           108.9367         calculate D2E/DX2 analytically  !
 ! A161  A(19,83,52)           109.1775         calculate D2E/DX2 analytically  !
 ! A162  A(19,83,84)           152.847          calculate D2E/DX2 analytically  !
 ! A163  A(52,83,84)            93.1163         calculate D2E/DX2 analytically  !
 ! A164  A(83,84,85)           112.1745         calculate D2E/DX2 analytically  !
 ! A165  A(83,84,89)           113.6449         calculate D2E/DX2 analytically  !
 ! A166  A(85,84,89)           111.9159         calculate D2E/DX2 analytically  !
 ! A167  A(84,85,86)           110.8563         calculate D2E/DX2 analytically  !
 ! A168  A(84,85,87)           107.3054         calculate D2E/DX2 analytically  !
 ! A169  A(84,85,88)           110.8671         calculate D2E/DX2 analytically  !
 ! A170  A(86,85,87)           109.489          calculate D2E/DX2 analytically  !
 ! A171  A(86,85,88)           109.0046         calculate D2E/DX2 analytically  !
 ! A172  A(87,85,88)           109.2863         calculate D2E/DX2 analytically  !
 ! A173  A(84,89,90)           110.3197         calculate D2E/DX2 analytically  !
 ! A174  A(84,89,91)           107.07           calculate D2E/DX2 analytically  !
 ! A175  A(84,89,92)           110.879          calculate D2E/DX2 analytically  !
 ! A176  A(90,89,91)           109.8565         calculate D2E/DX2 analytically  !
 ! A177  A(90,89,92)           109.9698         calculate D2E/DX2 analytically  !
 ! A178  A(91,89,92)           108.6857         calculate D2E/DX2 analytically  !
 ! A179  A(66,91,89)           118.7517         calculate D2E/DX2 analytically  !
 ! A180  A(57,93,94)           111.3947         calculate D2E/DX2 analytically  !
 ! A181  A(57,93,95)           112.0599         calculate D2E/DX2 analytically  !
 ! A182  A(57,93,96)           112.2006         calculate D2E/DX2 analytically  !
 ! A183  A(94,93,95)           106.6994         calculate D2E/DX2 analytically  !
 ! A184  A(94,93,96)           106.673          calculate D2E/DX2 analytically  !
 ! A185  A(95,93,96)           107.4787         calculate D2E/DX2 analytically  !
 ! A186  A(59,97,98)           111.4131         calculate D2E/DX2 analytically  !
 ! A187  A(59,97,99)           111.9357         calculate D2E/DX2 analytically  !
 ! A188  A(59,97,100)          111.9058         calculate D2E/DX2 analytically  !
 ! A189  A(98,97,99)           106.7435         calculate D2E/DX2 analytically  !
 ! A190  A(98,97,100)          106.7987         calculate D2E/DX2 analytically  !
 ! A191  A(99,97,100)          107.7436         calculate D2E/DX2 analytically  !
 ! D1    D(5,1,2,3)            -53.2629         calculate D2E/DX2 analytically  !
 ! D2    D(5,1,2,7)             63.2857         calculate D2E/DX2 analytically  !
 ! D3    D(5,1,2,13)          -174.2386         calculate D2E/DX2 analytically  !
 ! D4    D(8,1,2,3)             66.5326         calculate D2E/DX2 analytically  !
 ! D5    D(8,1,2,7)           -176.9187         calculate D2E/DX2 analytically  !
 ! D6    D(8,1,2,13)           -54.443          calculate D2E/DX2 analytically  !
 ! D7    D(14,1,2,3)          -174.2074         calculate D2E/DX2 analytically  !
 ! D8    D(14,1,2,7)           -57.6588         calculate D2E/DX2 analytically  !
 ! D9    D(14,1,2,13)           64.817          calculate D2E/DX2 analytically  !
 ! D10   D(2,1,5,4)             52.5454         calculate D2E/DX2 analytically  !
 ! D11   D(2,1,5,10)           -67.3508         calculate D2E/DX2 analytically  !
 ! D12   D(2,1,5,15)           173.5326         calculate D2E/DX2 analytically  !
 ! D13   D(8,1,5,4)            -66.7272         calculate D2E/DX2 analytically  !
 ! D14   D(8,1,5,10)           173.3767         calculate D2E/DX2 analytically  !
 ! D15   D(8,1,5,15)            54.26           calculate D2E/DX2 analytically  !
 ! D16   D(14,1,5,4)           171.9395         calculate D2E/DX2 analytically  !
 ! D17   D(14,1,5,10)           52.0433         calculate D2E/DX2 analytically  !
 ! D18   D(14,1,5,15)          -67.0733         calculate D2E/DX2 analytically  !
 ! D19   D(2,1,14,24)         -141.7324         calculate D2E/DX2 analytically  !
 ! D20   D(5,1,14,24)           97.8008         calculate D2E/DX2 analytically  !
 ! D21   D(8,1,14,24)          -23.2837         calculate D2E/DX2 analytically  !
 ! D22   D(1,2,3,6)            171.88           calculate D2E/DX2 analytically  !
 ! D23   D(1,2,3,11)            56.5365         calculate D2E/DX2 analytically  !
 ! D24   D(1,2,3,12)           -66.8617         calculate D2E/DX2 analytically  !
 ! D25   D(7,2,3,6)             53.983          calculate D2E/DX2 analytically  !
 ! D26   D(7,2,3,11)           -61.3605         calculate D2E/DX2 analytically  !
 ! D27   D(7,2,3,12)           175.2413         calculate D2E/DX2 analytically  !
 ! D28   D(13,2,3,6)           -64.9371         calculate D2E/DX2 analytically  !
 ! D29   D(13,2,3,11)          179.7194         calculate D2E/DX2 analytically  !
 ! D30   D(13,2,3,12)           56.3211         calculate D2E/DX2 analytically  !
 ! D31   D(1,2,13,20)          -96.5424         calculate D2E/DX2 analytically  !
 ! D32   D(3,2,13,20)          141.328          calculate D2E/DX2 analytically  !
 ! D33   D(7,2,13,20)           24.9281         calculate D2E/DX2 analytically  !
 ! D34   D(2,3,11,4)           -60.3501         calculate D2E/DX2 analytically  !
 ! D35   D(6,3,11,4)          -179.1337         calculate D2E/DX2 analytically  !
 ! D36   D(12,3,11,4)           61.1543         calculate D2E/DX2 analytically  !
 ! D37   D(2,3,12,79)         -173.0406         calculate D2E/DX2 analytically  !
 ! D38   D(6,3,12,79)          -51.7989         calculate D2E/DX2 analytically  !
 ! D39   D(11,3,12,79)          64.596          calculate D2E/DX2 analytically  !
 ! D40   D(9,4,5,1)             64.833          calculate D2E/DX2 analytically  !
 ! D41   D(9,4,5,10)          -176.6171         calculate D2E/DX2 analytically  !
 ! D42   D(9,4,5,15)           -56.1001         calculate D2E/DX2 analytically  !
 ! D43   D(11,4,5,1)           -53.4642         calculate D2E/DX2 analytically  !
 ! D44   D(11,4,5,10)           65.0858         calculate D2E/DX2 analytically  !
 ! D45   D(11,4,5,15)         -174.3972         calculate D2E/DX2 analytically  !
 ! D46   D(16,4,5,1)          -173.168          calculate D2E/DX2 analytically  !
 ! D47   D(16,4,5,10)          -54.618          calculate D2E/DX2 analytically  !
 ! D48   D(16,4,5,15)           65.899          calculate D2E/DX2 analytically  !
 ! D49   D(5,4,11,3)            58.4026         calculate D2E/DX2 analytically  !
 ! D50   D(9,4,11,3)           -59.5898         calculate D2E/DX2 analytically  !
 ! D51   D(16,4,11,3)         -177.3711         calculate D2E/DX2 analytically  !
 ! D52   D(5,4,16,17)          -62.7534         calculate D2E/DX2 analytically  !
 ! D53   D(5,4,16,18)         -173.1996         calculate D2E/DX2 analytically  !
 ! D54   D(5,4,16,19)           63.2651         calculate D2E/DX2 analytically  !
 ! D55   D(9,4,16,17)           58.6075         calculate D2E/DX2 analytically  !
 ! D56   D(9,4,16,18)          -51.8387         calculate D2E/DX2 analytically  !
 ! D57   D(9,4,16,19)         -175.374          calculate D2E/DX2 analytically  !
 ! D58   D(11,4,16,17)         175.9466         calculate D2E/DX2 analytically  !
 ! D59   D(11,4,16,18)          65.5004         calculate D2E/DX2 analytically  !
 ! D60   D(11,4,16,19)         -58.0349         calculate D2E/DX2 analytically  !
 ! D61   D(1,5,10,37)          133.321          calculate D2E/DX2 analytically  !
 ! D62   D(4,5,10,37)           11.9836         calculate D2E/DX2 analytically  !
 ! D63   D(15,5,10,37)        -108.0907         calculate D2E/DX2 analytically  !
 ! D64   D(1,5,15,28)          131.2659         calculate D2E/DX2 analytically  !
 ! D65   D(4,5,15,28)         -106.2659         calculate D2E/DX2 analytically  !
 ! D66   D(10,5,15,28)          13.9165         calculate D2E/DX2 analytically  !
 ! D67   D(5,10,37,19)          15.8274         calculate D2E/DX2 analytically  !
 ! D68   D(5,10,37,34)         113.8535         calculate D2E/DX2 analytically  !
 ! D69   D(3,12,79,80)         174.5965         calculate D2E/DX2 analytically  !
 ! D70   D(3,12,79,81)         -65.8394         calculate D2E/DX2 analytically  !
 ! D71   D(3,12,79,82)          55.6578         calculate D2E/DX2 analytically  !
 ! D72   D(2,13,20,21)         -60.2214         calculate D2E/DX2 analytically  !
 ! D73   D(2,13,20,22)          61.4283         calculate D2E/DX2 analytically  !
 ! D74   D(2,13,20,23)        -178.7916         calculate D2E/DX2 analytically  !
 ! D75   D(1,14,24,25)         -62.6241         calculate D2E/DX2 analytically  !
 ! D76   D(1,14,24,26)          59.1379         calculate D2E/DX2 analytically  !
 ! D77   D(1,14,24,27)         177.7708         calculate D2E/DX2 analytically  !
 ! D78   D(5,15,28,29)         -64.2745         calculate D2E/DX2 analytically  !
 ! D79   D(5,15,28,30)          57.4017         calculate D2E/DX2 analytically  !
 ! D80   D(5,15,28,31)         176.6792         calculate D2E/DX2 analytically  !
 ! D81   D(4,16,19,37)         -27.1467         calculate D2E/DX2 analytically  !
 ! D82   D(4,16,19,83)          47.5479         calculate D2E/DX2 analytically  !
 ! D83   D(17,16,19,37)         94.2067         calculate D2E/DX2 analytically  !
 ! D84   D(17,16,19,83)        168.9013         calculate D2E/DX2 analytically  !
 ! D85   D(18,16,19,37)       -146.7774         calculate D2E/DX2 analytically  !
 ! D86   D(18,16,19,83)        -72.0828         calculate D2E/DX2 analytically  !
 ! D87   D(16,19,37,10)         -5.3679         calculate D2E/DX2 analytically  !
 ! D88   D(16,19,37,34)       -137.7596         calculate D2E/DX2 analytically  !
 ! D89   D(83,19,37,10)       -102.9127         calculate D2E/DX2 analytically  !
 ! D90   D(83,19,37,34)        124.6955         calculate D2E/DX2 analytically  !
 ! D91   D(16,19,83,52)       -105.3913         calculate D2E/DX2 analytically  !
 ! D92   D(16,19,83,84)        111.073          calculate D2E/DX2 analytically  !
 ! D93   D(37,19,83,52)         13.9983         calculate D2E/DX2 analytically  !
 ! D94   D(37,19,83,84)       -129.5374         calculate D2E/DX2 analytically  !
 ! D95   D(36,32,33,34)        -55.2623         calculate D2E/DX2 analytically  !
 ! D96   D(36,32,33,38)         57.3835         calculate D2E/DX2 analytically  !
 ! D97   D(36,32,33,44)        179.4036         calculate D2E/DX2 analytically  !
 ! D98   D(39,32,33,34)         63.5518         calculate D2E/DX2 analytically  !
 ! D99   D(39,32,33,38)        176.1975         calculate D2E/DX2 analytically  !
 ! D100  D(39,32,33,44)        -61.7823         calculate D2E/DX2 analytically  !
 ! D101  D(45,32,33,34)       -174.3221         calculate D2E/DX2 analytically  !
 ! D102  D(45,32,33,38)        -61.6764         calculate D2E/DX2 analytically  !
 ! D103  D(45,32,33,44)         60.3437         calculate D2E/DX2 analytically  !
 ! D104  D(33,32,36,35)         55.6705         calculate D2E/DX2 analytically  !
 ! D105  D(33,32,36,41)        -65.5494         calculate D2E/DX2 analytically  !
 ! D106  D(33,32,36,46)        172.5043         calculate D2E/DX2 analytically  !
 ! D107  D(39,32,36,35)        -63.1377         calculate D2E/DX2 analytically  !
 ! D108  D(39,32,36,41)        175.6423         calculate D2E/DX2 analytically  !
 ! D109  D(39,32,36,46)         53.696          calculate D2E/DX2 analytically  !
 ! D110  D(45,32,36,35)        175.705          calculate D2E/DX2 analytically  !
 ! D111  D(45,32,36,41)         54.4851         calculate D2E/DX2 analytically  !
 ! D112  D(45,32,36,46)        -67.4613         calculate D2E/DX2 analytically  !
 ! D113  D(33,32,45,67)       -106.1111         calculate D2E/DX2 analytically  !
 ! D114  D(36,32,45,67)        135.3957         calculate D2E/DX2 analytically  !
 ! D115  D(39,32,45,67)         15.1412         calculate D2E/DX2 analytically  !
 ! D116  D(32,33,34,37)       -155.8656         calculate D2E/DX2 analytically  !
 ! D117  D(32,33,34,42)         40.5426         calculate D2E/DX2 analytically  !
 ! D118  D(38,33,34,37)         87.4582         calculate D2E/DX2 analytically  !
 ! D119  D(38,33,34,42)        -76.1337         calculate D2E/DX2 analytically  !
 ! D120  D(44,33,34,37)        -28.9368         calculate D2E/DX2 analytically  !
 ! D121  D(44,33,34,42)        167.4713         calculate D2E/DX2 analytically  !
 ! D122  D(32,33,44,63)        -98.4476         calculate D2E/DX2 analytically  !
 ! D123  D(34,33,44,63)        136.3627         calculate D2E/DX2 analytically  !
 ! D124  D(38,33,44,63)         23.7646         calculate D2E/DX2 analytically  !
 ! D125  D(33,34,37,10)       -146.3298         calculate D2E/DX2 analytically  !
 ! D126  D(33,34,37,19)        -54.9397         calculate D2E/DX2 analytically  !
 ! D127  D(42,34,37,10)         18.2316         calculate D2E/DX2 analytically  !
 ! D128  D(42,34,37,19)        109.6218         calculate D2E/DX2 analytically  !
 ! D129  D(33,34,42,35)        -22.9494         calculate D2E/DX2 analytically  !
 ! D130  D(37,34,42,35)        172.4586         calculate D2E/DX2 analytically  !
 ! D131  D(40,35,36,32)         76.7218         calculate D2E/DX2 analytically  !
 ! D132  D(40,35,36,41)       -162.9451         calculate D2E/DX2 analytically  !
 ! D133  D(40,35,36,46)        -44.5088         calculate D2E/DX2 analytically  !
 ! D134  D(42,35,36,32)        -38.19           calculate D2E/DX2 analytically  !
 ! D135  D(42,35,36,41)         82.1431         calculate D2E/DX2 analytically  !
 ! D136  D(42,35,36,46)       -159.4206         calculate D2E/DX2 analytically  !
 ! D137  D(47,35,36,32)       -159.4211         calculate D2E/DX2 analytically  !
 ! D138  D(47,35,36,41)        -39.0879         calculate D2E/DX2 analytically  !
 ! D139  D(47,35,36,46)         79.3483         calculate D2E/DX2 analytically  !
 ! D140  D(36,35,42,34)         21.1744         calculate D2E/DX2 analytically  !
 ! D141  D(40,35,42,34)        -96.2675         calculate D2E/DX2 analytically  !
 ! D142  D(47,35,42,34)        145.8831         calculate D2E/DX2 analytically  !
 ! D143  D(36,35,47,48)         63.7596         calculate D2E/DX2 analytically  !
 ! D144  D(36,35,47,49)        -53.7183         calculate D2E/DX2 analytically  !
 ! D145  D(36,35,47,50)       -177.8101         calculate D2E/DX2 analytically  !
 ! D146  D(40,35,47,48)       -174.4675         calculate D2E/DX2 analytically  !
 ! D147  D(40,35,47,49)         68.0547         calculate D2E/DX2 analytically  !
 ! D148  D(40,35,47,50)        -56.0372         calculate D2E/DX2 analytically  !
 ! D149  D(42,35,47,48)        -62.1409         calculate D2E/DX2 analytically  !
 ! D150  D(42,35,47,49)       -179.6187         calculate D2E/DX2 analytically  !
 ! D151  D(42,35,47,50)         56.2894         calculate D2E/DX2 analytically  !
 ! D152  D(32,36,46,71)         96.1687         calculate D2E/DX2 analytically  !
 ! D153  D(35,36,46,71)       -142.7061         calculate D2E/DX2 analytically  !
 ! D154  D(41,36,46,71)        -24.6106         calculate D2E/DX2 analytically  !
 ! D155  D(33,44,63,64)        -61.8889         calculate D2E/DX2 analytically  !
 ! D156  D(33,44,63,65)         59.8505         calculate D2E/DX2 analytically  !
 ! D157  D(33,44,63,66)        179.1416         calculate D2E/DX2 analytically  !
 ! D158  D(32,45,67,68)        -62.1544         calculate D2E/DX2 analytically  !
 ! D159  D(32,45,67,69)         59.6638         calculate D2E/DX2 analytically  !
 ! D160  D(32,45,67,70)        178.9824         calculate D2E/DX2 analytically  !
 ! D161  D(36,46,71,72)        -61.3384         calculate D2E/DX2 analytically  !
 ! D162  D(36,46,71,73)         60.5926         calculate D2E/DX2 analytically  !
 ! D163  D(36,46,71,74)        179.0631         calculate D2E/DX2 analytically  !
 ! D164  D(35,47,50,75)         74.6793         calculate D2E/DX2 analytically  !
 ! D165  D(48,47,50,75)       -165.5113         calculate D2E/DX2 analytically  !
 ! D166  D(49,47,50,75)        -47.0613         calculate D2E/DX2 analytically  !
 ! D167  D(47,50,75,76)        173.7087         calculate D2E/DX2 analytically  !
 ! D168  D(47,50,75,77)        -67.9118         calculate D2E/DX2 analytically  !
 ! D169  D(47,50,75,78)         54.2563         calculate D2E/DX2 analytically  !
 ! D170  D(43,51,52,83)        -96.5111         calculate D2E/DX2 analytically  !
 ! D171  D(53,51,52,83)         34.4901         calculate D2E/DX2 analytically  !
 ! D172  D(54,51,52,83)        147.0905         calculate D2E/DX2 analytically  !
 ! D173  D(43,51,54,55)        153.3855         calculate D2E/DX2 analytically  !
 ! D174  D(43,51,54,56)        -30.2155         calculate D2E/DX2 analytically  !
 ! D175  D(52,51,54,55)        -84.7905         calculate D2E/DX2 analytically  !
 ! D176  D(52,51,54,56)         91.6086         calculate D2E/DX2 analytically  !
 ! D177  D(53,51,54,55)         32.6102         calculate D2E/DX2 analytically  !
 ! D178  D(53,51,54,56)       -150.9908         calculate D2E/DX2 analytically  !
 ! D179  D(51,52,83,19)        -76.4812         calculate D2E/DX2 analytically  !
 ! D180  D(51,52,83,84)         87.7575         calculate D2E/DX2 analytically  !
 ! D181  D(51,54,55,57)        176.2497         calculate D2E/DX2 analytically  !
 ! D182  D(51,54,55,58)         -3.8532         calculate D2E/DX2 analytically  !
 ! D183  D(56,54,55,57)         -0.0577         calculate D2E/DX2 analytically  !
 ! D184  D(56,54,55,58)        179.8394         calculate D2E/DX2 analytically  !
 ! D185  D(51,54,56,59)       -175.8881         calculate D2E/DX2 analytically  !
 ! D186  D(51,54,56,60)          4.6458         calculate D2E/DX2 analytically  !
 ! D187  D(55,54,56,59)          0.469          calculate D2E/DX2 analytically  !
 ! D188  D(55,54,56,60)       -178.9972         calculate D2E/DX2 analytically  !
 ! D189  D(54,55,57,61)         -0.32           calculate D2E/DX2 analytically  !
 ! D190  D(54,55,57,93)        176.645          calculate D2E/DX2 analytically  !
 ! D191  D(58,55,57,61)        179.7827         calculate D2E/DX2 analytically  !
 ! D192  D(58,55,57,93)         -3.2524         calculate D2E/DX2 analytically  !
 ! D193  D(54,56,59,61)         -0.5107         calculate D2E/DX2 analytically  !
 ! D194  D(54,56,59,97)        176.4257         calculate D2E/DX2 analytically  !
 ! D195  D(60,56,59,61)        178.9497         calculate D2E/DX2 analytically  !
 ! D196  D(60,56,59,97)         -4.114          calculate D2E/DX2 analytically  !
 ! D197  D(55,57,61,59)          0.2779         calculate D2E/DX2 analytically  !
 ! D198  D(55,57,61,62)       -179.7963         calculate D2E/DX2 analytically  !
 ! D199  D(93,57,61,59)       -176.6806         calculate D2E/DX2 analytically  !
 ! D200  D(93,57,61,62)          3.2453         calculate D2E/DX2 analytically  !
 ! D201  D(55,57,93,94)        -83.8624         calculate D2E/DX2 analytically  !
 ! D202  D(55,57,93,95)        156.6809         calculate D2E/DX2 analytically  !
 ! D203  D(55,57,93,96)         35.6563         calculate D2E/DX2 analytically  !
 ! D204  D(61,57,93,94)         93.1376         calculate D2E/DX2 analytically  !
 ! D205  D(61,57,93,95)        -26.3191         calculate D2E/DX2 analytically  !
 ! D206  D(61,57,93,96)       -147.3438         calculate D2E/DX2 analytically  !
 ! D207  D(56,59,61,57)          0.1433         calculate D2E/DX2 analytically  !
 ! D208  D(56,59,61,62)       -179.7826         calculate D2E/DX2 analytically  !
 ! D209  D(97,59,61,57)       -176.7914         calculate D2E/DX2 analytically  !
 ! D210  D(97,59,61,62)          3.2827         calculate D2E/DX2 analytically  !
 ! D211  D(56,59,97,98)        -88.2825         calculate D2E/DX2 analytically  !
 ! D212  D(56,59,97,99)        152.2764         calculate D2E/DX2 analytically  !
 ! D213  D(56,59,97,100)        31.2088         calculate D2E/DX2 analytically  !
 ! D214  D(61,59,97,98)         88.6812         calculate D2E/DX2 analytically  !
 ! D215  D(61,59,97,99)        -30.76           calculate D2E/DX2 analytically  !
 ! D216  D(61,59,97,100)      -151.8276         calculate D2E/DX2 analytically  !
 ! D217  D(44,63,66,91)         -6.7295         calculate D2E/DX2 analytically  !
 ! D218  D(64,63,66,91)       -125.2179         calculate D2E/DX2 analytically  !
 ! D219  D(65,63,66,91)        113.0838         calculate D2E/DX2 analytically  !
 ! D220  D(63,66,91,89)        129.2626         calculate D2E/DX2 analytically  !
 ! D221  D(19,83,84,85)       -129.0758         calculate D2E/DX2 analytically  !
 ! D222  D(19,83,84,89)        102.722          calculate D2E/DX2 analytically  !
 ! D223  D(52,83,84,85)         85.1303         calculate D2E/DX2 analytically  !
 ! D224  D(52,83,84,89)        -43.0719         calculate D2E/DX2 analytically  !
 ! D225  D(83,84,85,86)        -69.2596         calculate D2E/DX2 analytically  !
 ! D226  D(83,84,85,87)         50.2553         calculate D2E/DX2 analytically  !
 ! D227  D(83,84,85,88)        169.5305         calculate D2E/DX2 analytically  !
 ! D228  D(89,84,85,86)         59.8504         calculate D2E/DX2 analytically  !
 ! D229  D(89,84,85,87)        179.3653         calculate D2E/DX2 analytically  !
 ! D230  D(89,84,85,88)        -61.3595         calculate D2E/DX2 analytically  !
 ! D231  D(83,84,89,90)       -168.8316         calculate D2E/DX2 analytically  !
 ! D232  D(83,84,89,91)        -49.3197         calculate D2E/DX2 analytically  !
 ! D233  D(83,84,89,92)         69.0932         calculate D2E/DX2 analytically  !
 ! D234  D(85,84,89,90)         62.8335         calculate D2E/DX2 analytically  !
 ! D235  D(85,84,89,91)       -177.6546         calculate D2E/DX2 analytically  !
 ! D236  D(85,84,89,92)        -59.2417         calculate D2E/DX2 analytically  !
 ! D237  D(84,89,91,66)        -24.9886         calculate D2E/DX2 analytically  !
 ! D238  D(90,89,91,66)         94.8208         calculate D2E/DX2 analytically  !
 ! D239  D(92,89,91,66)       -144.8177         calculate D2E/DX2 analytically  !
 --------------------------------------------------------------------------------
 Trust Radius=1.00D-01 FncErr=1.00D-07 GrdErr=1.00D-06 EigMax=2.50D+02 EigMin=1.00D-04
 Number of steps in this run=    544 maximum allowed number of steps=    600.
 Search for a saddle point of order  1.
 GradGradGradGradGradGradGradGradGradGradGradGradGradGradGradGradGradGrad

 Leave Link  103 at Mon Jun  3 19:39:25 2019, MaxMem=  6442450944 cpu:               5.3 elap:               0.2
 (Enter /home/ekwan/sw/g16/l202.exe)
 Stoichiometry    C30H47F6NaO15S
 Framework group  C1[X(C30H47F6NaO15S)]
 Deg. of freedom   294
 Full point group                 C1      NOp   1
 Largest Abelian subgroup         C1      NOp   1
 Largest concise Abelian subgroup C1      NOp   1
                         Standard orientation:                         
 ---------------------------------------------------------------------
 Center     Atomic      Atomic             Coordinates (Angstroms)
 Number     Number       Type             X           Y           Z
 ---------------------------------------------------------------------
      1          6           0        2.150270    1.061830   -2.294769
      2          6           0        2.428209    1.990094   -1.110849
      3          6           0        1.773914    3.354949   -1.337911
      4          6           0        0.034333    2.395221   -2.714194
      5          6           0        0.645897    0.996195   -2.563765
      6          1           0        1.849358    3.970291   -0.430883
      7          1           0        1.962161    1.565781   -0.213898
      8          1           0        2.663734    1.458911   -3.179994
      9          1           0        0.464294    2.862120   -3.609795
     10          1           0        0.186616    0.487329   -1.709998
     11          8           0        0.378269    3.203577   -1.558643
     12          8           0        2.410288    3.988569   -2.410474
     13          8           0        3.817807    2.188936   -0.901928
     14          8           0        2.661537   -0.229555   -1.975478
     15          8           0        0.415597    0.251383   -3.756626
     16          6           0       -1.500676    2.406257   -2.821287
     17          1           0       -1.733403    1.846099   -3.751753
     18          1           0       -1.767579    3.464604   -3.049730
     19          8           0       -2.154259    1.934938   -1.706409
     20          6           0        4.373401    1.337339    0.090771
     21          1           0        3.892182    1.494493    1.067138
     22          1           0        4.275148    0.283373   -0.183804
     23          1           0        5.431690    1.597921    0.174802
     24          6           0        3.263397   -0.904963   -3.070640
     25          1           0        2.539754   -1.098907   -3.868934
     26          1           0        4.101477   -0.322331   -3.479909
     27          1           0        3.643894   -1.851728   -2.684167
     28          6           0       -0.581356   -0.755885   -3.622750
     29          1           0       -0.277828   -1.529104   -2.909458
     30          1           0       -1.538328   -0.332627   -3.295640
     31          1           0       -0.704414   -1.208226   -4.610542
     32          6           0       -4.296689   -0.609979    0.953369
     33          6           0       -3.475400    0.475508    0.249266
     34          6           0       -2.170836   -0.078560   -0.224442
     35          6           0       -3.086635   -2.303678   -0.497793
     36          6           0       -4.447956   -1.788717   -0.010654
     37          1           0       -1.318566    0.551559   -0.386653
     38          1           0       -3.976251    0.761160   -0.686996
     39          1           0       -3.764037   -0.941913    1.849709
     40          1           0       -2.640764   -2.893467    0.305944
     41          1           0       -5.052196   -1.459193   -0.868782
     42          8           0       -2.090982   -1.250044   -0.749257
     43          8           0       -0.010049    0.539360    3.552472
     44          8           0       -3.273540    1.634341    1.035530
     45          8           0       -5.583763   -0.120113    1.286288
     46          8           0       -5.048036   -2.908679    0.613959
     47          6           0       -3.193209   -3.101415   -1.791264
     48          1           0       -3.551653   -2.439587   -2.585936
     49          1           0       -3.939379   -3.892983   -1.628618
     50          8           0       -1.964580   -3.628021   -2.235904
     51         16           0       -0.124036    0.236466    2.114410
     52          8           0        0.080750    1.408755    1.209933
     53          8           0       -1.375232   -0.531210    1.756309
     54          6           0        1.229927   -0.875312    1.709015
     55          6           0        1.109226   -1.760613    0.641594
     56          6           0        2.415873   -0.775741    2.432471
     57          6           0        2.201896   -2.556341    0.298426
     58          1           0        0.181648   -1.832837    0.086346
     59          6           0        3.500568   -1.572509    2.070053
     60          1           0        2.482017   -0.091453    3.269823
     61          6           0        3.399645   -2.466528    1.004259
     62          1           0        4.244193   -3.085921    0.728839
     63          6           0       -4.198365    2.687457    0.710595
     64          1           0       -4.054210    2.991302   -0.332433
     65          1           0       -5.228675    2.359915    0.870081
     66          1           0       -3.963933    3.516622    1.380587
     67          6           0       -5.751573    0.147074    2.676995
     68          1           0       -5.637596   -0.770204    3.269008
     69          1           0       -5.031741    0.894908    3.028868
     70          1           0       -6.766284    0.531909    2.798865
     71          6           0       -6.456164   -3.016702    0.410501
     72          1           0       -6.984065   -2.151413    0.820776
     73          1           0       -6.692035   -3.112935   -0.658450
     74          1           0       -6.770739   -3.924567    0.929555
     75          6           0       -1.507206   -4.747716   -1.489744
     76          1           0       -0.620022   -5.122312   -2.000607
     77          1           0       -1.223989   -4.477728   -0.464092
     78          1           0       -2.273291   -5.535235   -1.451832
     79          6           0        1.981942    5.331691   -2.605572
     80          1           0        2.608420    5.750429   -3.395397
     81          1           0        0.929951    5.377337   -2.909888
     82          1           0        2.113395    5.920681   -1.686369
     83         11           0       -1.242044    2.924140    0.113249
     84          8           0       -1.304729    4.369175    1.922525
     85          6           0       -0.182542    5.244113    1.950329
     86          1           0        0.739004    4.691381    2.181553
     87          1           0       -0.097782    5.695676    0.958835
     88          1           0       -0.322112    6.035679    2.698691
     89          6           0       -1.498552    3.710588    3.175361
     90          1           0       -1.717649    4.444621    3.962156
     91          1           0       -2.345463    3.033847    3.053733
     92          1           0       -0.615490    3.122266    3.447934
     93          6           0        2.061335   -3.569697   -0.802265
     94          9           0        1.523240   -4.726630   -0.343672
     95          9           0        3.253798   -3.887983   -1.354909
     96          9           0        1.256618   -3.135266   -1.796202
     97          6           0        4.811058   -1.417165    2.790551
     98          9           0        5.586772   -0.467670    2.208833
     99          9           0        5.527558   -2.560986    2.786127
    100          9           0        4.637856   -1.045531    4.075676
 ---------------------------------------------------------------------
 Rotational constants (GHZ):           0.0581690           0.0457682           0.0387329
 Leave Link  202 at Mon Jun  3 19:39:25 2019, MaxMem=  6442450944 cpu:               5.3 elap:               0.2
 (Enter /home/ekwan/sw/g16/l301.exe)
 Standard basis: 6-31G(d) (6D, 7F)
 Ernie: Thresh=  0.10000D-02 Tol=  0.10000D-05 Strict=F.
 There are   897 symmetry adapted cartesian basis functions of A   symmetry.
 There are   897 symmetry adapted basis functions of A   symmetry.
   897 basis functions,  1720 primitive gaussians,   897 cartesian basis functions
   214 alpha electrons      214 beta electrons
       nuclear repulsion energy      9825.3873514299 Hartrees.
 IExCor=  402 DFT=T Ex+Corr=B3LYP ExCW=0 ScaHFX=  0.200000
 ScaDFX=  0.800000  0.720000  1.000000  0.810000 ScalE2=  1.000000  1.000000
 IRadAn=      5 IRanWt=     -1 IRanGd=            0 ICorTp=0 IEmpDi=141
 NAtoms=  100 NActive=  100 NUniq=  100 SFac= 1.00D+00 NAtFMM=   60 NAOKFM=T Big=T
 Integral buffers will be    131072 words long.
 Raffenetti 2 integral format.
 Two-electron integral symmetry is turned on.
 R6Disp:  Grimme-D3(BJ) Dispersion energy=       -0.2385582960 Hartrees.
 Nuclear repulsion after empirical dispersion term =     9825.1487931339 Hartrees.
 Force inversion solution in PCM.
 ------------------------------------------------------------------------------
 Polarizable Continuum Model (PCM)
 =================================
 Model                : PCM.
 Atomic radii         : UFF (Universal Force Field).
 Polarization charges : Total charges.
 Charge compensation  : None.
 Solution method      : Matrix inversion.
 Cavity type          : Scaled VdW (van der Waals Surface) (Alpha=1.100).
 Cavity algorithm     : GePol (No added spheres)
                        Default sphere list used, NSphG=  100.
                        Lebedev-Laikov grids with approx.  5.0 points / Ang**2.
                        Smoothing algorithm: York/Karplus (Gamma=1.0000).
                        Polarization charges: spherical gaussians, with
                                              point-specific exponents (IZeta= 3).
                        Self-potential: point-specific (ISelfS= 7).
                        Self-field    : sphere-specific E.n sum rule (ISelfD= 2).
 1st derivatives      : Analytical E(r).r(x)/FMM algorithm (CHGder, D1EAlg=3).
                        Cavity 1st derivative terms included.
 2nd derivatives      : Analytical E(r).r(xy)/FMM algorithm (CHGder, D2EAlg=3).
                        Cavity 2nd derivative terms included.
 Solvent              : TetraHydroFuran, Eps=   7.425700 Eps(inf)=   1.974025
 ------------------------------------------------------------------------------
 GePol: Number of generator spheres                  =     100
 GePol: Total number of spheres                      =     100
 GePol: Number of exposed spheres                    =     100 (100.00%)
 GePol: Number of points                             =    5922
 GePol: Average weight of points                     =       0.12
 GePol: Minimum weight of points                     =   0.12D-10
 GePol: Maximum weight of points                     =    0.21593
 GePol: Number of points with low weight             =     480
 GePol: Fraction of low-weight points (<1% of avg)   =       8.11%
 GePol: Cavity surface area                          =    728.785 Ang**2
 GePol: Cavity volume                                =    970.015 Ang**3
 Leave Link  301 at Mon Jun  3 19:39:25 2019, MaxMem=  6442450944 cpu:               7.6 elap:               0.3
 (Enter /home/ekwan/sw/g16/l302.exe)
 NPDir=0 NMtPBC=     1 NCelOv=     1 NCel=       1 NClECP=     1 NCelD=      1
         NCelK=      1 NCelE2=     1 NClLst=     1 CellRange=     0.0.
 One-electron integrals computed using PRISM.
 One-electron integral symmetry used in STVInt
 NBasis=   897 RedAO= T EigKep=  3.87D-04  NBF=   897
 NBsUse=   897 1.00D-06 EigRej= -1.00D+00 NBFU=   897
 Precomputing XC quadrature grid using
 IXCGrd= 4 IRadAn=           5 IRanWt=          -1 IRanGd=           0 AccXCQ= 0.00D+00.
 Generated NRdTot=       0 NPtTot=           0 NUsed=           0 NTot=          32
 NSgBfM=   848   834   840   845   848 MxSgAt=   100 MxSgA2=   100.
 Leave Link  302 at Mon Jun  3 19:39:41 2019, MaxMem=  6442450944 cpu:             471.7 elap:              15.9
 (Enter /home/ekwan/sw/g16/l303.exe)
 DipDrv:  MaxL=1.
 Leave Link  303 at Mon Jun  3 19:39:42 2019, MaxMem=  6442450944 cpu:              14.2 elap:               0.6
 (Enter /home/ekwan/sw/g16/l401.exe)
 ExpMin= 2.60D-02 ExpMax= 2.19D+04 ExpMxC= 3.30D+03 IAcc=3 IRadAn=         5 AccDes= 0.00D+00
 Harris functional with IExCor=  402 and IRadAn=       5 diagonalized for initial guess.
 HarFok:  IExCor=  402 AccDes= 0.00D+00 IRadAn=         5 IDoV= 1 UseB2=F ITyADJ=14
 ICtDFT=  3500011 ScaDFX=  1.000000  1.000000  1.000000  1.000000
 FoFCou: FMM=F IPFlag=           0 FMFlag=      100000 FMFlg1=        2001
         NFxFlg=           0 DoJE=T BraDBF=F KetDBF=T FulRan=T
         wScrn=  0.000000 ICntrl=       500 IOpCl=  0 I1Cent=   200000004 NGrid=           0
         NMat0=    1 NMatS0=      1 NMatT0=    0 NMatD0=    1 NMtDS0=    0 NMtDT0=    0
 Petite list used in FoFCou.
 Harris En= -3459.38559204998    
 JPrj=0 DoOrth=F DoCkMO=F.
[...]
 31170,0.00205717,0.00154263,0.00267332,0.00074391,0.00089433,0.0007098
 6,-0.00010677,0.00005984,0.00010391,0.01342524,-0.00988703,-0.00035862
 ,-0.00060914,0.00024722,0.00007841,-0.00066397,-0.00163344,-0.00382450
 ,-0.00088138,0.00086361,0.00158402,-0.00002956,0.00003961,-0.00000723,
 -0.00000186,-0.00000221,0.00000486,0.00001062,-0.00000368,0.00000060,-
 0.00000277,-0.00000220,-0.00000121,-0.00000995,-0.00000496,0.00002549,
 -0.00000172,0.00000275,-0.00000528,-0.00000072,0.00000481,-0.00000008,
 0.00000469,-0.00000129,-0.00000289,-0.00002869,-0.00000590,-0.00000757
 ,0.00000168,-0.00000156,0.00000139,0.00000331,-0.00000082,0.00000351,0
 .00000611,0.00000382,-0.00000164,0.00000689,-0.00003597,0.00000495,-0.
 00000617,-0.00000716,-0.00000305,-0.00000833,-0.00000591,0.00000700,0.
 00001215,0.00000756,0.00000248,-0.00002549,0.00007458,-0.00001708,-0.0
 0000322,-0.00001396,0.00000775,0.00001426,-0.00000889,0.00000270,0.000
 00350,-0.00000704,-0.00000133,-0.00008453,0.00007435,-0.00004577,0.000
 04396,-0.00003605,0.00000545,-0.00004135,0.00002688,-0.00001253,0.0000
 1615,-0.00000436,0.00000848,0.00000059,-0.00000352,0.00000506,0.000004
 70,-0.00000875,-0.00000536,-0.00004127,0.00002416,-0.00000434,0.000006
 14,-0.00001652,-0.00000488,0.00000003,0.00000168,0.00000517,0.00001181
 ,0.00000647,0.00001497,0.00032608,-0.00088243,-0.00043094,0.00006422,0
 .00040794,0.00005316,-0.00022826,0.00022548,0.00017262,0.00003784,0.00
 017885,0.00019223,0.09538748,-0.18916273,0.01083871,0.00446614,-0.0756
 4550,0.02272852,-0.13938734,0.30341074,0.00001940,-0.00006499,0.000016
 77,0.00006412,0.00000545,0.00003784,0.00000556,-0.00008933,0.00001634,
 0.00000017,-0.00001978,0.00001265,0.00000647,-0.00000591,0.00004459,-0
 .00000109,0.00001158,0.00000195,-0.00000492,-0.00001580,0.00000097,0.0
 0000289,0.00001225,-0.00001346,0.00000248,0.00000716,-0.00000709,0.000
 01144,0.00000043,-0.00000092,-0.00002113,0.00004202,-0.00002675,-0.000
 00341,0.00007073,-0.00002702,-0.00010321,0.00012658,-0.00011869,-0.000
 00353,0.00006350,-0.00010830,-0.00002745,-0.00000576,-0.00003963,-0.00
 000966,-0.00000127,0.00004274,0.00000143,-0.00000429,-0.00001182,-0.00
 000083,0.00002067,-0.00001521,-0.00001203,0.00004118,-0.00005249,0.000
 05415,-0.00015369,0.00011953,0.00004880,-0.00007309,-0.00001205,0.0000
 2251,0.00003822,0.00009135,-0.00001139,-0.00001670,0.00001284,-0.00001
 672,0.00000743,0.00006736,-0.00000603,-0.00000096,-0.00001489,0.000010
 85,0.00000690,-0.00000977,-0.00000921,0.00001010,0.00001595,0.00001990
 ,-0.00000128,0.00001711,-0.00000041,0.00000710,0.00000031,-0.00000534,
 0.00000115,0.00000188,-0.00000209,-0.00000202,-0.00001036,0.00003768,0
 .00000362,-0.00001510,-0.00000406,-0.00001817,-0.00002191,0.00013202,-
 0.00005201,0.00022728,0.00005747,0.00006478,0.00000341,0.00002366,0.00
 001205,-0.00000424,0.00000574,-0.00001156,0.00000537,-0.00000821,0.000
 00414,0.00001009,0.00000891,0.00000726,-0.00000996,-0.00000164,-0.0000
 0149,0.00000031,-0.00000355,-0.00000077,-0.00000174,-0.00008173,-0.000
 04976,-0.00005806,-0.00019070,0.00020701,0.00034938,-0.00004208,0.0000
 3419,0.00000598,-0.00004467,0.00000897,0.00002938,-0.00003700,-0.00002
 138,0.00000964,0.00001357,0.00000103,0.00000903,0.00000039,0.00000279,
 -0.00000071,-0.00000491,-0.00000680,-0.00000259,-0.00002486,-0.0000148
 6,-0.00000266,0.00092059,-0.00077521,-0.00057227,-0.00021905,0.0004400
 9,-0.00007562,-0.00063652,0.00003819,-0.00006544,-0.00103849,0.0007394
 0,0.00052539,-0.00037890,0.00009383,-0.00005032,-0.00178425,-0.0013920
 0,-0.00254561,-0.00004437,0.00053729,0.00052082,-0.00003658,0.00004228
 ,0.00003462,-0.01230027,0.01273342,0.00894528,-0.00026931,0.00019930,0
 .00004089,-0.00062517,0.00006414,-0.00178116,-0.00163879,0.00096952,-0
 .00021548,0.00002101,-0.00003316,0.00000267,0.00000065,0.00000115,-0.0
 0000337,-0.00000735,0.00000318,-0.00000094,0.00000040,0.00000467,0.000
 00161,0.00000526,-0.00000232,-0.00003031,0.00000087,-0.00000257,0.0000
 0424,0.00000196,-0.00000008,0.00000073,-0.00000341,0.00000104,0.000003
 01,0.00002234,0.00000255,0.00000390,-0.00000252,0.00000197,-0.00000070
 ,-0.00000205,0.00000020,-0.00000155,-0.00000381,-0.00000289,0.00000031
 ,0.00001157,0.00000989,0.00000474,0.00000576,0.00001138,0.00001096,0.0
 0001180,0.00000343,-0.00001176,-0.00001280,-0.00000419,-0.00000425,0.0
 0001007,-0.00004091,-0.00000076,0.00000079,0.00000591,-0.00000307,-0.0
 0000482,0.00000381,-0.00000013,-0.00000171,0.00000605,0.00000440,0.000
 04332,-0.00007172,0.00001889,-0.00000060,0.00002974,0.00001828,-0.0000
 1279,-0.00001619,-0.00000061,0.00000029,-0.00000262,-0.00000472,0.0000
 0223,-0.00000042,0.00000050,-0.00000097,0.00000628,0.00000340,0.000013
 18,-0.00000036,-0.00000912,-0.00000634,0.00001298,0.00000288,0.0000068
 4,-0.00000230,-0.00000340,-0.00001018,-0.00001203,-0.00001231,0.000301
 54,0.00063912,0.00056158,-0.00012411,-0.00032037,-0.00005559,0.0000062
 4,-0.00016210,-0.00017784,-0.00013707,-0.00008960,-0.00024793,-0.01016
 865,0.00548351,-0.07557469,-0.00321847,0.02642898,0.00611880,0.0007961
 3,0.00122960,0.07740775,0.00003580,-0.00008322,0.00000295,-0.00019651,
 -0.00007080,0.00004713,-0.00004864,-0.00005752,0.00002879,0.00000353,-
 0.00003239,-0.00000649,-0.00003572,-0.00001613,0.00008429,-0.00000028,
 0.00000819,0.00000152,-0.00001061,-0.00001464,-0.00000227,0.00000497,0
 .00001869,-0.00002600,0.00000448,0.00001371,-0.00001091,0.00002605,0.0
 0000345,-0.00000540,0.00005152,0.00003964,-0.00001791,0.00003145,0.000
 05974,-0.00003445,0.00023333,-0.00000262,0.00004044,0.00009708,0.00010
 879,-0.00015442,0.00001087,0.00002282,-0.00005148,-0.00005281,-0.00000
 568,0.00009706,0.00000766,-0.00000645,-0.00002340,0.00000726,0.0000341
 2,-0.00002995,0.00001731,0.00008166,-0.00012076,-0.00012358,0.00008251
 ,-0.00003686,-0.00008514,-0.00000931,-0.00003124,-0.00012099,-0.000062
 31,-0.00002224,0.00009944,0.00012971,-0.00005958,-0.00005292,0.0000260
 8,0.00009793,0.00000493,-0.00000441,-0.00001167,0.00002150,0.00002496,
 -0.00003620,-0.00003671,-0.00000791,0.00002117,0.00000489,-0.00003423,
 0.00004181,-0.00000126,0.00001493,0.00000124,-0.00000134,0.00000267,0.
 00000116,-0.00000178,0.00000225,-0.00001765,0.00006102,0.00000053,-0.0
 0001215,-0.00001090,-0.00002698,-0.00002840,0.00022045,-0.00013511,0.0
 0037656,0.00008987,0.00008824,0.00001839,0.00003850,0.00001480,-0.0000
 0089,0.00000570,-0.00002401,0.00001385,-0.00001309,0.00000442,0.000015
 40,0.00001287,0.00000991,-0.00001633,-0.00000251,-0.00000026,-0.000000
 38,-0.00000901,0.00000013,-0.00000578,-0.00013740,-0.00004370,-0.00009
 798,-0.00042433,0.00032957,0.00030941,-0.00006516,0.00006073,-0.000001
 65,-0.00006820,0.00001588,0.00002659,-0.00006646,-0.00003016,0.0000040
 2,0.00002483,0.00000489,0.00002094,-0.00000116,0.00000576,-0.00000438,
 -0.00000764,-0.00001011,-0.00000272,-0.00004379,-0.00001540,-0.0000245
 6,0.00164649,-0.00099951,-0.00020647,-0.00031100,0.00061968,-0.0002247
 1,-0.00079653,0.00005498,-0.00019593,0.00073057,-0.00060115,-0.0000708
 4,-0.00027321,-0.00046299,-0.00069322,-0.00204921,0.00112244,-0.001257
 17,-0.00097492,-0.00158969,-0.00091055,0.00005054,-0.00004975,-0.00006
 505,0.00617643,-0.00958371,-0.02932222,-0.00082123,-0.00087162,-0.0017
 6534,-0.00366183,0.00258523,-0.00074993,0.00022425,0.00002371,-0.00030
 220,0.00003743,-0.00005832,0.00001031,0.00000003,0.00000274,-0.0000076
 3,-0.00001116,0.00000472,-0.00000109,0.00000003,0.00000586,0.00000361,
 0.00001074,-0.00000441,-0.00002863,0.00000315,0.00000049,0.00000412,0.
 00000252,-0.00000469,0.00000153,-0.00000743,0.00000217,0.00000326,0.00
 004470,0.00000510,0.00001197,-0.00000443,0.00000303,-0.00000048,-0.000
 00411,0.00000032,-0.00000630,-0.00000504,-0.00000336,0.00000110,0.0000
 2471,0.00001044,0.00003475,0.00001145,0.00001905,0.00001863,0.00002035
 ,0.00000190,-0.00002944,-0.00002187,-0.00000642,-0.00000924,0.00000232
 ,-0.00002743,-0.00000153,0.00000126,0.00000569,-0.00000444,0.00000003,
 0.00000092,0.00000233,-0.00000267,0.00000458,0.00000373,0.00005001,-0.
 00011652,0.00005719,0.00000612,0.00006690,-0.00000410,-0.00002434,-0.0
 0003655,0.00000263,-0.00000179,-0.00000329,-0.00000154,0.00000106,0.00
 000360,-0.00000484,0.00000090,0.00000888,0.00000592,0.00002541,-0.0000
 2141,0.00001336,-0.00000889,0.00001932,0.00000192,0.00001197,-0.000003
 30,-0.00000419,-0.00002040,-0.00001980,-0.00001953,-0.00038796,0.00124
 752,0.00123720,-0.00012794,-0.00068548,-0.00018837,0.00023818,-0.00030
 192,-0.00035317,-0.00020133,-0.00019464,-0.00056869,-0.07797387,0.0026
 2842,0.00187876,-0.00326902,-0.00619843,0.04280542,-0.00133236,0.02530
 565,0.03063876,0.08347453,0.00003104,-0.00007990,0.00000012,-0.0001050
 5,-0.00003769,-0.00001443,-0.00003074,-0.00002607,-0.00002637,-0.00000
 442,-0.00002899,-0.00002739,-0.00002374,-0.00001230,0.00002863,-0.0000
 0120,0.00001683,0.00000692,-0.00000211,-0.00001215,-0.00000535,0.00000
 116,0.00001291,-0.00000854,0.00000019,0.00000682,-0.00000104,0.0000132
 1,-0.00000164,-0.00000214,0.00004074,0.00002849,0.00002691,0.00001517,
 0.00001906,0.00001153,0.00012234,0.00000433,0.00010136,0.00002616,0.00
 009495,-0.00005663,0.00000804,0.00003007,-0.00000835,-0.00001677,-0.00
 000088,0.00002826,0.00000505,-0.00000052,-0.00000355,0.00000105,0.0000
 1289,-0.00001051,0.00000671,0.00003488,-0.00002998,-0.00001968,0.00004
 465,-0.00017806,-0.00006304,-0.00000989,0.00002231,-0.00006685,-0.0000
 0615,0.00001414,0.00003879,0.00004968,-0.00003660,-0.00000114,-0.00001
 294,0.00002642,-0.00000146,0.00000092,-0.00000266,0.00000837,0.0000089
 6,-0.00001115,-0.00001546,0.00000649,0.00001124,0.00000020,-0.00002539
 ,0.00001991,0.00000125,0.00000721,-0.00000161,-0.00000201,0.00000266,-
 0.00000121,0.00000052,0.00000238,-0.00000536,0.00002025,-0.00000259,-0
 .00000693,-0.00000665,-0.00002092,-0.00001334,0.00006986,-0.00008006,0
 .00008185,0.00002604,0.00002223,0.00000858,0.00001454,0.00000072,-0.00
 000254,0.00000380,-0.00001550,0.00000307,-0.00000302,0.00000189,0.0000
 0639,0.00000368,0.00000156,-0.00000489,0.00000209,-0.00000030,-0.00000
 229,-0.00000344,0.00000072,-0.00000153,-0.00005161,0.00002801,-0.00001
 151,-0.00004476,0.00015353,0.00022715,-0.00001602,0.00003160,0.0000088
 0,-0.00002416,0.00001202,0.00001778,-0.00002240,-0.00000358,0.00000268
 ,0.00002254,-0.00000639,-0.00000025,-0.00000210,0.00000351,-0.00000182
 ,-0.00000391,-0.00000294,0.00000061,-0.00003379,0.00000867,-0.00000952
 ,0.00035726,-0.00054479,-0.00036510,-0.00008369,0.00027227,-0.00002814
 ,-0.00022937,0.00010886,0.00000996,-0.00059281,0.00007823,0.00041218,-
 0.00001459,-0.00009282,-0.00021164,0.00116807,-0.00159933,0.00008962,-
 0.00063523,-0.00044101,0.00020774,0.00002270,0.00009087,0.00003171,-0.
 00031325,0.00569292,-0.01441045,-0.00036000,0.00098057,0.00073138,-0.0
 0068140,0.00131211,-0.00026818,0.00033343,0.00044103,0.00031983,0.0000
 1071,-0.00002064,0.00000110,-0.00000028,0.00000027,-0.00000213,-0.0000
 0289,0.00000172,-0.00000051,-0.00000159,0.00000433,0.00000169,0.000001
 59,-0.00000638,-0.00001687,0.00000078,0.00000003,0.00000142,0.00000183
 ,0.00000114,0.00000106,-0.00000231,0.00000082,0.00000165,0.00001563,0.
 00000041,0.00000305,-0.00000245,0.00000148,0.00000009,-0.00000111,-0.0
 0000013,-0.00000149,-0.00000112,-0.00000104,-0.00000021,0.00001850,-0.
 00000616,0.00002106,0.00000446,0.00000967,0.00001063,0.00001079,0.0000
 0050,-0.00001506,-0.00000960,-0.00000161,-0.00000524,-0.00000357,-0.00
 000893,-0.00001064,-0.00000066,0.00000053,-0.00000022,0.00000261,0.000
 00005,0.00000182,-0.00000050,0.00000371,0.00000453,0.00000057,-0.00004
 653,-0.00000325,0.00002906,0.00002061,0.00001831,-0.00004404,-0.000005
 86,-0.00000788,0.00000998,-0.00000550,0.00000009,0.00000321,-0.0000020
 0,0.00000259,0.00000226,0.00000219,0.00000136,-0.00000916,0.00000975,-
 0.00000732,-0.00000355,0.00000548,-0.00000004,0.00000946,-0.00000204,-
 0.00000044,-0.00000766,-0.00001110,-0.00000602,-0.00005609,0.00037539,
 0.00055435,-0.00005400,-0.00025025,-0.00007779,0.00002986,-0.00009485,
 -0.00014295,-0.00008936,-0.00003988,-0.00020995,0.00056109,-0.08526442
 ,-0.05164975,-0.00930665,0.01048207,0.03094741,0.02242022,-0.03057442,
 -0.04699846,-0.01242439,0.09886078,0.00005267,-0.00019782,0.00005162,0
 .00024370,0.00004218,0.00009159,0.00003010,-0.00025185,0.00002608,-0.0
 0000083,-0.00005895,0.00002350,0.00001929,-0.00002247,0.00011264,-0.00
 000280,0.00003752,0.00000753,-0.00000396,-0.00004862,-0.00000176,0.000
 00656,0.00003798,-0.00003542,0.00000361,0.00001975,-0.00001604,0.00003
 439,-0.00000580,-0.00000507,-0.00007440,0.00011938,-0.00005436,-0.0000
 1834,0.00019099,-0.00006106,-0.00036867,0.00041407,-0.00035045,-0.0000
 0321,0.00018507,-0.00033116,-0.00007612,-0.00000533,-0.00010173,0.0000
 0028,-0.00000230,0.00007891,0.00000186,-0.00000946,-0.00002126,-0.0000
 0821,0.00004736,-0.00003057,-0.00004605,0.00009027,-0.00008996,0.00024
 199,-0.00051138,0.00023936,0.00009228,-0.00019713,-0.00006907,0.000079
 28,0.00019325,0.00032601,-0.00005908,-0.00010244,0.00003905,-0.0000577
 1,0.00004094,0.00018703,-0.00001159,-0.00000886,-0.00004053,0.00003230
 ,0.00002155,-0.00003314,-0.00003302,0.00001987,0.00003669,0.00005453,-
 0.00001533,0.00004994,0.00000181,0.00001969,-0.00000063,-0.00001737,0.
 00000513,0.00000125,-0.00000671,-0.00000412,-0.00002684,0.00008002,0.0
 0000831,-0.00004135,-0.00001223,-0.00005230,-0.00004756,0.00027500,-0.
 00015974,0.00036766,0.00012474,0.00014190,0.00000781,0.00005646,0.0000
 2079,-0.00001365,0.00002586,-0.00003595,0.00001285,-0.00001347,0.00000
 881,0.00002214,0.00001589,0.00001021,-0.00001712,0.00000203,-0.0000044
 0,-0.00000306,-0.00000820,-0.00000028,-0.00000225,-0.00019697,-0.00004
 408,-0.00008689,-0.00039813,0.00045947,0.00084567,-0.00008532,0.000080
 46,0.00002602,-0.00009713,0.00002483,0.00007800,-0.00008337,-0.0000411
 3,0.00002484,0.00005349,-0.00000953,0.00000942,-0.00000126,0.00000869,
 -0.00000150,-0.00001398,-0.00001516,-0.00000359,-0.00008708,-0.0000208
 1,-0.00000684,0.00200637,-0.00148599,-0.00122621,-0.00048716,0.0008399
 3,-0.00005407,-0.00105058,0.00014091,-0.00004076,-0.00110437,-0.000436
 91,0.00033669,-0.00046725,0.00010341,-0.00019582,0.00236202,-0.0023893
 1,-0.00069426,-0.00004675,-0.00211232,-0.00120639,0.00004408,0.0001311
 0,0.00002282,0.00045711,-0.01556168,-0.03863170,-0.00136355,0.00150321
 ,-0.00044831,-0.00690520,0.00316247,-0.00103334,0.00045891,0.00048538,
 0.00038874,0.00004351,-0.00006926,0.00000407,0.00000235,0.00000098,-0.
 00000624,-0.00001517,0.00000633,-0.00000204,0.00000007,0.00001207,0.00
 000339,0.00000897,-0.00000882,-0.00007537,0.00000130,-0.00000666,0.000
 00964,0.00000518,0.00000315,0.00000201,-0.00000687,0.00000240,0.000007
 40,0.00005029,0.00000462,0.00000742,-0.00000680,0.00000484,-0.00000145
 ,-0.00000421,0.00000028,-0.00000247,-0.00000817,-0.00000660,0.00000014
 ,0.00004018,0.00001274,0.00002324,0.00001578,0.00003534,0.00003429,0.0
 0003574,0.00000850,-0.00003708,-0.00003620,-0.00000972,-0.00001372,0.0
 0002608,-0.00011133,-0.00000584,0.00000140,0.00001574,-0.00000767,-0.0
 0001269,0.00001119,-0.00000072,-0.00000412,0.00001731,0.00001301,0.000
 09304,-0.00015553,0.00001126,0.00000791,0.00005468,0.00006090,-0.00003
 880,-0.00002822,-0.00000626,0.00000533,-0.00000814,-0.00001301,0.00000
 677,-0.00000415,0.00000510,-0.00000331,0.00001417,0.00000711,0.0000195
 8,0.00001326,-0.00003568,-0.00001453,0.00002785,0.00000708,0.00001639,
 -0.00000539,-0.00000716,-0.00001895,-0.00002998,-0.00002782,-0.0002097
 7,0.00187845,0.00154691,-0.00026662,-0.00099056,-0.00016470,0.00013699
 ,-0.00040371,-0.00047001,-0.00040139,-0.00029789,-0.00094276,-0.006934
 10,-0.04923290,-0.25137476,0.03259385,0.01886939,-0.05570797,0.0213206
 8,-0.03532386,-0.01335132,-0.04009622,0.08089597,0.36212091\\-0.000000
 87,0.00000186,-0.00000077,0.00000001,0.00000004,-0.00000025,-0.0000008
 2,0.00000021,0.00000044,-0.00000097,0.00000256,0.00000011,0.00000152,-
 0.00000069,-0.00000095,-0.00000116,0.00000065,0.00000269,-0.00000176,0
 .00000209,0.00000072,-0.00000150,0.00000361,0.00000138,-0.00000097,0.0
 0000318,0.00000113,0.00000193,0.00000234,0.00000276,-0.00000042,-0.000
 00058,-0.00000081,-0.00000110,0.00000198,0.00000151,-0.00000138,0.0000
 0152,0.00000235,0.,0.00000098,-0.00000168,-0.00000038,0.00000235,-0.00
 000013,0.00000003,-0.00000278,0.00000129,-0.00000065,-0.00000054,0.000
 00208,-0.00000114,0.00000021,0.00000054,-0.00000591,0.00000236,0.00000
 393,0.00000108,-0.00000090,0.00000019,0.00000019,0.00000167,0.00000030
 ,-0.00000025,0.00000231,0.00000139,-0.00000010,0.00000171,0.00000070,-
 0.00000164,0.00000332,0.00000078,0.00000014,0.00000223,-0.00000076,0.0
 0000108,0.00000328,-0.00000069,0.00000058,0.00000171,-0.00000051,0.000
 00068,0.00000050,-0.00000063,0.00000167,0.00000102,-0.00000041,-0.0000
 0015,0.00000157,0.,0.00000077,0.00000182,-0.00000076,0.00000154,-0.000
 00428,-0.00000002,0.00000125,-0.00000160,0.00000290,-0.00000479,0.0000
 0587,-0.00001078,0.00000114,-0.00000009,0.00000226,-0.00000036,-0.0000
 0025,-0.00000042,0.00000395,-0.00000977,0.00000761,-0.00000035,-0.0000
 0035,-0.00000249,-0.00000008,-0.00000196,-0.00000196,0.00000113,-0.000
 00033,-0.00000075,0.00000047,-0.00000152,-0.00000063,-0.00000096,-0.00
 000008,-0.00000223,0.00000089,-0.00000168,0.00000052,-0.00000107,-0.00
 000277,-0.00000013,-0.00000117,-0.00000153,0.00000058,0.00000241,-0.00
 000265,-0.00000340,0.00000095,-0.00000133,-0.00000184,0.00000125,0.000
 00013,-0.00000121,0.00000141,-0.00000024,-0.00000161,0.00000106,0.0000
 0032,-0.00000098,-0.00000005,0.00000192,0.00000468,0.00000244,0.000001
 00,0.00000195,0.00000116,-0.00000034,0.00000002,-0.00000409,-0.0000054
 4,-0.00000307,-0.00000206,-0.00000064,0.00000051,0.00000065,0.00000168
 ,-0.00000194,0.00000167,0.00000078,-0.00000198,0.00000128,0.00000135,-
 0.00000167,0.00000059,0.00000135,0.00000004,0.00000032,-0.00000071,-0.
 00000076,-0.00000009,0.00000102,-0.00000008,0.00000234,0.00000108,-0.0
 0000095,-0.00000169,-0.00000207,0.00000135,-0.00000039,-0.00000029,0.0
 0000061,-0.00000037,-0.00000222,0.00000064,-0.00000091,-0.00000197,0.0
 0000151,0.00000010,-0.00000288,-0.00000140,0.00000008,-0.00000381,-0.0
 0000031,-0.00000029,-0.00000211,-0.00000021,0.00000035,-0.00000350,0.0
 0000019,0.00000054,-0.00000095,-0.00000094,0.00000095,-0.00000262,-0.0
 0000135,0.00000116,-0.00000207,-0.00000139,0.00000113,-0.00000288,-0.0
 0000133,0.00000149,0.00000006,-0.00000159,0.00000257,0.00000052,-0.000
 00252,0.00000074,-0.00000085,-0.00000225,0.00000180,0.00000008,-0.0000
 0261,-0.00000111,0.00000193,0.00000273,-0.00000183,0.00000226,0.000002
 28,-0.00000174,0.00000159,0.00000213,-0.00000187,0.00000122,0.00000210
 ,0.00000506,0.00000568,0.00000084,-0.00001143,-0.00000206,0.00000066,0
 .00000122,0.00000036,0.00000205,-0.00000094,-0.00000050,0.00000228,-0.
 00000169,-0.00000166,0.00000223,-0.00000195,-0.00000102,0.00000175,0.0
 0000133,-0.00000068,0.00000178,-0.00000143,-0.00000188,0.00000190,-0.0
 0000043,-0.00000219,0.00000039,-0.00000121,-0.00000234,0.00000014,0.00
 000633,-0.00000024,-0.00000241,0.00000139,0.00000155,-0.00000182,0.000
 00063,0.00000150,-0.00000206,0.00000132,0.00000165,0.00000049,0.000000
 23,0.00000216,-0.00000092,-0.00000139,-0.00000039,0.00000037,0.0000003
 7,-0.00000050,-0.00000308,0.00000057,0.00000058,-0.00000035\\\@


 LET US LEARN TO DREAM, GENTLEMEN, THEN PERHAPS WE SHALL
 DISCOVER THE TRUTH;  BUT LET US BEWARE OF PUBLISHING
 OUR DREAMS ABROAD BEFORE THEY HAVE BEEN SCRUTINIZED
 BY OUR VIGILANT INTELLECT ... LET US ALWAYS ALLOW
 THE FRUIT TO HANG UNTIL IT IS RIPE.  UNRIPE FRUIT
 BRINGS EVEN THE GROWER BUT LITTLE PROFIT; IT DAMAGES
 THE HEALTH OF THOSE WHO CONSUME IT; IT ENDANGERS
 PARTICULARLY THE YOUTH WHO CANNOT YET DISTINGUISH
 BETWEEN RIPE AND UNRIPE FRUIT.

                                  -- KEKULE, 1890
 Job cpu time:       4 days 21 hours 26 minutes 16.4 seconds.
 Elapsed time:       0 days  3 hours 51 minutes 49.9 seconds.
 File lengths (MBytes):  RWF=   9725 Int=      0 D2E=      0 Chk=     85 Scr=      1
 Normal termination of Gaussian 16 at Tue Jun  4 03:24:50 2019.
