 Entering Gaussian System, Link 0=g16
 Input=clay_new-glu_gluC6-FAUL-Na2_1Me2O-bisCF3-ts-b3lyp_d3bj-631gd-pcm_thf.gjf
 Output=clay_new-glu_gluC6-FAUL-Na2_1Me2O-bisCF3-ts-b3lyp_d3bj-631gd-pcm_thf.out
 Initial command:
 /home/ekwan/sw/g16/l1.exe "/scratch/users/ekwan/clay_new-glu_gluC6-FAUL-Na2_1Me2O-bisCF3-ts-b3lyp_d3bj-631gd-pcm_thf/Gau-14466.inp" -scrdir="/scratch/users/ekwan/clay_new-glu_gluC6-FAUL-Na2_1Me2O-bisCF3-ts-b3lyp_d3bj-631gd-pcm_thf/"
 Entering Link 1 = /home/ekwan/sw/g16/l1.exe PID=     14467.
  
 Copyright (c) 1988,1990,1992,1993,1995,1998,2003,2009,2016,
            Gaussian, Inc.  All Rights Reserved.
  
 This is part of the Gaussian(R) 16 program.  It is based on
 the Gaussian(R) 09 system (copyright 2009, Gaussian, Inc.),
 the Gaussian(R) 03 system (copyright 2003, Gaussian, Inc.),
 the Gaussian(R) 98 system (copyright 1998, Gaussian, Inc.),
 the Gaussian(R) 94 system (copyright 1995, Gaussian, Inc.),
 the Gaussian 92(TM) system (copyright 1992, Gaussian, Inc.),
 the Gaussian 90(TM) system (copyright 1990, Gaussian, Inc.),
 the Gaussian 88(TM) system (copyright 1988, Gaussian, Inc.),
 the Gaussian 86(TM) system (copyright 1986, Carnegie Mellon
 University), and the Gaussian 82(TM) system (copyright 1983,
 Carnegie Mellon University). Gaussian is a federally registered
 trademark of Gaussian, Inc.
  
 This software contains proprietary and confidential information,
 including trade secrets, belonging to Gaussian, Inc.
  
 This software is provided under written license and may be
 used, copied, transmitted, or stored only in accord with that
 written license.
  
 The following legend is applicable only to US Government
 contracts under FAR:
  
                    RESTRICTED RIGHTS LEGEND
  
 Use, reproduction and disclosure by the US Government is
 subject to restrictions as set forth in subparagraphs (a)
 and (c) of the Commercial Computer Software - Restricted
 Rights clause in FAR 52.227-19.
  
 Gaussian, Inc.
 340 Quinnipiac St., Bldg. 40, Wallingford CT 06492
  
  
 ---------------------------------------------------------------
 Warning -- This program may not be used in any manner that
 competes with the business of Gaussian, Inc. or will provide
 assistance to any competitor of Gaussian, Inc.  The licensee
 of this program is prohibited from giving any competitor of
 Gaussian, Inc. access to this program.  By using this program,
 the user acknowledges that Gaussian, Inc. is engaged in the
 business of creating and licensing software in the field of
 computational chemistry and represents and warrants to the
 licensee that it is not a competitor of Gaussian, Inc. and that
 it will not use this program in any manner prohibited above.
 ---------------------------------------------------------------
  

 Cite this work as:
 Gaussian 16, Revision A.03,
 M. J. Frisch, G. W. Trucks, H. B. Schlegel, G. E. Scuseria, 
 M. A. Robb, J. R. Cheeseman, G. Scalmani, V. Barone, 
 G. A. Petersson, H. Nakatsuji, X. Li, M. Caricato, A. V. Marenich, 
 J. Bloino, B. G. Janesko, R. Gomperts, B. Mennucci, H. P. Hratchian, 
 J. V. Ortiz, A. F. Izmaylov, J. L. Sonnenberg, D. Williams-Young, 
 F. Ding, F. Lipparini, F. Egidi, J. Goings, B. Peng, A. Petrone, 
 T. Henderson, D. Ranasinghe, V. G. Zakrzewski, J. Gao, N. Rega, 
 G. Zheng, W. Liang, M. Hada, M. Ehara, K. Toyota, R. Fukuda, 
 J. Hasegawa, M. Ishida, T. Nakajima, Y. Honda, O. Kitao, H. Nakai, 
 T. Vreven, K. Throssell, J. A. Montgomery, Jr., J. E. Peralta, 
 F. Ogliaro, M. J. Bearpark, J. J. Heyd, E. N. Brothers, K. N. Kudin, 
 V. N. Staroverov, T. A. Keith, R. Kobayashi, J. Normand, 
 K. Raghavachari, A. P. Rendell, J. C. Burant, S. S. Iyengar, 
 J. Tomasi, M. Cossi, J. M. Millam, M. Klene, C. Adamo, R. Cammi, 
 J. W. Ochterski, R. L. Martin, K. Morokuma, O. Farkas, 
 J. B. Foresman, and D. J. Fox, Gaussian, Inc., Wallingford CT, 2016.
 
 ******************************************
 Gaussian 16:  AS64L-G16RevA.03 25-Dec-2016
                27-May-2019 
 ******************************************
 %mem=48GB
 %nprocshared=32
 Will use up to   32 processors via shared memory.
 ----------------------------------------------------------------------
 #p opt=(ts,noeigentest,calcfc,maxstep=1,modredundant,recalc=30) freq=n
 oraman b3lyp 6-31g* pop=none scrf=(solvent=tetrahydrofuran,pcm) empiri
 caldispersion=gd3bj
 ----------------------------------------------------------------------
 1/5=1,8=1,10=4,11=1,18=120,26=3,38=1,71=30/1,3;
 2/9=110,12=2,17=6,18=5,40=1/2;
 3/5=1,6=6,7=1,11=2,25=1,30=1,70=2201,71=2,72=20,74=-5,124=41,140=1/1,2,3;
 4//1;
 5/5=2,38=5,53=20/2;
 8/6=4,10=90,11=11/1;
 11/6=1,8=1,9=11,15=111,16=1/1,2,10;
 10/6=1,13=1/2;
 7/10=1,18=20,25=1/1,2,3,16;
 1/5=1,8=1,10=4,11=1,18=20,26=3,71=30/3(2);
 2/9=110/2;
 99//99;
 2/9=110/2;
 3/5=1,6=6,7=1,11=2,25=1,30=1,70=2205,71=1,72=20,74=-5,124=41/1,2,3;
 4/5=5,16=3,69=1/1;
 5/5=2,38=5,53=20/2;
 7//1,2,3,16;
 1/5=1,8=1,11=1,18=20,26=3,71=30/3(-5);
 2/9=110/2;
 99/9=1/99;
 Leave Link    1 at Mon May 27 07:06:05 2019, MaxMem=  6442450944 cpu:               8.4 elap:               0.4
 (Enter /home/ekwan/sw/g16/l101.exe)
 -----
 title
 -----
 Symbolic Z-matrix:
 Charge =  0 Multiplicity = 1
 C                    -4.93048   2.10555  -0.45 
 C                    -5.05853   0.60948  -0.15359 
 C                    -4.20856  -0.24092  -1.11429 
 C                    -2.72389   1.6003   -1.58174 
 C                    -3.46845   2.51577  -0.6077 
 H                    -4.12152  -1.27681  -0.76149 
 H                    -4.66511   0.42947   0.85737 
 H                    -5.46127   2.33367  -1.38361 
 H                    -3.18073   1.68838  -2.57507 
 H                    -2.98724   2.45346   0.37665 
 O                    -2.86606   0.22981  -1.12207 
 O                    -4.79547  -0.21387  -2.38082 
 O                    -6.4343    0.27094  -0.20349 
 O                    -5.4743    2.8649    0.62466 
 O                    -3.41672   3.85513  -1.08412 
 C                    -1.21616   1.88762  -1.67957 
 H                    -1.14134   2.91928  -2.08256 
 H                    -0.84652   1.22728  -2.49895 
 O                    -0.54145   1.70683  -0.49687 
 C                    -6.74977  -0.94961   0.44454 
 H                    -6.30623  -1.81721  -0.06329 
 H                    -6.41212  -0.94405   1.49137 
 H                    -7.83736  -1.04929   0.4205 
 C                    -6.79554   3.33613   0.4054 
 H                    -6.84169   3.98449  -0.48171 
 H                    -7.50363   2.50937   0.28253 
 H                    -7.06957   3.92293   1.2864 
 C                    -2.60951   4.70674  -0.28302 
 H                    -3.05353   4.84721   0.71259 
 H                    -1.59534   4.303    -0.1684 
 H                    -2.56253   5.673    -0.79261 
 C                     4.26461   1.14502  -0.25733 
 C                     2.79054   1.03708  -0.68315 
 C                     1.90352   1.52925   0.42508 
 C                     3.36891   3.39848   0.68581 
 C                     4.58617   2.52824   0.35317 
 H                     0.92939   1.11866   0.61466 
 H                     2.62852   1.71282  -1.53907 
 H                     4.42162   0.38833   0.5185 
 H                     3.58548   3.94748   1.6008 
 H                     5.16762   3.08188  -0.39729 
 O                     2.15507   2.63702   1.01911 
 O                     0.15694  -0.09469   2.42213 
 O                     2.51114  -0.28572  -1.04308 
 O                     5.1413    0.94445  -1.34705 
 O                     5.33412   2.41285   1.55145 
 C                     2.98198   4.38902  -0.41285 
 H                     2.05482   4.90365  -0.12118 
 H                     2.79229   3.8747   -1.36765 
 O                     4.05935   5.28791  -0.53227 
 S                     1.48063  -0.78464   2.50719 
 O                     1.78841  -1.36198   3.82749 
 O                     2.59781   0.06994   1.9617 
 C                     1.33318  -2.13781   1.32929 
 C                     0.08149  -2.68637   1.08003 
 C                     2.45492  -2.57105   0.62545 
 C                    -0.06019  -3.64994   0.07805 
 H                    -0.7804   -2.33901   1.639 
 C                     2.30331  -3.54306  -0.35828 
 H                     3.41895  -2.11949   0.8127 
 C                     1.04606  -4.08306  -0.64645 
 H                     0.93197  -4.81839  -1.43359 
 C                     1.39733  -0.43944  -1.92838 
 H                     0.49     -0.03137  -1.47576 
 H                     1.59383   0.07424  -2.87934 
 H                     1.30389  -1.51021  -2.11012 
 C                     5.47886  -0.41696  -1.61004 
 H                     5.81223  -0.92174  -0.69228 
 H                     4.63831  -0.97345  -2.02948 
 H                     6.30513  -0.39355  -2.32454 
 C                     6.65169   1.92011   1.35136 
 H                     6.65585   0.87358   1.01982 
 H                     7.19129   2.52493   0.60897 
 H                     7.15783   1.98795   2.31638 
 C                     3.85515   6.2437   -1.56237 
 H                     4.73677   6.88742  -1.57661 
 H                     3.74441   5.75586  -2.54152 
 H                     2.9618    6.85406  -1.36801 
 C                    -4.15359  -1.07909  -3.31381 
 H                    -4.78368  -1.10348  -4.20485 
 H                    -3.15595  -0.71167  -3.58 
 H                    -4.05907  -2.09407  -2.90287 
 Na                   -1.48045   0.19889   0.81303 
 O                    -3.02231  -0.70795   2.30176 
 C                    -2.97045  -0.07287   3.57821 
 H                    -2.26548  -0.58992   4.24026 
 H                    -2.62978   0.95191   3.41791 
 H                    -3.96699  -0.05719   4.03782 
 C                    -3.51821  -2.03852   2.38531 
 H                    -4.53534  -2.04757   2.79828 
 H                    -3.53266  -2.44544   1.37437 
 H                    -2.87108  -2.66003   3.01927 
 C                    -1.4445   -4.13118  -0.249 
 F                    -2.08327  -4.61226   0.8406 
 F                    -1.45729  -5.08933  -1.19055 
 F                    -2.21174  -3.10005  -0.71183 
 C                     3.47255  -3.91088  -1.22764 
 F                     4.65468  -3.62225  -0.64597 
 F                     3.43434  -3.22984  -2.40319 
 F                     3.47621  -5.22331  -1.54194 
 
 Add virtual bond connecting atoms H37        and O19        Dist= 3.66D+00.
 Add virtual bond connecting atoms O43        and H37        Dist= 4.37D+00.
 Add virtual bond connecting atoms O43        and Na83       Dist= 4.37D+00.
 Add virtual bond connecting atoms O53        and C34        Dist= 4.21D+00.
 Add virtual bond connecting atoms O53        and H37        Dist= 4.51D+00.
 Add virtual bond connecting atoms O53        and H39        Dist= 4.44D+00.
 Add virtual bond connecting atoms O84        and H7         Dist= 4.66D+00.
 Add virtual bond connecting atoms O84        and Na83       Dist= 4.40D+00.
 The following ModRedundant input section has been read:
 
 ITRead=  0  0  0  0  0  0  0  0  0  0  0  0  0  0  0  0  0  0  0  0
 ITRead=  0  0  0  0  0  0  0  0  0  0  0  0  0  0  0  0  0  0  0  0
 ITRead=  0  0  0  0  0  0  0  0  0  0  0  0  0  0  0  0  0  0  0  0
 ITRead=  0  0  0  0  0  0  0  0  0  0  0  0  0  0  0  0  0  0  0  0
 ITRead=  0  0  0  0  0  0  0  0  0  0  0  0  0  0  0  0  0  0  0  0
 MicOpt= -1 -1 -1 -1 -1 -1 -1 -1 -1 -1 -1 -1 -1 -1 -1 -1 -1 -1 -1 -1
 MicOpt= -1 -1 -1 -1 -1 -1 -1 -1 -1 -1 -1 -1 -1 -1 -1 -1 -1 -1 -1 -1
 MicOpt= -1 -1 -1 -1 -1 -1 -1 -1 -1 -1 -1 -1 -1 -1 -1 -1 -1 -1 -1 -1
 MicOpt= -1 -1 -1 -1 -1 -1 -1 -1 -1 -1 -1 -1 -1 -1 -1 -1 -1 -1 -1 -1
 MicOpt= -1 -1 -1 -1 -1 -1 -1 -1 -1 -1 -1 -1 -1 -1 -1 -1 -1 -1 -1 -1
 NAtoms=    100 NQM=      100 NQMF=       0 NMMI=      0 NMMIF=      0
                NMic=       0 NMicF=      0.
                    Isotopes and Nuclear Properties:
 (Nuclear quadrupole moments (NQMom) in fm**2, nuclear magnetic moments (NMagM)
  in nuclear magnetons)

  Atom         1           2           3           4           5           6           7           8           9          10
 IAtWgt=          12          12          12          12          12           1           1           1           1           1
 AtmWgt=  12.0000000  12.0000000  12.0000000  12.0000000  12.0000000   1.0078250   1.0078250   1.0078250   1.0078250   1.0078250
 NucSpn=           0           0           0           0           0           1           1           1           1           1
 AtZEff=   0.0000000   0.0000000   0.0000000   0.0000000   0.0000000   0.0000000   0.0000000   0.0000000   0.0000000   0.0000000
 NQMom=    0.0000000   0.0000000   0.0000000   0.0000000   0.0000000   0.0000000   0.0000000   0.0000000   0.0000000   0.0000000
 NMagM=    0.0000000   0.0000000   0.0000000   0.0000000   0.0000000   2.7928460   2.7928460   2.7928460   2.7928460   2.7928460
 AtZNuc=   6.0000000   6.0000000   6.0000000   6.0000000   6.0000000   1.0000000   1.0000000   1.0000000   1.0000000   1.0000000

  Atom        11          12          13          14          15          16          17          18          19          20
 IAtWgt=          16          16          16          16          16          12           1           1          16          12
 AtmWgt=  15.9949146  15.9949146  15.9949146  15.9949146  15.9949146  12.0000000   1.0078250   1.0078250  15.9949146  12.0000000
 NucSpn=           0           0           0           0           0           0           1           1           0           0
 AtZEff=   0.0000000   0.0000000   0.0000000   0.0000000   0.0000000   0.0000000   0.0000000   0.0000000   0.0000000   0.0000000
 NQMom=    0.0000000   0.0000000   0.0000000   0.0000000   0.0000000   0.0000000   0.0000000   0.0000000   0.0000000   0.0000000
 NMagM=    0.0000000   0.0000000   0.0000000   0.0000000   0.0000000   0.0000000   2.7928460   2.7928460   0.0000000   0.0000000
 AtZNuc=   8.0000000   8.0000000   8.0000000   8.0000000   8.0000000   6.0000000   1.0000000   1.0000000   8.0000000   6.0000000

  Atom        21          22          23          24          25          26          27          28          29          30
 IAtWgt=           1           1           1          12           1           1           1          12           1           1
 AtmWgt=   1.0078250   1.0078250   1.0078250  12.0000000   1.0078250   1.0078250   1.0078250  12.0000000   1.0078250   1.0078250
 NucSpn=           1           1           1           0           1           1           1           0           1           1
 AtZEff=   0.0000000   0.0000000   0.0000000   0.0000000   0.0000000   0.0000000   0.0000000   0.0000000   0.0000000   0.0000000
 NQMom=    0.0000000   0.0000000   0.0000000   0.0000000   0.0000000   0.0000000   0.0000000   0.0000000   0.0000000   0.0000000
 NMagM=    2.7928460   2.7928460   2.7928460   0.0000000   2.7928460   2.7928460   2.7928460   0.0000000   2.7928460   2.7928460
 AtZNuc=   1.0000000   1.0000000   1.0000000   6.0000000   1.0000000   1.0000000   1.0000000   6.0000000   1.0000000   1.0000000

  Atom        31          32          33          34          35          36          37          38          39          40
 IAtWgt=           1          12          12          12          12          12           1           1           1           1
 AtmWgt=   1.0078250  12.0000000  12.0000000  12.0000000  12.0000000  12.0000000   1.0078250   1.0078250   1.0078250   1.0078250
 NucSpn=           1           0           0           0           0           0           1           1           1           1
 AtZEff=   0.0000000   0.0000000   0.0000000   0.0000000   0.0000000   0.0000000   0.0000000   0.0000000   0.0000000   0.0000000
 NQMom=    0.0000000   0.0000000   0.0000000   0.0000000   0.0000000   0.0000000   0.0000000   0.0000000   0.0000000   0.0000000
 NMagM=    2.7928460   0.0000000   0.0000000   0.0000000   0.0000000   0.0000000   2.7928460   2.7928460   2.7928460   2.7928460
 AtZNuc=   1.0000000   6.0000000   6.0000000   6.0000000   6.0000000   6.0000000   1.0000000   1.0000000   1.0000000   1.0000000

  Atom        41          42          43          44          45          46          47          48          49          50
 IAtWgt=           1          16          16          16          16          16          12           1           1          16
 AtmWgt=   1.0078250  15.9949146  15.9949146  15.9949146  15.9949146  15.9949146  12.0000000   1.0078250   1.0078250  15.9949146
 NucSpn=           1           0           0           0           0           0           0           1           1           0
 AtZEff=   0.0000000   0.0000000   0.0000000   0.0000000   0.0000000   0.0000000   0.0000000   0.0000000   0.0000000   0.0000000
 NQMom=    0.0000000   0.0000000   0.0000000   0.0000000   0.0000000   0.0000000   0.0000000   0.0000000   0.0000000   0.0000000
 NMagM=    2.7928460   0.0000000   0.0000000   0.0000000   0.0000000   0.0000000   0.0000000   2.7928460   2.7928460   0.0000000
 AtZNuc=   1.0000000   8.0000000   8.0000000   8.0000000   8.0000000   8.0000000   6.0000000   1.0000000   1.0000000   8.0000000

  Atom        51          52          53          54          55          56          57          58          59          60
 IAtWgt=          32          16          16          12          12          12          12           1          12           1
 AtmWgt=  31.9720718  15.9949146  15.9949146  12.0000000  12.0000000  12.0000000  12.0000000   1.0078250  12.0000000   1.0078250
 NucSpn=           0           0           0           0           0           0           0           1           0           1
 AtZEff=   0.0000000   0.0000000   0.0000000   0.0000000   0.0000000   0.0000000   0.0000000   0.0000000   0.0000000   0.0000000
 NQMom=    0.0000000   0.0000000   0.0000000   0.0000000   0.0000000   0.0000000   0.0000000   0.0000000   0.0000000   0.0000000
 NMagM=    0.0000000   0.0000000   0.0000000   0.0000000   0.0000000   0.0000000   0.0000000   2.7928460   0.0000000   2.7928460
 AtZNuc=  16.0000000   8.0000000   8.0000000   6.0000000   6.0000000   6.0000000   6.0000000   1.0000000   6.0000000   1.0000000

  Atom        61          62          63          64          65          66          67          68          69          70
 IAtWgt=          12           1          12           1           1           1          12           1           1           1
 AtmWgt=  12.0000000   1.0078250  12.0000000   1.0078250   1.0078250   1.0078250  12.0000000   1.0078250   1.0078250   1.0078250
 NucSpn=           0           1           0           1           1           1           0           1           1           1
 AtZEff=   0.0000000   0.0000000   0.0000000   0.0000000   0.0000000   0.0000000   0.0000000   0.0000000   0.0000000   0.0000000
 NQMom=    0.0000000   0.0000000   0.0000000   0.0000000   0.0000000   0.0000000   0.0000000   0.0000000   0.0000000   0.0000000
 NMagM=    0.0000000   2.7928460   0.0000000   2.7928460   2.7928460   2.7928460   0.0000000   2.7928460   2.7928460   2.7928460
 AtZNuc=   6.0000000   1.0000000   6.0000000   1.0000000   1.0000000   1.0000000   6.0000000   1.0000000   1.0000000   1.0000000

  Atom        71          72          73          74          75          76          77          78          79          80
 IAtWgt=          12           1           1           1          12           1           1           1          12           1
 AtmWgt=  12.0000000   1.0078250   1.0078250   1.0078250  12.0000000   1.0078250   1.0078250   1.0078250  12.0000000   1.0078250
 NucSpn=           0           1           1           1           0           1           1           1           0           1
 AtZEff=   0.0000000   0.0000000   0.0000000   0.0000000   0.0000000   0.0000000   0.0000000   0.0000000   0.0000000   0.0000000
 NQMom=    0.0000000   0.0000000   0.0000000   0.0000000   0.0000000   0.0000000   0.0000000   0.0000000   0.0000000   0.0000000
 NMagM=    0.0000000   2.7928460   2.7928460   2.7928460   0.0000000   2.7928460   2.7928460   2.7928460   0.0000000   2.7928460
 AtZNuc=   6.0000000   1.0000000   1.0000000   1.0000000   6.0000000   1.0000000   1.0000000   1.0000000   6.0000000   1.0000000

  Atom        81          82          83          84          85          86          87          88          89          90
 IAtWgt=           1           1          23          16          12           1           1           1          12           1
 AtmWgt=   1.0078250   1.0078250  22.9897697  15.9949146  12.0000000   1.0078250   1.0078250   1.0078250  12.0000000   1.0078250
 NucSpn=           1           1           3           0           0           1           1           1           0           1
 AtZEff=   0.0000000   0.0000000   0.0000000   0.0000000   0.0000000   0.0000000   0.0000000   0.0000000   0.0000000   0.0000000
 NQMom=    0.0000000   0.0000000  10.4000000   0.0000000   0.0000000   0.0000000   0.0000000   0.0000000   0.0000000   0.0000000
 NMagM=    2.7928460   2.7928460   2.2175200   0.0000000   0.0000000   2.7928460   2.7928460   2.7928460   0.0000000   2.7928460
 AtZNuc=   1.0000000   1.0000000  11.0000000   8.0000000   6.0000000   1.0000000   1.0000000   1.0000000   6.0000000   1.0000000

  Atom        91          92          93          94          95          96          97          98          99         100
 IAtWgt=           1           1          12          19          19          19          12          19          19          19
 AtmWgt=   1.0078250   1.0078250  12.0000000  18.9984033  18.9984033  18.9984033  12.0000000  18.9984033  18.9984033  18.9984033
 NucSpn=           1           1           0           1           1           1           0           1           1           1
 AtZEff=   0.0000000   0.0000000   0.0000000   0.0000000   0.0000000   0.0000000   0.0000000   0.0000000   0.0000000   0.0000000
 NQMom=    0.0000000   0.0000000   0.0000000   0.0000000   0.0000000   0.0000000   0.0000000   0.0000000   0.0000000   0.0000000
 NMagM=    2.7928460   2.7928460   0.0000000   2.6288670   2.6288670   2.6288670   0.0000000   2.6288670   2.6288670   2.6288670
 AtZNuc=   1.0000000   1.0000000   6.0000000   9.0000000   9.0000000   9.0000000   6.0000000   9.0000000   9.0000000   9.0000000
 Leave Link  101 at Mon May 27 07:06:06 2019, MaxMem=  6442450944 cpu:              16.1 elap:               0.8
 (Enter /home/ekwan/sw/g16/l103.exe)

 GradGradGradGradGradGradGradGradGradGradGradGradGradGradGradGradGradGrad
 Berny optimization.
 Initialization pass.
                           ----------------------------
                           !    Initial Parameters    !
                           ! (Angstroms and Degrees)  !
 --------------------------                            --------------------------
 ! Name  Definition              Value          Derivative Info.                !
 --------------------------------------------------------------------------------
 ! R1    R(1,2)                  1.5305         calculate D2E/DX2 analytically  !
 ! R2    R(1,5)                  1.5267         calculate D2E/DX2 analytically  !
 ! R3    R(1,8)                  1.0979         calculate D2E/DX2 analytically  !
 ! R4    R(1,14)                 1.4238         calculate D2E/DX2 analytically  !
 ! R5    R(2,3)                  1.539          calculate D2E/DX2 analytically  !
 ! R6    R(2,7)                  1.0996         calculate D2E/DX2 analytically  !
 ! R7    R(2,13)                 1.4177         calculate D2E/DX2 analytically  !
 ! R8    R(3,6)                  1.0978         calculate D2E/DX2 analytically  !
 ! R9    R(3,11)                 1.4227         calculate D2E/DX2 analytically  !
 ! R10   R(3,12)                 1.3962         calculate D2E/DX2 analytically  !
 ! R11   R(4,5)                  1.5301         calculate D2E/DX2 analytically  !
 ! R12   R(4,9)                  1.0969         calculate D2E/DX2 analytically  !
 ! R13   R(4,11)                 1.4525         calculate D2E/DX2 analytically  !
 ! R14   R(4,16)                 1.538          calculate D2E/DX2 analytically  !
 ! R15   R(5,10)                 1.0974         calculate D2E/DX2 analytically  !
 ! R16   R(5,15)                 1.4225         calculate D2E/DX2 analytically  !
 ! R17   R(7,84)                 2.4655         calculate D2E/DX2 analytically  !
 ! R18   R(12,79)                1.4252         calculate D2E/DX2 analytically  !
 ! R19   R(13,20)                1.4175         calculate D2E/DX2 analytically  !
 ! R20   R(14,24)                1.4198         calculate D2E/DX2 analytically  !
 ! R21   R(15,28)                1.4208         calculate D2E/DX2 analytically  !
 ! R22   R(16,17)                1.1101         calculate D2E/DX2 analytically  !
 ! R23   R(16,18)                1.1154         calculate D2E/DX2 analytically  !
 ! R24   R(16,19)                1.3736         calculate D2E/DX2 analytically  !
 ! R25   R(19,37)                1.9352         calculate D2E/DX2 analytically  !
 ! R26   R(19,83)                2.2071         calculate D2E/DX2 analytically  !
 ! R27   R(20,21)                1.0988         calculate D2E/DX2 analytically  !
 ! R28   R(20,22)                1.1            calculate D2E/DX2 analytically  !
 ! R29   R(20,23)                1.0924         calculate D2E/DX2 analytically  !
 ! R30   R(24,25)                1.0998         calculate D2E/DX2 analytically  !
 ! R31   R(24,26)                1.0955         calculate D2E/DX2 analytically  !
 ! R32   R(24,27)                1.0934         calculate D2E/DX2 analytically  !
 ! R33   R(28,29)                1.0991         calculate D2E/DX2 analytically  !
 ! R34   R(28,30)                1.0976         calculate D2E/DX2 analytically  !
 ! R35   R(28,31)                1.0934         calculate D2E/DX2 analytically  !
 ! R36   R(32,33)                1.5381         calculate D2E/DX2 analytically  !
 ! R37   R(32,36)                1.5458         calculate D2E/DX2 analytically  !
 ! R38   R(32,39)                1.0951         calculate D2E/DX2 analytically  !
 ! R39   R(32,45)                1.4129         calculate D2E/DX2 analytically  !
 ! R40   R(33,34)                1.5024         calculate D2E/DX2 analytically  !
 ! R41   R(33,38)                1.1025         calculate D2E/DX2 analytically  !
 ! R42   R(33,44)                1.3991         calculate D2E/DX2 analytically  !
 ! R43   R(34,37)                1.074          calculate D2E/DX2 analytically  !
 ! R44   R(34,42)                1.2819         calculate D2E/DX2 analytically  !
 ! R45   R(34,53)                2.23           calculate D2E/DX2 analytically  !
 ! R46   R(35,36)                1.5329         calculate D2E/DX2 analytically  !
 ! R47   R(35,40)                1.0888         calculate D2E/DX2 analytically  !
 ! R48   R(35,42)                1.4712         calculate D2E/DX2 analytically  !
 ! R49   R(35,47)                1.529          calculate D2E/DX2 analytically  !
 ! R50   R(36,41)                1.099          calculate D2E/DX2 analytically  !
 ! R51   R(36,46)                1.4173         calculate D2E/DX2 analytically  !
 ! R52   R(37,43)                2.31           calculate D2E/DX2 analytically  !
 ! R53   R(37,53)                2.387          calculate D2E/DX2 analytically  !
 ! R54   R(39,53)                2.3474         calculate D2E/DX2 analytically  !
 ! R55   R(43,51)                1.4951         calculate D2E/DX2 analytically  !
 ! R56   R(43,83)                2.3144         calculate D2E/DX2 analytically  !
 ! R57   R(44,63)                1.4311         calculate D2E/DX2 analytically  !
 ! R58   R(45,67)                1.4271         calculate D2E/DX2 analytically  !
 ! R59   R(46,71)                1.4208         calculate D2E/DX2 analytically  !
 ! R60   R(47,48)                1.0998         calculate D2E/DX2 analytically  !
 ! R61   R(47,49)                1.101          calculate D2E/DX2 analytically  !
 ! R62   R(47,50)                1.4082         calculate D2E/DX2 analytically  !
 ! R63   R(50,75)                1.42           calculate D2E/DX2 analytically  !
 ! R64   R(51,52)                1.4735         calculate D2E/DX2 analytically  !
 ! R65   R(51,53)                1.5086         calculate D2E/DX2 analytically  !
 ! R66   R(51,54)                1.8001         calculate D2E/DX2 analytically  !
 ! R67   R(54,55)                1.3892         calculate D2E/DX2 analytically  !
 ! R68   R(54,56)                1.3933         calculate D2E/DX2 analytically  !
 ! R69   R(55,57)                1.3973         calculate D2E/DX2 analytically  !
 ! R70   R(55,58)                1.0844         calculate D2E/DX2 analytically  !
 ! R71   R(56,59)                1.3912         calculate D2E/DX2 analytically  !
 ! R72   R(56,60)                1.0809         calculate D2E/DX2 analytically  !
 ! R73   R(57,61)                1.3915         calculate D2E/DX2 analytically  !
 ! R74   R(57,93)                1.5016         calculate D2E/DX2 analytically  !
 ! R75   R(59,61)                1.3983         calculate D2E/DX2 analytically  !
 ! R76   R(59,97)                1.5027         calculate D2E/DX2 analytically  !
 ! R77   R(61,62)                1.0832         calculate D2E/DX2 analytically  !
 ! R78   R(63,64)                1.093          calculate D2E/DX2 analytically  !
 ! R79   R(63,65)                1.0985         calculate D2E/DX2 analytically  !
 ! R80   R(63,66)                1.0901         calculate D2E/DX2 analytically  !
 ! R81   R(67,68)                1.0992         calculate D2E/DX2 analytically  !
 ! R82   R(67,69)                1.0918         calculate D2E/DX2 analytically  !
 ! R83   R(67,70)                1.0926         calculate D2E/DX2 analytically  !
 ! R84   R(71,72)                1.0978         calculate D2E/DX2 analytically  !
 ! R85   R(71,73)                1.0991         calculate D2E/DX2 analytically  !
 ! R86   R(71,74)                1.0918         calculate D2E/DX2 analytically  !
 ! R87   R(75,76)                1.0917         calculate D2E/DX2 analytically  !
 ! R88   R(75,77)                1.0995         calculate D2E/DX2 analytically  !
 ! R89   R(75,78)                1.0993         calculate D2E/DX2 analytically  !
 ! R90   R(79,80)                1.0916         calculate D2E/DX2 analytically  !
 ! R91   R(79,81)                1.096          calculate D2E/DX2 analytically  !
 ! R92   R(79,82)                1.0991         calculate D2E/DX2 analytically  !
 ! R93   R(83,84)                2.3272         calculate D2E/DX2 analytically  !
 ! R94   R(84,85)                1.4266         calculate D2E/DX2 analytically  !
 ! R95   R(84,89)                1.4224         calculate D2E/DX2 analytically  !
 ! R96   R(85,86)                1.0966         calculate D2E/DX2 analytically  !
 ! R97   R(85,87)                1.0918         calculate D2E/DX2 analytically  !
 ! R98   R(85,88)                1.0975         calculate D2E/DX2 analytically  !
 ! R99   R(89,90)                1.0978         calculate D2E/DX2 analytically  !
 ! R100  R(89,91)                1.0899         calculate D2E/DX2 analytically  !
 ! R101  R(89,92)                1.0986         calculate D2E/DX2 analytically  !
 ! R102  R(93,94)                1.3515         calculate D2E/DX2 analytically  !
 ! R103  R(93,95)                1.3434         calculate D2E/DX2 analytically  !
 ! R104  R(93,96)                1.3661         calculate D2E/DX2 analytically  !
 ! R105  R(97,98)                1.3487         calculate D2E/DX2 analytically  !
 ! R106  R(97,99)                1.3591         calculate D2E/DX2 analytically  !
 ! R107  R(97,100)               1.3495         calculate D2E/DX2 analytically  !
 ! A1    A(2,1,5)              111.2715         calculate D2E/DX2 analytically  !
 ! A2    A(2,1,8)              109.1071         calculate D2E/DX2 analytically  !
 ! A3    A(2,1,14)             110.0714         calculate D2E/DX2 analytically  !
 ! A4    A(5,1,8)              108.6217         calculate D2E/DX2 analytically  !
 ! A5    A(5,1,14)             107.4835         calculate D2E/DX2 analytically  !
 ! A6    A(8,1,14)             110.265          calculate D2E/DX2 analytically  !
 ! A7    A(1,2,3)              111.9022         calculate D2E/DX2 analytically  !
 ! A8    A(1,2,7)              107.9459         calculate D2E/DX2 analytically  !
 ! A9    A(1,2,13)             107.9265         calculate D2E/DX2 analytically  !
 ! A10   A(3,2,7)              106.6092         calculate D2E/DX2 analytically  !
 ! A11   A(3,2,13)             112.4597         calculate D2E/DX2 analytically  !
 ! A12   A(7,2,13)             109.9053         calculate D2E/DX2 analytically  !
 ! A13   A(2,3,6)              111.3823         calculate D2E/DX2 analytically  !
 ! A14   A(2,3,11)             109.9841         calculate D2E/DX2 analytically  !
 ! A15   A(2,3,12)             108.8686         calculate D2E/DX2 analytically  !
 ! A16   A(6,3,11)             103.8368         calculate D2E/DX2 analytically  !
 ! A17   A(6,3,12)             110.0687         calculate D2E/DX2 analytically  !
 ! A18   A(11,3,12)            112.6628         calculate D2E/DX2 analytically  !
 ! A19   A(5,4,9)              109.012          calculate D2E/DX2 analytically  !
 ! A20   A(5,4,11)             108.3876         calculate D2E/DX2 analytically  !
 ! A21   A(5,4,16)             113.9391         calculate D2E/DX2 analytically  !
 ! A22   A(9,4,11)             108.759          calculate D2E/DX2 analytically  !
 ! A23   A(9,4,16)             109.6145         calculate D2E/DX2 analytically  !
 ! A24   A(11,4,16)            106.9987         calculate D2E/DX2 analytically  !
 ! A25   A(1,5,4)              111.7772         calculate D2E/DX2 analytically  !
 ! A26   A(1,5,10)             108.1807         calculate D2E/DX2 analytically  !
 ! A27   A(1,5,15)             108.8096         calculate D2E/DX2 analytically  !
 ! A28   A(4,5,10)             108.8827         calculate D2E/DX2 analytically  !
 ! A29   A(4,5,15)             109.4167         calculate D2E/DX2 analytically  !
 ! A30   A(10,5,15)            109.75           calculate D2E/DX2 analytically  !
 ! A31   A(2,7,84)             148.4839         calculate D2E/DX2 analytically  !
 ! A32   A(3,11,4)             113.9719         calculate D2E/DX2 analytically  !
 ! A33   A(3,12,79)            113.1275         calculate D2E/DX2 analytically  !
 ! A34   A(2,13,20)            113.9235         calculate D2E/DX2 analytically  !
 ! A35   A(1,14,24)            114.5748         calculate D2E/DX2 analytically  !
 ! A36   A(5,15,28)            113.3398         calculate D2E/DX2 analytically  !
 ! A37   A(4,16,17)            105.2352         calculate D2E/DX2 analytically  !
 ! A38   A(4,16,18)            105.1306         calculate D2E/DX2 analytically  !
 ! A39   A(4,16,19)            113.7148         calculate D2E/DX2 analytically  !
 ! A40   A(17,16,18)           105.1405         calculate D2E/DX2 analytically  !
 ! A41   A(17,16,19)           113.6894         calculate D2E/DX2 analytically  !
 ! A42   A(18,16,19)           113.0684         calculate D2E/DX2 analytically  !
 ! A43   A(16,19,37)           155.2198         calculate D2E/DX2 analytically  !
 ! A44   A(16,19,83)           113.0762         calculate D2E/DX2 analytically  !
 ! A45   A(37,19,83)            76.9864         calculate D2E/DX2 analytically  !
 ! A46   A(13,20,21)           112.2575         calculate D2E/DX2 analytically  !
 ! A47   A(13,20,22)           111.2488         calculate D2E/DX2 analytically  !
 ! A48   A(13,20,23)           106.8639         calculate D2E/DX2 analytically  !
 ! A49   A(21,20,22)           108.6583         calculate D2E/DX2 analytically  !
 ! A50   A(21,20,23)           108.6426         calculate D2E/DX2 analytically  !
 ! A51   A(22,20,23)           109.0878         calculate D2E/DX2 analytically  !
 ! A52   A(14,24,25)           111.0569         calculate D2E/DX2 analytically  !
 ! A53   A(14,24,26)           111.6144         calculate D2E/DX2 analytically  !
 ! A54   A(14,24,27)           106.673          calculate D2E/DX2 analytically  !
 ! A55   A(25,24,26)           109.1076         calculate D2E/DX2 analytically  !
 ! A56   A(25,24,27)           108.8455         calculate D2E/DX2 analytically  !
 ! A57   A(26,24,27)           109.4755         calculate D2E/DX2 analytically  !
 ! A58   A(15,28,29)           110.9661         calculate D2E/DX2 analytically  !
 ! A59   A(15,28,30)           111.3076         calculate D2E/DX2 analytically  !
 ! A60   A(15,28,31)           106.9374         calculate D2E/DX2 analytically  !
 ! A61   A(29,28,30)           109.0078         calculate D2E/DX2 analytically  !
 ! A62   A(29,28,31)           109.0604         calculate D2E/DX2 analytically  !
 ! A63   A(30,28,31)           109.5138         calculate D2E/DX2 analytically  !
 ! A64   A(33,32,36)           111.8083         calculate D2E/DX2 analytically  !
 ! A65   A(33,32,39)           106.562          calculate D2E/DX2 analytically  !
 ! A66   A(33,32,45)           111.7876         calculate D2E/DX2 analytically  !
 ! A67   A(36,32,39)           107.9806         calculate D2E/DX2 analytically  !
 ! A68   A(36,32,45)           107.6116         calculate D2E/DX2 analytically  !
 ! A69   A(39,32,45)           111.0611         calculate D2E/DX2 analytically  !
 ! A70   A(32,33,34)           109.7925         calculate D2E/DX2 analytically  !
 ! A71   A(32,33,38)           108.2251         calculate D2E/DX2 analytically  !
 ! A72   A(32,33,44)           109.2058         calculate D2E/DX2 analytically  !
 ! A73   A(34,33,38)           106.5661         calculate D2E/DX2 analytically  !
 ! A74   A(34,33,44)           112.432          calculate D2E/DX2 analytically  !
 ! A75   A(38,33,44)           110.5136         calculate D2E/DX2 analytically  !
 ! A76   A(33,34,37)           122.7159         calculate D2E/DX2 analytically  !
 ! A77   A(33,34,42)           120.6            calculate D2E/DX2 analytically  !
 ! A78   A(33,34,53)            96.3208         calculate D2E/DX2 analytically  !
 ! A79   A(37,34,42)           115.2496         calculate D2E/DX2 analytically  !
 ! A80   A(42,34,53)           100.6672         calculate D2E/DX2 analytically  !
 ! A81   A(36,35,40)           108.0991         calculate D2E/DX2 analytically  !
 ! A82   A(36,35,42)           114.2379         calculate D2E/DX2 analytically  !
 ! A83   A(36,35,47)           114.3816         calculate D2E/DX2 analytically  !
 ! A84   A(40,35,42)           103.5743         calculate D2E/DX2 analytically  !
 ! A85   A(40,35,47)           109.118          calculate D2E/DX2 analytically  !
 ! A86   A(42,35,47)           106.816          calculate D2E/DX2 analytically  !
 ! A87   A(32,36,35)           115.374          calculate D2E/DX2 analytically  !
 ! A88   A(32,36,41)           106.9274         calculate D2E/DX2 analytically  !
 ! A89   A(32,36,46)           111.7688         calculate D2E/DX2 analytically  !
 ! A90   A(35,36,41)           106.3988         calculate D2E/DX2 analytically  !
 ! A91   A(35,36,46)           106.3695         calculate D2E/DX2 analytically  !
 ! A92   A(41,36,46)           109.8253         calculate D2E/DX2 analytically  !
 ! A93   A(19,37,34)           118.1521         calculate D2E/DX2 analytically  !
 ! A94   A(19,37,43)           110.7887         calculate D2E/DX2 analytically  !
 ! A95   A(34,37,43)           129.9591         calculate D2E/DX2 analytically  !
 ! A96   A(43,37,53)            63.9852         calculate D2E/DX2 analytically  !
 ! A97   A(32,39,53)           114.702          calculate D2E/DX2 analytically  !
 ! A98   A(34,42,35)           120.2786         calculate D2E/DX2 analytically  !
 ! A99   A(37,43,51)            89.4756         calculate D2E/DX2 analytically  !
 ! A100  A(37,43,83)            68.0334         calculate D2E/DX2 analytically  !
 ! A101  A(51,43,83)           136.4226         calculate D2E/DX2 analytically  !
 ! A102  A(33,44,63)           114.5912         calculate D2E/DX2 analytically  !
 ! A103  A(32,45,67)           115.1085         calculate D2E/DX2 analytically  !
 ! A104  A(36,46,71)           113.4874         calculate D2E/DX2 analytically  !
 ! A105  A(35,47,48)           109.0209         calculate D2E/DX2 analytically  !
 ! A106  A(35,47,49)           111.3521         calculate D2E/DX2 analytically  !
 ! A107  A(35,47,50)           106.3109         calculate D2E/DX2 analytically  !
 ! A108  A(48,47,49)           107.6588         calculate D2E/DX2 analytically  !
 ! A109  A(48,47,50)           111.6403         calculate D2E/DX2 analytically  !
 ! A110  A(49,47,50)           110.8834         calculate D2E/DX2 analytically  !
 ! A111  A(47,50,75)           112.4053         calculate D2E/DX2 analytically  !
 ! A112  A(43,51,52)           114.6271         calculate D2E/DX2 analytically  !
 ! A113  A(43,51,53)           111.9405         calculate D2E/DX2 analytically  !
 ! A114  A(43,51,54)           103.7182         calculate D2E/DX2 analytically  !
 ! A115  A(52,51,53)           113.0324         calculate D2E/DX2 analytically  !
 ! A116  A(52,51,54)           107.9925         calculate D2E/DX2 analytically  !
 ! A117  A(53,51,54)           104.4704         calculate D2E/DX2 analytically  !
 ! A118  A(34,53,39)            74.3058         calculate D2E/DX2 analytically  !
 ! A119  A(34,53,51)           112.9105         calculate D2E/DX2 analytically  !
 ! A120  A(37,53,39)            97.846          calculate D2E/DX2 analytically  !
 ! A121  A(37,53,51)            86.2919         calculate D2E/DX2 analytically  !
 ! A122  A(39,53,51)           150.9828         calculate D2E/DX2 analytically  !
 ! A123  A(51,54,55)           119.2142         calculate D2E/DX2 analytically  !
 ! A124  A(51,54,56)           119.8907         calculate D2E/DX2 analytically  !
 ! A125  A(55,54,56)           120.795          calculate D2E/DX2 analytically  !
 ! A126  A(54,55,57)           119.4947         calculate D2E/DX2 analytically  !
 ! A127  A(54,55,58)           119.8119         calculate D2E/DX2 analytically  !
 ! A128  A(57,55,58)           120.6583         calculate D2E/DX2 analytically  !
 ! A129  A(54,56,59)           119.124          calculate D2E/DX2 analytically  !
 ! A130  A(54,56,60)           120.041          calculate D2E/DX2 analytically  !
 ! A131  A(59,56,60)           120.7685         calculate D2E/DX2 analytically  !
 ! A132  A(55,57,61)           120.4891         calculate D2E/DX2 analytically  !
 ! A133  A(55,57,93)           118.0762         calculate D2E/DX2 analytically  !
 ! A134  A(61,57,93)           121.3157         calculate D2E/DX2 analytically  !
 ! A135  A(56,59,61)           120.8977         calculate D2E/DX2 analytically  !
 ! A136  A(56,59,97)           119.689          calculate D2E/DX2 analytically  !
 ! A137  A(61,59,97)           119.0669         calculate D2E/DX2 analytically  !
 ! A138  A(57,61,59)           119.1635         calculate D2E/DX2 analytically  !
 ! A139  A(57,61,62)           120.3916         calculate D2E/DX2 analytically  !
 ! A140  A(59,61,62)           120.4387         calculate D2E/DX2 analytically  !
 ! A141  A(44,63,64)           110.4759         calculate D2E/DX2 analytically  !
 ! A142  A(44,63,65)           110.2472         calculate D2E/DX2 analytically  !
 ! A143  A(44,63,66)           105.9838         calculate D2E/DX2 analytically  !
 ! A144  A(64,63,65)           109.4135         calculate D2E/DX2 analytically  !
 ! A145  A(64,63,66)           111.3842         calculate D2E/DX2 analytically  !
 ! A146  A(65,63,66)           109.2881         calculate D2E/DX2 analytically  !
 ! A147  A(45,67,68)           110.8524         calculate D2E/DX2 analytically  !
 ! A148  A(45,67,69)           112.0191         calculate D2E/DX2 analytically  !
 ! A149  A(45,67,70)           106.1979         calculate D2E/DX2 analytically  !
 ! A150  A(68,67,69)           108.6733         calculate D2E/DX2 analytically  !
 ! A151  A(68,67,70)           109.0561         calculate D2E/DX2 analytically  !
 ! A152  A(69,67,70)           109.9919         calculate D2E/DX2 analytically  !
 ! A153  A(46,71,72)           112.1259         calculate D2E/DX2 analytically  !
 ! A154  A(46,71,73)           111.0716         calculate D2E/DX2 analytically  !
 ! A155  A(46,71,74)           106.491          calculate D2E/DX2 analytically  !
 ! A156  A(72,71,73)           108.586          calculate D2E/DX2 analytically  !
 ! A157  A(72,71,74)           108.9294         calculate D2E/DX2 analytically  !
 ! A158  A(73,71,74)           109.5855         calculate D2E/DX2 analytically  !
 ! A159  A(50,75,76)           106.8711         calculate D2E/DX2 analytically  !
 ! A160  A(50,75,77)           111.2144         calculate D2E/DX2 analytically  !
 ! A161  A(50,75,78)           111.2439         calculate D2E/DX2 analytically  !
 ! A162  A(76,75,77)           109.3495         calculate D2E/DX2 analytically  !
 ! A163  A(76,75,78)           109.3416         calculate D2E/DX2 analytically  !
 ! A164  A(77,75,78)           108.7801         calculate D2E/DX2 analytically  !
 ! A165  A(12,79,80)           106.7366         calculate D2E/DX2 analytically  !
 ! A166  A(12,79,81)           111.4353         calculate D2E/DX2 analytically  !
 ! A167  A(12,79,82)           110.7693         calculate D2E/DX2 analytically  !
 ! A168  A(80,79,81)           109.5523         calculate D2E/DX2 analytically  !
 ! A169  A(80,79,82)           109.5248         calculate D2E/DX2 analytically  !
 ! A170  A(81,79,82)           108.7915         calculate D2E/DX2 analytically  !
 ! A171  A(19,83,43)           101.4374         calculate D2E/DX2 analytically  !
 ! A172  A(19,83,84)           158.0851         calculate D2E/DX2 analytically  !
 ! A173  A(43,83,84)            88.5411         calculate D2E/DX2 analytically  !
 ! A174  A(7,84,83)             83.5072         calculate D2E/DX2 analytically  !
 ! A175  A(7,84,85)            110.0606         calculate D2E/DX2 analytically  !
 ! A176  A(7,84,89)            103.5125         calculate D2E/DX2 analytically  !
 ! A177  A(83,84,85)           112.0122         calculate D2E/DX2 analytically  !
 ! A178  A(83,84,89)           129.2753         calculate D2E/DX2 analytically  !
 ! A179  A(85,84,89)           112.1189         calculate D2E/DX2 analytically  !
 ! A180  A(84,85,86)           110.7096         calculate D2E/DX2 analytically  !
 ! A181  A(84,85,87)           107.327          calculate D2E/DX2 analytically  !
 ! A182  A(84,85,88)           110.3673         calculate D2E/DX2 analytically  !
 ! A183  A(86,85,87)           109.3055         calculate D2E/DX2 analytically  !
 ! A184  A(86,85,88)           109.7311         calculate D2E/DX2 analytically  !
 ! A185  A(87,85,88)           109.3538         calculate D2E/DX2 analytically  !
 ! A186  A(84,89,90)           110.6598         calculate D2E/DX2 analytically  !
 ! A187  A(84,89,91)           107.4214         calculate D2E/DX2 analytically  !
 ! A188  A(84,89,92)           110.9607         calculate D2E/DX2 analytically  !
 ! A189  A(90,89,91)           109.4858         calculate D2E/DX2 analytically  !
 ! A190  A(90,89,92)           108.906          calculate D2E/DX2 analytically  !
 ! A191  A(91,89,92)           109.3809         calculate D2E/DX2 analytically  !
 ! A192  A(57,93,94)           111.9745         calculate D2E/DX2 analytically  !
 ! A193  A(57,93,95)           112.9542         calculate D2E/DX2 analytically  !
 ! A194  A(57,93,96)           110.4665         calculate D2E/DX2 analytically  !
 ! A195  A(94,93,95)           107.8577         calculate D2E/DX2 analytically  !
 ! A196  A(94,93,96)           106.0442         calculate D2E/DX2 analytically  !
 ! A197  A(95,93,96)           107.1903         calculate D2E/DX2 analytically  !
 ! A198  A(59,97,98)           112.3387         calculate D2E/DX2 analytically  !
 ! A199  A(59,97,99)           110.8462         calculate D2E/DX2 analytically  !
 ! A200  A(59,97,100)          112.0167         calculate D2E/DX2 analytically  !
 ! A201  A(98,97,99)           106.8835         calculate D2E/DX2 analytically  !
 ! A202  A(98,97,100)          107.8291         calculate D2E/DX2 analytically  !
 ! A203  A(99,97,100)          106.616          calculate D2E/DX2 analytically  !
 ! A204  L(19,37,53,43,-1)     174.7739         calculate D2E/DX2 analytically  !
 ! A205  L(19,37,53,43,-2)     172.637          calculate D2E/DX2 analytically  !
 ! D1    D(5,1,2,3)            -47.8482         calculate D2E/DX2 analytically  !
 ! D2    D(5,1,2,7)             69.1553         calculate D2E/DX2 analytically  !
 ! D3    D(5,1,2,13)          -172.0996         calculate D2E/DX2 analytically  !
 ! D4    D(8,1,2,3)             71.987          calculate D2E/DX2 analytically  !
 ! D5    D(8,1,2,7)           -171.0095         calculate D2E/DX2 analytically  !
 ! D6    D(8,1,2,13)           -52.2643         calculate D2E/DX2 analytically  !
 ! D7    D(14,1,2,3)          -166.8928         calculate D2E/DX2 analytically  !
 ! D8    D(14,1,2,7)           -49.8893         calculate D2E/DX2 analytically  !
 ! D9    D(14,1,2,13)           68.8559         calculate D2E/DX2 analytically  !
 ! D10   D(2,1,5,4)             50.0698         calculate D2E/DX2 analytically  !
 ! D11   D(2,1,5,10)           -69.7993         calculate D2E/DX2 analytically  !
 ! D12   D(2,1,5,15)           171.0177         calculate D2E/DX2 analytically  !
 ! D13   D(8,1,5,4)            -70.053          calculate D2E/DX2 analytically  !
 ! D14   D(8,1,5,10)           170.078          calculate D2E/DX2 analytically  !
 ! D15   D(8,1,5,15)            50.895          calculate D2E/DX2 analytically  !
 ! D16   D(14,1,5,4)           170.65           calculate D2E/DX2 analytically  !
 ! D17   D(14,1,5,10)           50.781          calculate D2E/DX2 analytically  !
 ! D18   D(14,1,5,15)          -68.402          calculate D2E/DX2 analytically  !
 ! D19   D(2,1,14,24)          -99.0089         calculate D2E/DX2 analytically  !
 ! D20   D(5,1,14,24)          139.656          calculate D2E/DX2 analytically  !
 ! D21   D(8,1,14,24)           21.4156         calculate D2E/DX2 analytically  !
 ! D22   D(1,2,3,6)            167.0529         calculate D2E/DX2 analytically  !
 ! D23   D(1,2,3,11)            52.491          calculate D2E/DX2 analytically  !
 ! D24   D(1,2,3,12)           -71.3964         calculate D2E/DX2 analytically  !
 ! D25   D(7,2,3,6)             49.2473         calculate D2E/DX2 analytically  !
 ! D26   D(7,2,3,11)           -65.3146         calculate D2E/DX2 analytically  !
 ! D27   D(7,2,3,12)           170.798          calculate D2E/DX2 analytically  !
 ! D28   D(13,2,3,6)           -71.2674         calculate D2E/DX2 analytically  !
 ! D29   D(13,2,3,11)          174.1707         calculate D2E/DX2 analytically  !
 ! D30   D(13,2,3,12)           50.2833         calculate D2E/DX2 analytically  !
 ! D31   D(1,2,7,84)          -119.6466         calculate D2E/DX2 analytically  !
 ! D32   D(3,2,7,84)             0.7366         calculate D2E/DX2 analytically  !
 ! D33   D(13,2,7,84)          122.8778         calculate D2E/DX2 analytically  !
 ! D34   D(1,2,13,20)         -161.3499         calculate D2E/DX2 analytically  !
 ! D35   D(3,2,13,20)           74.7347         calculate D2E/DX2 analytically  !
 ! D36   D(7,2,13,20)          -43.8622         calculate D2E/DX2 analytically  !
 ! D37   D(2,3,11,4)           -61.5862         calculate D2E/DX2 analytically  !
 ! D38   D(6,3,11,4)           179.1315         calculate D2E/DX2 analytically  !
 ! D39   D(12,3,11,4)           60.0656         calculate D2E/DX2 analytically  !
 ! D40   D(2,3,12,79)         -174.2484         calculate D2E/DX2 analytically  !
 ! D41   D(6,3,12,79)          -51.9007         calculate D2E/DX2 analytically  !
 ! D42   D(11,3,12,79)          63.4693         calculate D2E/DX2 analytically  !
 ! D43   D(9,4,5,1)             62.5594         calculate D2E/DX2 analytically  !
 ! D44   D(9,4,5,10)          -177.9847         calculate D2E/DX2 analytically  !
 ! D45   D(9,4,5,15)           -58.0352         calculate D2E/DX2 analytically  !
 ! D46   D(11,4,5,1)           -55.6685         calculate D2E/DX2 analytically  !
 ! D47   D(11,4,5,10)           63.7873         calculate D2E/DX2 analytically  !
 ! D48   D(11,4,5,15)         -176.2631         calculate D2E/DX2 analytically  !
 ! D49   D(16,4,5,1)          -174.6584         calculate D2E/DX2 analytically  !
 ! D50   D(16,4,5,10)          -55.2026         calculate D2E/DX2 analytically  !
 ! D51   D(16,4,5,15)           64.747          calculate D2E/DX2 analytically  !
 ! D52   D(5,4,11,3)            63.0574         calculate D2E/DX2 analytically  !
 ! D53   D(9,4,11,3)           -55.3313         calculate D2E/DX2 analytically  !
 ! D54   D(16,4,11,3)         -173.6611         calculate D2E/DX2 analytically  !
 ! D55   D(5,4,16,17)          -63.1153         calculate D2E/DX2 analytically  !
 ! D56   D(5,4,16,18)         -173.8515         calculate D2E/DX2 analytically  !
 ! D57   D(5,4,16,19)           61.9464         calculate D2E/DX2 analytically  !
 ! D58   D(9,4,16,17)           59.3369         calculate D2E/DX2 analytically  !
 ! D59   D(9,4,16,18)          -51.3992         calculate D2E/DX2 analytically  !
 ! D60   D(9,4,16,19)         -175.6014         calculate D2E/DX2 analytically  !
 ! D61   D(11,4,16,17)         177.108          calculate D2E/DX2 analytically  !
 ! D62   D(11,4,16,18)          66.3718         calculate D2E/DX2 analytically  !
 ! D63   D(11,4,16,19)         -57.8303         calculate D2E/DX2 analytically  !
 ! D64   D(1,5,15,28)          126.6807         calculate D2E/DX2 analytically  !
 ! D65   D(4,5,15,28)         -110.933          calculate D2E/DX2 analytically  !
 ! D66   D(10,5,15,28)           8.4832         calculate D2E/DX2 analytically  !
 ! D67   D(2,7,84,83)           52.1828         calculate D2E/DX2 analytically  !
 ! D68   D(2,7,84,85)          163.2847         calculate D2E/DX2 analytically  !
 ! D69   D(2,7,84,89)          -76.7143         calculate D2E/DX2 analytically  !
 ! D70   D(3,12,79,80)         170.8995         calculate D2E/DX2 analytically  !
 ! D71   D(3,12,79,81)         -69.5296         calculate D2E/DX2 analytically  !
 ! D72   D(3,12,79,82)          51.7363         calculate D2E/DX2 analytically  !
 ! D73   D(2,13,20,21)         -66.2655         calculate D2E/DX2 analytically  !
 ! D74   D(2,13,20,22)          55.7426         calculate D2E/DX2 analytically  !
 ! D75   D(2,13,20,23)         174.7231         calculate D2E/DX2 analytically  !
 ! D76   D(1,14,24,25)         -59.7299         calculate D2E/DX2 analytically  !
 ! D77   D(1,14,24,26)          62.2649         calculate D2E/DX2 analytically  !
 ! D78   D(1,14,24,27)        -178.1954         calculate D2E/DX2 analytically  !
 ! D79   D(5,15,28,29)         -66.6744         calculate D2E/DX2 analytically  !
 ! D80   D(5,15,28,30)          54.9156         calculate D2E/DX2 analytically  !
 ! D81   D(5,15,28,31)         174.4918         calculate D2E/DX2 analytically  !
 ! D82   D(4,16,19,37)         138.3289         calculate D2E/DX2 analytically  !
 ! D83   D(4,16,19,83)          28.5186         calculate D2E/DX2 analytically  !
 ! D84   D(17,16,19,37)       -101.2626         calculate D2E/DX2 analytically  !
 ! D85   D(17,16,19,83)        148.9271         calculate D2E/DX2 analytically  !
 ! D86   D(18,16,19,37)         18.5302         calculate D2E/DX2 analytically  !
 ! D87   D(18,16,19,83)        -91.2801         calculate D2E/DX2 analytically  !
 ! D88   D(16,19,37,34)         59.9355         calculate D2E/DX2 analytically  !
 ! D89   D(16,19,37,43)       -130.8636         calculate D2E/DX2 analytically  !
 ! D90   D(83,19,37,34)        177.2682         calculate D2E/DX2 analytically  !
 ! D91   D(83,19,37,43)        -13.5309         calculate D2E/DX2 analytically  !
 ! D92   D(16,19,53,39)         43.6726         calculate D2E/DX2 analytically  !
 ! D93   D(16,19,53,51)       -107.1308         calculate D2E/DX2 analytically  !
 ! D94   D(83,19,53,39)        152.1462         calculate D2E/DX2 analytically  !
 ! D95   D(83,19,53,51)          1.3428         calculate D2E/DX2 analytically  !
 ! D96   D(16,19,83,43)        168.9959         calculate D2E/DX2 analytically  !
 ! D97   D(16,19,83,84)        -75.327          calculate D2E/DX2 analytically  !
 ! D98   D(37,19,83,43)         12.87           calculate D2E/DX2 analytically  !
 ! D99   D(37,19,83,84)        128.5472         calculate D2E/DX2 analytically  !
 ! D100  D(36,32,33,34)        -47.7435         calculate D2E/DX2 analytically  !
 ! D101  D(36,32,33,38)         68.2023         calculate D2E/DX2 analytically  !
 ! D102  D(36,32,33,44)       -171.4409         calculate D2E/DX2 analytically  !
 ! D103  D(39,32,33,34)         70.0237         calculate D2E/DX2 analytically  !
 ! D104  D(39,32,33,38)       -174.0305         calculate D2E/DX2 analytically  !
 ! D105  D(39,32,33,44)        -53.6738         calculate D2E/DX2 analytically  !
 ! D106  D(45,32,33,34)       -168.4672         calculate D2E/DX2 analytically  !
 ! D107  D(45,32,33,38)        -52.5214         calculate D2E/DX2 analytically  !
 ! D108  D(45,32,33,44)         67.8353         calculate D2E/DX2 analytically  !
 ! D109  D(33,32,36,35)         12.0728         calculate D2E/DX2 analytically  !
 ! D110  D(33,32,36,41)       -106.0239         calculate D2E/DX2 analytically  !
 ! D111  D(33,32,36,46)        133.7594         calculate D2E/DX2 analytically  !
 ! D112  D(39,32,36,35)       -104.8413         calculate D2E/DX2 analytically  !
 ! D113  D(39,32,36,41)        137.062          calculate D2E/DX2 analytically  !
 ! D114  D(39,32,36,46)         16.8453         calculate D2E/DX2 analytically  !
 ! D115  D(45,32,36,35)        135.1971         calculate D2E/DX2 analytically  !
 ! D116  D(45,32,36,41)         17.1005         calculate D2E/DX2 analytically  !
 ! D117  D(45,32,36,46)       -103.1162         calculate D2E/DX2 analytically  !
 ! D118  D(33,32,39,53)        -36.1646         calculate D2E/DX2 analytically  !
 ! D119  D(36,32,39,53)         84.1004         calculate D2E/DX2 analytically  !
 ! D120  D(45,32,39,53)       -158.1346         calculate D2E/DX2 analytically  !
 ! D121  D(33,32,45,67)        -86.6744         calculate D2E/DX2 analytically  !
 ! D122  D(36,32,45,67)        150.1885         calculate D2E/DX2 analytically  !
 ! D123  D(39,32,45,67)         32.1995         calculate D2E/DX2 analytically  !
 ! D124  D(32,33,34,37)       -147.034          calculate D2E/DX2 analytically  !
 ! D125  D(32,33,34,42)         47.2882         calculate D2E/DX2 analytically  !
 ! D126  D(32,33,34,53)        -59.0839         calculate D2E/DX2 analytically  !
 ! D127  D(38,33,34,37)         95.9762         calculate D2E/DX2 analytically  !
 ! D128  D(38,33,34,42)        -69.7016         calculate D2E/DX2 analytically  !
 ! D129  D(38,33,34,53)       -176.0737         calculate D2E/DX2 analytically  !
 ! D130  D(44,33,34,37)        -25.2446         calculate D2E/DX2 analytically  !
 ! D131  D(44,33,34,42)        169.0777         calculate D2E/DX2 analytically  !
 ! D132  D(44,33,34,53)         62.7056         calculate D2E/DX2 analytically  !
 ! D133  D(32,33,44,63)       -156.554          calculate D2E/DX2 analytically  !
 ! D134  D(34,33,44,63)         81.3235         calculate D2E/DX2 analytically  !
 ! D135  D(38,33,44,63)        -37.6108         calculate D2E/DX2 analytically  !
 ! D136  D(33,34,37,19)        -79.8775         calculate D2E/DX2 analytically  !
 ! D137  D(33,34,37,43)        113.333          calculate D2E/DX2 analytically  !
 ! D138  D(42,34,37,19)         86.5062         calculate D2E/DX2 analytically  !
 ! D139  D(42,34,37,43)        -80.2833         calculate D2E/DX2 analytically  !
 ! D140  D(33,34,42,35)         -4.1671         calculate D2E/DX2 analytically  !
 ! D141  D(37,34,42,35)       -170.8631         calculate D2E/DX2 analytically  !
 ! D142  D(53,34,42,35)         99.811          calculate D2E/DX2 analytically  !
 ! D143  D(33,34,53,39)         28.8645         calculate D2E/DX2 analytically  !
 ! D144  D(33,34,53,51)       -121.291          calculate D2E/DX2 analytically  !
 ! D145  D(42,34,53,39)        -93.9571         calculate D2E/DX2 analytically  !
 ! D146  D(42,34,53,51)        115.8874         calculate D2E/DX2 analytically  !
 ! D147  D(40,35,36,32)        143.6094         calculate D2E/DX2 analytically  !
 ! D148  D(40,35,36,41)        -97.9994         calculate D2E/DX2 analytically  !
 ! D149  D(40,35,36,46)         19.0601         calculate D2E/DX2 analytically  !
 ! D150  D(42,35,36,32)         28.9049         calculate D2E/DX2 analytically  !
 ! D151  D(42,35,36,41)        147.2961         calculate D2E/DX2 analytically  !
 ! D152  D(42,35,36,46)        -95.6444         calculate D2E/DX2 analytically  !
 ! D153  D(47,35,36,32)        -94.6258         calculate D2E/DX2 analytically  !
 ! D154  D(47,35,36,41)         23.7654         calculate D2E/DX2 analytically  !
 ! D155  D(47,35,36,46)        140.8249         calculate D2E/DX2 analytically  !
 ! D156  D(36,35,42,34)        -35.3454         calculate D2E/DX2 analytically  !
 ! D157  D(40,35,42,34)       -152.6802         calculate D2E/DX2 analytically  !
 ! D158  D(47,35,42,34)         92.1724         calculate D2E/DX2 analytically  !
 ! D159  D(36,35,47,48)        175.245          calculate D2E/DX2 analytically  !
 ! D160  D(36,35,47,49)         56.6064         calculate D2E/DX2 analytically  !
 ! D161  D(36,35,47,50)        -64.2699         calculate D2E/DX2 analytically  !
 ! D162  D(40,35,47,48)        -63.5504         calculate D2E/DX2 analytically  !
 ! D163  D(40,35,47,49)        177.8111         calculate D2E/DX2 analytically  !
 ! D164  D(40,35,47,50)         56.9347         calculate D2E/DX2 analytically  !
 ! D165  D(42,35,47,48)         47.8118         calculate D2E/DX2 analytically  !
 ! D166  D(42,35,47,49)        -70.8267         calculate D2E/DX2 analytically  !
 ! D167  D(42,35,47,50)        168.297          calculate D2E/DX2 analytically  !
 ! D168  D(32,36,46,71)         67.8712         calculate D2E/DX2 analytically  !
 ! D169  D(35,36,46,71)       -165.3858         calculate D2E/DX2 analytically  !
 ! D170  D(41,36,46,71)        -50.6342         calculate D2E/DX2 analytically  !
 ! D171  D(19,37,43,51)        155.2664         calculate D2E/DX2 analytically  !
 ! D172  D(19,37,43,83)         13.5571         calculate D2E/DX2 analytically  !
 ! D173  D(34,37,43,51)        -37.1799         calculate D2E/DX2 analytically  !
 ! D174  D(34,37,43,83)       -178.8893         calculate D2E/DX2 analytically  !
 ! D175  D(53,37,43,51)        -17.3706         calculate D2E/DX2 analytically  !
 ! D176  D(53,37,43,83)       -159.08           calculate D2E/DX2 analytically  !
 ! D177  D(43,37,53,39)        168.3699         calculate D2E/DX2 analytically  !
 ! D178  D(43,37,53,51)         17.2468         calculate D2E/DX2 analytically  !
 ! D179  D(32,39,53,34)          4.4451         calculate D2E/DX2 analytically  !
 ! D180  D(32,39,53,37)         17.0006         calculate D2E/DX2 analytically  !
 ! D181  D(32,39,53,51)        113.537          calculate D2E/DX2 analytically  !
 ! D182  D(37,43,51,52)        157.6778         calculate D2E/DX2 analytically  !
 ! D183  D(37,43,51,53)         27.2369         calculate D2E/DX2 analytically  !
 ! D184  D(37,43,51,54)        -84.8266         calculate D2E/DX2 analytically  !
 ! D185  D(83,43,51,52)       -145.8464         calculate D2E/DX2 analytically  !
 ! D186  D(83,43,51,53)         83.7127         calculate D2E/DX2 analytically  !
 ! D187  D(83,43,51,54)        -28.3507         calculate D2E/DX2 analytically  !
 ! D188  D(37,43,83,19)        -11.3055         calculate D2E/DX2 analytically  !
 ! D189  D(37,43,83,84)       -171.6428         calculate D2E/DX2 analytically  !
 ! D190  D(51,43,83,19)        -75.3159         calculate D2E/DX2 analytically  !
 ! D191  D(51,43,83,84)        124.3467         calculate D2E/DX2 analytically  !
 ! D192  D(33,44,63,64)        -58.9539         calculate D2E/DX2 analytically  !
 ! D193  D(33,44,63,65)         62.1039         calculate D2E/DX2 analytically  !
 ! D194  D(33,44,63,66)       -179.7391         calculate D2E/DX2 analytically  !
 ! D195  D(32,45,67,68)        -50.2024         calculate D2E/DX2 analytically  !
 ! D196  D(32,45,67,69)         71.3727         calculate D2E/DX2 analytically  !
 ! D197  D(32,45,67,70)       -168.5273         calculate D2E/DX2 analytically  !
 ! D198  D(36,46,71,72)        -67.4484         calculate D2E/DX2 analytically  !
 ! D199  D(36,46,71,73)         54.2452         calculate D2E/DX2 analytically  !
 ! D200  D(36,46,71,74)        173.501          calculate D2E/DX2 analytically  !
 ! D201  D(35,47,50,75)        177.7905         calculate D2E/DX2 analytically  !
 ! D202  D(48,47,50,75)        -63.4308         calculate D2E/DX2 analytically  !
 ! D203  D(49,47,50,75)         56.6133         calculate D2E/DX2 analytically  !
 ! D204  D(47,50,75,76)       -179.9145         calculate D2E/DX2 analytically  !
 ! D205  D(47,50,75,77)        -60.6317         calculate D2E/DX2 analytically  !
 ! D206  D(47,50,75,78)         60.7957         calculate D2E/DX2 analytically  !
 ! D207  D(43,51,53,34)        -26.8506         calculate D2E/DX2 analytically  !
 ! D208  D(43,51,53,37)        -26.3467         calculate D2E/DX2 analytically  !
 ! D209  D(43,51,53,39)       -125.8542         calculate D2E/DX2 analytically  !
 ! D210  D(52,51,53,34)       -158.1062         calculate D2E/DX2 analytically  !
 ! D211  D(52,51,53,37)       -157.6023         calculate D2E/DX2 analytically  !
 ! D212  D(52,51,53,39)        102.8903         calculate D2E/DX2 analytically  !
 ! D213  D(54,51,53,34)         84.7413         calculate D2E/DX2 analytically  !
 ! D214  D(54,51,53,37)         85.2453         calculate D2E/DX2 analytically  !
 ! D215  D(54,51,53,39)        -14.2622         calculate D2E/DX2 analytically  !
 ! D216  D(43,51,54,55)        -29.0208         calculate D2E/DX2 analytically  !
 ! D217  D(43,51,54,56)        147.3711         calculate D2E/DX2 analytically  !
 ! D218  D(52,51,54,55)         93.0038         calculate D2E/DX2 analytically  !
 ! D219  D(52,51,54,56)        -90.6043         calculate D2E/DX2 analytically  !
 ! D220  D(53,51,54,55)       -146.4217         calculate D2E/DX2 analytically  !
 ! D221  D(53,51,54,56)         29.9703         calculate D2E/DX2 analytically  !
 ! D222  D(51,54,55,57)        174.0626         calculate D2E/DX2 analytically  !
 ! D223  D(51,54,55,58)         -3.796          calculate D2E/DX2 analytically  !
 ! D224  D(56,54,55,57)         -2.2958         calculate D2E/DX2 analytically  !
 ! D225  D(56,54,55,58)        179.8456         calculate D2E/DX2 analytically  !
 ! D226  D(51,54,56,59)       -174.8357         calculate D2E/DX2 analytically  !
 ! D227  D(51,54,56,60)          2.2225         calculate D2E/DX2 analytically  !
 ! D228  D(55,54,56,59)          1.4983         calculate D2E/DX2 analytically  !
 ! D229  D(55,54,56,60)        178.5564         calculate D2E/DX2 analytically  !
 ! D230  D(54,55,57,61)          1.4922         calculate D2E/DX2 analytically  !
 ! D231  D(54,55,57,93)       -174.5945         calculate D2E/DX2 analytically  !
 ! D232  D(58,55,57,61)        179.3324         calculate D2E/DX2 analytically  !
 ! D233  D(58,55,57,93)          3.2456         calculate D2E/DX2 analytically  !
 ! D234  D(54,56,59,61)          0.1113         calculate D2E/DX2 analytically  !
 ! D235  D(54,56,59,97)        173.2909         calculate D2E/DX2 analytically  !
 ! D236  D(60,56,59,61)       -176.9248         calculate D2E/DX2 analytically  !
 ! D237  D(60,56,59,97)         -3.7452         calculate D2E/DX2 analytically  !
 ! D238  D(55,57,61,59)          0.0826         calculate D2E/DX2 analytically  !
 ! D239  D(55,57,61,62)       -179.0137         calculate D2E/DX2 analytically  !
 ! D240  D(93,57,61,59)        176.0409         calculate D2E/DX2 analytically  !
 ! D241  D(93,57,61,62)         -3.0555         calculate D2E/DX2 analytically  !
 ! D242  D(55,57,93,94)        -55.7228         calculate D2E/DX2 analytically  !
 ! D243  D(55,57,93,95)       -177.729          calculate D2E/DX2 analytically  !
 ! D244  D(55,57,93,96)         62.2277         calculate D2E/DX2 analytically  !
 ! D245  D(61,57,93,94)        128.2245         calculate D2E/DX2 analytically  !
 ! D246  D(61,57,93,95)          6.2182         calculate D2E/DX2 analytically  !
 ! D247  D(61,57,93,96)       -113.8251         calculate D2E/DX2 analytically  !
 ! D248  D(56,59,61,57)         -0.8908         calculate D2E/DX2 analytically  !
 ! D249  D(56,59,61,62)        178.2051         calculate D2E/DX2 analytically  !
 ! D250  D(97,59,61,57)       -174.1121         calculate D2E/DX2 analytically  !
 ! D251  D(97,59,61,62)          4.9838         calculate D2E/DX2 analytically  !
 ! D252  D(56,59,97,98)         23.2585         calculate D2E/DX2 analytically  !
 ! D253  D(56,59,97,99)        -96.2437         calculate D2E/DX2 analytically  !
 ! D254  D(56,59,97,100)       144.8071         calculate D2E/DX2 analytically  !
 ! D255  D(61,59,97,98)       -163.4368         calculate D2E/DX2 analytically  !
 ! D256  D(61,59,97,99)         77.061          calculate D2E/DX2 analytically  !
 ! D257  D(61,59,97,100)       -41.8882         calculate D2E/DX2 analytically  !
 ! D258  D(19,83,84,7)          42.2511         calculate D2E/DX2 analytically  !
 ! D259  D(19,83,84,85)        -66.7971         calculate D2E/DX2 analytically  !
 ! D260  D(19,83,84,89)        144.4155         calculate D2E/DX2 analytically  !
 ! D261  D(43,83,84,7)         160.1665         calculate D2E/DX2 analytically  !
 ! D262  D(43,83,84,85)         51.1183         calculate D2E/DX2 analytically  !
 ! D263  D(43,83,84,89)        -97.669          calculate D2E/DX2 analytically  !
 ! D264  D(7,84,85,86)         178.2235         calculate D2E/DX2 analytically  !
 ! D265  D(7,84,85,87)         -62.5547         calculate D2E/DX2 analytically  !
 ! D266  D(7,84,85,88)          56.5317         calculate D2E/DX2 analytically  !
 ! D267  D(83,84,85,86)        -90.7577         calculate D2E/DX2 analytically  !
 ! D268  D(83,84,85,87)         28.4641         calculate D2E/DX2 analytically  !
 ! D269  D(83,84,85,88)        147.5505         calculate D2E/DX2 analytically  !
 ! D270  D(89,84,85,86)         63.5826         calculate D2E/DX2 analytically  !
 ! D271  D(89,84,85,87)       -177.1956         calculate D2E/DX2 analytically  !
 ! D272  D(89,84,85,88)        -58.1092         calculate D2E/DX2 analytically  !
 ! D273  D(7,84,89,90)         -58.4828         calculate D2E/DX2 analytically  !
 ! D274  D(7,84,89,91)          60.9866         calculate D2E/DX2 analytically  !
 ! D275  D(7,84,89,92)        -179.4983         calculate D2E/DX2 analytically  !
 ! D276  D(83,84,89,90)       -151.1356         calculate D2E/DX2 analytically  !
 ! D277  D(83,84,89,91)        -31.6662         calculate D2E/DX2 analytically  !
 ! D278  D(83,84,89,92)         87.8488         calculate D2E/DX2 analytically  !
 ! D279  D(85,84,89,90)         60.1032         calculate D2E/DX2 analytically  !
 ! D280  D(85,84,89,91)        179.5726         calculate D2E/DX2 analytically  !
 ! D281  D(85,84,89,92)        -60.9123         calculate D2E/DX2 analytically  !
 --------------------------------------------------------------------------------
 Trust Radius=1.00D-02 FncErr=1.00D-07 GrdErr=1.00D-06 EigMax=2.50D+02 EigMin=1.00D-04
 Number of steps in this run=    600 maximum allowed number of steps=    600.
 Search for a saddle point of order  1.
 Step   0 in ReCalcFC=30 IGetFC= 4 compute analytic Hessian.
 GradGradGradGradGradGradGradGradGradGradGradGradGradGradGradGradGradGrad

 Leave Link  103 at Mon May 27 07:06:06 2019, MaxMem=  6442450944 cpu:               5.0 elap:               0.3
 (Enter /home/ekwan/sw/g16/l202.exe)
 Stoichiometry    C30H47F6NaO15S
 Framework group  C1[X(C30H47F6NaO15S)]
 Deg. of freedom   294
 Full point group                 C1      NOp   1
 Largest Abelian subgroup         C1      NOp   1
 Largest concise Abelian subgroup C1      NOp   1
                         Standard orientation:                         
 ---------------------------------------------------------------------
 Center     Atomic      Atomic             Coordinates (Angstroms)
 Number     Number       Type             X           Y           Z
 ---------------------------------------------------------------------
      1          6           0       -4.930483    2.105547   -0.450000
      2          6           0       -5.058533    0.609476   -0.153593
      3          6           0       -4.208561   -0.240915   -1.114286
      4          6           0       -2.723887    1.600301   -1.581736
      5          6           0       -3.468453    2.515773   -0.607698
      6          1           0       -4.121518   -1.276805   -0.761490
      7          1           0       -4.665107    0.429474    0.857367
      8          1           0       -5.461270    2.333666   -1.383609
      9          1           0       -3.180732    1.688384   -2.575066
     10          1           0       -2.987240    2.453457    0.376645
     11          8           0       -2.866055    0.229805   -1.122073
     12          8           0       -4.795465   -0.213866   -2.380819
     13          8           0       -6.434295    0.270937   -0.203494
     14          8           0       -5.474299    2.864898    0.624660
     15          8           0       -3.416722    3.855125   -1.084116
     16          6           0       -1.216160    1.887615   -1.679572
     17          1           0       -1.141337    2.919279   -2.082556
     18          1           0       -0.846519    1.227276   -2.498946
     19          8           0       -0.541452    1.706833   -0.496867
     20          6           0       -6.749774   -0.949610    0.444535
     21          1           0       -6.306227   -1.817213   -0.063290
     22          1           0       -6.412118   -0.944046    1.491369
     23          1           0       -7.837360   -1.049294    0.420502
     24          6           0       -6.795537    3.336126    0.405400
     25          1           0       -6.841689    3.984491   -0.481708
     26          1           0       -7.503631    2.509374    0.282532
     27          1           0       -7.069566    3.922931    1.286399
     28          6           0       -2.609505    4.706735   -0.283019
     29          1           0       -3.053533    4.847209    0.712588
     30          1           0       -1.595339    4.303003   -0.168403
     31          1           0       -2.562526    5.672996   -0.792605
     32          6           0        4.264606    1.145024   -0.257330
     33          6           0        2.790540    1.037079   -0.683146
     34          6           0        1.903518    1.529245    0.425084
     35          6           0        3.368909    3.398478    0.685811
     36          6           0        4.586171    2.528238    0.353172
     37          1           0        0.929394    1.118660    0.614655
     38          1           0        2.628518    1.712820   -1.539072
     39          1           0        4.421618    0.388332    0.518504
     40          1           0        3.585480    3.947475    1.600801
     41          1           0        5.167615    3.081879   -0.397287
     42          8           0        2.155074    2.637022    1.019110
     43          8           0        0.156935   -0.094689    2.422130
     44          8           0        2.511136   -0.285724   -1.043077
     45          8           0        5.141297    0.944446   -1.347046
     46          8           0        5.334123    2.412854    1.551452
     47          6           0        2.981976    4.389022   -0.412849
     48          1           0        2.054818    4.903650   -0.121177
     49          1           0        2.792291    3.874696   -1.367652
     50          8           0        4.059352    5.287914   -0.532266
     51         16           0        1.480626   -0.784636    2.507190
     52          8           0        1.788412   -1.361978    3.827486
     53          8           0        2.597805    0.069939    1.961696
     54          6           0        1.333175   -2.137806    1.329294
     55          6           0        0.081494   -2.686373    1.080028
     56          6           0        2.454917   -2.571051    0.625445
     57          6           0       -0.060191   -3.649943    0.078048
     58          1           0       -0.780402   -2.339005    1.638996
     59          6           0        2.303311   -3.543062   -0.358278
     60          1           0        3.418948   -2.119494    0.812701
     61          6           0        1.046064   -4.083057   -0.646447
     62          1           0        0.931966   -4.818388   -1.433594
     63          6           0        1.397330   -0.439443   -1.928378
     64          1           0        0.489998   -0.031370   -1.475761
     65          1           0        1.593833    0.074238   -2.879335
     66          1           0        1.303892   -1.510210   -2.110124
     67          6           0        5.478863   -0.416964   -1.610038
     68          1           0        5.812228   -0.921736   -0.692279
     69          1           0        4.638314   -0.973452   -2.029475
     70          1           0        6.305132   -0.393553   -2.324543
     71          6           0        6.651687    1.920113    1.351357
     72          1           0        6.655847    0.873575    1.019820
     73          1           0        7.191288    2.524930    0.608969
     74          1           0        7.157834    1.987950    2.316380
     75          6           0        3.855154    6.243698   -1.562368
     76          1           0        4.736770    6.887415   -1.576605
     77          1           0        3.744411    5.755864   -2.541520
     78          1           0        2.961799    6.854055   -1.368014
     79          6           0       -4.153587   -1.079091   -3.313810
     80          1           0       -4.783676   -1.103478   -4.204854
     81          1           0       -3.155953   -0.711668   -3.579997
     82          1           0       -4.059067   -2.094066   -2.902867
     83         11           0       -1.480452    0.198885    0.813025
     84          8           0       -3.022314   -0.707954    2.301762
     85          6           0       -2.970451   -0.072872    3.578205
     86          1           0       -2.265482   -0.589919    4.240257
     87          1           0       -2.629777    0.951914    3.417906
     88          1           0       -3.966988   -0.057189    4.037825
     89          6           0       -3.518210   -2.038518    2.385309
     90          1           0       -4.535342   -2.047574    2.798276
     91          1           0       -3.532656   -2.445440    1.374368
     92          1           0       -2.871077   -2.660034    3.019266
     93          6           0       -1.444500   -4.131177   -0.248995
     94          9           0       -2.083272   -4.612263    0.840595
     95          9           0       -1.457290   -5.089330   -1.190550
     96          9           0       -2.211739   -3.100051   -0.711834
     97          6           0        3.472547   -3.910881   -1.227641
     98          9           0        4.654677   -3.622250   -0.645969
     99          9           0        3.434340   -3.229835   -2.403189
    100          9           0        3.476206   -5.223313   -1.541936
 ---------------------------------------------------------------------
[...]
 03800,-0.00014643,0.00001374,0.00006953,0.00001287,0.00000603,-0.00001
 912,-0.00000155,-0.00001261,0.00000152,-0.00002774,-0.00001417,-0.0000
 8705,0.00001667,-0.00049082,-0.00069542,-0.00009693,0.00007860,0.00014
 932,0.00005234,0.00026092,0.00039523,-0.00026059,-0.00051842,0.0007189
 3,0.00055849,0.00032887,0.00027846,0.00025578,-0.00130514,-0.00101284,
 0.00051852,0.00015321,-0.00028194,-0.00012821,-0.00001481,0.00000448,0
 .00001379,0.00084261,0.00803361,0.00659309,0.00005182,-0.00016462,0.00
 013654,-0.00010686,0.00048794,-0.00085712,0.00038401,-0.00009574,-0.00
 003968,0.00041622,0.00103482,-0.00038147,-0.00016481,-0.00028311,0.000
 05157,-0.00007248,-0.00008486,0.00004994,-0.00051239,-0.00082085,0.000
 10391,0.00145131,0.00090798,0.00123195,-0.00019917,-0.00003035,-0.0002
 2648,-0.00125321,-0.00056973,-0.00097435,-0.00038620,-0.00020698,-0.00
 009130,0.00008276,0.00001709,0.00000579,0.00000755,-0.00000860,0.00003
 115,-0.00000712,0.00000559,0.00000760,-0.00001683,-0.00001656,-0.00002
 161,-0.00000977,0.00004238,-0.00002372,-0.00000471,-0.00000714,0.00000
 428,0.00000245,-0.00000341,-0.00000141,0.00000897,-0.00000791,0.000003
 04,-0.00002428,-0.00001300,0.00001290,0.00000404,-0.00000013,0.0000015
 2,0.00000397,0.00000971,-0.00000617,-0.00000213,0.00000252,-0.00000151
 ,-0.00003492,-0.00005553,0.00010672,-0.00000660,0.00002816,-0.00001002
 ,0.00000540,-0.00000894,0.00000335,-0.00000057,0.00000170,-0.00000440,
 0.00000066,0.00000323,-0.00000011,-0.00000131,0.00000008,0.00000010,0.
 00000358,-0.00002402,0.00000813,-0.00000211,0.00000460,0.00000003,0.00
 000266,-0.00000336,0.00000414,-0.00000229,0.00000534,-0.00001049,0.000
 21416,-0.00012307,0.00015120,-0.00008506,-0.00001929,0.00000334,-0.000
 05936,0.00000525,-0.00002763,-0.00007971,0.00010037,-0.00006050,-0.006
 00990,-0.10201598,0.06530362,0.01009359,0.01160672,0.00942925,-0.00363
 715,0.15049672,-0.00000028,0.00002220,-0.00000644,-0.00002424,-0.00000
 261,-0.00001690,-0.00006265,0.00005854,-0.00013032,0.00002937,0.000069
 61,-0.00001586,-0.00001532,0.00001036,-0.00002230,-0.00002119,-0.00002
 978,0.00000460,-0.00001245,0.00001023,0.00001074,0.00000613,-0.0000069
 1,0.00000467,0.00001998,-0.00000944,0.00001589,0.00000079,0.00000433,0
 .00001042,0.00000020,-0.00008436,0.00007210,0.00000678,0.00000579,0.00
 013520,0.00001917,-0.00001492,0.00002688,0.00001316,-0.00001903,0.0000
 1031,0.00000137,-0.00002820,0.00002429,0.00001488,-0.00003614,-0.00021
 416,0.00000384,-0.00002401,0.00003735,0.00000155,0.00003834,0.00008213
 ,0.00001493,-0.00001655,0.00032871,-0.00000565,0.00001174,-0.00002268,
 -0.00000285,-0.00000167,-0.00000429,-0.00000214,0.00000521,0.00001118,
 0.00000537,-0.00000167,0.00000134,-0.00001641,0.00001155,-0.00000923,0
 .00000170,-0.00000462,0.00000557,0.00000050,0.00000025,-0.00000069,0.0
 0000036,0.00000084,0.00000028,0.00000123,0.00000353,-0.00001074,-0.000
 00674,0.00000190,0.00000394,0.00000230,0.00000267,-0.00000929,0.000001
 92,-0.00000758,0.00000200,0.00030907,0.00008148,-0.00047365,-0.0001315
 3,-0.00026356,0.00001106,-0.00008426,0.00078133,-0.00067481,0.00013994
 ,0.00008667,-0.00003591,-0.00004682,0.00000063,-0.00004849,-0.00001700
 ,0.00002602,0.00000880,-0.00001184,-0.00003046,0.00002684,0.00007443,0
 .00000966,0.00002215,-0.00002048,0.00000197,0.00001065,-0.00002153,-0.
 00002396,0.00000180,-0.00012745,-0.00030761,0.00008357,0.00045506,-0.0
 0122946,-0.00054396,-0.00003348,0.00012712,0.00077550,-0.00010859,0.00
 057436,0.00065397,0.00000529,-0.00001852,0.00009294,-0.00001878,-0.000
 00055,-0.00006303,-0.00000598,0.00000629,0.00000353,0.00000501,0.00000
 450,0.00002094,-0.00000731,-0.00002319,0.00005921,0.00100477,0.0027754
 5,0.00204434,-0.00027165,-0.00043871,-0.00096708,-0.00065411,-0.001466
 20,0.00015552,0.00052228,-0.00172112,0.00095899,0.00113776,0.00014557,
 -0.00032009,0.00261898,0.00274113,0.00012937,0.00190253,-0.00181095,-0
 .00004202,-0.00000095,0.00021445,-0.00010989,0.01130035,0.01776329,-0.
 03770861,-0.00044915,0.00085604,-0.00041628,-0.00243060,-0.00177368,-0
 .00252238,-0.00000857,0.00111078,-0.00056113,-0.00058788,-0.00097286,-
 0.00011818,0.00015723,0.00021698,0.00002008,0.00006326,-0.00010317,0.0
 0009263,0.00125202,-0.00002862,-0.00060992,-0.00097770,-0.00060410,-0.
 00071916,0.00034050,0.00018008,0.00028412,-0.00014682,-0.00119873,-0.0
 0035953,0.00009199,0.00000970,0.00006000,0.00000924,0.00001632,-0.0000
 1701,0.00000040,0.00000143,-0.00002948,-0.00000616,-0.00002230,0.00000
 812,0.00000706,0.00001421,0.00001243,-0.00000623,0.00000010,-0.0000452
 0,0.00000174,-0.00000390,0.00000291,0.00000377,0.00000456,0.00001551,-
 0.00000250,0.00000128,0.00000493,0.00005314,-0.00000195,-0.00006127,0.
 00000478,-0.00000176,0.00000889,-0.00001346,-0.00001238,0.00000089,-0.
 00001050,-0.00000602,-0.00000498,-0.00025064,0.00053272,-0.00022382,0.
 00016714,-0.00011628,-0.00008961,-0.00003400,0.00008400,0.00010143,-0.
 00001426,-0.00001254,0.00001998,-0.00001558,0.00000051,-0.00000329,0.0
 0003099,-0.00000410,-0.00002203,-0.00004393,0.00002353,0.00000466,0.00
 004890,-0.00003724,-0.00002309,-0.00008493,0.00001783,-0.00002119,-0.0
 0000649,-0.00002537,0.00007457,-0.00232551,-0.00104960,-0.00101495,0.0
 0075133,0.00034568,-0.00015633,0.00052314,0.00046395,0.00047894,0.0010
 5444,-0.00024417,0.00049495,0.01407485,0.06783897,-0.20787061,-0.03887
 794,0.01386979,-0.04724861,0.01127193,-0.12707316,0.29126964,0.0000143
 6,-0.00001715,-0.00000687,0.00002790,0.00000361,-0.00000467,0.00006165
 ,-0.00001580,0.00003744,-0.00000712,-0.00003449,0.00000768,0.00000485,
 -0.00002689,0.00000032,0.00001162,0.00001192,-0.00000183,0.00000416,-0
 .00000376,-0.00000312,-0.00000339,0.00000305,-0.00000093,-0.00001079,0
 .00000481,-0.00000742,0.00000268,-0.00000340,-0.00000368,-0.00003731,0
 .00005150,-0.00000879,-0.00003128,0.00001242,-0.00003347,-0.00003049,-
 0.00000043,0.00000087,-0.00002788,0.00002245,0.00001080,-0.00000492,0.
 00003472,-0.00000083,0.00003831,-0.00002553,0.00009596,-0.00000932,0.0
 0002582,-0.00002208,-0.00000133,-0.00000812,-0.00000617,-0.00008143,0.
 00010283,-0.00009835,0.00000717,0.00000232,-0.00000221,0.00000131,0.00
 000144,0.00000300,0.00000252,-0.00000286,-0.00000126,-0.00000469,-0.00
 000019,-0.00000033,0.00001936,-0.00000969,0.00000525,-0.00000190,0.000
 00214,-0.00000321,-0.00000201,-0.00000042,-0.00000094,-0.00000249,0.00
 000185,0.00000159,-0.00000087,-0.00001395,-0.00000793,0.00000055,0.000
 00111,0.00000371,-0.00000282,-0.00000420,0.00000308,-0.00000066,0.0000
 0568,-0.00000128,-0.00018777,0.00002669,0.00012895,-0.00005075,-0.0001
 6038,-0.00006577,0.00005321,-0.00038643,0.00018228,-0.00010037,-0.0000
 7325,0.00001026,-0.00000719,-0.00001546,-0.00004023,0.00001436,-0.0000
 1554,-0.00001250,-0.00000013,0.00004432,-0.00001571,-0.00003426,0.0000
 0593,-0.00000341,0.00001019,0.00000628,-0.00000257,0.00001224,0.000011
 20,0.00000439,0.00007678,0.00024134,0.00005088,-0.00027993,0.00070938,
 0.00031776,0.00011523,0.00023733,-0.00014003,0.00013381,-0.00020406,-0
 .00008355,0.00007714,-0.00001082,0.00001464,0.00000389,-0.00002563,0.0
 0001280,0.00000290,-0.00000063,0.00000164,0.00000080,-0.00000048,0.000
 00445,0.00001757,0.00003752,-0.00002400,-0.00080891,-0.00163489,-0.001
 26596,0.00026397,0.00021406,0.00073679,0.00041436,0.00072352,0.0000131
 9,0.00014387,0.00075246,0.00177025,-0.00026247,0.00056722,0.00046501,-
 0.00486477,-0.00014833,0.00012843,0.00066875,0.00019962,0.00011426,0.0
 0001091,0.00003990,0.00002359,0.00548111,0.02757492,0.01191247,0.00001
 563,0.00033446,-0.00000069,-0.00124917,0.00068792,-0.00010837,-0.00032
 357,0.00105344,0.00115424,0.00004642,-0.00006038,0.00004209,0.00000539
 ,-0.00001352,-0.00000651,0.00001230,0.00006117,-0.00003417,-0.00002081
 ,-0.00003309,0.00009573,-0.00007350,0.00021008,-0.00010791,0.00015071,
 0.00010725,0.00012276,-0.00007809,0.00006849,-0.00009708,0.00000965,-0
 .00003196,0.00001323,-0.00005255,0.00003712,0.00001609,0.00000060,-0.0
 0000953,-0.00000445,0.00000574,-0.00000066,-0.00000421,0.00000493,-0.0
 0000172,0.00000075,0.00000443,-0.00001163,0.00001756,0.00000146,0.0000
 0495,-0.00000234,-0.00000277,0.00000037,-0.00000324,-0.00000101,0.0000
 0093,-0.00000284,0.00000630,-0.00000936,0.00000769,-0.00000669,0.00000
 175,-0.00000535,0.00000247,-0.00000778,0.00000597,0.00001032,0.0000076
 8,0.00000017,0.00015963,-0.00026979,0.00005734,-0.00008599,0.00005110,
 0.00006773,0.00001280,-0.00004329,-0.00006720,0.00000911,0.00000541,-0
 .00000733,0.00000841,-0.00000245,0.00000149,-0.00001687,0.00000207,0.0
 0001278,0.00001789,0.00000232,-0.00001618,-0.00002491,0.00001690,0.000
 01339,0.00004472,-0.00000772,0.00001019,0.00000629,0.00000914,-0.00003
 203,0.00133719,0.00040736,0.00016523,-0.00041163,-0.00019082,0.0001640
 3,-0.00031125,-0.00020790,-0.00015667,-0.00047741,0.00010799,-0.000149
 12,-0.07999372,0.01750866,0.00818197,-0.00818784,-0.04842883,-0.022312
 57,0.01285504,0.00041415,-0.00150436,0.07575002,-0.00003446,0.00001375
 ,0.00001336,-0.00005268,-0.00001190,0.00000884,-0.00014596,-0.00002619
 ,-0.00006197,-0.00000226,0.00000355,0.00000648,-0.00000999,0.00004885,
 0.00000498,-0.00000924,-0.00000697,-0.00000010,-0.00000510,0.00000475,
 0.00000574,0.00000710,-0.00000456,0.00000121,0.00002647,-0.00000318,0.
 00001265,-0.00000842,0.00000808,0.00000953,0.00011121,-0.00001998,0.00
 000355,0.00006142,0.00001650,0.00006916,0.00006580,0.00002641,-0.00000
 972,0.00005858,-0.00003024,-0.00002058,0.00002579,-0.00004221,0.000001
 05,-0.00011590,0.00006931,-0.00023832,0.00002365,-0.00005060,0.0000466
 4,-0.00000765,0.00001661,0.00000248,0.00029527,-0.00023569,0.00017064,
 -0.00001123,-0.00002815,0.00000881,-0.00000524,0.00000313,-0.00000231,
 -0.00000398,0.00000514,0.00000071,0.00000826,0.00000160,-0.00000044,-0
 .00003706,0.00001402,-0.00000937,0.00000304,-0.00000306,0.00000426,0.0
 0000619,0.00000148,0.00000186,0.00000447,-0.00000356,-0.00000212,-0.00
 001589,0.00002081,0.00001039,0.00000209,-0.00000261,-0.00000799,0.0000
 0950,0.00000831,-0.00000323,0.00000162,-0.00000868,0.00000262,-0.00011
 566,0.00007813,0.00013100,0.00029478,0.00061383,0.00013431,-0.00019681
 ,0.00057456,-0.00001061,0.00008455,0.00014112,-0.00000896,0.00010632,0
 .00008383,0.00014795,-0.00005971,0.00000173,-0.00000553,0.00000974,-0.
 00013128,0.00002850,0.00006889,0.00004452,0.00003869,0.00000319,-0.000
 02444,-0.00000599,-0.00002116,-0.00000389,-0.00000879,-0.00005474,-0.0
 0043804,-0.00020030,0.00053653,-0.00091858,-0.00046889,0.00013027,-0.0
 0073998,0.00008896,-0.00004340,-0.00072374,-0.00017418,-0.00015643,-0.
 00006483,-0.00011628,0.00000165,0.00009741,-0.00002105,0.00000392,-0.0
 0001987,-0.00000120,-0.00001317,0.00000296,-0.00002342,-0.00002506,-0.
 00013627,0.00005959,0.00061716,0.00187568,0.00200496,-0.00025938,-0.00
 016377,-0.00103888,-0.00028436,-0.00088380,-0.00023850,-0.00081640,-0.
 00067198,-0.00153904,0.00062604,-0.00009803,0.00012197,0.00591721,0.00
 020648,-0.00085009,0.00113670,0.00047533,-0.00085682,0.00009595,0.0000
 2431,0.00014483,0.00319224,-0.02956982,-0.01352558,-0.00020916,0.00026
 078,0.00086686,-0.00341213,-0.00066193,-0.00141581,0.00163114,-0.00014
 747,0.00107160,-0.00012285,0.00040408,-0.00029292,-0.00002544,-0.00008
 074,0.00004019,-0.00002494,-0.00012438,0.00008979,-0.00042111,-0.00002
 464,-0.00006551,0.00046366,0.00067150,0.00016466,0.00020862,0.00013083
 ,0.00011484,-0.00009878,0.00037804,-0.00028318,-0.00018233,-0.00015363
 ,0.00003684,0.00010973,0.00004203,0.00000003,0.00000966,-0.00001214,0.
 00001382,-0.00001440,-0.00001122,0.00001594,-0.00001666,-0.00000980,-0
 .00001900,-0.00001836,0.00006024,-0.00005586,-0.00000603,-0.00001243,0
 .00000780,0.00000532,-0.00000284,0.00000549,0.00001165,-0.00001039,0.0
 0000643,-0.00001154,-0.00002125,-0.00001447,0.00001067,-0.00000246,0.0
 0000934,-0.00000106,0.00001228,-0.00001063,-0.00001292,-0.00000119,-0.
 00000613,-0.00028421,0.00034314,-0.00005055,0.00013688,-0.00002784,-0.
 00009110,-0.00001958,0.00004974,0.00008626,-0.00001447,-0.00001053,0.0
 0001261,-0.00001304,0.00001157,-0.00000294,0.00002571,-0.00000253,-0.0
 0001645,-0.00003274,-0.00004466,0.00002113,0.00003665,-0.00001907,-0.0
 0002014,-0.00005717,0.00000534,-0.00000881,-0.00001097,-0.00000903,0.0
 0003752,-0.00152096,-0.00104772,-0.00056754,0.00057895,0.00033083,-0.0
 0017656,0.00032837,0.00046519,0.00036128,0.00061430,-0.00000765,0.0002
 1616,0.02451360,-0.24401610,-0.05610858,-0.03456491,-0.03333716,-0.025
 85745,0.00199345,-0.06651851,0.02972822,-0.00060687,0.37373542,-0.0000
 1194,0.00001202,0.00000208,-0.00002535,-0.00000444,-0.00000350,-0.0000
 7160,0.00000912,-0.00006588,0.00000885,0.00002468,-0.00000415,-0.00000
 839,0.00002047,-0.00000627,-0.00000959,-0.00001250,0.00000105,-0.00000
 608,0.00000519,0.00000568,0.00000459,-0.00000396,0.00000207,0.00001571
 ,-0.00000439,0.00000986,-0.00000251,0.00000415,0.00000681,0.00003820,-
 0.00003433,0.00002652,0.00002283,0.00000890,0.00007075,0.00002828,0.00
 000309,0.00000667,0.00002426,-0.00001670,-0.00000307,0.00000913,-0.000
 02419,0.00000883,-0.00003734,0.00001298,-0.00015408,0.00000980,-0.0000
 2577,0.00002863,-0.00000264,0.00001895,0.00002760,0.00010588,-0.000090
 41,0.00016747,-0.00000559,-0.00000493,-0.00000556,-0.00000268,0.000000
 48,-0.00000229,-0.00000196,0.00000358,0.00000434,0.00000457,-0.0000000
 2,0.00000028,-0.00001809,0.00000886,-0.00000652,0.00000158,-0.00000269
 ,0.00000345,0.00000222,0.00000056,0.00000033,0.00000162,-0.00000084,-0
 .00000060,-0.00000485,0.00000837,-0.00000024,-0.00000163,-0.00000019,-
 0.00000134,0.00000405,0.00000384,-0.00000426,0.00000123,-0.00000563,0.
 00000161,0.00008788,0.00004694,-0.00014060,0.00003212,0.00010440,0.000
 05589,-0.00009078,0.00046314,-0.00023792,0.00008072,0.00007751,-0.0000
 1547,0.00001582,0.00002763,0.00003215,-0.00002413,0.00000974,0.0000047
 5,-0.00000006,-0.00005370,0.00001862,0.00004526,0.00001325,0.00001999,
 -0.00000678,-0.00000703,0.00000185,-0.00001463,-0.00001058,-0.00000218
 ,-0.00006516,-0.00025437,-0.00003644,0.00031449,-0.00068628,-0.0002853
 5,0.00002280,-0.00023029,0.00027857,-0.00005579,0.00001047,0.00018242,
 -0.00005225,-0.00002463,-0.00000501,-0.00000546,0.00003179,-0.00002769
 ,-0.00000115,-0.00000395,0.00000050,-0.00000245,0.00000234,-0.00000075
 ,-0.00001180,-0.00005245,0.00003974,0.00060466,0.00168348,0.00127301,-
 0.00022001,-0.00023671,-0.00069849,-0.00032168,-0.00079518,-0.00001725
 ,0.00004708,0.00018506,-0.00160733,0.00041662,-0.00049796,-0.00026275,
 0.00361253,0.00017341,0.00028449,0.00032442,0.00038752,-0.00053823,0.0
 0004577,-0.00002554,0.00010806,0.00490142,-0.03009579,-0.00141579,-0.0
 0014884,-0.00006701,0.00078180,-0.00095375,-0.00059933,-0.00101209,0.0
 0102345,-0.00012638,0.00033160,-0.00018073,-0.00013186,-0.00010850,0.0
 0002960,0.00003629,0.00001565,0.00000841,-0.00007102,0.00005796,0.0001
 6325,0.00004396,-0.00019162,-0.00018246,-0.00001541,-0.00027786,0.0001
 7901,0.00009568,0.00012967,-0.00002536,-0.00018785,-0.00003828,-0.0000
 1148,-0.00003237,0.00003806,0.00004083,0.00001462,-0.00000780,0.000003
 06,-0.00000203,-0.00000512,-0.00000688,-0.00001097,0.00000806,-0.00000
 294,0.00000222,-0.00000144,-0.00000799,0.00001957,-0.00003351,-0.00000
 140,-0.00000552,0.00000347,0.00000313,0.00000066,0.00000709,0.00000280
 ,-0.00000283,0.00000379,0.00001443,-0.00000950,-0.00002629,0.00000534,
 -0.00000124,0.00000617,-0.00000505,-0.00000027,-0.00000333,-0.00000726
 ,-0.00000201,-0.00000368,-0.00018606,0.00030698,-0.00008944,0.00010354
 ,-0.00005074,-0.00005952,-0.00001864,0.00004620,0.00006214,-0.00000948
 ,-0.00000769,0.00001122,-0.00000946,0.00000359,-0.00000168,0.00001923,
 -0.00000232,-0.00001323,-0.00002732,-0.00000640,0.00000663,0.00002868,
 -0.00001859,-0.00001395,-0.00004882,0.00000864,-0.00000993,-0.00000504
 ,-0.00001142,0.00003777,-0.00126684,-0.00056929,-0.00048121,0.00043161
 ,0.00020762,-0.00008811,0.00027735,0.00028965,0.00025889,0.00048058,-0
 .00007670,0.00018437,0.00992324,-0.05378446,-0.08782018,-0.01729565,-0
 .02972923,-0.00377278,-0.00236767,0.04596897,0.00478706,0.00027955,0.0
 6832135,0.09020308\\-0.00000088,-0.00000202,0.00000394,0.00000005,-0.0
 0000222,0.00000234,-0.00000014,-0.00000081,0.00000108,-0.00000132,0.00
 000041,0.00000232,-0.00000129,-0.00000119,0.00000392,0.00000058,-0.000
 00124,-0.00000008,0.00000053,-0.00000324,0.00000209,-0.00000150,-0.000
 00121,0.00000457,-0.00000179,0.00000125,0.00000272,-0.00000039,-0.0000
 0179,0.00000332,-0.00000043,-0.00000025,0.00000108,-0.00000071,0.00000
 020,0.00000147,0.00000014,-0.00000297,0.00000273,-0.00000083,-0.000003
 37,0.00000502,-0.00000211,-0.00000055,0.00000523,-0.00000113,0.0000012
 2,0.00000225,-0.00000219,0.00000170,0.00000303,-0.00000155,0.00000232,
 0.00000102,-0.00000097,0.00000026,0.00000137,0.00000097,-0.00000392,0.
 00000159,0.00000118,-0.00000300,0.00000040,0.00000150,-0.00000478,0.00
 000138,0.00000103,-0.00000433,0.00000196,-0.00000118,-0.00000376,0.000
 00628,-0.00000188,-0.00000286,0.00000701,-0.00000082,-0.00000400,0.000
 00570,-0.00000101,-0.00000491,0.00000704,-0.00000204,-0.00000098,0.000
 00577,-0.00000172,-0.00000231,0.00000610,-0.00000191,-0.00000058,0.000
 00480,-0.00000288,-0.00000041,0.00000678,-0.00000040,0.00000241,-0.000
 00144,-0.00000046,0.00000212,-0.00000086,-0.00000027,0.00000026,0.,-0.
 00000086,0.00000097,0.00000140,-0.00000084,0.00000186,-0.00000007,-0.0
 0000022,-0.00000021,0.00000011,-0.00000132,0.00000296,-0.00000009,0.00
 000039,0.00000164,-0.00000238,-0.00000089,-0.00000001,0.00000194,-0.00
 000139,0.00000297,0.00000020,-0.00000049,-0.00000005,0.00000122,0.0000
 0147,-0.00000260,-0.00000100,-0.00000005,0.00000242,-0.00000217,-0.000
 00079,0.00000399,-0.00000215,-0.00000014,0.00000084,-0.00000061,-0.000
 00209,0.00000190,0.00000265,-0.00000218,0.00000114,0.00000371,-0.00000
 227,0.00000286,0.00000224,-0.00000257,0.00000254,0.00000317,0.00000184
 ,-0.00000208,-0.00000197,0.00000285,-0.00000332,-0.00000305,0.00000136
 ,-0.00000066,-0.00000197,0.00000194,-0.00000093,-0.00000358,0.00000202
 ,-0.00000138,-0.00000382,0.00000192,0.00000054,-0.00000464,0.00000206,
 -0.00000015,-0.00000461,0.00000215,-0.00000244,-0.00000284,0.00000191,
 0.00000149,-0.00000569,0.00000182,0.00000079,-0.00000465,0.00000194,0.
 00000119,-0.00000563,0.00000201,0.00000200,-0.00000642,-0.00000054,0.0
 0000282,-0.00000194,-0.00000025,0.00000183,-0.00000103,-0.00000111,0.0
 0000393,-0.00000133,0.00000006,0.00000292,-0.00000295,-0.00000025,0.00
 000443,-0.00000378,0.00000043,0.00000361,-0.00000448,-0.00000020,0.000
 00451,-0.00000400,-0.00000062,0.00000565,-0.00000415,0.00000003,0.0000
 0181,-0.00000178,0.00000036,0.00000215,-0.00000293,-0.00000065,0.00000
 287,-0.00000138,0.00000044,0.00000099,-0.00000195,-0.00000353,0.000003
 62,0.00000430,-0.00000385,0.00000405,0.00000458,-0.00000375,0.00000462
 ,0.00000381,-0.00000373,0.00000295,0.00000540,-0.00000074,0.00000159,0
 .00000015,-0.00000118,0.00000223,0.00000043,-0.00000109,0.00000233,0.0
 0000008,-0.00000006,0.00000117,-0.00000100,0.00000073,-0.00000159,0.00
 000019,0.00000173,-0.00000374,0.00000018,0.00000207,-0.00000540,0.0000
 0060,0.00000267,-0.00000572,-0.00000021,0.00000144,-0.00000501,0.00000
 169,0.00000231,-0.00000639,0.00000118,0.00000229,-0.00000437,-0.000001
 19,0.00000268,-0.00000531,-0.00000072,0.00000226,-0.00000323,-0.000001
 74,0.00000307,-0.00000474,-0.00000218,0.00000208,-0.00000040,-0.000004
 56,0.00000304,-0.00000194,-0.00000474,0.00000227,0.00000061,-0.0000054
 7,0.00000151,-0.00000024,-0.00000281,0.00000178,0.00000297,-0.00000672
 ,0.00000175,0.00000301,-0.00000686,0.00000071,0.00000432,-0.00000588,0
 .00000212,0.00000341,-0.00000804\\\@


 A COMPLEXITY IS MERELY A DISARRANGEMENT OF SIMPLICITIES.

                                    -- G. O. ABELL IN "EXPLORATION OF THE UNIVERSE"
 Job cpu time:       3 days 22 hours  2 minutes 24.0 seconds.
 Elapsed time:       0 days  3 hours 13 minutes 41.0 seconds.
 File lengths (MBytes):  RWF=   9780 Int=      0 D2E=      0 Chk=    107 Scr=      1
 Normal termination of Gaussian 16 at Mon May 27 13:45:38 2019.
