 Entering Gaussian System, Link 0=g16
 Input=clay_new-glu_gluC6-BCUR-Na2_1Me2O-bisCF3-ts-b3lyp_d3bj-631gd-pcm_thf.gjf
 Output=clay_new-glu_gluC6-BCUR-Na2_1Me2O-bisCF3-ts-b3lyp_d3bj-631gd-pcm_thf.out
 Initial command:
 /home/ekwan/sw/g16/l1.exe "/scratch/users/ekwan/clay_new-glu_gluC6-BCUR-Na2_1Me2O-bisCF3-ts-b3lyp_d3bj-631gd-pcm_thf/Gau-30254.inp" -scrdir="/scratch/users/ekwan/clay_new-glu_gluC6-BCUR-Na2_1Me2O-bisCF3-ts-b3lyp_d3bj-631gd-pcm_thf/"
 Entering Link 1 = /home/ekwan/sw/g16/l1.exe PID=     30255.
  
 Copyright (c) 1988,1990,1992,1993,1995,1998,2003,2009,2016,
            Gaussian, Inc.  All Rights Reserved.
  
 This is part of the Gaussian(R) 16 program.  It is based on
 the Gaussian(R) 09 system (copyright 2009, Gaussian, Inc.),
 the Gaussian(R) 03 system (copyright 2003, Gaussian, Inc.),
 the Gaussian(R) 98 system (copyright 1998, Gaussian, Inc.),
 the Gaussian(R) 94 system (copyright 1995, Gaussian, Inc.),
 the Gaussian 92(TM) system (copyright 1992, Gaussian, Inc.),
 the Gaussian 90(TM) system (copyright 1990, Gaussian, Inc.),
 the Gaussian 88(TM) system (copyright 1988, Gaussian, Inc.),
 the Gaussian 86(TM) system (copyright 1986, Carnegie Mellon
 University), and the Gaussian 82(TM) system (copyright 1983,
 Carnegie Mellon University). Gaussian is a federally registered
 trademark of Gaussian, Inc.
  
 This software contains proprietary and confidential information,
 including trade secrets, belonging to Gaussian, Inc.
  
 This software is provided under written license and may be
 used, copied, transmitted, or stored only in accord with that
 written license.
  
 The following legend is applicable only to US Government
 contracts under FAR:
  
                    RESTRICTED RIGHTS LEGEND
  
 Use, reproduction and disclosure by the US Government is
 subject to restrictions as set forth in subparagraphs (a)
 and (c) of the Commercial Computer Software - Restricted
 Rights clause in FAR 52.227-19.
  
 Gaussian, Inc.
 340 Quinnipiac St., Bldg. 40, Wallingford CT 06492
  
  
 ---------------------------------------------------------------
 Warning -- This program may not be used in any manner that
 competes with the business of Gaussian, Inc. or will provide
 assistance to any competitor of Gaussian, Inc.  The licensee
 of this program is prohibited from giving any competitor of
 Gaussian, Inc. access to this program.  By using this program,
 the user acknowledges that Gaussian, Inc. is engaged in the
 business of creating and licensing software in the field of
 computational chemistry and represents and warrants to the
 licensee that it is not a competitor of Gaussian, Inc. and that
 it will not use this program in any manner prohibited above.
 ---------------------------------------------------------------
  

 Cite this work as:
 Gaussian 16, Revision A.03,
 M. J. Frisch, G. W. Trucks, H. B. Schlegel, G. E. Scuseria, 
 M. A. Robb, J. R. Cheeseman, G. Scalmani, V. Barone, 
 G. A. Petersson, H. Nakatsuji, X. Li, M. Caricato, A. V. Marenich, 
 J. Bloino, B. G. Janesko, R. Gomperts, B. Mennucci, H. P. Hratchian, 
 J. V. Ortiz, A. F. Izmaylov, J. L. Sonnenberg, D. Williams-Young, 
 F. Ding, F. Lipparini, F. Egidi, J. Goings, B. Peng, A. Petrone, 
 T. Henderson, D. Ranasinghe, V. G. Zakrzewski, J. Gao, N. Rega, 
 G. Zheng, W. Liang, M. Hada, M. Ehara, K. Toyota, R. Fukuda, 
 J. Hasegawa, M. Ishida, T. Nakajima, Y. Honda, O. Kitao, H. Nakai, 
 T. Vreven, K. Throssell, J. A. Montgomery, Jr., J. E. Peralta, 
 F. Ogliaro, M. J. Bearpark, J. J. Heyd, E. N. Brothers, K. N. Kudin, 
 V. N. Staroverov, T. A. Keith, R. Kobayashi, J. Normand, 
 K. Raghavachari, A. P. Rendell, J. C. Burant, S. S. Iyengar, 
 J. Tomasi, M. Cossi, J. M. Millam, M. Klene, C. Adamo, R. Cammi, 
 J. W. Ochterski, R. L. Martin, K. Morokuma, O. Farkas, 
 J. B. Foresman, and D. J. Fox, Gaussian, Inc., Wallingford CT, 2016.
 
 ******************************************
 Gaussian 16:  AS64L-G16RevA.03 25-Dec-2016
                26-May-2019 
 ******************************************
 %mem=48GB
 %nprocshared=32
 Will use up to   32 processors via shared memory.
 ----------------------------------------------------------------------
 #p opt=(ts,noeigentest,calcfc,maxstep=1,modredundant,recalc=30) freq=n
 oraman b3lyp 6-31g* pop=none scrf=(solvent=tetrahydrofuran,pcm) empiri
 caldispersion=gd3bj
 ----------------------------------------------------------------------
 1/5=1,8=1,10=4,11=1,18=120,26=3,38=1,71=30/1,3;
 2/9=110,12=2,17=6,18=5,40=1/2;
 3/5=1,6=6,7=1,11=2,25=1,30=1,70=2201,71=2,72=20,74=-5,124=41,140=1/1,2,3;
 4//1;
 5/5=2,38=5,53=20/2;
 8/6=4,10=90,11=11/1;
 11/6=1,8=1,9=11,15=111,16=1/1,2,10;
 10/6=1,13=1/2;
 7/10=1,18=20,25=1/1,2,3,16;
 1/5=1,8=1,10=4,11=1,18=20,26=3,71=30/3(2);
 2/9=110/2;
 99//99;
 2/9=110/2;
 3/5=1,6=6,7=1,11=2,25=1,30=1,70=2205,71=1,72=20,74=-5,124=41/1,2,3;
 4/5=5,16=3,69=1/1;
 5/5=2,38=5,53=20/2;
 7//1,2,3,16;
 1/5=1,8=1,11=1,18=20,26=3,71=30/3(-5);
 2/9=110/2;
 99/9=1/99;
 Leave Link    1 at Sun May 26 04:40:25 2019, MaxMem=  6442450944 cpu:               6.0 elap:               0.2
 (Enter /home/ekwan/sw/g16/l101.exe)
 -----
 title
 -----
 Symbolic Z-matrix:
 Charge =  0 Multiplicity = 1
 C                    -4.72832  -0.13256   0.87083 
 C                    -4.16045  -1.55332   0.86417 
 C                    -4.10114  -2.08377  -0.56958 
 C                    -3.78406   0.13446  -1.4832 
 C                    -3.9328    0.75383  -0.08901 
 H                    -3.59079  -3.0538   -0.60203 
 H                    -3.12885  -1.51907   1.24065 
 H                    -5.77698  -0.17455   0.55075 
 H                    -4.76857   0.12011  -1.96776 
 H                    -2.93625   0.88873   0.34473 
 O                    -3.29825  -1.22845  -1.36801 
 O                    -5.40569  -2.20265  -1.06023 
 O                    -4.93512  -2.44951   1.64404 
 O                    -4.64293   0.37762   2.1994 
 O                    -4.58603   2.01719  -0.20796 
 C                    -2.76452   0.87385  -2.3685 
 H                    -3.18181   1.89419  -2.51251 
 H                    -2.83996   0.38942  -3.37049 
 O                    -1.48696   0.86001  -1.86647 
 C                    -4.43247  -2.64688   2.96001 
 H                    -3.41566  -3.06693   2.93844 
 H                    -4.41797  -1.71102   3.52719 
 H                    -5.10063  -3.3629    3.44592 
 C                    -5.76899   1.14338   2.60249 
 H                    -5.91226   2.01766   1.95848 
 H                    -6.68602   0.53617   2.59018 
 H                    -5.57549   1.47139   3.62731 
 C                    -3.73524   3.13264   0.02296 
 H                    -3.3338    3.11919   1.04527 
 H                    -2.89656   3.16576  -0.68048 
 H                    -4.34987   4.02784  -0.10755 
 C                     2.10865   2.65784  -0.48536 
 C                     0.95361   1.7333   -0.88397 
 C                    -0.17041   1.84655   0.09723 
 C                     0.37289   4.15013   0.60788 
 C                     1.54192   4.07367  -0.38578 
 H                    -0.90147   1.0672    0.19758 
 H                     0.49827   2.08886  -1.81855 
 H                     2.50344   2.3499    0.48894 
 H                     0.78101   4.17005   1.62125 
 H                     1.19326   4.38343  -1.37823 
 O                    -0.51695   2.97981   0.59204 
 O                    -0.5375   -0.98162   1.25876 
 O                     1.33199   0.3809   -1.036 
 O                     3.13547   2.64993  -1.46178 
 O                     2.49296   4.9945    0.11753 
 C                    -0.52601   5.348     0.38695 
 H                     0.07803   6.25873   0.51347 
 H                    -1.32312   5.35471   1.14464 
 O                    -1.06565   5.25783  -0.91447 
 S                     0.62811  -0.4537    2.03083 
 O                     0.62231  -0.79518   3.46381 
 O                     0.8424    1.02595   1.78991 
 C                     2.08377  -1.22224   1.30661 
 C                     1.94664  -2.33032   0.48582 
 C                     3.33525  -0.65192   1.53913 
 C                     3.07744  -2.86348  -0.1376 
 H                     0.96897  -2.74746   0.28235 
 C                     4.45289  -1.19761   0.91621 
 H                     3.42774   0.2274    2.16411 
 C                     4.33313  -2.30407   0.06802 
 H                     5.20429  -2.70938  -0.43278 
 C                     1.54951   0.00405  -2.40305 
 H                     0.61817   0.12672  -2.9676 
 H                     2.34278   0.60799  -2.8528 
 H                     1.85393  -1.04415  -2.38258 
 C                     4.25343   1.836    -1.12041 
 H                     4.6673    2.12131  -0.14474 
 H                     3.98639   0.77503  -1.09591 
 H                     5.00824   2.00161  -1.89209 
 C                     3.16311   5.75236  -0.88715 
 H                     3.73044   5.10319  -1.5605 
 H                     2.44834   6.3476   -1.47239 
 H                     3.84365   6.42566  -0.36111 
 C                    -1.96072   6.31795  -1.20754 
 H                    -2.32285   6.15652  -2.22471 
 H                    -2.81506   6.32088  -0.51541 
 H                    -1.45675   7.29375  -1.15036 
 C                    -5.4705   -2.83656  -2.33307 
 H                    -6.52873  -2.97453  -2.56278 
 H                    -5.00405  -2.22197  -3.11161 
 H                    -4.97251  -3.81652  -2.30652 
 Na                   -0.97191  -1.1546   -1.02146 
 O                    -0.94554  -3.47927  -0.69872 
 C                    -0.966    -4.35518  -1.82187 
 H                    -1.95194  -4.82704  -1.92728 
 H                    -0.75786  -3.74881  -2.70593 
 H                    -0.19748  -5.1301   -1.72324 
 C                    -1.20327  -4.15816   0.52923 
 H                    -0.43977  -4.92599   0.70933 
 H                    -1.16587  -3.40468   1.31667 
 H                    -2.1941   -4.63095   0.51207 
 C                     2.87524  -3.99733  -1.10139 
 F                     2.14457  -4.99675  -0.55312 
 F                     4.03279  -4.52712  -1.5349 
 F                     2.18576  -3.58322  -2.20012 
 C                     5.81136  -0.57865   1.09669 
 F                     6.35721  -0.25024  -0.1014 
 F                     6.67515  -1.4264    1.69513 
 F                     5.76787   0.5489    1.8362 
 
 Add virtual bond connecting atoms H37        and H10        Dist= 3.87D+00.
 Add virtual bond connecting atoms H37        and O19        Dist= 4.07D+00.
 Add virtual bond connecting atoms O53        and C34        Dist= 4.04D+00.
 Add virtual bond connecting atoms O84        and H58        Dist= 4.29D+00.
 Add virtual bond connecting atoms O84        and Na83       Dist= 4.44D+00.
 Add virtual bond connecting atoms H92        and H6         Dist= 4.50D+00.
 The following ModRedundant input section has been read:
 
 ITRead=  0  0  0  0  0  0  0  0  0  0  0  0  0  0  0  0  0  0  0  0
 ITRead=  0  0  0  0  0  0  0  0  0  0  0  0  0  0  0  0  0  0  0  0
 ITRead=  0  0  0  0  0  0  0  0  0  0  0  0  0  0  0  0  0  0  0  0
 ITRead=  0  0  0  0  0  0  0  0  0  0  0  0  0  0  0  0  0  0  0  0
 ITRead=  0  0  0  0  0  0  0  0  0  0  0  0  0  0  0  0  0  0  0  0
 MicOpt= -1 -1 -1 -1 -1 -1 -1 -1 -1 -1 -1 -1 -1 -1 -1 -1 -1 -1 -1 -1
 MicOpt= -1 -1 -1 -1 -1 -1 -1 -1 -1 -1 -1 -1 -1 -1 -1 -1 -1 -1 -1 -1
 MicOpt= -1 -1 -1 -1 -1 -1 -1 -1 -1 -1 -1 -1 -1 -1 -1 -1 -1 -1 -1 -1
 MicOpt= -1 -1 -1 -1 -1 -1 -1 -1 -1 -1 -1 -1 -1 -1 -1 -1 -1 -1 -1 -1
 MicOpt= -1 -1 -1 -1 -1 -1 -1 -1 -1 -1 -1 -1 -1 -1 -1 -1 -1 -1 -1 -1
 NAtoms=    100 NQM=      100 NQMF=       0 NMMI=      0 NMMIF=      0
                NMic=       0 NMicF=      0.
                    Isotopes and Nuclear Properties:
 (Nuclear quadrupole moments (NQMom) in fm**2, nuclear magnetic moments (NMagM)
  in nuclear magnetons)

  Atom         1           2           3           4           5           6           7           8           9          10
 IAtWgt=          12          12          12          12          12           1           1           1           1           1
 AtmWgt=  12.0000000  12.0000000  12.0000000  12.0000000  12.0000000   1.0078250   1.0078250   1.0078250   1.0078250   1.0078250
 NucSpn=           0           0           0           0           0           1           1           1           1           1
 AtZEff=   0.0000000   0.0000000   0.0000000   0.0000000   0.0000000   0.0000000   0.0000000   0.0000000   0.0000000   0.0000000
 NQMom=    0.0000000   0.0000000   0.0000000   0.0000000   0.0000000   0.0000000   0.0000000   0.0000000   0.0000000   0.0000000
 NMagM=    0.0000000   0.0000000   0.0000000   0.0000000   0.0000000   2.7928460   2.7928460   2.7928460   2.7928460   2.7928460
 AtZNuc=   6.0000000   6.0000000   6.0000000   6.0000000   6.0000000   1.0000000   1.0000000   1.0000000   1.0000000   1.0000000

  Atom        11          12          13          14          15          16          17          18          19          20
 IAtWgt=          16          16          16          16          16          12           1           1          16          12
 AtmWgt=  15.9949146  15.9949146  15.9949146  15.9949146  15.9949146  12.0000000   1.0078250   1.0078250  15.9949146  12.0000000
 NucSpn=           0           0           0           0           0           0           1           1           0           0
 AtZEff=   0.0000000   0.0000000   0.0000000   0.0000000   0.0000000   0.0000000   0.0000000   0.0000000   0.0000000   0.0000000
 NQMom=    0.0000000   0.0000000   0.0000000   0.0000000   0.0000000   0.0000000   0.0000000   0.0000000   0.0000000   0.0000000
 NMagM=    0.0000000   0.0000000   0.0000000   0.0000000   0.0000000   0.0000000   2.7928460   2.7928460   0.0000000   0.0000000
 AtZNuc=   8.0000000   8.0000000   8.0000000   8.0000000   8.0000000   6.0000000   1.0000000   1.0000000   8.0000000   6.0000000

  Atom        21          22          23          24          25          26          27          28          29          30
 IAtWgt=           1           1           1          12           1           1           1          12           1           1
 AtmWgt=   1.0078250   1.0078250   1.0078250  12.0000000   1.0078250   1.0078250   1.0078250  12.0000000   1.0078250   1.0078250
 NucSpn=           1           1           1           0           1           1           1           0           1           1
 AtZEff=   0.0000000   0.0000000   0.0000000   0.0000000   0.0000000   0.0000000   0.0000000   0.0000000   0.0000000   0.0000000
 NQMom=    0.0000000   0.0000000   0.0000000   0.0000000   0.0000000   0.0000000   0.0000000   0.0000000   0.0000000   0.0000000
 NMagM=    2.7928460   2.7928460   2.7928460   0.0000000   2.7928460   2.7928460   2.7928460   0.0000000   2.7928460   2.7928460
 AtZNuc=   1.0000000   1.0000000   1.0000000   6.0000000   1.0000000   1.0000000   1.0000000   6.0000000   1.0000000   1.0000000

  Atom        31          32          33          34          35          36          37          38          39          40
 IAtWgt=           1          12          12          12          12          12           1           1           1           1
 AtmWgt=   1.0078250  12.0000000  12.0000000  12.0000000  12.0000000  12.0000000   1.0078250   1.0078250   1.0078250   1.0078250
 NucSpn=           1           0           0           0           0           0           1           1           1           1
 AtZEff=   0.0000000   0.0000000   0.0000000   0.0000000   0.0000000   0.0000000   0.0000000   0.0000000   0.0000000   0.0000000
 NQMom=    0.0000000   0.0000000   0.0000000   0.0000000   0.0000000   0.0000000   0.0000000   0.0000000   0.0000000   0.0000000
 NMagM=    2.7928460   0.0000000   0.0000000   0.0000000   0.0000000   0.0000000   2.7928460   2.7928460   2.7928460   2.7928460
 AtZNuc=   1.0000000   6.0000000   6.0000000   6.0000000   6.0000000   6.0000000   1.0000000   1.0000000   1.0000000   1.0000000

  Atom        41          42          43          44          45          46          47          48          49          50
 IAtWgt=           1          16          16          16          16          16          12           1           1          16
 AtmWgt=   1.0078250  15.9949146  15.9949146  15.9949146  15.9949146  15.9949146  12.0000000   1.0078250   1.0078250  15.9949146
 NucSpn=           1           0           0           0           0           0           0           1           1           0
 AtZEff=   0.0000000   0.0000000   0.0000000   0.0000000   0.0000000   0.0000000   0.0000000   0.0000000   0.0000000   0.0000000
 NQMom=    0.0000000   0.0000000   0.0000000   0.0000000   0.0000000   0.0000000   0.0000000   0.0000000   0.0000000   0.0000000
 NMagM=    2.7928460   0.0000000   0.0000000   0.0000000   0.0000000   0.0000000   0.0000000   2.7928460   2.7928460   0.0000000
 AtZNuc=   1.0000000   8.0000000   8.0000000   8.0000000   8.0000000   8.0000000   6.0000000   1.0000000   1.0000000   8.0000000

  Atom        51          52          53          54          55          56          57          58          59          60
 IAtWgt=          32          16          16          12          12          12          12           1          12           1
 AtmWgt=  31.9720718  15.9949146  15.9949146  12.0000000  12.0000000  12.0000000  12.0000000   1.0078250  12.0000000   1.0078250
 NucSpn=           0           0           0           0           0           0           0           1           0           1
 AtZEff=   0.0000000   0.0000000   0.0000000   0.0000000   0.0000000   0.0000000   0.0000000   0.0000000   0.0000000   0.0000000
 NQMom=    0.0000000   0.0000000   0.0000000   0.0000000   0.0000000   0.0000000   0.0000000   0.0000000   0.0000000   0.0000000
 NMagM=    0.0000000   0.0000000   0.0000000   0.0000000   0.0000000   0.0000000   0.0000000   2.7928460   0.0000000   2.7928460
 AtZNuc=  16.0000000   8.0000000   8.0000000   6.0000000   6.0000000   6.0000000   6.0000000   1.0000000   6.0000000   1.0000000

  Atom        61          62          63          64          65          66          67          68          69          70
 IAtWgt=          12           1          12           1           1           1          12           1           1           1
 AtmWgt=  12.0000000   1.0078250  12.0000000   1.0078250   1.0078250   1.0078250  12.0000000   1.0078250   1.0078250   1.0078250
 NucSpn=           0           1           0           1           1           1           0           1           1           1
 AtZEff=   0.0000000   0.0000000   0.0000000   0.0000000   0.0000000   0.0000000   0.0000000   0.0000000   0.0000000   0.0000000
 NQMom=    0.0000000   0.0000000   0.0000000   0.0000000   0.0000000   0.0000000   0.0000000   0.0000000   0.0000000   0.0000000
 NMagM=    0.0000000   2.7928460   0.0000000   2.7928460   2.7928460   2.7928460   0.0000000   2.7928460   2.7928460   2.7928460
 AtZNuc=   6.0000000   1.0000000   6.0000000   1.0000000   1.0000000   1.0000000   6.0000000   1.0000000   1.0000000   1.0000000

  Atom        71          72          73          74          75          76          77          78          79          80
 IAtWgt=          12           1           1           1          12           1           1           1          12           1
 AtmWgt=  12.0000000   1.0078250   1.0078250   1.0078250  12.0000000   1.0078250   1.0078250   1.0078250  12.0000000   1.0078250
 NucSpn=           0           1           1           1           0           1           1           1           0           1
 AtZEff=   0.0000000   0.0000000   0.0000000   0.0000000   0.0000000   0.0000000   0.0000000   0.0000000   0.0000000   0.0000000
 NQMom=    0.0000000   0.0000000   0.0000000   0.0000000   0.0000000   0.0000000   0.0000000   0.0000000   0.0000000   0.0000000
 NMagM=    0.0000000   2.7928460   2.7928460   2.7928460   0.0000000   2.7928460   2.7928460   2.7928460   0.0000000   2.7928460
 AtZNuc=   6.0000000   1.0000000   1.0000000   1.0000000   6.0000000   1.0000000   1.0000000   1.0000000   6.0000000   1.0000000

  Atom        81          82          83          84          85          86          87          88          89          90
 IAtWgt=           1           1          23          16          12           1           1           1          12           1
 AtmWgt=   1.0078250   1.0078250  22.9897697  15.9949146  12.0000000   1.0078250   1.0078250   1.0078250  12.0000000   1.0078250
 NucSpn=           1           1           3           0           0           1           1           1           0           1
 AtZEff=   0.0000000   0.0000000   0.0000000   0.0000000   0.0000000   0.0000000   0.0000000   0.0000000   0.0000000   0.0000000
 NQMom=    0.0000000   0.0000000  10.4000000   0.0000000   0.0000000   0.0000000   0.0000000   0.0000000   0.0000000   0.0000000
 NMagM=    2.7928460   2.7928460   2.2175200   0.0000000   0.0000000   2.7928460   2.7928460   2.7928460   0.0000000   2.7928460
 AtZNuc=   1.0000000   1.0000000  11.0000000   8.0000000   6.0000000   1.0000000   1.0000000   1.0000000   6.0000000   1.0000000

  Atom        91          92          93          94          95          96          97          98          99         100
 IAtWgt=           1           1          12          19          19          19          12          19          19          19
 AtmWgt=   1.0078250   1.0078250  12.0000000  18.9984033  18.9984033  18.9984033  12.0000000  18.9984033  18.9984033  18.9984033
 NucSpn=           1           1           0           1           1           1           0           1           1           1
 AtZEff=   0.0000000   0.0000000   0.0000000   0.0000000   0.0000000   0.0000000   0.0000000   0.0000000   0.0000000   0.0000000
 NQMom=    0.0000000   0.0000000   0.0000000   0.0000000   0.0000000   0.0000000   0.0000000   0.0000000   0.0000000   0.0000000
 NMagM=    2.7928460   2.7928460   0.0000000   2.6288670   2.6288670   2.6288670   0.0000000   2.6288670   2.6288670   2.6288670
 AtZNuc=   1.0000000   1.0000000   6.0000000   9.0000000   9.0000000   9.0000000   6.0000000   9.0000000   9.0000000   9.0000000
 Leave Link  101 at Sun May 26 04:40:25 2019, MaxMem=  6442450944 cpu:              18.1 elap:               0.7
 (Enter /home/ekwan/sw/g16/l103.exe)

 GradGradGradGradGradGradGradGradGradGradGradGradGradGradGradGradGradGrad
 Berny optimization.
 Initialization pass.
                           ----------------------------
                           !    Initial Parameters    !
                           ! (Angstroms and Degrees)  !
 --------------------------                            --------------------------
 ! Name  Definition              Value          Derivative Info.                !
 --------------------------------------------------------------------------------
 ! R1    R(1,2)                  1.5301         calculate D2E/DX2 analytically  !
 ! R2    R(1,5)                  1.5297         calculate D2E/DX2 analytically  !
 ! R3    R(1,8)                  1.0972         calculate D2E/DX2 analytically  !
 ! R4    R(1,14)                 1.4257         calculate D2E/DX2 analytically  !
 ! R5    R(2,3)                  1.5299         calculate D2E/DX2 analytically  !
 ! R6    R(2,7)                  1.0987         calculate D2E/DX2 analytically  !
 ! R7    R(2,13)                 1.4183         calculate D2E/DX2 analytically  !
 ! R8    R(3,6)                  1.0966         calculate D2E/DX2 analytically  !
 ! R9    R(3,11)                 1.4191         calculate D2E/DX2 analytically  !
 ! R10   R(3,12)                 1.3988         calculate D2E/DX2 analytically  !
 ! R11   R(4,5)                  1.5328         calculate D2E/DX2 analytically  !
 ! R12   R(4,9)                  1.0974         calculate D2E/DX2 analytically  !
 ! R13   R(4,11)                 1.4515         calculate D2E/DX2 analytically  !
 ! R14   R(4,16)                 1.5394         calculate D2E/DX2 analytically  !
 ! R15   R(5,10)                 1.0952         calculate D2E/DX2 analytically  !
 ! R16   R(5,15)                 1.4272         calculate D2E/DX2 analytically  !
 ! R17   R(6,92)                 2.3831         calculate D2E/DX2 analytically  !
 ! R18   R(10,37)                2.0479         calculate D2E/DX2 analytically  !
 ! R19   R(12,79)                1.4234         calculate D2E/DX2 analytically  !
 ! R20   R(13,20)                1.4225         calculate D2E/DX2 analytically  !
 ! R21   R(14,24)                1.4202         calculate D2E/DX2 analytically  !
 ! R22   R(15,28)                1.4218         calculate D2E/DX2 analytically  !
 ! R23   R(16,17)                1.1117         calculate D2E/DX2 analytically  !
 ! R24   R(16,18)                1.1155         calculate D2E/DX2 analytically  !
 ! R25   R(16,19)                1.3727         calculate D2E/DX2 analytically  !
 ! R26   R(19,37)                2.1555         calculate D2E/DX2 analytically  !
 ! R27   R(19,83)                2.2445         calculate D2E/DX2 analytically  !
 ! R28   R(20,21)                1.1004         calculate D2E/DX2 analytically  !
 ! R29   R(20,22)                1.0944         calculate D2E/DX2 analytically  !
 ! R30   R(20,23)                1.0933         calculate D2E/DX2 analytically  !
 ! R31   R(24,25)                1.0953         calculate D2E/DX2 analytically  !
 ! R32   R(24,26)                1.0999         calculate D2E/DX2 analytically  !
 ! R33   R(24,27)                1.0933         calculate D2E/DX2 analytically  !
 ! R34   R(28,29)                1.0984         calculate D2E/DX2 analytically  !
 ! R35   R(28,30)                1.0951         calculate D2E/DX2 analytically  !
 ! R36   R(28,31)                1.0937         calculate D2E/DX2 analytically  !
 ! R37   R(32,33)                1.5322         calculate D2E/DX2 analytically  !
 ! R38   R(32,36)                1.5283         calculate D2E/DX2 analytically  !
 ! R39   R(32,39)                1.0954         calculate D2E/DX2 analytically  !
 ! R40   R(32,45)                1.417          calculate D2E/DX2 analytically  !
 ! R41   R(33,34)                1.4963         calculate D2E/DX2 analytically  !
 ! R42   R(33,38)                1.0987         calculate D2E/DX2 analytically  !
 ! R43   R(33,44)                1.4125         calculate D2E/DX2 analytically  !
 ! R44   R(34,37)                1.0733         calculate D2E/DX2 analytically  !
 ! R45   R(34,42)                1.2842         calculate D2E/DX2 analytically  !
 ! R46   R(34,53)                2.1364         calculate D2E/DX2 analytically  !
 ! R47   R(35,36)                1.5362         calculate D2E/DX2 analytically  !
 ! R48   R(35,40)                1.0926         calculate D2E/DX2 analytically  !
 ! R49   R(35,42)                1.4703         calculate D2E/DX2 analytically  !
 ! R50   R(35,47)                1.5138         calculate D2E/DX2 analytically  !
 ! R51   R(36,41)                1.0966         calculate D2E/DX2 analytically  !
 ! R52   R(36,46)                1.4162         calculate D2E/DX2 analytically  !
 ! R53   R(43,51)                1.4945         calculate D2E/DX2 analytically  !
 ! R54   R(44,63)                1.4346         calculate D2E/DX2 analytically  !
 ! R55   R(45,67)                1.4244         calculate D2E/DX2 analytically  !
 ! R56   R(46,71)                1.4258         calculate D2E/DX2 analytically  !
 ! R57   R(47,48)                1.1001         calculate D2E/DX2 analytically  !
 ! R58   R(47,49)                1.0998         calculate D2E/DX2 analytically  !
 ! R59   R(47,50)                1.4117         calculate D2E/DX2 analytically  !
 ! R60   R(50,75)                1.4181         calculate D2E/DX2 analytically  !
 ! R61   R(51,52)                1.4731         calculate D2E/DX2 analytically  !
 ! R62   R(51,53)                1.5144         calculate D2E/DX2 analytically  !
 ! R63   R(51,54)                1.7984         calculate D2E/DX2 analytically  !
 ! R64   R(54,55)                1.3858         calculate D2E/DX2 analytically  !
 ! R65   R(54,56)                1.3948         calculate D2E/DX2 analytically  !
 ! R66   R(55,57)                1.397          calculate D2E/DX2 analytically  !
 ! R67   R(55,58)                1.0822         calculate D2E/DX2 analytically  !
 ! R68   R(56,59)                1.391          calculate D2E/DX2 analytically  !
 ! R69   R(56,60)                1.0828         calculate D2E/DX2 analytically  !
 ! R70   R(57,61)                1.39           calculate D2E/DX2 analytically  !
 ! R71   R(57,93)                1.5018         calculate D2E/DX2 analytically  !
 ! R72   R(58,84)                2.2723         calculate D2E/DX2 analytically  !
 ! R73   R(59,61)                1.3993         calculate D2E/DX2 analytically  !
 ! R74   R(59,97)                1.5037         calculate D2E/DX2 analytically  !
 ! R75   R(61,62)                1.0835         calculate D2E/DX2 analytically  !
 ! R76   R(63,64)                1.096          calculate D2E/DX2 analytically  !
 ! R77   R(63,65)                1.0938         calculate D2E/DX2 analytically  !
 ! R78   R(63,66)                1.0917         calculate D2E/DX2 analytically  !
 ! R79   R(67,68)                1.0975         calculate D2E/DX2 analytically  !
 ! R80   R(67,69)                1.0943         calculate D2E/DX2 analytically  !
 ! R81   R(67,70)                1.0921         calculate D2E/DX2 analytically  !
 ! R82   R(71,72)                1.0939         calculate D2E/DX2 analytically  !
 ! R83   R(71,73)                1.099          calculate D2E/DX2 analytically  !
 ! R84   R(71,74)                1.0923         calculate D2E/DX2 analytically  !
 ! R85   R(75,76)                1.0917         calculate D2E/DX2 analytically  !
 ! R86   R(75,77)                1.0995         calculate D2E/DX2 analytically  !
 ! R87   R(75,78)                1.0997         calculate D2E/DX2 analytically  !
 ! R88   R(79,80)                1.0916         calculate D2E/DX2 analytically  !
 ! R89   R(79,81)                1.0961         calculate D2E/DX2 analytically  !
 ! R90   R(79,82)                1.0996         calculate D2E/DX2 analytically  !
 ! R91   R(83,84)                2.3471         calculate D2E/DX2 analytically  !
 ! R92   R(84,85)                1.4245         calculate D2E/DX2 analytically  !
 ! R93   R(84,89)                1.4266         calculate D2E/DX2 analytically  !
 ! R94   R(85,86)                1.0981         calculate D2E/DX2 analytically  !
 ! R95   R(85,87)                1.0921         calculate D2E/DX2 analytically  !
 ! R96   R(85,88)                1.0958         calculate D2E/DX2 analytically  !
 ! R97   R(89,90)                1.0977         calculate D2E/DX2 analytically  !
 ! R98   R(89,91)                1.0905         calculate D2E/DX2 analytically  !
 ! R99   R(89,92)                1.098          calculate D2E/DX2 analytically  !
 ! R100  R(93,94)                1.354          calculate D2E/DX2 analytically  !
 ! R101  R(93,95)                1.3448         calculate D2E/DX2 analytically  !
 ! R102  R(93,96)                1.3616         calculate D2E/DX2 analytically  !
 ! R103  R(97,98)                1.3569         calculate D2E/DX2 analytically  !
 ! R104  R(97,99)                1.3502         calculate D2E/DX2 analytically  !
 ! R105  R(97,100)               1.3491         calculate D2E/DX2 analytically  !
 ! A1    A(2,1,5)              110.0189         calculate D2E/DX2 analytically  !
 ! A2    A(2,1,8)              108.5366         calculate D2E/DX2 analytically  !
 ! A3    A(2,1,14)             108.3071         calculate D2E/DX2 analytically  !
 ! A4    A(5,1,8)              109.6438         calculate D2E/DX2 analytically  !
 ! A5    A(5,1,14)             110.2567         calculate D2E/DX2 analytically  !
 ! A6    A(8,1,14)             110.0458         calculate D2E/DX2 analytically  !
 ! A7    A(1,2,3)              109.9028         calculate D2E/DX2 analytically  !
 ! A8    A(1,2,7)              108.5444         calculate D2E/DX2 analytically  !
 ! A9    A(1,2,13)             112.4358         calculate D2E/DX2 analytically  !
 ! A10   A(3,2,7)              107.1899         calculate D2E/DX2 analytically  !
 ! A11   A(3,2,13)             108.5059         calculate D2E/DX2 analytically  !
 ! A12   A(7,2,13)             110.129          calculate D2E/DX2 analytically  !
 ! A13   A(2,3,6)              110.6399         calculate D2E/DX2 analytically  !
 ! A14   A(2,3,11)             109.8918         calculate D2E/DX2 analytically  !
 ! A15   A(2,3,12)             108.7857         calculate D2E/DX2 analytically  !
 ! A16   A(6,3,11)             104.6679         calculate D2E/DX2 analytically  !
 ! A17   A(6,3,12)             110.3943         calculate D2E/DX2 analytically  !
 ! A18   A(11,3,12)            112.4284         calculate D2E/DX2 analytically  !
 ! A19   A(5,4,9)              108.654          calculate D2E/DX2 analytically  !
 ! A20   A(5,4,11)             109.8589         calculate D2E/DX2 analytically  !
 ! A21   A(5,4,16)             113.1577         calculate D2E/DX2 analytically  !
 ! A22   A(9,4,11)             108.8463         calculate D2E/DX2 analytically  !
 ! A23   A(9,4,16)             110.2736         calculate D2E/DX2 analytically  !
 ! A24   A(11,4,16)            105.9599         calculate D2E/DX2 analytically  !
 ! A25   A(1,5,4)              112.7719         calculate D2E/DX2 analytically  !
 ! A26   A(1,5,10)             107.223          calculate D2E/DX2 analytically  !
 ! A27   A(1,5,15)             109.0993         calculate D2E/DX2 analytically  !
 ! A28   A(4,5,10)             108.766          calculate D2E/DX2 analytically  !
 ! A29   A(4,5,15)             109.0438         calculate D2E/DX2 analytically  !
 ! A30   A(10,5,15)            109.9037         calculate D2E/DX2 analytically  !
 ! A31   A(3,6,92)             147.6027         calculate D2E/DX2 analytically  !
 ! A32   A(5,10,37)            152.4227         calculate D2E/DX2 analytically  !
 ! A33   A(3,11,4)             114.9134         calculate D2E/DX2 analytically  !
 ! A34   A(3,12,79)            113.201          calculate D2E/DX2 analytically  !
 ! A35   A(2,13,20)            113.7891         calculate D2E/DX2 analytically  !
 ! A36   A(1,14,24)            114.2023         calculate D2E/DX2 analytically  !
 ! A37   A(5,15,28)            114.02           calculate D2E/DX2 analytically  !
 ! A38   A(4,16,17)            105.469          calculate D2E/DX2 analytically  !
 ! A39   A(4,16,18)            105.2599         calculate D2E/DX2 analytically  !
 ! A40   A(4,16,19)            113.6531         calculate D2E/DX2 analytically  !
 ! A41   A(17,16,18)           104.882          calculate D2E/DX2 analytically  !
 ! A42   A(17,16,19)           113.9508         calculate D2E/DX2 analytically  !
 ! A43   A(18,16,19)           112.7717         calculate D2E/DX2 analytically  !
 ! A44   A(16,19,37)           127.0161         calculate D2E/DX2 analytically  !
 ! A45   A(16,19,83)           111.118          calculate D2E/DX2 analytically  !
 ! A46   A(37,19,83)            70.3326         calculate D2E/DX2 analytically  !
 ! A47   A(13,20,21)           111.1842         calculate D2E/DX2 analytically  !
 ! A48   A(13,20,22)           111.4377         calculate D2E/DX2 analytically  !
 ! A49   A(13,20,23)           106.6239         calculate D2E/DX2 analytically  !
 ! A50   A(21,20,22)           108.9266         calculate D2E/DX2 analytically  !
 ! A51   A(21,20,23)           108.8715         calculate D2E/DX2 analytically  !
 ! A52   A(22,20,23)           109.7432         calculate D2E/DX2 analytically  !
 ! A53   A(14,24,25)           111.5451         calculate D2E/DX2 analytically  !
 ! A54   A(14,24,26)           111.1145         calculate D2E/DX2 analytically  !
 ! A55   A(14,24,27)           106.7085         calculate D2E/DX2 analytically  !
 ! A56   A(25,24,26)           108.9668         calculate D2E/DX2 analytically  !
 ! A57   A(25,24,27)           109.5614         calculate D2E/DX2 analytically  !
 ! A58   A(26,24,27)           108.8855         calculate D2E/DX2 analytically  !
 ! A59   A(15,28,29)           111.1168         calculate D2E/DX2 analytically  !
 ! A60   A(15,28,30)           112.1901         calculate D2E/DX2 analytically  !
 ! A61   A(15,28,31)           106.6477         calculate D2E/DX2 analytically  !
 ! A62   A(29,28,30)           108.5614         calculate D2E/DX2 analytically  !
 ! A63   A(29,28,31)           109.0552         calculate D2E/DX2 analytically  !
 ! A64   A(30,28,31)           109.2062         calculate D2E/DX2 analytically  !
 ! A65   A(33,32,36)           107.2414         calculate D2E/DX2 analytically  !
 ! A66   A(33,32,39)           109.4777         calculate D2E/DX2 analytically  !
 ! A67   A(33,32,45)           111.3232         calculate D2E/DX2 analytically  !
 ! A68   A(36,32,39)           109.6406         calculate D2E/DX2 analytically  !
 ! A69   A(36,32,45)           108.5901         calculate D2E/DX2 analytically  !
 ! A70   A(39,32,45)           110.4971         calculate D2E/DX2 analytically  !
 ! A71   A(32,33,34)           110.4874         calculate D2E/DX2 analytically  !
 ! A72   A(32,33,38)           109.781          calculate D2E/DX2 analytically  !
 ! A73   A(32,33,44)           113.8142         calculate D2E/DX2 analytically  !
 ! A74   A(34,33,38)           102.8248         calculate D2E/DX2 analytically  !
 ! A75   A(34,33,44)           110.1365         calculate D2E/DX2 analytically  !
 ! A76   A(38,33,44)           109.226          calculate D2E/DX2 analytically  !
 ! A77   A(33,34,37)           121.1999         calculate D2E/DX2 analytically  !
 ! A78   A(33,34,42)           121.4767         calculate D2E/DX2 analytically  !
 ! A79   A(33,34,53)            97.7215         calculate D2E/DX2 analytically  !
 ! A80   A(37,34,42)           114.895          calculate D2E/DX2 analytically  !
 ! A81   A(37,34,53)            88.2763         calculate D2E/DX2 analytically  !
 ! A82   A(42,34,53)            99.2998         calculate D2E/DX2 analytically  !
 ! A83   A(36,35,40)           108.4564         calculate D2E/DX2 analytically  !
 ! A84   A(36,35,42)           114.4553         calculate D2E/DX2 analytically  !
 ! A85   A(36,35,47)           113.3814         calculate D2E/DX2 analytically  !
 ! A86   A(40,35,42)           104.5105         calculate D2E/DX2 analytically  !
 ! A87   A(40,35,47)           110.0423         calculate D2E/DX2 analytically  !
 ! A88   A(42,35,47)           105.5989         calculate D2E/DX2 analytically  !
 ! A89   A(32,36,35)           111.7437         calculate D2E/DX2 analytically  !
 ! A90   A(32,36,41)           108.7012         calculate D2E/DX2 analytically  !
 ! A91   A(32,36,46)           112.116          calculate D2E/DX2 analytically  !
 ! A92   A(35,36,41)           109.2328         calculate D2E/DX2 analytically  !
 ! A93   A(35,36,46)           104.4058         calculate D2E/DX2 analytically  !
 ! A94   A(41,36,46)           110.5781         calculate D2E/DX2 analytically  !
 ! A95   A(10,37,19)            77.909          calculate D2E/DX2 analytically  !
 ! A96   A(10,37,34)           138.3135         calculate D2E/DX2 analytically  !
 ! A97   A(19,37,34)            99.5139         calculate D2E/DX2 analytically  !
 ! A98   A(34,42,35)           122.9054         calculate D2E/DX2 analytically  !
 ! A99   A(33,44,63)           113.2455         calculate D2E/DX2 analytically  !
 ! A100  A(32,45,67)           114.0043         calculate D2E/DX2 analytically  !
 ! A101  A(36,46,71)           114.2559         calculate D2E/DX2 analytically  !
 ! A102  A(35,47,48)           108.1942         calculate D2E/DX2 analytically  !
 ! A103  A(35,47,49)           109.5513         calculate D2E/DX2 analytically  !
 ! A104  A(35,47,50)           108.1178         calculate D2E/DX2 analytically  !
 ! A105  A(48,47,49)           108.2804         calculate D2E/DX2 analytically  !
 ! A106  A(48,47,50)           111.6403         calculate D2E/DX2 analytically  !
 ! A107  A(49,47,50)           111.004          calculate D2E/DX2 analytically  !
 ! A108  A(47,50,75)           112.5843         calculate D2E/DX2 analytically  !
 ! A109  A(43,51,52)           114.6826         calculate D2E/DX2 analytically  !
 ! A110  A(43,51,53)           111.9211         calculate D2E/DX2 analytically  !
 ! A111  A(43,51,54)           105.8016         calculate D2E/DX2 analytically  !
 ! A112  A(52,51,53)           112.4453         calculate D2E/DX2 analytically  !
 ! A113  A(52,51,54)           107.2091         calculate D2E/DX2 analytically  !
 ! A114  A(53,51,54)           103.8244         calculate D2E/DX2 analytically  !
 ! A115  A(34,53,51)           115.7376         calculate D2E/DX2 analytically  !
 ! A116  A(51,54,55)           120.0099         calculate D2E/DX2 analytically  !
 ! A117  A(51,54,56)           118.972          calculate D2E/DX2 analytically  !
 ! A118  A(55,54,56)           120.9623         calculate D2E/DX2 analytically  !
 ! A119  A(54,55,57)           119.3005         calculate D2E/DX2 analytically  !
 ! A120  A(54,55,58)           120.5944         calculate D2E/DX2 analytically  !
 ! A121  A(57,55,58)           120.0153         calculate D2E/DX2 analytically  !
 ! A122  A(54,56,59)           119.0682         calculate D2E/DX2 analytically  !
 ! A123  A(54,56,60)           120.3269         calculate D2E/DX2 analytically  !
 ! A124  A(59,56,60)           120.5591         calculate D2E/DX2 analytically  !
 ! A125  A(55,57,61)           120.7732         calculate D2E/DX2 analytically  !
 ! A126  A(55,57,93)           117.7455         calculate D2E/DX2 analytically  !
 ! A127  A(61,57,93)           121.3612         calculate D2E/DX2 analytically  !
 ! A128  A(56,59,61)           120.8553         calculate D2E/DX2 analytically  !
 ! A129  A(56,59,97)           120.7068         calculate D2E/DX2 analytically  !
 ! A130  A(61,59,97)           118.3958         calculate D2E/DX2 analytically  !
 ! A131  A(57,61,59)           119.0276         calculate D2E/DX2 analytically  !
 ! A132  A(57,61,62)           120.4923         calculate D2E/DX2 analytically  !
 ! A133  A(59,61,62)           120.4736         calculate D2E/DX2 analytically  !
 ! A134  A(44,63,64)           109.4271         calculate D2E/DX2 analytically  !
 ! A135  A(44,63,65)           110.9011         calculate D2E/DX2 analytically  !
 ! A136  A(44,63,66)           106.0593         calculate D2E/DX2 analytically  !
 ! A137  A(64,63,65)           110.0415         calculate D2E/DX2 analytically  !
 ! A138  A(64,63,66)           110.7376         calculate D2E/DX2 analytically  !
 ! A139  A(65,63,66)           109.6106         calculate D2E/DX2 analytically  !
 ! A140  A(45,67,68)           111.1289         calculate D2E/DX2 analytically  !
 ! A141  A(45,67,69)           111.5825         calculate D2E/DX2 analytically  !
 ! A142  A(45,67,70)           106.6465         calculate D2E/DX2 analytically  !
 ! A143  A(68,67,69)           108.9141         calculate D2E/DX2 analytically  !
 ! A144  A(68,67,70)           109.1535         calculate D2E/DX2 analytically  !
 ! A145  A(69,67,70)           109.3598         calculate D2E/DX2 analytically  !
 ! A146  A(46,71,72)           111.2273         calculate D2E/DX2 analytically  !
 ! A147  A(46,71,73)           110.9441         calculate D2E/DX2 analytically  !
 ! A148  A(46,71,74)           106.3271         calculate D2E/DX2 analytically  !
 ! A149  A(72,71,73)           109.3256         calculate D2E/DX2 analytically  !
 ! A150  A(72,71,74)           109.8227         calculate D2E/DX2 analytically  !
 ! A151  A(73,71,74)           109.1357         calculate D2E/DX2 analytically  !
 ! A152  A(50,75,76)           106.941          calculate D2E/DX2 analytically  !
 ! A153  A(50,75,77)           111.2439         calculate D2E/DX2 analytically  !
 ! A154  A(50,75,78)           111.3051         calculate D2E/DX2 analytically  !
 ! A155  A(76,75,77)           109.2173         calculate D2E/DX2 analytically  !
 ! A156  A(76,75,78)           109.3694         calculate D2E/DX2 analytically  !
 ! A157  A(77,75,78)           108.7223         calculate D2E/DX2 analytically  !
 ! A158  A(12,79,80)           106.7733         calculate D2E/DX2 analytically  !
 ! A159  A(12,79,81)           111.473          calculate D2E/DX2 analytically  !
 ! A160  A(12,79,82)           110.7741         calculate D2E/DX2 analytically  !
 ! A161  A(80,79,81)           109.5079         calculate D2E/DX2 analytically  !
 ! A162  A(80,79,82)           109.3592         calculate D2E/DX2 analytically  !
 ! A163  A(81,79,82)           108.9134         calculate D2E/DX2 analytically  !
 ! A164  A(19,83,84)           160.6171         calculate D2E/DX2 analytically  !
 ! A165  A(58,84,83)            75.5142         calculate D2E/DX2 analytically  !
 ! A166  A(58,84,85)           123.4053         calculate D2E/DX2 analytically  !
 ! A167  A(58,84,89)            86.2067         calculate D2E/DX2 analytically  !
 ! A168  A(83,84,85)           120.0295         calculate D2E/DX2 analytically  !
 ! A169  A(83,84,89)           125.9913         calculate D2E/DX2 analytically  !
 ! A170  A(85,84,89)           112.5481         calculate D2E/DX2 analytically  !
 ! A171  A(84,85,86)           110.6593         calculate D2E/DX2 analytically  !
 ! A172  A(84,85,87)           107.1053         calculate D2E/DX2 analytically  !
 ! A173  A(84,85,88)           110.7193         calculate D2E/DX2 analytically  !
 ! A174  A(86,85,87)           109.3912         calculate D2E/DX2 analytically  !
 ! A175  A(86,85,88)           109.5397         calculate D2E/DX2 analytically  !
 ! A176  A(87,85,88)           109.3804         calculate D2E/DX2 analytically  !
 ! A177  A(84,89,90)           110.3924         calculate D2E/DX2 analytically  !
 ! A178  A(84,89,91)           106.6507         calculate D2E/DX2 analytically  !
 ! A179  A(84,89,92)           110.7622         calculate D2E/DX2 analytically  !
 ! A180  A(90,89,91)           109.9373         calculate D2E/DX2 analytically  !
 ! A181  A(90,89,92)           109.2098         calculate D2E/DX2 analytically  !
 ! A182  A(91,89,92)           109.8616         calculate D2E/DX2 analytically  !
 ! A183  A(6,92,89)            104.5492         calculate D2E/DX2 analytically  !
 ! A184  A(57,93,94)           111.7201         calculate D2E/DX2 analytically  !
 ! A185  A(57,93,95)           112.8558         calculate D2E/DX2 analytically  !
 ! A186  A(57,93,96)           110.8796         calculate D2E/DX2 analytically  !
 ! A187  A(94,93,95)           107.7124         calculate D2E/DX2 analytically  !
 ! A188  A(94,93,96)           106.1393         calculate D2E/DX2 analytically  !
 ! A189  A(95,93,96)           107.1902         calculate D2E/DX2 analytically  !
 ! A190  A(59,97,98)           110.9201         calculate D2E/DX2 analytically  !
 ! A191  A(59,97,99)           111.8835         calculate D2E/DX2 analytically  !
 ! A192  A(59,97,100)          112.3765         calculate D2E/DX2 analytically  !
 ! A193  A(98,97,99)           106.6154         calculate D2E/DX2 analytically  !
 ! A194  A(98,97,100)          107.1379         calculate D2E/DX2 analytically  !
 ! A195  A(99,97,100)          107.6044         calculate D2E/DX2 analytically  !
 ! A196  L(55,58,84,19,-1)     172.5087         calculate D2E/DX2 analytically  !
 ! A197  L(55,58,84,19,-2)     166.4251         calculate D2E/DX2 analytically  !
 ! D1    D(5,1,2,3)            -53.6337         calculate D2E/DX2 analytically  !
 ! D2    D(5,1,2,7)             63.3014         calculate D2E/DX2 analytically  !
 ! D3    D(5,1,2,13)          -174.6109         calculate D2E/DX2 analytically  !
 ! D4    D(8,1,2,3)             66.3355         calculate D2E/DX2 analytically  !
 ! D5    D(8,1,2,7)           -176.7295         calculate D2E/DX2 analytically  !
 ! D6    D(8,1,2,13)           -54.6418         calculate D2E/DX2 analytically  !
 ! D7    D(14,1,2,3)          -174.2097         calculate D2E/DX2 analytically  !
 ! D8    D(14,1,2,7)           -57.2747         calculate D2E/DX2 analytically  !
 ! D9    D(14,1,2,13)           64.813          calculate D2E/DX2 analytically  !
 ! D10   D(2,1,5,4)             50.7891         calculate D2E/DX2 analytically  !
 ! D11   D(2,1,5,10)           -68.9076         calculate D2E/DX2 analytically  !
 ! D12   D(2,1,5,15)           172.1111         calculate D2E/DX2 analytically  !
 ! D13   D(8,1,5,4)            -68.5063         calculate D2E/DX2 analytically  !
 ! D14   D(8,1,5,10)           171.797          calculate D2E/DX2 analytically  !
 ! D15   D(8,1,5,15)            52.8156         calculate D2E/DX2 analytically  !
 ! D16   D(14,1,5,4)           170.183          calculate D2E/DX2 analytically  !
 ! D17   D(14,1,5,10)           50.4863         calculate D2E/DX2 analytically  !
 ! D18   D(14,1,5,15)          -68.495          calculate D2E/DX2 analytically  !
 ! D19   D(2,1,14,24)         -140.4216         calculate D2E/DX2 analytically  !
 ! D20   D(5,1,14,24)           99.1503         calculate D2E/DX2 analytically  !
 ! D21   D(8,1,14,24)          -21.9207         calculate D2E/DX2 analytically  !
 ! D22   D(1,2,3,6)            173.5064         calculate D2E/DX2 analytically  !
 ! D23   D(1,2,3,11)            58.4163         calculate D2E/DX2 analytically  !
 ! D24   D(1,2,3,12)           -65.0636         calculate D2E/DX2 analytically  !
 ! D25   D(7,2,3,6)             55.7274         calculate D2E/DX2 analytically  !
 ! D26   D(7,2,3,11)           -59.3627         calculate D2E/DX2 analytically  !
 ! D27   D(7,2,3,12)           177.1574         calculate D2E/DX2 analytically  !
 ! D28   D(13,2,3,6)           -63.1812         calculate D2E/DX2 analytically  !
 ! D29   D(13,2,3,11)         -178.2713         calculate D2E/DX2 analytically  !
 ! D30   D(13,2,3,12)           58.2489         calculate D2E/DX2 analytically  !
 ! D31   D(1,2,13,20)          -96.9277         calculate D2E/DX2 analytically  !
 ! D32   D(3,2,13,20)          141.2971         calculate D2E/DX2 analytically  !
 ! D33   D(7,2,13,20)           24.2574         calculate D2E/DX2 analytically  !
 ! D34   D(2,3,6,92)           -15.3295         calculate D2E/DX2 analytically  !
 ! D35   D(11,3,6,92)          102.9922         calculate D2E/DX2 analytically  !
 ! D36   D(12,3,6,92)         -135.805          calculate D2E/DX2 analytically  !
 ! D37   D(2,3,11,4)           -61.4572         calculate D2E/DX2 analytically  !
 ! D38   D(6,3,11,4)           179.714          calculate D2E/DX2 analytically  !
 ! D39   D(12,3,11,4)           59.8639         calculate D2E/DX2 analytically  !
 ! D40   D(2,3,12,79)         -173.0631         calculate D2E/DX2 analytically  !
 ! D41   D(6,3,12,79)          -51.4831         calculate D2E/DX2 analytically  !
 ! D42   D(11,3,12,79)          64.9857         calculate D2E/DX2 analytically  !
 ! D43   D(9,4,5,1)             68.4506         calculate D2E/DX2 analytically  !
 ! D44   D(9,4,5,10)          -172.7477         calculate D2E/DX2 analytically  !
 ! D45   D(9,4,5,15)           -52.9029         calculate D2E/DX2 analytically  !
 ! D46   D(11,4,5,1)           -50.5245         calculate D2E/DX2 analytically  !
 ! D47   D(11,4,5,10)           68.2771         calculate D2E/DX2 analytically  !
 ! D48   D(11,4,5,15)         -171.878          calculate D2E/DX2 analytically  !
 ! D49   D(16,4,5,1)          -168.7186         calculate D2E/DX2 analytically  !
 ! D50   D(16,4,5,10)          -49.917          calculate D2E/DX2 analytically  !
 ! D51   D(16,4,5,15)           69.9279         calculate D2E/DX2 analytically  !
 ! D52   D(5,4,11,3)            56.8686         calculate D2E/DX2 analytically  !
 ! D53   D(9,4,11,3)           -61.9884         calculate D2E/DX2 analytically  !
 ! D54   D(16,4,11,3)          179.4289         calculate D2E/DX2 analytically  !
 ! D55   D(5,4,16,17)          -63.5753         calculate D2E/DX2 analytically  !
 ! D56   D(5,4,16,18)         -174.1679         calculate D2E/DX2 analytically  !
 ! D57   D(5,4,16,19)           61.9494         calculate D2E/DX2 analytically  !
 ! D58   D(9,4,16,17)           58.3529         calculate D2E/DX2 analytically  !
 ! D59   D(9,4,16,18)          -52.2398         calculate D2E/DX2 analytically  !
 ! D60   D(9,4,16,19)         -176.1225         calculate D2E/DX2 analytically  !
 ! D61   D(11,4,16,17)         175.9862         calculate D2E/DX2 analytically  !
 ! D62   D(11,4,16,18)          65.3935         calculate D2E/DX2 analytically  !
 ! D63   D(11,4,16,19)         -58.4892         calculate D2E/DX2 analytically  !
 ! D64   D(1,5,10,37)          142.3012         calculate D2E/DX2 analytically  !
 ! D65   D(4,5,10,37)           20.0718         calculate D2E/DX2 analytically  !
 ! D66   D(15,5,10,37)         -99.2373         calculate D2E/DX2 analytically  !
 ! D67   D(1,5,15,28)          127.9445         calculate D2E/DX2 analytically  !
 ! D68   D(4,5,15,28)         -108.4925         calculate D2E/DX2 analytically  !
 ! D69   D(10,5,15,28)          10.6465         calculate D2E/DX2 analytically  !
 ! D70   D(3,6,92,89)          -70.4549         calculate D2E/DX2 analytically  !
 ! D71   D(5,10,37,19)           1.1311         calculate D2E/DX2 analytically  !
 ! D72   D(5,10,37,34)          91.9116         calculate D2E/DX2 analytically  !
 ! D73   D(3,12,79,80)         173.8318         calculate D2E/DX2 analytically  !
 ! D74   D(3,12,79,81)         -66.6069         calculate D2E/DX2 analytically  !
 ! D75   D(3,12,79,82)          54.8434         calculate D2E/DX2 analytically  !
 ! D76   D(2,13,20,21)         -60.5067         calculate D2E/DX2 analytically  !
 ! D77   D(2,13,20,22)          61.2219         calculate D2E/DX2 analytically  !
 ! D78   D(2,13,20,23)        -179.0439         calculate D2E/DX2 analytically  !
 ! D79   D(1,14,24,25)         -60.2746         calculate D2E/DX2 analytically  !
 ! D80   D(1,14,24,26)          61.5315         calculate D2E/DX2 analytically  !
 ! D81   D(1,14,24,27)        -179.9017         calculate D2E/DX2 analytically  !
 ! D82   D(5,15,28,29)         -61.8235         calculate D2E/DX2 analytically  !
 ! D83   D(5,15,28,30)          59.9161         calculate D2E/DX2 analytically  !
 ! D84   D(5,15,28,31)         179.4404         calculate D2E/DX2 analytically  !
 ! D85   D(4,16,19,37)         -39.277          calculate D2E/DX2 analytically  !
 ! D86   D(4,16,19,83)          41.4789         calculate D2E/DX2 analytically  !
 ! D87   D(17,16,19,37)         81.5982         calculate D2E/DX2 analytically  !
 ! D88   D(17,16,19,83)        162.3541         calculate D2E/DX2 analytically  !
 ! D89   D(18,16,19,37)       -158.979          calculate D2E/DX2 analytically  !
 ! D90   D(18,16,19,83)        -78.223          calculate D2E/DX2 analytically  !
 ! D91   D(16,19,37,10)          8.8527         calculate D2E/DX2 analytically  !
 ! D92   D(16,19,37,34)       -128.75           calculate D2E/DX2 analytically  !
 ! D93   D(83,19,37,10)        -93.2518         calculate D2E/DX2 analytically  !
 ! D94   D(83,19,37,34)        129.1455         calculate D2E/DX2 analytically  !
 ! D95   D(16,19,83,84)         29.618          calculate D2E/DX2 analytically  !
 ! D96   D(37,19,83,84)        152.8016         calculate D2E/DX2 analytically  !
 ! D97   D(36,32,33,34)        -56.3964         calculate D2E/DX2 analytically  !
 ! D98   D(36,32,33,38)         56.3214         calculate D2E/DX2 analytically  !
 ! D99   D(36,32,33,44)        179.0896         calculate D2E/DX2 analytically  !
 ! D100  D(39,32,33,34)         62.489          calculate D2E/DX2 analytically  !
 ! D101  D(39,32,33,38)        175.2069         calculate D2E/DX2 analytically  !
 ! D102  D(39,32,33,44)        -62.0249         calculate D2E/DX2 analytically  !
 ! D103  D(45,32,33,34)       -175.0471         calculate D2E/DX2 analytically  !
 ! D104  D(45,32,33,38)        -62.3292         calculate D2E/DX2 analytically  !
 ! D105  D(45,32,33,44)         60.439          calculate D2E/DX2 analytically  !
 ! D106  D(33,32,36,35)         56.8463         calculate D2E/DX2 analytically  !
 ! D107  D(33,32,36,41)        -63.7784         calculate D2E/DX2 analytically  !
 ! D108  D(33,32,36,46)        173.6667         calculate D2E/DX2 analytically  !
 ! D109  D(39,32,36,35)        -61.934          calculate D2E/DX2 analytically  !
 ! D110  D(39,32,36,41)        177.4413         calculate D2E/DX2 analytically  !
 ! D111  D(39,32,36,46)         54.8864         calculate D2E/DX2 analytically  !
 ! D112  D(45,32,36,35)        177.2494         calculate D2E/DX2 analytically  !
 ! D113  D(45,32,36,41)         56.6246         calculate D2E/DX2 analytically  !
 ! D114  D(45,32,36,46)        -65.9303         calculate D2E/DX2 analytically  !
 ! D115  D(33,32,45,67)       -100.9253         calculate D2E/DX2 analytically  !
 ! D116  D(36,32,45,67)        141.2358         calculate D2E/DX2 analytically  !
 ! D117  D(39,32,45,67)         20.9492         calculate D2E/DX2 analytically  !
 ! D118  D(32,33,34,37)       -158.5924         calculate D2E/DX2 analytically  !
 ! D119  D(32,33,34,42)         39.9961         calculate D2E/DX2 analytically  !
 ! D120  D(32,33,34,53)        -65.92           calculate D2E/DX2 analytically  !
 ! D121  D(38,33,34,37)         84.3055         calculate D2E/DX2 analytically  !
 ! D122  D(38,33,34,42)        -77.106          calculate D2E/DX2 analytically  !
 ! D123  D(38,33,34,53)        176.9779         calculate D2E/DX2 analytically  !
 ! D124  D(44,33,34,37)        -32.0015         calculate D2E/DX2 analytically  !
 ! D125  D(44,33,34,42)        166.587          calculate D2E/DX2 analytically  !
 ! D126  D(44,33,34,53)         60.671          calculate D2E/DX2 analytically  !
 ! D127  D(32,33,44,63)        -99.0857         calculate D2E/DX2 analytically  !
 ! D128  D(34,33,44,63)        136.2121         calculate D2E/DX2 analytically  !
 ! D129  D(38,33,44,63)         23.9861         calculate D2E/DX2 analytically  !
 ! D130  D(33,34,37,10)       -134.6861         calculate D2E/DX2 analytically  !
 ! D131  D(33,34,37,19)        -52.2229         calculate D2E/DX2 analytically  !
 ! D132  D(42,34,37,10)         27.8736         calculate D2E/DX2 analytically  !
 ! D133  D(42,34,37,19)        110.3368         calculate D2E/DX2 analytically  !
 ! D134  D(53,34,37,10)        127.3284         calculate D2E/DX2 analytically  !
 ! D135  D(53,34,37,19)       -150.2084         calculate D2E/DX2 analytically  !
 ! D136  D(33,34,42,35)        -20.4313         calculate D2E/DX2 analytically  !
 ! D137  D(37,34,42,35)        177.0621         calculate D2E/DX2 analytically  !
 ! D138  D(53,34,42,35)         84.6325         calculate D2E/DX2 analytically  !
 ! D139  D(33,34,53,51)        -95.0341         calculate D2E/DX2 analytically  !
 ! D140  D(37,34,53,51)         26.2259         calculate D2E/DX2 analytically  !
 ! D141  D(42,34,53,51)        141.176          calculate D2E/DX2 analytically  !
 ! D142  D(40,35,36,32)         78.3134         calculate D2E/DX2 analytically  !
 ! D143  D(40,35,36,41)       -161.3725         calculate D2E/DX2 analytically  !
 ! D144  D(40,35,36,46)        -43.0809         calculate D2E/DX2 analytically  !
 ! D145  D(42,35,36,32)        -37.9157         calculate D2E/DX2 analytically  !
 ! D146  D(42,35,36,41)         82.3984         calculate D2E/DX2 analytically  !
 ! D147  D(42,35,36,46)       -159.31           calculate D2E/DX2 analytically  !
 ! D148  D(47,35,36,32)       -159.1446         calculate D2E/DX2 analytically  !
 ! D149  D(47,35,36,41)        -38.8305         calculate D2E/DX2 analytically  !
 ! D150  D(47,35,36,46)         79.4611         calculate D2E/DX2 analytically  !
 ! D151  D(36,35,42,34)         18.8161         calculate D2E/DX2 analytically  !
 ! D152  D(40,35,42,34)        -99.6701         calculate D2E/DX2 analytically  !
 ! D153  D(47,35,42,34)        144.2387         calculate D2E/DX2 analytically  !
 ! D154  D(36,35,47,48)        -60.7447         calculate D2E/DX2 analytically  !
 ! D155  D(36,35,47,49)       -178.5908         calculate D2E/DX2 analytically  !
 ! D156  D(36,35,47,50)         60.318          calculate D2E/DX2 analytically  !
 ! D157  D(40,35,47,48)         60.9144         calculate D2E/DX2 analytically  !
 ! D158  D(40,35,47,49)        -56.9317         calculate D2E/DX2 analytically  !
 ! D159  D(40,35,47,50)       -178.0229         calculate D2E/DX2 analytically  !
 ! D160  D(42,35,47,48)        173.1711         calculate D2E/DX2 analytically  !
 ! D161  D(42,35,47,49)         55.3251         calculate D2E/DX2 analytically  !
 ! D162  D(42,35,47,50)        -65.7662         calculate D2E/DX2 analytically  !
 ! D163  D(32,36,46,71)         97.9999         calculate D2E/DX2 analytically  !
 ! D164  D(35,36,46,71)       -140.8526         calculate D2E/DX2 analytically  !
 ! D165  D(41,36,46,71)        -23.4838         calculate D2E/DX2 analytically  !
 ! D166  D(33,44,63,64)        -61.7135         calculate D2E/DX2 analytically  !
 ! D167  D(33,44,63,65)         59.8655         calculate D2E/DX2 analytically  !
 ! D168  D(33,44,63,66)        178.7986         calculate D2E/DX2 analytically  !
 ! D169  D(32,45,67,68)        -55.1104         calculate D2E/DX2 analytically  !
 ! D170  D(32,45,67,69)         66.6645         calculate D2E/DX2 analytically  !
 ! D171  D(32,45,67,70)       -173.971          calculate D2E/DX2 analytically  !
 ! D172  D(36,46,71,72)        -61.5338         calculate D2E/DX2 analytically  !
 ! D173  D(36,46,71,73)         60.3911         calculate D2E/DX2 analytically  !
 ! D174  D(36,46,71,74)        178.9372         calculate D2E/DX2 analytically  !
 ! D175  D(35,47,50,75)        178.1428         calculate D2E/DX2 analytically  !
 ! D176  D(48,47,50,75)        -62.9593         calculate D2E/DX2 analytically  !
 ! D177  D(49,47,50,75)         57.9578         calculate D2E/DX2 analytically  !
 ! D178  D(47,50,75,76)       -179.7717         calculate D2E/DX2 analytically  !
 ! D179  D(47,50,75,77)        -60.5897         calculate D2E/DX2 analytically  !
 ! D180  D(47,50,75,78)         60.8267         calculate D2E/DX2 analytically  !
 ! D181  D(43,51,53,34)        -15.4412         calculate D2E/DX2 analytically  !
 ! D182  D(52,51,53,34)       -146.23           calculate D2E/DX2 analytically  !
 ! D183  D(54,51,53,34)         98.2191         calculate D2E/DX2 analytically  !
 ! D184  D(43,51,54,55)        -15.7752         calculate D2E/DX2 analytically  !
 ! D185  D(43,51,54,56)        161.5335         calculate D2E/DX2 analytically  !
 ! D186  D(52,51,54,55)        107.0437         calculate D2E/DX2 analytically  !
 ! D187  D(52,51,54,56)        -75.6476         calculate D2E/DX2 analytically  !
 ! D188  D(53,51,54,55)       -133.7579         calculate D2E/DX2 analytically  !
 ! D189  D(53,51,54,56)         43.5508         calculate D2E/DX2 analytically  !
 ! D190  D(51,54,55,57)        175.9175         calculate D2E/DX2 analytically  !
 ! D191  D(51,54,55,58)         -0.6365         calculate D2E/DX2 analytically  !
 ! D192  D(56,54,55,57)         -1.3368         calculate D2E/DX2 analytically  !
 ! D193  D(56,54,55,58)       -177.8907         calculate D2E/DX2 analytically  !
 ! D194  D(51,54,56,59)       -176.2371         calculate D2E/DX2 analytically  !
 ! D195  D(51,54,56,60)          1.3142         calculate D2E/DX2 analytically  !
 ! D196  D(55,54,56,59)          1.0451         calculate D2E/DX2 analytically  !
 ! D197  D(55,54,56,60)        178.5964         calculate D2E/DX2 analytically  !
 ! D198  D(54,55,57,61)          0.6693         calculate D2E/DX2 analytically  !
 ! D199  D(54,55,57,93)       -175.3992         calculate D2E/DX2 analytically  !
 ! D200  D(58,55,57,61)        177.2436         calculate D2E/DX2 analytically  !
 ! D201  D(58,55,57,93)          1.1751         calculate D2E/DX2 analytically  !
 ! D202  D(54,55,84,83)         45.8879         calculate D2E/DX2 analytically  !
 ! D203  D(54,55,84,85)        161.4727         calculate D2E/DX2 analytically  !
 ! D204  D(54,55,84,89)        -81.5852         calculate D2E/DX2 analytically  !
 ! D205  D(57,55,84,83)       -120.433          calculate D2E/DX2 analytically  !
 ! D206  D(57,55,84,85)         -4.8482         calculate D2E/DX2 analytically  !
 ! D207  D(57,55,84,89)        112.094          calculate D2E/DX2 analytically  !
 ! D208  D(54,56,59,61)         -0.0805         calculate D2E/DX2 analytically  !
 ! D209  D(54,56,59,97)        177.5211         calculate D2E/DX2 analytically  !
 ! D210  D(60,56,59,61)       -177.626          calculate D2E/DX2 analytically  !
 ! D211  D(60,56,59,97)         -0.0244         calculate D2E/DX2 analytically  !
 ! D212  D(55,57,61,59)          0.2699         calculate D2E/DX2 analytically  !
 ! D213  D(55,57,61,62)       -178.8141         calculate D2E/DX2 analytically  !
 ! D214  D(93,57,61,59)        176.1949         calculate D2E/DX2 analytically  !
 ! D215  D(93,57,61,62)         -2.8891         calculate D2E/DX2 analytically  !
 ! D216  D(55,57,93,94)        -51.8317         calculate D2E/DX2 analytically  !
 ! D217  D(55,57,93,95)       -173.3859         calculate D2E/DX2 analytically  !
 ! D218  D(55,57,93,96)         66.3456         calculate D2E/DX2 analytically  !
 ! D219  D(61,57,93,94)        132.1242         calculate D2E/DX2 analytically  !
 ! D220  D(61,57,93,95)         10.57           calculate D2E/DX2 analytically  !
 ! D221  D(61,57,93,96)       -109.6986         calculate D2E/DX2 analytically  !
 ! D222  D(56,59,61,57)         -0.5659         calculate D2E/DX2 analytically  !
 ! D223  D(56,59,61,62)        178.5183         calculate D2E/DX2 analytically  !
 ! D224  D(97,59,61,57)       -178.2218         calculate D2E/DX2 analytically  !
 ! D225  D(97,59,61,62)          0.8624         calculate D2E/DX2 analytically  !
 ! D226  D(56,59,97,98)       -123.3352         calculate D2E/DX2 analytically  !
 ! D227  D(56,59,97,99)        117.7545         calculate D2E/DX2 analytically  !
 ! D228  D(56,59,97,100)        -3.4323         calculate D2E/DX2 analytically  !
 ! D229  D(61,59,97,98)         54.3243         calculate D2E/DX2 analytically  !
 ! D230  D(61,59,97,99)        -64.586          calculate D2E/DX2 analytically  !
 ! D231  D(61,59,97,100)       174.2272         calculate D2E/DX2 analytically  !
 ! D232  D(19,83,84,58)        160.4353         calculate D2E/DX2 analytically  !
 ! D233  D(19,83,84,85)         39.9405         calculate D2E/DX2 analytically  !
 ! D234  D(19,83,84,89)       -125.3537         calculate D2E/DX2 analytically  !
 ! D235  D(58,84,85,86)        161.8071         calculate D2E/DX2 analytically  !
 ! D236  D(58,84,85,87)        -79.0301         calculate D2E/DX2 analytically  !
 ! D237  D(58,84,85,88)         40.1534         calculate D2E/DX2 analytically  !
 ! D238  D(83,84,85,86)       -106.1801         calculate D2E/DX2 analytically  !
 ! D239  D(83,84,85,87)         12.9826         calculate D2E/DX2 analytically  !
 ! D240  D(83,84,85,88)        132.1662         calculate D2E/DX2 analytically  !
 ! D241  D(89,84,85,86)         60.97           calculate D2E/DX2 analytically  !
 ! D242  D(89,84,85,87)       -179.8672         calculate D2E/DX2 analytically  !
 ! D243  D(89,84,85,88)        -60.6837         calculate D2E/DX2 analytically  !
 ! D244  D(58,84,89,90)        -64.0996         calculate D2E/DX2 analytically  !
 ! D245  D(58,84,89,91)         55.2997         calculate D2E/DX2 analytically  !
 ! D246  D(58,84,89,92)        174.8134         calculate D2E/DX2 analytically  !
 ! D247  D(83,84,89,90)       -133.1228         calculate D2E/DX2 analytically  !
 ! D248  D(83,84,89,91)        -13.7235         calculate D2E/DX2 analytically  !
 ! D249  D(83,84,89,92)        105.7902         calculate D2E/DX2 analytically  !
 ! D250  D(85,84,89,90)         60.6441         calculate D2E/DX2 analytically  !
 ! D251  D(85,84,89,91)       -179.9566         calculate D2E/DX2 analytically  !
 ! D252  D(85,84,89,92)        -60.4429         calculate D2E/DX2 analytically  !
 ! D253  D(84,89,92,6)         -39.2878         calculate D2E/DX2 analytically  !
 ! D254  D(90,89,92,6)        -161.0714         calculate D2E/DX2 analytically  !
 ! D255  D(91,89,92,6)          78.278          calculate D2E/DX2 analytically  !
 --------------------------------------------------------------------------------
 Trust Radius=1.00D-02 FncErr=1.00D-07 GrdErr=1.00D-06 EigMax=2.50D+02 EigMin=1.00D-04
 Number of steps in this run=    567 maximum allowed number of steps=    600.
 Search for a saddle point of order  1.
 Step   0 in ReCalcFC=30 IGetFC= 4 compute analytic Hessian.
 GradGradGradGradGradGradGradGradGradGradGradGradGradGradGradGradGradGrad

 Leave Link  103 at Sun May 26 04:40:26 2019, MaxMem=  6442450944 cpu:               4.1 elap:               0.2
 (Enter /home/ekwan/sw/g16/l202.exe)
 Stoichiometry    C30H47F6NaO15S
 Framework group  C1[X(C30H47F6NaO15S)]
 Deg. of freedom   294
 Full point group                 C1      NOp   1
 Largest Abelian subgroup         C1      NOp   1
 Largest concise Abelian subgroup C1      NOp   1
                         Standard orientation:                         
 ---------------------------------------------------------------------
 Center     Atomic      Atomic             Coordinates (Angstroms)
 Number     Number       Type             X           Y           Z
 ---------------------------------------------------------------------
      1          6           0       -4.728316   -0.132562    0.870830
      2          6           0       -4.160452   -1.553319    0.864174
      3          6           0       -4.101139   -2.083772   -0.569577
      4          6           0       -3.784055    0.134463   -1.483204
      5          6           0       -3.932796    0.753826   -0.089012
      6          1           0       -3.590792   -3.053797   -0.602027
      7          1           0       -3.128854   -1.519068    1.240654
      8          1           0       -5.776983   -0.174550    0.550747
      9          1           0       -4.768567    0.120110   -1.967764
     10          1           0       -2.936253    0.888732    0.344729
     11          8           0       -3.298249   -1.228448   -1.368010
     12          8           0       -5.405692   -2.202653   -1.060231
     13          8           0       -4.935116   -2.449512    1.644036
     14          8           0       -4.642934    0.377624    2.199400
     15          8           0       -4.586030    2.017193   -0.207958
     16          6           0       -2.764523    0.873849   -2.368504
     17          1           0       -3.181814    1.894189   -2.512514
     18          1           0       -2.839955    0.389423   -3.370493
     19          8           0       -1.486959    0.860011   -1.866468
     20          6           0       -4.432465   -2.646875    2.960008
     21          1           0       -3.415663   -3.066930    2.938442
     22          1           0       -4.417971   -1.711017    3.527190
     23          1           0       -5.100633   -3.362898    3.445919
     24          6           0       -5.768986    1.143376    2.602492
     25          1           0       -5.912258    2.017663    1.958483
     26          1           0       -6.686024    0.536172    2.590183
     27          1           0       -5.575492    1.471392    3.627305
     28          6           0       -3.735235    3.132637    0.022961
     29          1           0       -3.333797    3.119188    1.045269
     30          1           0       -2.896556    3.165758   -0.680477
     31          1           0       -4.349866    4.027836   -0.107553
     32          6           0        2.108649    2.657839   -0.485363
     33          6           0        0.953611    1.733301   -0.883973
     34          6           0       -0.170407    1.846550    0.097231
     35          6           0        0.372894    4.150129    0.607882
     36          6           0        1.541915    4.073669   -0.385784
     37          1           0       -0.901466    1.067202    0.197583
     38          1           0        0.498269    2.088857   -1.818549
     39          1           0        2.503438    2.349903    0.488939
     40          1           0        0.781005    4.170048    1.621245
     41          1           0        1.193260    4.383434   -1.378234
     42          8           0       -0.516948    2.979810    0.592043
     43          8           0       -0.537498   -0.981618    1.258759
     44          8           0        1.331987    0.380903   -1.036002
     45          8           0        3.135472    2.649927   -1.461782
     46          8           0        2.492960    4.994501    0.117529
     47          6           0       -0.526005    5.347999    0.386947
     48          1           0        0.078033    6.258730    0.513474
     49          1           0       -1.323123    5.354707    1.144636
     50          8           0       -1.065650    5.257825   -0.914467
     51         16           0        0.628105   -0.453703    2.030833
     52          8           0        0.622307   -0.795180    3.463807
     53          8           0        0.842404    1.025949    1.789914
     54          6           0        2.083768   -1.222244    1.306614
     55          6           0        1.946641   -2.330322    0.485823
     56          6           0        3.335245   -0.651923    1.539133
     57          6           0        3.077442   -2.863483   -0.137599
     58          1           0        0.968972   -2.747461    0.282350
     59          6           0        4.452895   -1.197605    0.916212
     60          1           0        3.427743    0.227403    2.164108
     61          6           0        4.333132   -2.304069    0.068017
     62          1           0        5.204287   -2.709377   -0.432783
     63          6           0        1.549507    0.004052   -2.403047
     64          1           0        0.618173    0.126721   -2.967602
     65          1           0        2.342778    0.607988   -2.852803
     66          1           0        1.853934   -1.044146   -2.382582
     67          6           0        4.253433    1.835995   -1.120405
     68          1           0        4.667297    2.121310   -0.144744
     69          1           0        3.986388    0.775032   -1.095909
     70          1           0        5.008237    2.001605   -1.892089
     71          6           0        3.163110    5.752357   -0.887153
     72          1           0        3.730435    5.103187   -1.560503
     73          1           0        2.448344    6.347598   -1.472394
     74          1           0        3.843649    6.425663   -0.361109
     75          6           0       -1.960719    6.317952   -1.207539
     76          1           0       -2.322853    6.156522   -2.224712
     77          1           0       -2.815062    6.320881   -0.515409
     78          1           0       -1.456748    7.293751   -1.150358
     79          6           0       -5.470498   -2.836559   -2.333073
     80          1           0       -6.528727   -2.974526   -2.562783
     81          1           0       -5.004054   -2.221974   -3.111607
     82          1           0       -4.972505   -3.816517   -2.306520
     83         11           0       -0.971911   -1.154600   -1.021459
     84          8           0       -0.945540   -3.479267   -0.698718
     85          6           0       -0.966003   -4.355184   -1.821870
     86          1           0       -1.951941   -4.827036   -1.927281
     87          1           0       -0.757855   -3.748812   -2.705934
     88          1           0       -0.197476   -5.130103   -1.723241
     89          6           0       -1.203266   -4.158159    0.529226
     90          1           0       -0.439773   -4.925988    0.709325
     91          1           0       -1.165873   -3.404677    1.316670
     92          1           0       -2.194102   -4.630953    0.512066
     93          6           0        2.875239   -3.997332   -1.101389
     94          9           0        2.144572   -4.996749   -0.553121
     95          9           0        4.032794   -4.527124   -1.534901
     96          9           0        2.185758   -3.583219   -2.200120
     97          6           0        5.811356   -0.578645    1.096695
     98          9           0        6.357210   -0.250241   -0.101397
     99          9           0        6.675154   -1.426402    1.695126
    100          9           0        5.767866    0.548901    1.836196
 ---------------------------------------------------------------------
 Rotational constants (GHZ):           0.0605757           0.0443866           0.0313195
 Leave Link  202 at Sun May 26 04:40:26 2019, MaxMem=  6442450944 cpu:               5.3 elap:               0.2
 (Enter /home/ekwan/sw/g16/l301.exe)
 Standard basis: 6-31G(d) (6D, 7F)
 Ernie: Thresh=  0.10000D-02 Tol=  0.10000D-05 Strict=F.
 There are   897 symmetry adapted cartesian basis functions of A   symmetry.
 There are   897 symmetry adapted basis functions of A   symmetry.
   897 basis functions,  1720 primitive gaussians,   897 cartesian basis functions
   214 alpha electrons      214 beta electrons
       nuclear repulsion energy      9657.7251103275 Hartrees.
 IExCor=  402 DFT=T Ex+Corr=B3LYP ExCW=0 ScaHFX=  0.200000
 ScaDFX=  0.800000  0.720000  1.000000  0.810000 ScalE2=  1.000000  1.000000
 IRadAn=      5 IRanWt=     -1 IRanGd=            0 ICorTp=0 IEmpDi=141
 NAtoms=  100 NActive=  100 NUniq=  100 SFac= 1.00D+00 NAtFMM=   60 NAOKFM=T Big=T
 Integral buffers will be    131072 words long.
 Raffenetti 2 integral format.
 Two-electron integral symmetry is turned on.
 R6Disp:  Grimme-D3(BJ) Dispersion energy=       -0.2373899434 Hartrees.
 Nuclear repulsion after empirical dispersion term =     9657.4877203842 Hartrees.
 Force inversion solution in PCM.
 ------------------------------------------------------------------------------
 Polarizable Continuum Model (PCM)
 =================================
 Model                : PCM.
 Atomic radii         : UFF (Universal Force Field).
 Polarization charges : Total charges.
 Charge compensation  : None.
 Solution method      : Matrix inversion.
 Cavity type          : Scaled VdW (van der Waals Surface) (Alpha=1.100).
 Cavity algorithm     : GePol (No added spheres)
                        Default sphere list used, NSphG=  100.
                        Lebedev-Laikov grids with approx.  5.0 points / Ang**2.
                        Smoothing algorithm: York/Karplus (Gamma=1.0000).
                        Polarization charges: spherical gaussians, with
                                              point-specific exponents (IZeta= 3).
                        Self-potential: point-specific (ISelfS= 7).
                        Self-field    : sphere-specific E.n sum rule (ISelfD= 2).
 1st derivatives      : Analytical E(r).r(x)/FMM algorithm (CHGder, D1EAlg=3).
                        Cavity 1st derivative terms included.
 2nd derivatives      : Analytical E(r).r(xy)/FMM algorithm (CHGder, D2EAlg=3).
                        Cavity 2nd derivative terms included.
 Solvent              : TetraHydroFuran, Eps=   7.425700 Eps(inf)=   1.974025
 ------------------------------------------------------------------------------
 GePol: Number of generator spheres                  =     100
 GePol: Total number of spheres                      =     100
 GePol: Number of exposed spheres                    =     100 (100.00%)
 GePol: Number of points                             =    6015
 GePol: Average weight of points                     =       0.12
 GePol: Minimum weight of points                     =   0.53D-11
[...]
 5684,0.00017753,0.00000807,-0.00008383,0.00002683,-0.00001351,0.000027
 32,-0.00003039,-0.00000165,0.00000268,0.00000435,0.00001637,-0.0000088
 5,0.00000282,0.00004613,-0.00003317,0.00002276,-0.00034534,-0.00014504
 ,0.00031091,0.00005429,0.00006718,-0.00015828,0.00016250,0.00001614,-0
 .00005613,-0.00036076,-0.00029351,-0.00007333,-0.00035436,0.00034306,0
 .00046268,0.00042156,0.00021391,-0.00047280,0.00097123,0.00110265,-0.0
 0002150,-0.00002552,0.00000154,0.00007946,0.00242042,0.00694927,0.0026
 2295,-0.00052631,-0.00001502,0.00032848,0.00015223,-0.00107019,-0.0011
 4075,-0.00002257,-0.00008102,0.00093105,-0.00002215,-0.00004443,-0.000
 06264,0.00001708,0.00000379,0.00000431,-0.00000544,0.00000116,-0.00002
 816,-0.00001363,-0.00000044,-0.00000179,-0.00046259,0.00018579,-0.0005
 2352,0.00000869,0.00052250,0.00005335,-0.00017451,-0.00015659,-0.00007
 827,0.00000848,0.00002257,0.00005042,0.00000266,0.00005835,-0.00003348
 ,0.00000774,0.00000832,-0.00001475,0.00001659,-0.00001395,0.00001150,-
 0.00000547,-0.00000021,-0.00000239,-0.00002663,0.00002916,-0.00000674,
 0.00000285,-0.00000260,0.00000425,0.00000599,-0.00000408,-0.00000370,0
 .00000122,-0.00000562,-0.00000040,-0.00000090,-0.00000919,-0.00000463,
 0.00000143,0.00000037,0.00000079,-0.00000015,0.00000107,-0.00000096,-0
 .00000152,0.00000214,0.00000061,-0.00005404,-0.00004588,-0.00002462,0.
 00002968,0.00004619,-0.00000615,0.00000466,-0.00001787,-0.00001804,0.0
 0000475,0.00000354,0.00000302,-0.00000172,0.00000191,-0.00000267,-0.00
 000487,0.00000085,0.00000086,-0.00000281,-0.00002766,0.00003242,-0.000
 00644,0.00000625,0.00000246,-0.00000273,-0.00000925,0.00000670,0.00000
 398,0.00000515,-0.00000097,0.00024253,-0.00038655,-0.00014697,0.000048
 07,0.00020630,0.00001726,-0.00013221,0.00012066,0.00004342,-0.00000283
 ,0.00008915,0.00007618,0.07261674,-0.12697630,0.04474640,0.01002272,-0
 .01513124,0.04037306,-0.12681775,0.19811055,0.00000542,-0.00000378,-0.
 00002299,0.00003155,0.00001672,-0.00000998,0.00004520,0.00002742,-0.00
 000835,0.00000002,-0.00000231,0.00000289,0.00002322,-0.00001034,0.0000
 0373,0.00000279,0.00000034,0.00000106,0.00000704,0.00000323,-0.0000127
 2,-0.00000560,0.00000139,0.00000336,-0.00001085,-0.00000271,-0.0000004
 8,0.00000060,-0.00000707,-0.00000771,-0.00003408,-0.00001632,0.0000081
 6,-0.00003070,-0.00001317,-0.00000896,-0.00001949,-0.00001937,0.000029
 38,-0.00001818,0.00000986,0.00002601,-0.00002160,0.00001228,0.00000478
 ,0.00011456,-0.00001026,0.00002921,-0.00002348,0.00001662,-0.00000468,
 -0.00002381,-0.00000913,-0.00002075,-0.00015584,-0.00000140,-0.0000591
 9,-0.00000241,0.00000182,-0.00001991,0.00000185,0.00000250,-0.00000075
 ,0.00000209,0.00000162,0.00000082,-0.00000328,-0.00000263,0.00000293,0
 .00001693,-0.00000908,-0.00000867,-0.00000107,0.00000045,-0.00000101,-
 0.00000454,-0.00000012,-0.00000008,-0.00000094,0.00000200,0.00000301,0
 .00000848,-0.00000440,-0.00000873,0.00000525,-0.00000021,-0.00000220,0
 .00000124,-0.00000291,0.00000895,-0.00000511,0.00000355,-0.00000020,0.
 00020075,0.00000800,-0.00018087,0.00003574,-0.00010732,0.00001287,0.00
 019482,-0.00021312,0.00008319,-0.00000691,-0.00004177,-0.00003015,-0.0
 0003859,-0.00009507,0.00000025,0.00000568,0.00000298,0.00000435,0.0000
 0428,0.00002790,-0.00000217,-0.00000843,-0.00003907,-0.00000465,0.0000
 0642,0.00000226,0.00000246,0.00000411,0.00000905,0.00000146,-0.0000640
 5,0.00017365,0.00004315,-0.00055461,0.00007417,0.00002058,-0.00012352,
 0.00009530,-0.00011244,-0.00044573,0.00035453,-0.00001127,0.00003924,0
 .00009179,0.00000728,0.00001025,-0.00002314,0.00001578,0.00000040,0.00
 000590,-0.00000556,-0.00001528,0.00000652,-0.00000211,-0.00003191,0.00
 003485,-0.00000632,0.00094055,-0.00080543,-0.00080712,-0.00021150,0.00
 008595,0.00053834,-0.00025457,0.00042797,0.00004814,-0.00115098,-0.000
 03259,0.00057522,-0.00039912,0.00022940,0.00020872,-0.00124461,-0.0016
 7564,-0.00238538,0.00023380,0.00012047,-0.00011345,0.00005409,0.000026
 81,0.00000723,-0.01452170,0.00984685,0.00444848,0.00001650,0.00007069,
 -0.00005720,0.00048227,-0.00004361,0.00089394,0.00014810,0.00013885,-0
 .00009115,0.00002593,0.00002446,0.00008612,-0.00002061,0.00000171,-0.0
 0001220,0.00000883,-0.00000613,0.00001066,0.00002154,0.00000799,0.0000
 2116,0.00028722,-0.00056515,0.00013616,-0.00001687,-0.00007861,-0.0001
 5121,0.00024168,0.00020698,0.00010062,0.00001626,-0.00004732,0.0000593
 2,-0.00000501,-0.00004576,0.00001958,-0.00001150,-0.00000837,0.0000075
 5,-0.00000682,0.00000868,-0.00000663,0.00000712,0.00001142,0.00000202,
 0.00002218,-0.00002733,0.00000440,-0.00000168,0.00000192,-0.00000201,-
 0.00000562,0.00000285,0.00000314,-0.00000034,0.00000636,-0.00000012,0.
 00000342,0.00000894,0.00000691,-0.00000316,-0.00000090,-0.00000131,0.0
 0000110,-0.00000181,0.00000107,0.00000101,-0.00000067,-0.00000154,0.00
 013970,0.00001505,0.00009153,-0.00010424,-0.00008812,-0.00002052,0.000
 00505,0.00003371,0.00006010,-0.00001607,-0.00001158,-0.00000870,0.0000
 0593,-0.00000341,0.00000137,0.00001122,0.00000560,-0.00000240,0.000028
 90,0.00004656,-0.00005691,0.00001080,0.00000397,-0.00000359,0.00001668
 ,0.00001333,-0.00001536,-0.00001807,-0.00001313,-0.00000440,0.00007674
 ,0.00079034,0.00040888,-0.00012482,-0.00030815,-0.00001277,0.00008387,
 -0.00021588,-0.00014162,-0.00010223,-0.00013645,-0.00024552,-0.0615484
 5,0.04300133,-0.10679392,-0.02080322,0.04667642,-0.05234272,0.08843817
 ,-0.08940891,0.13825486,0.00000807,-0.00000639,-0.00002134,0.00004847,
 0.00001350,-0.00000531,0.00006581,0.00002299,0.00000866,0.00000568,-0.
 00001308,0.00000926,0.00003537,-0.00001631,0.00001119,0.00000510,0.000
 00458,0.00000194,0.00001096,0.00000500,-0.00001826,-0.00000936,0.00000
 278,0.00000330,-0.00001543,-0.00000213,-0.00000229,-0.00000177,-0.0000
 1136,-0.00000861,-0.00004546,-0.00000371,-0.00000729,-0.00004799,-0.00
 001576,-0.00002777,-0.00003438,-0.00001541,0.00001716,-0.00003131,0.00
 001705,0.00002315,-0.00002790,0.00002673,-0.00000156,0.00014655,-0.000
 01883,0.00004032,-0.00003171,0.00002402,-0.00000648,-0.00003460,-0.000
 01391,-0.00003311,-0.00018501,0.00000655,-0.00010357,0.00001251,-0.000
 00357,-0.00001114,-0.00000314,0.00000723,-0.00000068,0.00000367,0.0000
 0065,0.00000033,-0.00000509,-0.00000378,0.00000303,0.00002811,-0.00001
 559,-0.00000975,-0.00000244,0.00000259,-0.00000180,-0.00000706,-0.0000
 0080,-0.00000007,-0.00000082,0.00000148,0.00000252,0.00000758,-0.00001
 030,-0.00000361,0.00000724,-0.00000057,-0.00000583,0.00000293,-0.00000
 487,0.00001037,-0.00000759,0.00000616,-0.00000033,0.00005920,-0.000046
 65,0.00011162,0.00004784,-0.00014914,-0.00004505,0.00032655,-0.0003748
 1,0.00031270,-0.00004169,-0.00012138,-0.00000270,-0.00002710,-0.000101
 85,-0.00003250,0.00001412,0.00000529,-0.00001714,0.00000348,0.00003286
 ,-0.00000807,-0.00003513,-0.00006212,-0.00002186,0.00001351,0.00000208
 ,-0.00000188,-0.00000037,0.00001953,-0.00000073,-0.00008090,0.00029907
 ,0.00002734,-0.00073893,0.00009678,-0.00000169,-0.00009133,0.00015369,
 -0.00021462,-0.00013141,0.00016349,-0.00023821,0.00008597,0.00011742,-
 0.00001494,0.00002029,-0.00002520,0.00001631,-0.00000229,0.00001183,-0
 .00000680,-0.00000873,0.00000200,-0.00000367,-0.00003102,0.00004374,-0
 .00001897,0.00176281,-0.00098409,-0.00093661,-0.00039784,0.00016594,0.
 00061114,-0.00051625,0.00081184,-0.00003932,0.00073970,-0.00065478,-0.
 00057619,-0.00047084,-0.00057289,-0.00034773,-0.00313196,-0.00080525,0
 .00040463,-0.00038297,-0.00167921,-0.00151099,0.00010323,-0.00003439,-
 0.00003465,0.00365285,-0.02877823,-0.01820944,-0.00201125,-0.00253031,
 -0.00136058,-0.00544543,-0.00018450,0.00160281,0.00021459,-0.00010625,
 -0.00005684,-0.00000579,0.00000685,0.00016609,-0.00001634,0.00001211,-
 0.00003135,0.00001348,0.00002047,-0.00002272,0.00001290,0.00000025,0.0
 0004607,0.00019931,0.00020135,0.00025985,-0.00042417,-0.00011598,-0.00
 051752,-0.00002595,0.00001422,0.00015258,-0.00003442,0.00008191,-0.000
 17343,-0.00003942,-0.00005036,0.00005618,-0.00000571,-0.00000872,-0.00
 000881,0.00000194,0.00000670,-0.00001059,0.00000689,0.00001621,0.00000
 084,0.00002162,-0.00003260,0.00000844,-0.00000361,0.00000210,-0.000003
 15,-0.00000407,0.00000351,0.00000135,-0.00000036,0.00000884,0.00000062
 ,0.00000455,0.00001168,0.00002005,-0.00000470,-0.00000176,-0.00000253,
 0.00000237,-0.00000077,-0.00000105,0.00000085,-0.00000059,-0.00000229,
 0.00020488,-0.00002221,0.00017456,-0.00019113,-0.00013040,-0.00008649,
 0.00001715,0.00005404,0.00012796,-0.00002961,-0.00002056,-0.00001682,0
 .00001004,-0.00000102,-0.00000399,0.00002158,0.00001525,-0.00000099,0.
 00005838,0.00005530,-0.00006530,0.00001572,0.00002311,-0.00000448,0.00
 003270,0.00001210,-0.00002257,-0.00003481,-0.00001878,-0.00001177,-0.0
 0024918,0.00152149,0.00130622,-0.00029154,-0.00073054,-0.00015947,0.00
 021004,-0.00039559,-0.00033735,-0.00026912,-0.00026775,-0.00074358,-0.
 08093433,-0.01299280,-0.00684665,0.00688270,0.01627177,0.02432671,-0.0
 0032819,0.04151062,0.01012456,0.08177966,0.00000224,-0.00001731,-0.000
 02305,0.00003733,0.00000121,-0.00000245,0.00004396,-0.00001079,0.00000
 676,0.00001403,-0.00003628,0.00000776,0.00001536,-0.00002325,0.0000037
 7,0.00000674,0.00001155,0.00000269,0.00000879,0.00000074,-0.00001450,-
 0.00000406,0.00000374,0.00000257,-0.00000733,0.00000373,-0.00000142,0.
 00000098,-0.00000808,-0.00000275,-0.00003284,0.00003231,-0.00000751,-0
 .00003300,0.00000458,-0.00001224,-0.00002510,0.00000246,0.00001191,-0.
 00001499,0.00002554,0.00002523,-0.00000404,0.00004762,0.00000690,0.000
 04476,-0.00000375,0.00001177,-0.00001470,0.00001329,-0.00000548,-0.000
 00405,-0.00000304,-0.00000394,-0.00004514,0.00005464,-0.00002483,0.000
 01572,-0.00001044,-0.00001040,-0.00000540,0.00000477,-0.00000163,-0.00
 000043,0.00000271,0.00000299,-0.00000242,-0.00000177,0.00000138,0.0000
 1603,-0.00001569,-0.00001020,-0.00000331,0.00000269,-0.00000232,-0.000
 00192,0.00000233,0.00000083,-0.00000224,0.00000095,0.00000525,-0.00001
 629,-0.00002319,-0.00001208,0.00000313,-0.00000048,0.00000427,0.000002
 09,-0.00000414,0.00000147,-0.00000237,0.00000472,-0.00000031,-0.000516
 93,0.00001382,0.00003794,0.00003235,-0.00032491,-0.00010116,0.00019082
 ,-0.00032114,0.00026334,-0.00012240,-0.00018949,-0.00000505,-0.0000425
 1,0.00000726,-0.00003153,0.00002105,-0.00001973,-0.00003616,0.00000673
 ,0.00004432,-0.00001167,-0.00002261,-0.00002612,0.00000896,-0.00000199
 ,0.00001992,0.00000738,0.00000552,-0.00001146,0.00001738,-0.00002683,0
 .00032553,0.00004253,-0.00063435,0.00026898,0.00010358,-0.00003036,0.0
 0034717,-0.00007305,0.00094320,-0.00016911,0.00057471,0.00010392,-0.00
 001778,0.00007186,-0.00000664,0.00002102,-0.00004214,-0.00000443,0.000
 01947,-0.00000078,0.00001187,-0.00001040,0.00000249,0.00004678,-0.0000
 0828,0.00003707,0.00123559,-0.00154926,-0.00101871,-0.00033843,0.00026
 014,0.00059425,-0.00027325,0.00101177,-0.00003380,-0.00080963,0.000236
 52,0.00009495,-0.00040944,-0.00006415,0.00007269,0.00293431,-0.0015002
 7,-0.00163380,0.00044552,-0.00167513,-0.00141318,0.00007239,0.00013317
 ,0.00011695,-0.00170440,-0.02685318,-0.02363716,-0.00186063,0.00053057
 ,0.00096349,-0.00721069,0.00027505,0.00113011,0.00034689,0.00047104,0.
 00030951,-0.00000184,-0.00009397,0.00003145,-0.00000116,0.00002587,-0.
 00001856,0.00000501,-0.00000675,-0.00005743,0.00002348,0.00002414,0.00
 005788,-0.00090028,-0.00112326,-0.00159932,0.00019440,0.00129631,0.000
 45398,0.00010538,0.00008511,0.00005878,0.00009185,-0.00001308,0.000335
 72,-0.00000885,0.00005517,-0.00003531,-0.00000085,0.00000661,-0.000025
 76,0.00002801,-0.00001754,0.00001368,0.00000054,0.00002112,-0.00000306
 ,-0.00001917,0.00001450,-0.00000646,0.00000302,-0.00000238,0.00000569,
 0.00000366,-0.00000392,-0.00000288,0.00000204,-0.00000031,-0.00000098,
 0.00000501,-0.00000145,0.00000746,-0.00000363,-0.00000106,-0.00000115,
 0.00000216,-0.00000112,-0.00000054,-0.00000121,0.00000342,-0.00000190,
 0.00019691,-0.00010638,0.00014490,-0.00020097,-0.00010355,-0.00007519,
 0.00002825,0.00003568,0.00011364,-0.00003250,-0.00001868,-0.00001457,0
 .00001157,-0.00000269,-0.00000326,0.00002055,0.00002428,-0.00000023,0.
 00006902,0.00003983,-0.00006550,0.00001280,0.00003279,-0.00000389,0.00
 003270,0.00000384,-0.00001749,-0.00003756,-0.00001771,-0.00001189,-0.0
 0010993,0.00130836,0.00137826,-0.00036380,-0.00084985,-0.00015508,0.00
 006680,-0.00036249,-0.00030690,-0.00029571,-0.00016926,-0.00072794,-0.
 02220514,-0.20838290,-0.08489007,0.00974038,0.00741090,-0.02639878,0.0
 3092495,-0.06343987,-0.00864167,-0.00975882,0.29302361,0.00000259,-0.0
 0000876,-0.00002469,0.00002065,0.00000914,-0.00000860,0.00003458,0.000
 00835,-0.00001117,0.00000264,-0.00001282,0.00000071,0.00001212,-0.0000
 1470,-0.00000086,0.00000350,0.00000413,0.00000184,0.00000491,-0.000000
 33,-0.00000914,-0.00000258,0.00000142,0.00000311,-0.00000758,-0.000000
 40,0.00000054,0.00000273,-0.00000427,-0.00000578,-0.00002751,0.0000017
 1,0.00000959,-0.00002324,-0.00000208,-0.00000050,-0.00001272,-0.000007
 72,0.00002458,-0.00000924,0.00001477,0.00002782,-0.00001030,0.00002215
 ,0.00000999,0.00007363,-0.00000516,0.00001944,-0.00001679,0.00001291,-
 0.00000446,-0.00001115,-0.00000486,-0.00000825,-0.00010599,0.00001670,
 -0.00002265,0.00000049,-0.00000276,-0.00001776,0.00000004,0.00000095,-
 0.00000118,-0.00000048,0.00000286,0.00000235,-0.00000140,-0.00000146,0
 .00000189,0.00001055,-0.00000927,-0.00000888,-0.00000141,0.00000049,-0
 .00000145,-0.00000167,0.00000153,0.00000050,-0.00000178,0.00000164,0.0
 0000457,-0.00000218,-0.00001048,-0.00001449,0.00000356,-0.00000004,0.0
 0000271,0.00000096,-0.00000264,0.00000573,-0.00000293,0.00000295,-0.00
 000003,0.00021136,0.00001504,-0.00026803,0.00003156,-0.00015379,0.0000
 1912,0.00012971,-0.00017777,-0.00001490,-0.00002944,-0.00005094,-0.000
 05159,-0.00006362,-0.00009820,-0.00001310,0.00000294,-0.00000199,0.000
 00599,0.00000437,0.00003157,-0.00000107,0.00000355,-0.00004054,0.00000
 542,-0.00000244,0.00000997,0.00000828,0.00000797,0.00000237,0.00001118
 ,-0.00004245,0.00017131,0.00006281,-0.00032325,0.00011232,0.00011769,-
 0.00011468,0.00014359,-0.00005666,-0.00046017,0.00034488,-0.00008140,0
 .00006588,0.00006191,0.00005145,-0.00000669,-0.00001021,-0.00000284,0.
 00000078,0.00000947,-0.00000370,-0.00001129,0.00000481,-0.00000036,-0.
 00000236,0.00001685,0.00001911,0.00056425,-0.00066505,-0.00073137,-0.0
 0014372,0.00009255,0.00041865,-0.00013968,0.00039126,0.00009392,-0.000
 63141,0.00026937,0.00030515,-0.00015251,-0.00004173,0.00007133,0.00247
 307,-0.00080651,-0.00126801,0.00013832,-0.00056188,-0.00083112,0.00003
 314,0.00011513,0.00007032,-0.00083113,-0.01874521,-0.00310835,-0.00078
 939,0.00102451,0.00074412,-0.00313271,-0.00059207,0.00175992,0.0002023
 2,0.00036770,0.00026190,0.00003587,-0.00001191,0.00003762,-0.00001614,
 0.00000481,-0.00000786,0.00000463,-0.00000978,0.00001046,0.00002281,0.
 00001407,0.00002401,0.00020487,-0.00019571,0.00032076,-0.00050486,0.00
 004763,-0.00100892,0.00026524,0.00011482,0.00013590,-0.00002763,-0.000
 03373,-0.00001291,0.00000237,-0.00001850,-0.00001203,-0.00001656,-0.00
 000956,0.00000276,0.00000452,0.00000105,0.00000268,0.00000582,0.000021
 16,0.00000251,0.00000638,-0.00001096,-0.00000089,0.00000090,0.00000027
 ,0.00000169,-0.00000308,0.00000026,0.00000138,0.00000082,0.00000338,-0
 .00000082,0.00000406,0.00000168,0.00000072,-0.00000265,-0.00000055,-0.
 00000049,0.00000117,-0.00000180,0.00000128,-0.00000020,0.00000158,-0.0
 0000132,0.00013867,-0.00002327,0.00005617,-0.00011149,-0.00006741,-0.0
 0001612,0.00001564,0.00002115,0.00005246,-0.00001840,-0.00000967,-0.00
 000683,0.00000725,-0.00000389,0.00000212,0.00001217,0.00001400,-0.0000
 0097,0.00003732,0.00003217,-0.00005560,0.00000884,0.00001227,-0.000002
 66,0.00001582,0.00000566,-0.00001029,-0.00002023,-0.00001128,-0.000004
 02,-0.00005698,0.00092337,0.00046237,-0.00017189,-0.00038579,-0.000009
 90,0.00001991,-0.00020788,-0.00013839,-0.00016708,-0.00015607,-0.00042
 468,-0.01225467,-0.08850867,-0.12588189,0.01816849,-0.03861904,-0.0605
 3139,0.00440902,0.00172057,0.01751950,-0.00694697,0.14409292,0.1719242
 6\\-0.00000005,0.00000003,-0.00000055,-0.00000035,-0.00000018,-0.00000
 187,-0.00000039,0.00000095,-0.00000241,0.00000006,0.00000205,-0.000000
 22,0.00000002,0.00000074,0.00000006,-0.00000091,0.00000100,-0.00000303
 ,-0.00000088,-0.00000039,-0.00000196,-0.00000008,0.00000058,-0.0000005
 8,0.00000005,0.00000239,-0.00000022,0.00000148,0.00000011,0.00000036,-
 0.00000086,0.00000166,-0.00000151,-0.00000053,0.00000189,-0.00000248,-
 0.00000065,-0.00000059,-0.00000249,-0.00000004,-0.00000137,-0.00000011
 ,0.00000056,0.00000098,0.00000136,-0.00000008,0.00000240,0.00000045,0.
 00000058,0.00000269,0.00000137,0.00000019,0.00000332,-0.00000008,0.000
 00016,0.00000150,0.00000065,-0.00000077,-0.00000195,-0.00000288,-0.000
 00082,-0.00000211,-0.00000301,-0.00000055,-0.00000257,-0.00000189,-0.0
 0000093,-0.00000220,-0.00000340,0.00000011,-0.00000117,0.00000053,0.00
 000027,-0.00000072,0.00000128,-0.00000008,-0.00000102,-0.00000002,0.00
 000011,-0.00000225,0.00000085,0.00000047,0.00000034,0.00000216,0.00000
 043,-0.00000030,0.00000232,0.00000053,0.00000113,0.00000244,0.00000087
 ,0.00000072,0.00000318,0.00000069,-0.00000039,0.00000217,0.00000030,0.
 00000050,0.00000138,0.00000023,-0.00000015,0.00000157,0.00000023,-0.00
 000112,0.00000350,0.00000087,-0.00000009,0.00000345,0.00000021,-0.0000
 0039,0.00000042,0.00000068,0.00000124,0.00000170,0.00000032,-0.0000012
 2,0.00000184,0.00000089,-0.00000182,0.00000345,0.00000082,0.00000069,0
 .00000359,0.00000087,-0.00000084,0.00000216,-0.00000161,-0.00000131,-0
 .00000094,0.00000017,0.00000016,0.,0.00000058,0.00000038,0.00000213,0.
 00000102,-0.00000079,0.00000419,0.00000103,-0.00000059,0.00000444,0.00
 000130,-0.00000071,0.00000530,0.00000111,-0.00000085,0.00000446,0.0000
 0095,0.00000056,0.00000432,0.00000021,-0.00000204,-0.00000048,-0.00000
 044,-0.00000347,-0.00000119,-0.00000004,-0.00000221,0.00000089,-0.0000
 0063,-0.00000175,-0.00000118,-0.00000009,-0.00000159,-0.00000218,-0.00
 000025,-0.00000222,-0.00000063,-0.00000054,-0.00000081,-0.00000276,-0.
 00000083,-0.00000058,-0.00000262,-0.00000037,-0.00000213,-0.00000121,-
 0.00000007,-0.00000297,0.00000005,-0.00000061,-0.00000122,-0.00000217,
 -0.00000068,-0.00000105,-0.00000254,-0.00000051,0.00000342,0.00000024,
 -0.00000008,0.00000220,-0.00000037,0.00000016,0.00000169,0.00000035,-0
 .00000045,0.00000162,-0.00000090,0.00000043,-0.00000015,0.00000156,0.0
 0000039,-0.00000110,0.00000165,0.00000008,-0.00000025,0.00000058,0.000
 00041,0.00000033,0.00000165,0.00000131,-0.00000018,0.00000487,0.000001
 02,0.00000027,0.00000441,0.00000132,0.00000067,0.00000546,0.00000131,-
 0.00000077,0.00000553,0.00000128,0.00000121,0.00000519,0.00000134,0.00
 000220,0.00000510,0.00000127,0.00000083,0.00000524,0.00000154,0.000001
 08,0.00000606,-0.00000059,0.00000303,-0.00000279,-0.00000063,0.0000034
 2,-0.00000313,-0.00000043,0.00000360,-0.00000243,-0.00000083,0.0000027
 2,-0.00000381,0.00000047,-0.00000070,-0.00000205,-0.00000039,0.0000002
 9,-0.00000275,-0.00000092,0.00000162,-0.00000418,-0.00000080,0.0000020
 2,-0.00000457,-0.00000083,0.00000239,-0.00000396,-0.00000113,0.0000014
 2,-0.00000474,-0.00000094,-0.00000055,-0.00000377,-0.00000112,-0.00000
 076,-0.00000462,-0.00000095,-0.00000111,-0.00000333,-0.00000115,-0.000
 00016,-0.00000453,-0.00000070,-0.00000014,-0.00000358,-0.00000117,-0.0
 0000024,-0.00000467,-0.00000122,0.00000026,-0.00000399,-0.00000088,0.0
 0000134,-0.00000355,-0.00000025,-0.00000242,-0.00000051,0.,-0.00000162
 ,-0.00000028,-0.00000048,-0.00000309,-0.00000124,-0.00000007,-0.000003
 26,0.00000046\\\@


 IMAGINATION WILL OFTEN CARRY US TO WORLDS THAT NEVER WERE.
 BUT WITHOUT IT, WE GO NOWHERE. -- CARL SAGAN (COSMOS)
 Job cpu time:       4 days 12 hours 40 minutes 23.9 seconds.
 Elapsed time:       0 days  3 hours 35 minutes 13.5 seconds.
 File lengths (MBytes):  RWF=   9728 Int=      0 D2E=      0 Chk=    106 Scr=      1
 Normal termination of Gaussian 16 at Sun May 26 11:56:33 2019.
