 Entering Gaussian System, Link 0=g16
 Input=clay_new-glu_gluC6-DCUL-Na2_1Me2O-bisCF3-ts-b3lyp_d3bj-631gd-pcm_thf.gjf
 Output=clay_new-glu_gluC6-DCUL-Na2_1Me2O-bisCF3-ts-b3lyp_d3bj-631gd-pcm_thf.out
 Initial command:
 /home/ekwan/sw/g16/l1.exe "/scratch/users/ekwan/clay_new-glu_gluC6-DCUL-Na2_1Me2O-bisCF3-ts-b3lyp_d3bj-631gd-pcm_thf/Gau-31558.inp" -scrdir="/scratch/users/ekwan/clay_new-glu_gluC6-DCUL-Na2_1Me2O-bisCF3-ts-b3lyp_d3bj-631gd-pcm_thf/"
 Entering Link 1 = /home/ekwan/sw/g16/l1.exe PID=     31559.
  
 Copyright (c) 1988,1990,1992,1993,1995,1998,2003,2009,2016,
            Gaussian, Inc.  All Rights Reserved.
  
 This is part of the Gaussian(R) 16 program.  It is based on
 the Gaussian(R) 09 system (copyright 2009, Gaussian, Inc.),
 the Gaussian(R) 03 system (copyright 2003, Gaussian, Inc.),
 the Gaussian(R) 98 system (copyright 1998, Gaussian, Inc.),
 the Gaussian(R) 94 system (copyright 1995, Gaussian, Inc.),
 the Gaussian 92(TM) system (copyright 1992, Gaussian, Inc.),
 the Gaussian 90(TM) system (copyright 1990, Gaussian, Inc.),
 the Gaussian 88(TM) system (copyright 1988, Gaussian, Inc.),
 the Gaussian 86(TM) system (copyright 1986, Carnegie Mellon
 University), and the Gaussian 82(TM) system (copyright 1983,
 Carnegie Mellon University). Gaussian is a federally registered
 trademark of Gaussian, Inc.
  
 This software contains proprietary and confidential information,
 including trade secrets, belonging to Gaussian, Inc.
  
 This software is provided under written license and may be
 used, copied, transmitted, or stored only in accord with that
 written license.
  
 The following legend is applicable only to US Government
 contracts under FAR:
  
                    RESTRICTED RIGHTS LEGEND
  
 Use, reproduction and disclosure by the US Government is
 subject to restrictions as set forth in subparagraphs (a)
 and (c) of the Commercial Computer Software - Restricted
 Rights clause in FAR 52.227-19.
  
 Gaussian, Inc.
 340 Quinnipiac St., Bldg. 40, Wallingford CT 06492
  
  
 ---------------------------------------------------------------
 Warning -- This program may not be used in any manner that
 competes with the business of Gaussian, Inc. or will provide
 assistance to any competitor of Gaussian, Inc.  The licensee
 of this program is prohibited from giving any competitor of
 Gaussian, Inc. access to this program.  By using this program,
 the user acknowledges that Gaussian, Inc. is engaged in the
 business of creating and licensing software in the field of
 computational chemistry and represents and warrants to the
 licensee that it is not a competitor of Gaussian, Inc. and that
 it will not use this program in any manner prohibited above.
 ---------------------------------------------------------------
  

 Cite this work as:
 Gaussian 16, Revision A.03,
 M. J. Frisch, G. W. Trucks, H. B. Schlegel, G. E. Scuseria, 
 M. A. Robb, J. R. Cheeseman, G. Scalmani, V. Barone, 
 G. A. Petersson, H. Nakatsuji, X. Li, M. Caricato, A. V. Marenich, 
 J. Bloino, B. G. Janesko, R. Gomperts, B. Mennucci, H. P. Hratchian, 
 J. V. Ortiz, A. F. Izmaylov, J. L. Sonnenberg, D. Williams-Young, 
 F. Ding, F. Lipparini, F. Egidi, J. Goings, B. Peng, A. Petrone, 
 T. Henderson, D. Ranasinghe, V. G. Zakrzewski, J. Gao, N. Rega, 
 G. Zheng, W. Liang, M. Hada, M. Ehara, K. Toyota, R. Fukuda, 
 J. Hasegawa, M. Ishida, T. Nakajima, Y. Honda, O. Kitao, H. Nakai, 
 T. Vreven, K. Throssell, J. A. Montgomery, Jr., J. E. Peralta, 
 F. Ogliaro, M. J. Bearpark, J. J. Heyd, E. N. Brothers, K. N. Kudin, 
 V. N. Staroverov, T. A. Keith, R. Kobayashi, J. Normand, 
 K. Raghavachari, A. P. Rendell, J. C. Burant, S. S. Iyengar, 
 J. Tomasi, M. Cossi, J. M. Millam, M. Klene, C. Adamo, R. Cammi, 
 J. W. Ochterski, R. L. Martin, K. Morokuma, O. Farkas, 
 J. B. Foresman, and D. J. Fox, Gaussian, Inc., Wallingford CT, 2016.
 
 ******************************************
 Gaussian 16:  AS64L-G16RevA.03 25-Dec-2016
                28-May-2019 
 ******************************************
 %mem=48GB
 %nprocshared=32
 Will use up to   32 processors via shared memory.
 ----------------------------------------------------------------------
 #p opt=(ts,noeigentest,calcfc,maxstep=1,modredundant,recalc=30) freq=n
 oraman b3lyp 6-31g* pop=none scrf=(solvent=tetrahydrofuran,pcm) empiri
 caldispersion=gd3bj
 ----------------------------------------------------------------------
 1/5=1,8=1,10=4,11=1,18=120,26=3,38=1,71=30/1,3;
 2/9=110,12=2,17=6,18=5,40=1/2;
 3/5=1,6=6,7=1,11=2,25=1,30=1,70=2201,71=2,72=20,74=-5,124=41,140=1/1,2,3;
 4//1;
 5/5=2,38=5,53=20/2;
 8/6=4,10=90,11=11/1;
 11/6=1,8=1,9=11,15=111,16=1/1,2,10;
 10/6=1,13=1/2;
 7/10=1,18=20,25=1/1,2,3,16;
 1/5=1,8=1,10=4,11=1,18=20,26=3,71=30/3(2);
 2/9=110/2;
 99//99;
 2/9=110/2;
 3/5=1,6=6,7=1,11=2,25=1,30=1,70=2205,71=1,72=20,74=-5,124=41/1,2,3;
 4/5=5,16=3,69=1/1;
 5/5=2,38=5,53=20/2;
 7//1,2,3,16;
 1/5=1,8=1,11=1,18=20,26=3,71=30/3(-5);
 2/9=110/2;
 99/9=1/99;
 Leave Link    1 at Tue May 28 07:49:40 2019, MaxMem=  6442450944 cpu:               7.6 elap:               0.3
 (Enter /home/ekwan/sw/g16/l101.exe)
 -----
 title
 -----
 Symbolic Z-matrix:
 Charge =  0 Multiplicity = 1
 C                    -3.70453  -1.56087  -2.40155 
 C                    -3.57699  -0.04475  -2.2508 
 C                    -4.10459   0.39295  -0.8849 
 C                    -3.5369   -1.70518   0.14169 
 C                    -3.07511  -2.27516  -1.20373 
 H                    -3.91969   1.46353  -0.72983 
 H                    -2.51205   0.22681  -2.27629 
 H                    -4.77091  -1.81215  -2.46142 
 H                    -4.60302  -1.92994   0.27535 
 H                    -1.99165  -2.14901  -1.27112 
 O                    -3.3709   -0.26421   0.13733 
 O                    -5.47794   0.13866  -0.82052 
 O                    -4.27644   0.65658  -3.26449 
 O                    -3.04255  -1.94094  -3.60718 
 O                    -3.40674  -3.66305  -1.26814 
 C                    -2.75345  -2.27179   1.33992 
 H                    -3.14899  -3.30269   1.47654 
 H                    -3.12425  -1.7018    2.22296 
 O                    -1.38772  -2.23385   1.20647 
 C                    -3.443     1.1094   -4.32366 
 H                    -2.65869   1.78504  -3.94969 
 H                    -2.97077   0.27141  -4.84728 
 H                    -4.08555   1.66021  -5.01563 
 C                    -3.71114  -2.955    -4.34339 
 H                    -3.81327  -3.87575  -3.75915 
 H                    -4.70982  -2.62107  -4.66085 
 H                    -3.10472  -3.1505   -5.23204 
 C                    -2.28096  -4.52071  -1.13608 
 H                    -1.61049  -4.42781  -2.00317 
 H                    -1.71591  -4.29123  -0.22484 
 H                    -2.664    -5.54405  -1.09188 
 C                    -0.19145   1.99536  -0.07331 
 C                    -0.23231   0.48427   0.14432 
 C                    -0.40508   0.15338   1.59493 
 C                    -1.66962   2.18403   2.01531 
 C                    -1.42576   2.6276    0.56613 
 H                    -0.15879  -0.81923   1.96643 
 H                    -1.15302   0.10019  -0.31509 
 H                     0.71353   2.4076    0.38803 
 H                    -1.10566   2.84872   2.67225 
 H                    -2.29077   2.35379  -0.04449 
 O                    -1.17397   0.84261   2.36064 
 O                     1.98128  -1.6711    2.20377 
 O                     0.90788  -0.12776  -0.40213 
 O                    -0.23577   2.29848  -1.45755 
 O                    -1.29803   4.03985   0.61754 
 C                    -3.16365   2.10741   2.38305 
 H                    -3.26464   1.99843   3.47235 
 H                    -3.56428   1.21431   1.89967 
 O                    -3.91611   3.20045   1.90673 
 S                     2.56213  -0.30471   2.34221 
 O                     3.48898  -0.15145   3.48069 
 O                     1.50765   0.78202   2.31666 
 C                     3.50654  -0.04695   0.83728 
 C                     3.94996  -1.14462   0.1151 
 C                     3.73901   1.25245   0.38994 
 C                     4.61606  -0.93869  -1.09572 
 H                     3.74074  -2.14587   0.47177 
 C                     4.40719   1.44165  -0.81487 
 H                     3.36509   2.09747   0.95377 
 C                     4.84402   0.34867  -1.56992 
 H                     5.34322   0.50168  -2.5194 
 C                     0.64819  -1.31948  -1.14548 
 H                     0.06565  -2.02588  -0.5469 
 H                     0.10205  -1.08452  -2.06958 
 H                     1.62274  -1.73619  -1.40641 
 C                     1.04175   2.50796  -2.05402 
 H                     1.58413   3.31371  -1.54312 
 H                     1.64731   1.59783  -2.03194 
 H                     0.85575   2.80305  -3.0892 
 C                    -2.0127    4.72431  -0.40899 
 H                    -1.64575   4.44085  -1.40025 
 H                    -3.08688   4.51263  -0.33706 
 H                    -1.84236   5.79062  -0.24354 
 C                    -3.74592   4.39533   2.66324 
 H                    -4.46577   5.11743   2.27189 
 H                    -3.95449   4.21715   3.72751 
 H                    -2.73401   4.79958   2.55027 
 C                    -6.08764   0.64658   0.36408 
 H                    -7.16704   0.59599   0.20804 
 H                    -5.81872   0.04559   1.24107 
 H                    -5.78856   1.68768   0.54606 
 Na                    0.29997  -3.22331   2.18563 
 O                     0.06483  -2.74072   4.46466 
 C                    -0.69307  -1.54702   4.64064 
 H                    -0.07731  -0.66068   4.43939 
 H                    -1.51775  -1.58324   3.92724 
 H                    -1.0861   -1.4848    5.66464 
 C                     1.23651  -2.74538   5.27556 
 H                     0.97054  -2.67272   6.33893 
 H                     1.74889  -3.69386   5.09777 
 H                     1.90136  -1.9163    5.00419 
 C                     4.97958  -2.1384   -1.92333 
 F                     5.84864  -1.84197  -2.90922 
 F                     3.87729  -2.67438  -2.51029 
 F                     5.52756  -3.11754  -1.17127 
 C                     4.63639   2.82471  -1.35729 
 F                     4.04088   3.7759   -0.60696 
 F                     4.14433   2.94143  -2.61574 
 F                     5.95101   3.12684  -1.42696 
 
 Add virtual bond connecting atoms H37        and O19        Dist= 3.82D+00.
 Add virtual bond connecting atoms H41        and H6         Dist= 3.74D+00.
 Add virtual bond connecting atoms O84        and Na83       Dist= 4.42D+00.
 Add virtual bond connecting atoms H86        and H37        Dist= 4.69D+00.
 Add virtual bond connecting atoms H87        and H18        Dist= 4.43D+00.
 The following ModRedundant input section has been read:
 
 ITRead=  0  0  0  0  0  0  0  0  0  0  0  0  0  0  0  0  0  0  0  0
 ITRead=  0  0  0  0  0  0  0  0  0  0  0  0  0  0  0  0  0  0  0  0
 ITRead=  0  0  0  0  0  0  0  0  0  0  0  0  0  0  0  0  0  0  0  0
 ITRead=  0  0  0  0  0  0  0  0  0  0  0  0  0  0  0  0  0  0  0  0
 ITRead=  0  0  0  0  0  0  0  0  0  0  0  0  0  0  0  0  0  0  0  0
 MicOpt= -1 -1 -1 -1 -1 -1 -1 -1 -1 -1 -1 -1 -1 -1 -1 -1 -1 -1 -1 -1
 MicOpt= -1 -1 -1 -1 -1 -1 -1 -1 -1 -1 -1 -1 -1 -1 -1 -1 -1 -1 -1 -1
 MicOpt= -1 -1 -1 -1 -1 -1 -1 -1 -1 -1 -1 -1 -1 -1 -1 -1 -1 -1 -1 -1
 MicOpt= -1 -1 -1 -1 -1 -1 -1 -1 -1 -1 -1 -1 -1 -1 -1 -1 -1 -1 -1 -1
 MicOpt= -1 -1 -1 -1 -1 -1 -1 -1 -1 -1 -1 -1 -1 -1 -1 -1 -1 -1 -1 -1
 NAtoms=    100 NQM=      100 NQMF=       0 NMMI=      0 NMMIF=      0
                NMic=       0 NMicF=      0.
                    Isotopes and Nuclear Properties:
 (Nuclear quadrupole moments (NQMom) in fm**2, nuclear magnetic moments (NMagM)
  in nuclear magnetons)

  Atom         1           2           3           4           5           6           7           8           9          10
 IAtWgt=          12          12          12          12          12           1           1           1           1           1
 AtmWgt=  12.0000000  12.0000000  12.0000000  12.0000000  12.0000000   1.0078250   1.0078250   1.0078250   1.0078250   1.0078250
 NucSpn=           0           0           0           0           0           1           1           1           1           1
 AtZEff=   0.0000000   0.0000000   0.0000000   0.0000000   0.0000000   0.0000000   0.0000000   0.0000000   0.0000000   0.0000000
 NQMom=    0.0000000   0.0000000   0.0000000   0.0000000   0.0000000   0.0000000   0.0000000   0.0000000   0.0000000   0.0000000
 NMagM=    0.0000000   0.0000000   0.0000000   0.0000000   0.0000000   2.7928460   2.7928460   2.7928460   2.7928460   2.7928460
 AtZNuc=   6.0000000   6.0000000   6.0000000   6.0000000   6.0000000   1.0000000   1.0000000   1.0000000   1.0000000   1.0000000

  Atom        11          12          13          14          15          16          17          18          19          20
 IAtWgt=          16          16          16          16          16          12           1           1          16          12
 AtmWgt=  15.9949146  15.9949146  15.9949146  15.9949146  15.9949146  12.0000000   1.0078250   1.0078250  15.9949146  12.0000000
 NucSpn=           0           0           0           0           0           0           1           1           0           0
 AtZEff=   0.0000000   0.0000000   0.0000000   0.0000000   0.0000000   0.0000000   0.0000000   0.0000000   0.0000000   0.0000000
 NQMom=    0.0000000   0.0000000   0.0000000   0.0000000   0.0000000   0.0000000   0.0000000   0.0000000   0.0000000   0.0000000
 NMagM=    0.0000000   0.0000000   0.0000000   0.0000000   0.0000000   0.0000000   2.7928460   2.7928460   0.0000000   0.0000000
 AtZNuc=   8.0000000   8.0000000   8.0000000   8.0000000   8.0000000   6.0000000   1.0000000   1.0000000   8.0000000   6.0000000

  Atom        21          22          23          24          25          26          27          28          29          30
 IAtWgt=           1           1           1          12           1           1           1          12           1           1
 AtmWgt=   1.0078250   1.0078250   1.0078250  12.0000000   1.0078250   1.0078250   1.0078250  12.0000000   1.0078250   1.0078250
 NucSpn=           1           1           1           0           1           1           1           0           1           1
 AtZEff=   0.0000000   0.0000000   0.0000000   0.0000000   0.0000000   0.0000000   0.0000000   0.0000000   0.0000000   0.0000000
 NQMom=    0.0000000   0.0000000   0.0000000   0.0000000   0.0000000   0.0000000   0.0000000   0.0000000   0.0000000   0.0000000
 NMagM=    2.7928460   2.7928460   2.7928460   0.0000000   2.7928460   2.7928460   2.7928460   0.0000000   2.7928460   2.7928460
 AtZNuc=   1.0000000   1.0000000   1.0000000   6.0000000   1.0000000   1.0000000   1.0000000   6.0000000   1.0000000   1.0000000

  Atom        31          32          33          34          35          36          37          38          39          40
 IAtWgt=           1          12          12          12          12          12           1           1           1           1
 AtmWgt=   1.0078250  12.0000000  12.0000000  12.0000000  12.0000000  12.0000000   1.0078250   1.0078250   1.0078250   1.0078250
 NucSpn=           1           0           0           0           0           0           1           1           1           1
 AtZEff=   0.0000000   0.0000000   0.0000000   0.0000000   0.0000000   0.0000000   0.0000000   0.0000000   0.0000000   0.0000000
 NQMom=    0.0000000   0.0000000   0.0000000   0.0000000   0.0000000   0.0000000   0.0000000   0.0000000   0.0000000   0.0000000
 NMagM=    2.7928460   0.0000000   0.0000000   0.0000000   0.0000000   0.0000000   2.7928460   2.7928460   2.7928460   2.7928460
 AtZNuc=   1.0000000   6.0000000   6.0000000   6.0000000   6.0000000   6.0000000   1.0000000   1.0000000   1.0000000   1.0000000

  Atom        41          42          43          44          45          46          47          48          49          50
 IAtWgt=           1          16          16          16          16          16          12           1           1          16
 AtmWgt=   1.0078250  15.9949146  15.9949146  15.9949146  15.9949146  15.9949146  12.0000000   1.0078250   1.0078250  15.9949146
 NucSpn=           1           0           0           0           0           0           0           1           1           0
 AtZEff=   0.0000000   0.0000000   0.0000000   0.0000000   0.0000000   0.0000000   0.0000000   0.0000000   0.0000000   0.0000000
 NQMom=    0.0000000   0.0000000   0.0000000   0.0000000   0.0000000   0.0000000   0.0000000   0.0000000   0.0000000   0.0000000
 NMagM=    2.7928460   0.0000000   0.0000000   0.0000000   0.0000000   0.0000000   0.0000000   2.7928460   2.7928460   0.0000000
 AtZNuc=   1.0000000   8.0000000   8.0000000   8.0000000   8.0000000   8.0000000   6.0000000   1.0000000   1.0000000   8.0000000

  Atom        51          52          53          54          55          56          57          58          59          60
 IAtWgt=          32          16          16          12          12          12          12           1          12           1
 AtmWgt=  31.9720718  15.9949146  15.9949146  12.0000000  12.0000000  12.0000000  12.0000000   1.0078250  12.0000000   1.0078250
 NucSpn=           0           0           0           0           0           0           0           1           0           1
 AtZEff=   0.0000000   0.0000000   0.0000000   0.0000000   0.0000000   0.0000000   0.0000000   0.0000000   0.0000000   0.0000000
 NQMom=    0.0000000   0.0000000   0.0000000   0.0000000   0.0000000   0.0000000   0.0000000   0.0000000   0.0000000   0.0000000
 NMagM=    0.0000000   0.0000000   0.0000000   0.0000000   0.0000000   0.0000000   0.0000000   2.7928460   0.0000000   2.7928460
 AtZNuc=  16.0000000   8.0000000   8.0000000   6.0000000   6.0000000   6.0000000   6.0000000   1.0000000   6.0000000   1.0000000

  Atom        61          62          63          64          65          66          67          68          69          70
 IAtWgt=          12           1          12           1           1           1          12           1           1           1
 AtmWgt=  12.0000000   1.0078250  12.0000000   1.0078250   1.0078250   1.0078250  12.0000000   1.0078250   1.0078250   1.0078250
 NucSpn=           0           1           0           1           1           1           0           1           1           1
 AtZEff=   0.0000000   0.0000000   0.0000000   0.0000000   0.0000000   0.0000000   0.0000000   0.0000000   0.0000000   0.0000000
 NQMom=    0.0000000   0.0000000   0.0000000   0.0000000   0.0000000   0.0000000   0.0000000   0.0000000   0.0000000   0.0000000
 NMagM=    0.0000000   2.7928460   0.0000000   2.7928460   2.7928460   2.7928460   0.0000000   2.7928460   2.7928460   2.7928460
 AtZNuc=   6.0000000   1.0000000   6.0000000   1.0000000   1.0000000   1.0000000   6.0000000   1.0000000   1.0000000   1.0000000

  Atom        71          72          73          74          75          76          77          78          79          80
 IAtWgt=          12           1           1           1          12           1           1           1          12           1
 AtmWgt=  12.0000000   1.0078250   1.0078250   1.0078250  12.0000000   1.0078250   1.0078250   1.0078250  12.0000000   1.0078250
 NucSpn=           0           1           1           1           0           1           1           1           0           1
 AtZEff=   0.0000000   0.0000000   0.0000000   0.0000000   0.0000000   0.0000000   0.0000000   0.0000000   0.0000000   0.0000000
 NQMom=    0.0000000   0.0000000   0.0000000   0.0000000   0.0000000   0.0000000   0.0000000   0.0000000   0.0000000   0.0000000
 NMagM=    0.0000000   2.7928460   2.7928460   2.7928460   0.0000000   2.7928460   2.7928460   2.7928460   0.0000000   2.7928460
 AtZNuc=   6.0000000   1.0000000   1.0000000   1.0000000   6.0000000   1.0000000   1.0000000   1.0000000   6.0000000   1.0000000

  Atom        81          82          83          84          85          86          87          88          89          90
 IAtWgt=           1           1          23          16          12           1           1           1          12           1
 AtmWgt=   1.0078250   1.0078250  22.9897697  15.9949146  12.0000000   1.0078250   1.0078250   1.0078250  12.0000000   1.0078250
 NucSpn=           1           1           3           0           0           1           1           1           0           1
 AtZEff=   0.0000000   0.0000000   0.0000000   0.0000000   0.0000000   0.0000000   0.0000000   0.0000000   0.0000000   0.0000000
 NQMom=    0.0000000   0.0000000  10.4000000   0.0000000   0.0000000   0.0000000   0.0000000   0.0000000   0.0000000   0.0000000
 NMagM=    2.7928460   2.7928460   2.2175200   0.0000000   0.0000000   2.7928460   2.7928460   2.7928460   0.0000000   2.7928460
 AtZNuc=   1.0000000   1.0000000  11.0000000   8.0000000   6.0000000   1.0000000   1.0000000   1.0000000   6.0000000   1.0000000

  Atom        91          92          93          94          95          96          97          98          99         100
 IAtWgt=           1           1          12          19          19          19          12          19          19          19
 AtmWgt=   1.0078250   1.0078250  12.0000000  18.9984033  18.9984033  18.9984033  12.0000000  18.9984033  18.9984033  18.9984033
 NucSpn=           1           1           0           1           1           1           0           1           1           1
 AtZEff=   0.0000000   0.0000000   0.0000000   0.0000000   0.0000000   0.0000000   0.0000000   0.0000000   0.0000000   0.0000000
 NQMom=    0.0000000   0.0000000   0.0000000   0.0000000   0.0000000   0.0000000   0.0000000   0.0000000   0.0000000   0.0000000
 NMagM=    2.7928460   2.7928460   0.0000000   2.6288670   2.6288670   2.6288670   0.0000000   2.6288670   2.6288670   2.6288670
 AtZNuc=   1.0000000   1.0000000   6.0000000   9.0000000   9.0000000   9.0000000   6.0000000   9.0000000   9.0000000   9.0000000
 Leave Link  101 at Tue May 28 07:49:40 2019, MaxMem=  6442450944 cpu:              18.0 elap:               0.7
 (Enter /home/ekwan/sw/g16/l103.exe)

 GradGradGradGradGradGradGradGradGradGradGradGradGradGradGradGradGradGrad
 Berny optimization.
 Initialization pass.
                           ----------------------------
                           !    Initial Parameters    !
                           ! (Angstroms and Degrees)  !
 --------------------------                            --------------------------
 ! Name  Definition              Value          Derivative Info.                !
 --------------------------------------------------------------------------------
 ! R1    R(1,2)                  1.5289         calculate D2E/DX2 analytically  !
 ! R2    R(1,5)                  1.5301         calculate D2E/DX2 analytically  !
 ! R3    R(1,8)                  1.0972         calculate D2E/DX2 analytically  !
 ! R4    R(1,14)                 1.427          calculate D2E/DX2 analytically  !
 ! R5    R(2,3)                  1.5283         calculate D2E/DX2 analytically  !
 ! R6    R(2,7)                  1.0993         calculate D2E/DX2 analytically  !
 ! R7    R(2,13)                 1.4173         calculate D2E/DX2 analytically  !
 ! R8    R(3,6)                  1.0974         calculate D2E/DX2 analytically  !
 ! R9    R(3,11)                 1.4195         calculate D2E/DX2 analytically  !
 ! R10   R(3,12)                 1.3982         calculate D2E/DX2 analytically  !
 ! R11   R(4,5)                  1.5324         calculate D2E/DX2 analytically  !
 ! R12   R(4,9)                  1.0977         calculate D2E/DX2 analytically  !
 ! R13   R(4,11)                 1.4505         calculate D2E/DX2 analytically  !
 ! R14   R(4,16)                 1.5397         calculate D2E/DX2 analytically  !
 ! R15   R(5,10)                 1.0929         calculate D2E/DX2 analytically  !
 ! R16   R(5,15)                 1.4284         calculate D2E/DX2 analytically  !
 ! R17   R(6,41)                 1.9788         calculate D2E/DX2 analytically  !
 ! R18   R(12,79)                1.4258         calculate D2E/DX2 analytically  !
 ! R19   R(13,20)                1.4218         calculate D2E/DX2 analytically  !
 ! R20   R(14,24)                1.4203         calculate D2E/DX2 analytically  !
 ! R21   R(15,28)                1.4214         calculate D2E/DX2 analytically  !
 ! R22   R(16,17)                1.1126         calculate D2E/DX2 analytically  !
 ! R23   R(16,18)                1.1145         calculate D2E/DX2 analytically  !
 ! R24   R(16,19)                1.3728         calculate D2E/DX2 analytically  !
 ! R25   R(18,87)                2.3451         calculate D2E/DX2 analytically  !
 ! R26   R(19,37)                2.0221         calculate D2E/DX2 analytically  !
 ! R27   R(19,83)                2.1877         calculate D2E/DX2 analytically  !
 ! R28   R(20,21)                1.1007         calculate D2E/DX2 analytically  !
 ! R29   R(20,22)                1.0952         calculate D2E/DX2 analytically  !
 ! R30   R(20,23)                1.0932         calculate D2E/DX2 analytically  !
 ! R31   R(24,25)                1.0952         calculate D2E/DX2 analytically  !
 ! R32   R(24,26)                1.0998         calculate D2E/DX2 analytically  !
 ! R33   R(24,27)                1.0935         calculate D2E/DX2 analytically  !
 ! R34   R(28,29)                1.1            calculate D2E/DX2 analytically  !
 ! R35   R(28,30)                1.0965         calculate D2E/DX2 analytically  !
 ! R36   R(28,31)                1.0936         calculate D2E/DX2 analytically  !
 ! R37   R(32,33)                1.5272         calculate D2E/DX2 analytically  !
 ! R38   R(32,36)                1.5271         calculate D2E/DX2 analytically  !
 ! R39   R(32,39)                1.0962         calculate D2E/DX2 analytically  !
 ! R40   R(32,45)                1.4177         calculate D2E/DX2 analytically  !
 ! R41   R(33,34)                1.4979         calculate D2E/DX2 analytically  !
 ! R42   R(33,38)                1.0983         calculate D2E/DX2 analytically  !
 ! R43   R(33,44)                1.4047         calculate D2E/DX2 analytically  !
 ! R44   R(34,37)                1.0699         calculate D2E/DX2 analytically  !
 ! R45   R(34,42)                1.2855         calculate D2E/DX2 analytically  !
 ! R46   R(35,36)                1.535          calculate D2E/DX2 analytically  !
 ! R47   R(35,40)                1.0915         calculate D2E/DX2 analytically  !
 ! R48   R(35,42)                1.4712         calculate D2E/DX2 analytically  !
 ! R49   R(35,47)                1.5405         calculate D2E/DX2 analytically  !
 ! R50   R(36,41)                1.0936         calculate D2E/DX2 analytically  !
 ! R51   R(36,46)                1.4189         calculate D2E/DX2 analytically  !
 ! R52   R(37,86)                2.4794         calculate D2E/DX2 analytically  !
 ! R53   R(43,51)                1.4912         calculate D2E/DX2 analytically  !
 ! R54   R(43,83)                2.2883         calculate D2E/DX2 analytically  !
 ! R55   R(44,63)                1.4284         calculate D2E/DX2 analytically  !
 ! R56   R(45,67)                1.4254         calculate D2E/DX2 analytically  !
 ! R57   R(46,71)                1.4258         calculate D2E/DX2 analytically  !
 ! R58   R(47,48)                1.0994         calculate D2E/DX2 analytically  !
 ! R59   R(47,49)                1.0917         calculate D2E/DX2 analytically  !
 ! R60   R(47,50)                1.4099         calculate D2E/DX2 analytically  !
 ! R61   R(50,75)                1.4244         calculate D2E/DX2 analytically  !
 ! R62   R(51,52)                1.476          calculate D2E/DX2 analytically  !
 ! R63   R(51,53)                1.5144         calculate D2E/DX2 analytically  !
 ! R64   R(51,54)                1.7953         calculate D2E/DX2 analytically  !
 ! R65   R(54,55)                1.3867         calculate D2E/DX2 analytically  !
 ! R66   R(54,56)                1.3938         calculate D2E/DX2 analytically  !
 ! R67   R(55,57)                1.3972         calculate D2E/DX2 analytically  !
 ! R68   R(55,58)                1.0833         calculate D2E/DX2 analytically  !
 ! R69   R(56,59)                1.3906         calculate D2E/DX2 analytically  !
 ! R70   R(56,60)                1.0825         calculate D2E/DX2 analytically  !
 ! R71   R(57,61)                1.3907         calculate D2E/DX2 analytically  !
 ! R72   R(57,93)                1.5021         calculate D2E/DX2 analytically  !
 ! R73   R(59,61)                1.3984         calculate D2E/DX2 analytically  !
 ! R74   R(59,97)                1.5032         calculate D2E/DX2 analytically  !
 ! R75   R(61,62)                1.0836         calculate D2E/DX2 analytically  !
 ! R76   R(63,64)                1.0939         calculate D2E/DX2 analytically  !
 ! R77   R(63,65)                1.0988         calculate D2E/DX2 analytically  !
 ! R78   R(63,66)                1.0915         calculate D2E/DX2 analytically  !
 ! R79   R(67,68)                1.0975         calculate D2E/DX2 analytically  !
 ! R80   R(67,69)                1.0934         calculate D2E/DX2 analytically  !
 ! R81   R(67,70)                1.0924         calculate D2E/DX2 analytically  !
 ! R82   R(71,72)                1.0943         calculate D2E/DX2 analytically  !
 ! R83   R(71,73)                1.0972         calculate D2E/DX2 analytically  !
 ! R84   R(71,74)                1.0924         calculate D2E/DX2 analytically  !
 ! R85   R(75,76)                1.0921         calculate D2E/DX2 analytically  !
 ! R86   R(75,77)                1.0991         calculate D2E/DX2 analytically  !
 ! R87   R(75,78)                1.0955         calculate D2E/DX2 analytically  !
 ! R88   R(79,80)                1.0918         calculate D2E/DX2 analytically  !
 ! R89   R(79,81)                1.0966         calculate D2E/DX2 analytically  !
 ! R90   R(79,82)                1.0984         calculate D2E/DX2 analytically  !
 ! R91   R(83,84)                2.3414         calculate D2E/DX2 analytically  !
 ! R92   R(84,85)                1.4249         calculate D2E/DX2 analytically  !
 ! R93   R(84,89)                1.4249         calculate D2E/DX2 analytically  !
 ! R94   R(85,86)                1.0978         calculate D2E/DX2 analytically  !
 ! R95   R(85,87)                1.091          calculate D2E/DX2 analytically  !
 ! R96   R(85,88)                1.0986         calculate D2E/DX2 analytically  !
 ! R97   R(89,90)                1.0985         calculate D2E/DX2 analytically  !
 ! R98   R(89,91)                1.0926         calculate D2E/DX2 analytically  !
 ! R99   R(89,92)                1.0968         calculate D2E/DX2 analytically  !
 ! R100  R(93,94)                1.3473         calculate D2E/DX2 analytically  !
 ! R101  R(93,95)                1.359          calculate D2E/DX2 analytically  !
 ! R102  R(93,96)                1.3508         calculate D2E/DX2 analytically  !
 ! R103  R(97,98)                1.35           calculate D2E/DX2 analytically  !
 ! R104  R(97,99)                1.3563         calculate D2E/DX2 analytically  !
 ! R105  R(97,100)               1.3507         calculate D2E/DX2 analytically  !
 ! A1    A(2,1,5)              110.5743         calculate D2E/DX2 analytically  !
 ! A2    A(2,1,8)              108.273          calculate D2E/DX2 analytically  !
 ! A3    A(2,1,14)             107.9825         calculate D2E/DX2 analytically  !
 ! A4    A(5,1,8)              109.6095         calculate D2E/DX2 analytically  !
 ! A5    A(5,1,14)             110.2583         calculate D2E/DX2 analytically  !
 ! A6    A(8,1,14)             110.1064         calculate D2E/DX2 analytically  !
 ! A7    A(1,2,3)              110.0799         calculate D2E/DX2 analytically  !
 ! A8    A(1,2,7)              108.8734         calculate D2E/DX2 analytically  !
 ! A9    A(1,2,13)             112.2728         calculate D2E/DX2 analytically  !
 ! A10   A(3,2,7)              106.5232         calculate D2E/DX2 analytically  !
 ! A11   A(3,2,13)             109.0958         calculate D2E/DX2 analytically  !
 ! A12   A(7,2,13)             109.8316         calculate D2E/DX2 analytically  !
 ! A13   A(2,3,6)              110.3362         calculate D2E/DX2 analytically  !
 ! A14   A(2,3,11)             109.4258         calculate D2E/DX2 analytically  !
 ! A15   A(2,3,12)             109.1572         calculate D2E/DX2 analytically  !
 ! A16   A(6,3,11)             105.2346         calculate D2E/DX2 analytically  !
 ! A17   A(6,3,12)             109.6576         calculate D2E/DX2 analytically  !
 ! A18   A(11,3,12)            112.9738         calculate D2E/DX2 analytically  !
 ! A19   A(5,4,9)              108.8697         calculate D2E/DX2 analytically  !
 ! A20   A(5,4,11)             109.413          calculate D2E/DX2 analytically  !
 ! A21   A(5,4,16)             113.1442         calculate D2E/DX2 analytically  !
 ! A22   A(9,4,11)             108.3562         calculate D2E/DX2 analytically  !
 ! A23   A(9,4,16)             108.9104         calculate D2E/DX2 analytically  !
 ! A24   A(11,4,16)            108.041          calculate D2E/DX2 analytically  !
 ! A25   A(1,5,4)              112.9369         calculate D2E/DX2 analytically  !
 ! A26   A(1,5,10)             107.7978         calculate D2E/DX2 analytically  !
 ! A27   A(1,5,15)             108.8309         calculate D2E/DX2 analytically  !
 ! A28   A(4,5,10)             108.0574         calculate D2E/DX2 analytically  !
 ! A29   A(4,5,15)             109.3313         calculate D2E/DX2 analytically  !
 ! A30   A(10,5,15)            109.8493         calculate D2E/DX2 analytically  !
 ! A31   A(3,6,41)             128.7935         calculate D2E/DX2 analytically  !
 ! A32   A(3,11,4)             113.7603         calculate D2E/DX2 analytically  !
 ! A33   A(3,12,79)            113.1718         calculate D2E/DX2 analytically  !
 ! A34   A(2,13,20)            113.6484         calculate D2E/DX2 analytically  !
 ! A35   A(1,14,24)            114.1879         calculate D2E/DX2 analytically  !
 ! A36   A(5,15,28)            113.466          calculate D2E/DX2 analytically  !
 ! A37   A(4,16,17)            104.8117         calculate D2E/DX2 analytically  !
 ! A38   A(4,16,18)            105.0166         calculate D2E/DX2 analytically  !
 ! A39   A(4,16,19)            114.8606         calculate D2E/DX2 analytically  !
 ! A40   A(17,16,18)           104.9696         calculate D2E/DX2 analytically  !
 ! A41   A(17,16,19)           113.0315         calculate D2E/DX2 analytically  !
 ! A42   A(18,16,19)           113.1966         calculate D2E/DX2 analytically  !
 ! A43   A(16,18,87)           111.9466         calculate D2E/DX2 analytically  !
 ! A44   A(16,19,37)           125.9747         calculate D2E/DX2 analytically  !
 ! A45   A(16,19,83)           135.3556         calculate D2E/DX2 analytically  !
 ! A46   A(37,19,83)            71.2983         calculate D2E/DX2 analytically  !
 ! A47   A(13,20,21)           111.106          calculate D2E/DX2 analytically  !
 ! A48   A(13,20,22)           111.4226         calculate D2E/DX2 analytically  !
 ! A49   A(13,20,23)           106.7063         calculate D2E/DX2 analytically  !
 ! A50   A(21,20,22)           108.9582         calculate D2E/DX2 analytically  !
 ! A51   A(21,20,23)           108.9416         calculate D2E/DX2 analytically  !
 ! A52   A(22,20,23)           109.6534         calculate D2E/DX2 analytically  !
 ! A53   A(14,24,25)           111.5682         calculate D2E/DX2 analytically  !
 ! A54   A(14,24,26)           111.1168         calculate D2E/DX2 analytically  !
 ! A55   A(14,24,27)           106.7286         calculate D2E/DX2 analytically  !
 ! A56   A(25,24,26)           108.9381         calculate D2E/DX2 analytically  !
 ! A57   A(25,24,27)           109.5687         calculate D2E/DX2 analytically  !
 ! A58   A(26,24,27)           108.8615         calculate D2E/DX2 analytically  !
 ! A59   A(15,28,29)           111.011          calculate D2E/DX2 analytically  !
 ! A60   A(15,28,30)           111.0431         calculate D2E/DX2 analytically  !
 ! A61   A(15,28,31)           106.9169         calculate D2E/DX2 analytically  !
 ! A62   A(29,28,30)           108.863          calculate D2E/DX2 analytically  !
 ! A63   A(29,28,31)           108.9287         calculate D2E/DX2 analytically  !
 ! A64   A(30,28,31)           110.0448         calculate D2E/DX2 analytically  !
 ! A65   A(33,32,36)           109.1681         calculate D2E/DX2 analytically  !
 ! A66   A(33,32,39)           109.5234         calculate D2E/DX2 analytically  !
 ! A67   A(33,32,45)           110.4777         calculate D2E/DX2 analytically  !
 ! A68   A(36,32,39)           109.5933         calculate D2E/DX2 analytically  !
 ! A69   A(36,32,45)           107.1597         calculate D2E/DX2 analytically  !
 ! A70   A(39,32,45)           110.873          calculate D2E/DX2 analytically  !
 ! A71   A(32,33,34)           111.0795         calculate D2E/DX2 analytically  !
 ! A72   A(32,33,38)           107.989          calculate D2E/DX2 analytically  !
 ! A73   A(32,33,44)           110.7289         calculate D2E/DX2 analytically  !
 ! A74   A(34,33,38)           103.3643         calculate D2E/DX2 analytically  !
 ! A75   A(34,33,44)           111.9694         calculate D2E/DX2 analytically  !
 ! A76   A(38,33,44)           111.4291         calculate D2E/DX2 analytically  !
 ! A77   A(33,34,37)           120.7009         calculate D2E/DX2 analytically  !
 ! A78   A(33,34,42)           121.8303         calculate D2E/DX2 analytically  !
 ! A79   A(37,34,42)           114.7248         calculate D2E/DX2 analytically  !
 ! A80   A(36,35,40)           108.0685         calculate D2E/DX2 analytically  !
 ! A81   A(36,35,42)           115.5666         calculate D2E/DX2 analytically  !
 ! A82   A(36,35,47)           113.1906         calculate D2E/DX2 analytically  !
 ! A83   A(40,35,42)           103.8808         calculate D2E/DX2 analytically  !
 ! A84   A(40,35,47)           112.8112         calculate D2E/DX2 analytically  !
 ! A85   A(42,35,47)           103.0237         calculate D2E/DX2 analytically  !
 ! A86   A(32,36,35)           113.8323         calculate D2E/DX2 analytically  !
 ! A87   A(32,36,41)           107.5684         calculate D2E/DX2 analytically  !
 ! A88   A(32,36,46)           110.7606         calculate D2E/DX2 analytically  !
 ! A89   A(35,36,41)           109.2147         calculate D2E/DX2 analytically  !
 ! A90   A(35,36,46)           105.5269         calculate D2E/DX2 analytically  !
 ! A91   A(41,36,46)           109.9145         calculate D2E/DX2 analytically  !
 ! A92   A(19,37,34)           111.4425         calculate D2E/DX2 analytically  !
 ! A93   A(19,37,86)           116.0757         calculate D2E/DX2 analytically  !
 ! A94   A(34,37,86)           107.2042         calculate D2E/DX2 analytically  !
 ! A95   A(6,41,36)            163.1574         calculate D2E/DX2 analytically  !
 ! A96   A(34,42,35)           123.4055         calculate D2E/DX2 analytically  !
 ! A97   A(51,43,83)           155.2971         calculate D2E/DX2 analytically  !
 ! A98   A(33,44,63)           114.7331         calculate D2E/DX2 analytically  !
 ! A99   A(32,45,67)           114.3292         calculate D2E/DX2 analytically  !
 ! A100  A(36,46,71)           113.9896         calculate D2E/DX2 analytically  !
 ! A101  A(35,47,48)           109.3015         calculate D2E/DX2 analytically  !
 ! A102  A(35,47,49)           106.9123         calculate D2E/DX2 analytically  !
 ! A103  A(35,47,50)           113.4772         calculate D2E/DX2 analytically  !
 ! A104  A(48,47,49)           108.8995         calculate D2E/DX2 analytically  !
 ! A105  A(48,47,50)           111.2577         calculate D2E/DX2 analytically  !
 ! A106  A(49,47,50)           106.785          calculate D2E/DX2 analytically  !
 ! A107  A(47,50,75)           114.025          calculate D2E/DX2 analytically  !
 ! A108  A(43,51,52)           114.2894         calculate D2E/DX2 analytically  !
 ! A109  A(43,51,53)           112.6281         calculate D2E/DX2 analytically  !
 ! A110  A(43,51,54)           104.9896         calculate D2E/DX2 analytically  !
 ! A111  A(52,51,53)           112.0689         calculate D2E/DX2 analytically  !
 ! A112  A(52,51,54)           107.5372         calculate D2E/DX2 analytically  !
 ! A113  A(53,51,54)           104.4246         calculate D2E/DX2 analytically  !
 ! A114  A(51,54,55)           119.413          calculate D2E/DX2 analytically  !
 ! A115  A(51,54,56)           119.3823         calculate D2E/DX2 analytically  !
 ! A116  A(55,54,56)           121.163          calculate D2E/DX2 analytically  !
 ! A117  A(54,55,57)           119.1489         calculate D2E/DX2 analytically  !
 ! A118  A(54,55,58)           119.8937         calculate D2E/DX2 analytically  !
 ! A119  A(57,55,58)           120.9058         calculate D2E/DX2 analytically  !
 ! A120  A(54,56,59)           119.0158         calculate D2E/DX2 analytically  !
 ! A121  A(54,56,60)           120.1976         calculate D2E/DX2 analytically  !
 ! A122  A(59,56,60)           120.733          calculate D2E/DX2 analytically  !
 ! A123  A(55,57,61)           120.6682         calculate D2E/DX2 analytically  !
 ! A124  A(55,57,93)           118.367          calculate D2E/DX2 analytically  !
 ! A125  A(61,57,93)           120.7826         calculate D2E/DX2 analytically  !
 ! A126  A(56,59,61)           120.7673         calculate D2E/DX2 analytically  !
 ! A127  A(56,59,97)           120.7347         calculate D2E/DX2 analytically  !
 ! A128  A(61,59,97)           118.4679         calculate D2E/DX2 analytically  !
 ! A129  A(57,61,59)           119.2217         calculate D2E/DX2 analytically  !
 ! A130  A(57,61,62)           120.3316         calculate D2E/DX2 analytically  !
 ! A131  A(59,61,62)           120.4422         calculate D2E/DX2 analytically  !
 ! A132  A(44,63,64)           110.5369         calculate D2E/DX2 analytically  !
 ! A133  A(44,63,65)           110.4645         calculate D2E/DX2 analytically  !
 ! A134  A(44,63,66)           106.2955         calculate D2E/DX2 analytically  !
 ! A135  A(64,63,65)           109.487          calculate D2E/DX2 analytically  !
 ! A136  A(64,63,66)           111.0836         calculate D2E/DX2 analytically  !
 ! A137  A(65,63,66)           108.9257         calculate D2E/DX2 analytically  !
 ! A138  A(45,67,68)           110.8572         calculate D2E/DX2 analytically  !
 ! A139  A(45,67,69)           111.444          calculate D2E/DX2 analytically  !
 ! A140  A(45,67,70)           106.4777         calculate D2E/DX2 analytically  !
 ! A141  A(68,67,69)           109.1486         calculate D2E/DX2 analytically  !
 ! A142  A(68,67,70)           109.0855         calculate D2E/DX2 analytically  !
 ! A143  A(69,67,70)           109.7732         calculate D2E/DX2 analytically  !
 ! A144  A(46,71,72)           111.0828         calculate D2E/DX2 analytically  !
 ! A145  A(46,71,73)           110.5425         calculate D2E/DX2 analytically  !
 ! A146  A(46,71,74)           106.3419         calculate D2E/DX2 analytically  !
 ! A147  A(72,71,73)           109.7359         calculate D2E/DX2 analytically  !
 ! A148  A(72,71,74)           109.7386         calculate D2E/DX2 analytically  !
 ! A149  A(73,71,74)           109.3326         calculate D2E/DX2 analytically  !
 ! A150  A(50,75,76)           106.5931         calculate D2E/DX2 analytically  !
 ! A151  A(50,75,77)           110.8312         calculate D2E/DX2 analytically  !
 ! A152  A(50,75,78)           111.4154         calculate D2E/DX2 analytically  !
 ! A153  A(76,75,77)           109.2138         calculate D2E/DX2 analytically  !
 ! A154  A(76,75,78)           109.1413         calculate D2E/DX2 analytically  !
 ! A155  A(77,75,78)           109.5708         calculate D2E/DX2 analytically  !
 ! A156  A(12,79,80)           106.7087         calculate D2E/DX2 analytically  !
 ! A157  A(12,79,81)           111.3656         calculate D2E/DX2 analytically  !
 ! A158  A(12,79,82)           111.03           calculate D2E/DX2 analytically  !
 ! A159  A(80,79,81)           109.3499         calculate D2E/DX2 analytically  !
 ! A160  A(80,79,82)           109.6823         calculate D2E/DX2 analytically  !
 ! A161  A(81,79,82)           108.6745         calculate D2E/DX2 analytically  !
 ! A162  A(19,83,43)           105.2816         calculate D2E/DX2 analytically  !
 ! A163  A(19,83,84)           105.3644         calculate D2E/DX2 analytically  !
 ! A164  A(43,83,84)            85.7715         calculate D2E/DX2 analytically  !
 ! A165  A(83,84,85)           110.2613         calculate D2E/DX2 analytically  !
 ! A166  A(83,84,89)           118.0778         calculate D2E/DX2 analytically  !
 ! A167  A(85,84,89)           111.7044         calculate D2E/DX2 analytically  !
 ! A168  A(84,85,86)           110.8168         calculate D2E/DX2 analytically  !
 ! A169  A(84,85,87)           107.0658         calculate D2E/DX2 analytically  !
 ! A170  A(84,85,88)           110.6619         calculate D2E/DX2 analytically  !
 ! A171  A(86,85,87)           109.323          calculate D2E/DX2 analytically  !
 ! A172  A(86,85,88)           109.0146         calculate D2E/DX2 analytically  !
 ! A173  A(87,85,88)           109.9342         calculate D2E/DX2 analytically  !
 ! A174  A(37,86,85)            96.476          calculate D2E/DX2 analytically  !
 ! A175  A(84,89,90)           110.5831         calculate D2E/DX2 analytically  !
 ! A176  A(84,89,91)           107.2078         calculate D2E/DX2 analytically  !
 ! A177  A(84,89,92)           110.8028         calculate D2E/DX2 analytically  !
 ! A178  A(90,89,91)           109.1767         calculate D2E/DX2 analytically  !
 ! A179  A(90,89,92)           109.6491         calculate D2E/DX2 analytically  !
 ! A180  A(91,89,92)           109.3699         calculate D2E/DX2 analytically  !
 ! A181  A(57,93,94)           112.5539         calculate D2E/DX2 analytically  !
 ! A182  A(57,93,95)           110.8957         calculate D2E/DX2 analytically  !
 ! A183  A(57,93,96)           111.7379         calculate D2E/DX2 analytically  !
 ! A184  A(94,93,95)           107.0933         calculate D2E/DX2 analytically  !
 ! A185  A(94,93,96)           107.7719         calculate D2E/DX2 analytically  !
 ! A186  A(95,93,96)           106.4772         calculate D2E/DX2 analytically  !
 ! A187  A(59,97,98)           112.3629         calculate D2E/DX2 analytically  !
 ! A188  A(59,97,99)           111.019          calculate D2E/DX2 analytically  !
 ! A189  A(59,97,100)          111.8899         calculate D2E/DX2 analytically  !
 ! A190  A(98,97,99)           107.1609         calculate D2E/DX2 analytically  !
 ! A191  A(98,97,100)          107.4822         calculate D2E/DX2 analytically  !
 ! A192  A(99,97,100)          106.6189         calculate D2E/DX2 analytically  !
 ! A193  L(18,87,85,32,-1)     176.4874         calculate D2E/DX2 analytically  !
 ! A194  L(18,87,85,32,-2)     184.9815         calculate D2E/DX2 analytically  !
 ! D1    D(5,1,2,3)            -51.7303         calculate D2E/DX2 analytically  !
 ! D2    D(5,1,2,7)             64.6919         calculate D2E/DX2 analytically  !
 ! D3    D(5,1,2,13)          -173.4743         calculate D2E/DX2 analytically  !
 ! D4    D(8,1,2,3)             68.3658         calculate D2E/DX2 analytically  !
 ! D5    D(8,1,2,7)           -175.212          calculate D2E/DX2 analytically  !
 ! D6    D(8,1,2,13)           -53.3782         calculate D2E/DX2 analytically  !
 ! D7    D(14,1,2,3)          -172.4389         calculate D2E/DX2 analytically  !
 ! D8    D(14,1,2,7)           -56.0167         calculate D2E/DX2 analytically  !
 ! D9    D(14,1,2,13)           65.8171         calculate D2E/DX2 analytically  !
 ! D10   D(2,1,5,4)             48.8617         calculate D2E/DX2 analytically  !
 ! D11   D(2,1,5,10)           -70.436          calculate D2E/DX2 analytically  !
 ! D12   D(2,1,5,15)           170.4689         calculate D2E/DX2 analytically  !
 ! D13   D(8,1,5,4)            -70.43           calculate D2E/DX2 analytically  !
 ! D14   D(8,1,5,10)           170.2722         calculate D2E/DX2 analytically  !
 ! D15   D(8,1,5,15)            51.1771         calculate D2E/DX2 analytically  !
 ! D16   D(14,1,5,4)           168.2051         calculate D2E/DX2 analytically  !
 ! D17   D(14,1,5,10)           48.9073         calculate D2E/DX2 analytically  !
 ! D18   D(14,1,5,15)          -70.1877         calculate D2E/DX2 analytically  !
 ! D19   D(2,1,14,24)         -140.7459         calculate D2E/DX2 analytically  !
 ! D20   D(5,1,14,24)           98.3482         calculate D2E/DX2 analytically  !
 ! D21   D(8,1,14,24)          -22.7205         calculate D2E/DX2 analytically  !
 ! D22   D(1,2,3,6)            174.1097         calculate D2E/DX2 analytically  !
 ! D23   D(1,2,3,11)            58.7777         calculate D2E/DX2 analytically  !
 ! D24   D(1,2,3,12)           -65.3231         calculate D2E/DX2 analytically  !
 ! D25   D(7,2,3,6)             56.2252         calculate D2E/DX2 analytically  !
 ! D26   D(7,2,3,11)           -59.1069         calculate D2E/DX2 analytically  !
 ! D27   D(7,2,3,12)           176.7924         calculate D2E/DX2 analytically  !
 ! D28   D(13,2,3,6)           -62.276          calculate D2E/DX2 analytically  !
 ! D29   D(13,2,3,11)         -177.608          calculate D2E/DX2 analytically  !
 ! D30   D(13,2,3,12)           58.2912         calculate D2E/DX2 analytically  !
 ! D31   D(1,2,13,20)          -99.4535         calculate D2E/DX2 analytically  !
 ! D32   D(3,2,13,20)          138.2425         calculate D2E/DX2 analytically  !
 ! D33   D(7,2,13,20)           21.8324         calculate D2E/DX2 analytically  !
 ! D34   D(2,3,6,41)           -85.014          calculate D2E/DX2 analytically  !
 ! D35   D(11,3,6,41)           32.9263         calculate D2E/DX2 analytically  !
 ! D36   D(12,3,6,41)          154.719          calculate D2E/DX2 analytically  !
 ! D37   D(2,3,11,4)           -64.1512         calculate D2E/DX2 analytically  !
 ! D38   D(6,3,11,4)           177.2957         calculate D2E/DX2 analytically  !
 ! D39   D(12,3,11,4)           57.6824         calculate D2E/DX2 analytically  !
 ! D40   D(2,3,12,79)         -173.6318         calculate D2E/DX2 analytically  !
 ! D41   D(6,3,12,79)          -52.6499         calculate D2E/DX2 analytically  !
 ! D42   D(11,3,12,79)          64.3836         calculate D2E/DX2 analytically  !
 ! D43   D(9,4,5,1)             67.4164         calculate D2E/DX2 analytically  !
 ! D44   D(9,4,5,10)          -173.436          calculate D2E/DX2 analytically  !
 ! D45   D(9,4,5,15)           -53.9079         calculate D2E/DX2 analytically  !
 ! D46   D(11,4,5,1)           -50.8336         calculate D2E/DX2 analytically  !
 ! D47   D(11,4,5,10)           68.314          calculate D2E/DX2 analytically  !
 ! D48   D(11,4,5,15)         -172.158          calculate D2E/DX2 analytically  !
 ! D49   D(16,4,5,1)          -171.3472         calculate D2E/DX2 analytically  !
 ! D50   D(16,4,5,10)          -52.1996         calculate D2E/DX2 analytically  !
 ! D51   D(16,4,5,15)           67.3284         calculate D2E/DX2 analytically  !
 ! D52   D(5,4,11,3)            59.4921         calculate D2E/DX2 analytically  !
 ! D53   D(9,4,11,3)           -59.0777         calculate D2E/DX2 analytically  !
 ! D54   D(16,4,11,3)         -176.93           calculate D2E/DX2 analytically  !
 ! D55   D(5,4,16,17)          -74.9935         calculate D2E/DX2 analytically  !
 ! D56   D(5,4,16,18)          174.6679         calculate D2E/DX2 analytically  !
 ! D57   D(5,4,16,19)           49.6549         calculate D2E/DX2 analytically  !
 ! D58   D(9,4,16,17)           46.2199         calculate D2E/DX2 analytically  !
 ! D59   D(9,4,16,18)          -64.1187         calculate D2E/DX2 analytically  !
 ! D60   D(9,4,16,19)          170.8683         calculate D2E/DX2 analytically  !
 ! D61   D(11,4,16,17)         163.7158         calculate D2E/DX2 analytically  !
 ! D62   D(11,4,16,18)          53.3772         calculate D2E/DX2 analytically  !
 ! D63   D(11,4,16,19)         -71.6358         calculate D2E/DX2 analytically  !
 ! D64   D(1,5,15,28)          129.4526         calculate D2E/DX2 analytically  !
 ! D65   D(4,5,15,28)         -106.7682         calculate D2E/DX2 analytically  !
 ! D66   D(10,5,15,28)          11.6484         calculate D2E/DX2 analytically  !
 ! D67   D(3,6,41,36)          -50.63           calculate D2E/DX2 analytically  !
 ! D68   D(3,12,79,80)         167.5502         calculate D2E/DX2 analytically  !
 ! D69   D(3,12,79,81)         -73.1813         calculate D2E/DX2 analytically  !
 ! D70   D(3,12,79,82)          48.0679         calculate D2E/DX2 analytically  !
 ! D71   D(2,13,20,21)         -59.3728         calculate D2E/DX2 analytically  !
 ! D72   D(2,13,20,22)          62.3309         calculate D2E/DX2 analytically  !
 ! D73   D(2,13,20,23)        -178.0013         calculate D2E/DX2 analytically  !
 ! D74   D(1,14,24,25)         -60.2727         calculate D2E/DX2 analytically  !
 ! D75   D(1,14,24,26)          61.5145         calculate D2E/DX2 analytically  !
 ! D76   D(1,14,24,27)        -179.9343         calculate D2E/DX2 analytically  !
 ! D77   D(5,15,28,29)         -67.2748         calculate D2E/DX2 analytically  !
 ! D78   D(5,15,28,30)          53.9803         calculate D2E/DX2 analytically  !
 ! D79   D(5,15,28,31)         174.0378         calculate D2E/DX2 analytically  !
 ! D80   D(4,16,18,87)        -153.0706         calculate D2E/DX2 analytically  !
 ! D81   D(17,16,18,87)         96.7044         calculate D2E/DX2 analytically  !
 ! D82   D(19,16,18,87)        -27.0188         calculate D2E/DX2 analytically  !
 ! D83   D(4,16,19,37)          97.6157         calculate D2E/DX2 analytically  !
 ! D84   D(4,16,19,83)        -162.5325         calculate D2E/DX2 analytically  !
 ! D85   D(17,16,19,37)       -142.1766         calculate D2E/DX2 analytically  !
 ! D86   D(17,16,19,83)        -42.3247         calculate D2E/DX2 analytically  !
 ! D87   D(18,16,19,37)        -22.9973         calculate D2E/DX2 analytically  !
 ! D88   D(18,16,19,83)         76.8546         calculate D2E/DX2 analytically  !
 ! D89   D(16,18,85,84)        -29.5084         calculate D2E/DX2 analytically  !
 ! D90   D(16,18,85,86)         88.4491         calculate D2E/DX2 analytically  !
 ! D91   D(16,18,85,88)       -150.4735         calculate D2E/DX2 analytically  !
 ! D92   D(16,19,37,34)        -59.2722         calculate D2E/DX2 analytically  !
 ! D93   D(16,19,37,86)         63.8197         calculate D2E/DX2 analytically  !
 ! D94   D(83,19,37,34)        167.6926         calculate D2E/DX2 analytically  !
 ! D95   D(83,19,37,86)        -69.2155         calculate D2E/DX2 analytically  !
 ! D96   D(16,19,83,43)       -145.9175         calculate D2E/DX2 analytically  !
 ! D97   D(16,19,83,84)        -56.1578         calculate D2E/DX2 analytically  !
 ! D98   D(37,19,83,43)        -23.247          calculate D2E/DX2 analytically  !
 ! D99   D(37,19,83,84)         66.5127         calculate D2E/DX2 analytically  !
 ! D100  D(36,32,33,34)        -53.4093         calculate D2E/DX2 analytically  !
 ! D101  D(36,32,33,38)         59.2724         calculate D2E/DX2 analytically  !
 ! D102  D(36,32,33,44)       -178.4786         calculate D2E/DX2 analytically  !
 ! D103  D(39,32,33,34)         66.5865         calculate D2E/DX2 analytically  !
 ! D104  D(39,32,33,38)        179.2682         calculate D2E/DX2 analytically  !
 ! D105  D(39,32,33,44)        -58.4828         calculate D2E/DX2 analytically  !
 ! D106  D(45,32,33,34)       -171.0054         calculate D2E/DX2 analytically  !
 ! D107  D(45,32,33,38)        -58.3237         calculate D2E/DX2 analytically  !
 ! D108  D(45,32,33,44)         63.9253         calculate D2E/DX2 analytically  !
 ! D109  D(33,32,36,35)         49.8287         calculate D2E/DX2 analytically  !
 ! D110  D(33,32,36,41)        -71.319          calculate D2E/DX2 analytically  !
 ! D111  D(33,32,36,46)        168.5411         calculate D2E/DX2 analytically  !
 ! D112  D(39,32,36,35)        -70.124          calculate D2E/DX2 analytically  !
 ! D113  D(39,32,36,41)        168.7283         calculate D2E/DX2 analytically  !
 ! D114  D(39,32,36,46)         48.5884         calculate D2E/DX2 analytically  !
 ! D115  D(45,32,36,35)        169.4964         calculate D2E/DX2 analytically  !
 ! D116  D(45,32,36,41)         48.3487         calculate D2E/DX2 analytically  !
 ! D117  D(45,32,36,46)        -71.7912         calculate D2E/DX2 analytically  !
 ! D118  D(33,32,45,67)        -95.7078         calculate D2E/DX2 analytically  !
 ! D119  D(36,32,45,67)        145.4677         calculate D2E/DX2 analytically  !
 ! D120  D(39,32,45,67)         25.906          calculate D2E/DX2 analytically  !
 ! D121  D(32,33,34,37)       -161.1267         calculate D2E/DX2 analytically  !
 ! D122  D(32,33,34,42)         38.6307         calculate D2E/DX2 analytically  !
 ! D123  D(38,33,34,37)         83.2934         calculate D2E/DX2 analytically  !
 ! D124  D(38,33,34,42)        -76.9493         calculate D2E/DX2 analytically  !
 ! D125  D(44,33,34,37)        -36.7571         calculate D2E/DX2 analytically  !
 ! D126  D(44,33,34,42)        163.0003         calculate D2E/DX2 analytically  !
 ! D127  D(32,33,44,63)       -135.7161         calculate D2E/DX2 analytically  !
 ! D128  D(34,33,44,63)         99.7193         calculate D2E/DX2 analytically  !
 ! D129  D(38,33,44,63)        -15.4998         calculate D2E/DX2 analytically  !
 ! D130  D(33,34,37,19)        -65.9653         calculate D2E/DX2 analytically  !
 ! D131  D(33,34,37,86)        166.0121         calculate D2E/DX2 analytically  !
 ! D132  D(42,34,37,19)         95.6022         calculate D2E/DX2 analytically  !
 ! D133  D(42,34,37,86)        -32.4204         calculate D2E/DX2 analytically  !
 ! D134  D(33,34,42,35)        -16.4395         calculate D2E/DX2 analytically  !
 ! D135  D(37,34,42,35)       -177.7768         calculate D2E/DX2 analytically  !
 ! D136  D(40,35,36,32)         87.4424         calculate D2E/DX2 analytically  !
 ! D137  D(40,35,36,41)       -152.3324         calculate D2E/DX2 analytically  !
 ! D138  D(40,35,36,46)        -34.2197         calculate D2E/DX2 analytically  !
 ! D139  D(42,35,36,32)        -28.3947         calculate D2E/DX2 analytically  !
 ! D140  D(42,35,36,41)         91.8306         calculate D2E/DX2 analytically  !
 ! D141  D(42,35,36,46)       -150.0568         calculate D2E/DX2 analytically  !
 ! D142  D(47,35,36,32)       -146.8664         calculate D2E/DX2 analytically  !
 ! D143  D(47,35,36,41)        -26.6411         calculate D2E/DX2 analytically  !
 ! D144  D(47,35,36,46)         91.4715         calculate D2E/DX2 analytically  !
 ! D145  D(36,35,42,34)         10.6762         calculate D2E/DX2 analytically  !
 ! D146  D(40,35,42,34)       -107.513          calculate D2E/DX2 analytically  !
 ! D147  D(47,35,42,34)        134.6432         calculate D2E/DX2 analytically  !
 ! D148  D(36,35,47,48)       -167.9698         calculate D2E/DX2 analytically  !
 ! D149  D(36,35,47,49)         74.307          calculate D2E/DX2 analytically  !
 ! D150  D(36,35,47,50)        -43.1538         calculate D2E/DX2 analytically  !
 ! D151  D(40,35,47,48)        -44.861          calculate D2E/DX2 analytically  !
 ! D152  D(40,35,47,49)       -162.5843         calculate D2E/DX2 analytically  !
 ! D153  D(40,35,47,50)         79.955          calculate D2E/DX2 analytically  !
 ! D154  D(42,35,47,48)         66.5105         calculate D2E/DX2 analytically  !
 ! D155  D(42,35,47,49)        -51.2127         calculate D2E/DX2 analytically  !
 ! D156  D(42,35,47,50)       -168.6735         calculate D2E/DX2 analytically  !
 ! D157  D(32,36,41,6)          99.4116         calculate D2E/DX2 analytically  !
 ! D158  D(35,36,41,6)         -24.5875         calculate D2E/DX2 analytically  !
 ! D159  D(46,36,41,6)        -139.9142         calculate D2E/DX2 analytically  !
 ! D160  D(32,36,46,71)        100.678          calculate D2E/DX2 analytically  !
 ! D161  D(35,36,46,71)       -135.6935         calculate D2E/DX2 analytically  !
 ! D162  D(41,36,46,71)        -18.051          calculate D2E/DX2 analytically  !
 ! D163  D(19,37,86,85)          6.72           calculate D2E/DX2 analytically  !
 ! D164  D(34,37,86,85)        132.0006         calculate D2E/DX2 analytically  !
 ! D165  D(83,43,51,52)        115.5354         calculate D2E/DX2 analytically  !
 ! D166  D(83,43,51,53)        -13.8627         calculate D2E/DX2 analytically  !
 ! D167  D(83,43,51,54)       -126.8792         calculate D2E/DX2 analytically  !
 ! D168  D(51,43,83,19)         39.3302         calculate D2E/DX2 analytically  !
 ! D169  D(51,43,83,84)        -65.4563         calculate D2E/DX2 analytically  !
 ! D170  D(33,44,63,64)        -53.1131         calculate D2E/DX2 analytically  !
 ! D171  D(33,44,63,65)         68.2211         calculate D2E/DX2 analytically  !
 ! D172  D(33,44,63,66)       -173.7593         calculate D2E/DX2 analytically  !
 ! D173  D(32,45,67,68)        -57.3254         calculate D2E/DX2 analytically  !
 ! D174  D(32,45,67,69)         64.4629         calculate D2E/DX2 analytically  !
 ! D175  D(32,45,67,70)       -175.8537         calculate D2E/DX2 analytically  !
 ! D176  D(36,46,71,72)        -61.5057         calculate D2E/DX2 analytically  !
 ! D177  D(36,46,71,73)         60.5642         calculate D2E/DX2 analytically  !
 ! D178  D(36,46,71,74)        179.1381         calculate D2E/DX2 analytically  !
 ! D179  D(35,47,50,75)        -76.6798         calculate D2E/DX2 analytically  !
 ! D180  D(48,47,50,75)         47.0759         calculate D2E/DX2 analytically  !
 ! D181  D(49,47,50,75)        165.7854         calculate D2E/DX2 analytically  !
 ! D182  D(47,50,75,76)       -173.1865         calculate D2E/DX2 analytically  !
 ! D183  D(47,50,75,77)        -54.4494         calculate D2E/DX2 analytically  !
 ! D184  D(47,50,75,78)         67.8408         calculate D2E/DX2 analytically  !
 ! D185  D(43,51,54,55)        -22.7264         calculate D2E/DX2 analytically  !
 ! D186  D(43,51,54,56)        154.9518         calculate D2E/DX2 analytically  !
 ! D187  D(52,51,54,55)         99.3607         calculate D2E/DX2 analytically  !
 ! D188  D(52,51,54,56)        -82.9612         calculate D2E/DX2 analytically  !
 ! D189  D(53,51,54,55)       -141.4207         calculate D2E/DX2 analytically  !
 ! D190  D(53,51,54,56)         36.2575         calculate D2E/DX2 analytically  !
 ! D191  D(51,54,55,57)        176.2673         calculate D2E/DX2 analytically  !
 ! D192  D(51,54,55,58)         -1.1449         calculate D2E/DX2 analytically  !
 ! D193  D(56,54,55,57)         -1.3683         calculate D2E/DX2 analytically  !
 ! D194  D(56,54,55,58)       -178.7805         calculate D2E/DX2 analytically  !
 ! D195  D(51,54,56,59)       -176.4757         calculate D2E/DX2 analytically  !
 ! D196  D(51,54,56,60)          0.8823         calculate D2E/DX2 analytically  !
 ! D197  D(55,54,56,59)          1.1606         calculate D2E/DX2 analytically  !
 ! D198  D(55,54,56,60)        178.5187         calculate D2E/DX2 analytically  !
 ! D199  D(54,55,57,61)          0.5313         calculate D2E/DX2 analytically  !
 ! D200  D(54,55,57,93)       -174.6001         calculate D2E/DX2 analytically  !
 ! D201  D(58,55,57,61)        177.9164         calculate D2E/DX2 analytically  !
 ! D202  D(58,55,57,93)          2.7851         calculate D2E/DX2 analytically  !
 ! D203  D(54,56,59,61)         -0.1121         calculate D2E/DX2 analytically  !
 ! D204  D(54,56,59,97)        177.8638         calculate D2E/DX2 analytically  !
 ! D205  D(60,56,59,61)       -177.4556         calculate D2E/DX2 analytically  !
 ! D206  D(60,56,59,97)          0.5204         calculate D2E/DX2 analytically  !
 ! D207  D(55,57,61,59)          0.4861         calculate D2E/DX2 analytically  !
 ! D208  D(55,57,61,62)       -178.7485         calculate D2E/DX2 analytically  !
 ! D209  D(93,57,61,59)        175.4993         calculate D2E/DX2 analytically  !
 ! D210  D(93,57,61,62)         -3.7353         calculate D2E/DX2 analytically  !
 ! D211  D(55,57,93,94)       -167.0241         calculate D2E/DX2 analytically  !
 ! D212  D(55,57,93,95)         73.0265         calculate D2E/DX2 analytically  !
 ! D213  D(55,57,93,96)        -45.5978         calculate D2E/DX2 analytically  !
 ! D214  D(61,57,93,94)         17.8503         calculate D2E/DX2 analytically  !
 ! D215  D(61,57,93,95)       -102.0991         calculate D2E/DX2 analytically  !
 ! D216  D(61,57,93,96)        139.2766         calculate D2E/DX2 analytically  !
 ! D217  D(56,59,61,57)         -0.6975         calculate D2E/DX2 analytically  !
 ! D218  D(56,59,61,62)        178.5361         calculate D2E/DX2 analytically  !
 ! D219  D(97,59,61,57)       -178.7185         calculate D2E/DX2 analytically  !
 ! D220  D(97,59,61,62)          0.5152         calculate D2E/DX2 analytically  !
 ! D221  D(56,59,97,98)         -4.8142         calculate D2E/DX2 analytically  !
 ! D222  D(56,59,97,99)       -124.806          calculate D2E/DX2 analytically  !
 ! D223  D(56,59,97,100)       116.2088         calculate D2E/DX2 analytically  !
 ! D224  D(61,59,97,98)        173.2075         calculate D2E/DX2 analytically  !
 ! D225  D(61,59,97,99)         53.2157         calculate D2E/DX2 analytically  !
 ! D226  D(61,59,97,100)       -65.7695         calculate D2E/DX2 analytically  !
 ! D227  D(19,83,84,85)        -24.1065         calculate D2E/DX2 analytically  !
 ! D228  D(19,83,84,89)       -154.1758         calculate D2E/DX2 analytically  !
 ! D229  D(43,83,84,85)         80.5938         calculate D2E/DX2 analytically  !
 ! D230  D(43,83,84,89)        -49.4755         calculate D2E/DX2 analytically  !
 ! D231  D(83,84,85,86)        -77.3901         calculate D2E/DX2 analytically  !
 ! D232  D(83,84,85,87)         41.7551         calculate D2E/DX2 analytically  !
 ! D233  D(83,84,85,88)        161.5522         calculate D2E/DX2 analytically  !
 ! D234  D(89,84,85,86)         55.9975         calculate D2E/DX2 analytically  !
 ! D235  D(89,84,85,87)        175.1427         calculate D2E/DX2 analytically  !
 ! D236  D(89,84,85,88)        -65.0602         calculate D2E/DX2 analytically  !
 ! D237  D(83,84,89,90)       -170.5103         calculate D2E/DX2 analytically  !
 ! D238  D(83,84,89,91)        -51.5875         calculate D2E/DX2 analytically  !
 ! D239  D(83,84,89,92)         67.6927         calculate D2E/DX2 analytically  !
 ! D240  D(85,84,89,90)         60.0862         calculate D2E/DX2 analytically  !
 ! D241  D(85,84,89,91)        179.0089         calculate D2E/DX2 analytically  !
 ! D242  D(85,84,89,92)        -61.7108         calculate D2E/DX2 analytically  !
 ! D243  D(84,85,86,37)         77.605          calculate D2E/DX2 analytically  !
 ! D244  D(87,85,86,37)        -40.1715         calculate D2E/DX2 analytically  !
 ! D245  D(88,85,86,37)       -160.369          calculate D2E/DX2 analytically  !
 --------------------------------------------------------------------------------
 Trust Radius=1.00D-02 FncErr=1.00D-07 GrdErr=1.00D-06 EigMax=2.50D+02 EigMin=1.00D-04
 Number of steps in this run=    554 maximum allowed number of steps=    600.
 Search for a saddle point of order  1.
 Step   0 in ReCalcFC=30 IGetFC= 4 compute analytic Hessian.
 GradGradGradGradGradGradGradGradGradGradGradGradGradGradGradGradGradGrad

 Leave Link  103 at Tue May 28 07:49:41 2019, MaxMem=  6442450944 cpu:               5.3 elap:               0.2
 (Enter /home/ekwan/sw/g16/l202.exe)
 Stoichiometry    C30H47F6NaO15S
 Framework group  C1[X(C30H47F6NaO15S)]
 Deg. of freedom   294
 Full point group                 C1      NOp   1
 Largest Abelian subgroup         C1      NOp   1
 Largest concise Abelian subgroup C1      NOp   1
                         Standard orientation:                         
 ---------------------------------------------------------------------
 Center     Atomic      Atomic             Coordinates (Angstroms)
 Number     Number       Type             X           Y           Z
 ---------------------------------------------------------------------
      1          6           0       -3.704525   -1.560873   -2.401545
      2          6           0       -3.576993   -0.044751   -2.250799
      3          6           0       -4.104586    0.392953   -0.884903
      4          6           0       -3.536903   -1.705178    0.141691
      5          6           0       -3.075107   -2.275160   -1.203725
      6          1           0       -3.919693    1.463530   -0.729826
      7          1           0       -2.512045    0.226814   -2.276293
      8          1           0       -4.770905   -1.812152   -2.461418
      9          1           0       -4.603024   -1.929941    0.275345
     10          1           0       -1.991647   -2.149007   -1.271122
     11          8           0       -3.370901   -0.264207    0.137325
     12          8           0       -5.477939    0.138663   -0.820515
     13          8           0       -4.276443    0.656584   -3.264492
     14          8           0       -3.042548   -1.940943   -3.607182
     15          8           0       -3.406736   -3.663045   -1.268143
     16          6           0       -2.753446   -2.271793    1.339923
     17          1           0       -3.148986   -3.302685    1.476536
     18          1           0       -3.124247   -1.701801    2.222961
     19          8           0       -1.387717   -2.233854    1.206471
     20          6           0       -3.443003    1.109399   -4.323656
     21          1           0       -2.658689    1.785043   -3.949687
     22          1           0       -2.970770    0.271413   -4.847276
     23          1           0       -4.085547    1.660207   -5.015632
     24          6           0       -3.711136   -2.955003   -4.343390
     25          1           0       -3.813266   -3.875745   -3.759150
     26          1           0       -4.709815   -2.621070   -4.660846
     27          1           0       -3.104723   -3.150498   -5.232038
     28          6           0       -2.280959   -4.520714   -1.136083
     29          1           0       -1.610487   -4.427807   -2.003173
     30          1           0       -1.715905   -4.291227   -0.224835
     31          1           0       -2.663995   -5.544048   -1.091879
     32          6           0       -0.191448    1.995356   -0.073308
     33          6           0       -0.232308    0.484272    0.144320
     34          6           0       -0.405081    0.153382    1.594927
     35          6           0       -1.669615    2.184033    2.015313
     36          6           0       -1.425764    2.627600    0.566129
     37          1           0       -0.158792   -0.819225    1.966433
     38          1           0       -1.153017    0.100186   -0.315088
     39          1           0        0.713532    2.407596    0.388026
     40          1           0       -1.105659    2.848715    2.672251
     41          1           0       -2.290770    2.353786   -0.044486
     42          8           0       -1.173970    0.842612    2.360640
     43          8           0        1.981277   -1.671101    2.203766
     44          8           0        0.907880   -0.127763   -0.402126
     45          8           0       -0.235774    2.298476   -1.457546
     46          8           0       -1.298029    4.039848    0.617542
     47          6           0       -3.163645    2.107411    2.383050
     48          1           0       -3.264637    1.998433    3.472346
     49          1           0       -3.564283    1.214314    1.899674
     50          8           0       -3.916108    3.200454    1.906728
     51         16           0        2.562125   -0.304708    2.342206
     52          8           0        3.488977   -0.151452    3.480686
     53          8           0        1.507651    0.782023    2.316658
     54          6           0        3.506537   -0.046948    0.837281
     55          6           0        3.949956   -1.144617    0.115102
     56          6           0        3.739005    1.252454    0.389940
     57          6           0        4.616058   -0.938686   -1.095718
     58          1           0        3.740741   -2.145866    0.471768
     59          6           0        4.407185    1.441647   -0.814873
     60          1           0        3.365085    2.097473    0.953768
     61          6           0        4.844019    0.348670   -1.569918
     62          1           0        5.343219    0.501677   -2.519404
     63          6           0        0.648185   -1.319484   -1.145482
     64          1           0        0.065654   -2.025878   -0.546895
     65          1           0        0.102046   -1.084519   -2.069578
     66          1           0        1.622736   -1.736190   -1.406414
     67          6           0        1.041752    2.507962   -2.054021
     68          1           0        1.584131    3.313707   -1.543123
     69          1           0        1.647313    1.597825   -2.031940
     70          1           0        0.855745    2.803050   -3.089204
     71          6           0       -2.012699    4.724312   -0.408989
     72          1           0       -1.645747    4.440850   -1.400245
     73          1           0       -3.086879    4.512626   -0.337064
     74          1           0       -1.842355    5.790617   -0.243538
     75          6           0       -3.745920    4.395332    2.663235
     76          1           0       -4.465772    5.117433    2.271893
     77          1           0       -3.954490    4.217151    3.727505
     78          1           0       -2.734005    4.799575    2.550265
     79          6           0       -6.087640    0.646584    0.364084
     80          1           0       -7.167040    0.595989    0.208041
     81          1           0       -5.818721    0.045585    1.241070
     82          1           0       -5.788559    1.687675    0.546056
     83         11           0        0.299971   -3.223306    2.185627
     84          8           0        0.064829   -2.740724    4.464658
     85          6           0       -0.693068   -1.547015    4.640641
     86          1           0       -0.077309   -0.660683    4.439386
     87          1           0       -1.517746   -1.583242    3.927239
     88          1           0       -1.086098   -1.484799    5.664640
     89          6           0        1.236514   -2.745380    5.275562
     90          1           0        0.970543   -2.672716    6.338929
     91          1           0        1.748887   -3.693857    5.097766
     92          1           0        1.901363   -1.916301    5.004186
     93          6           0        4.979580   -2.138400   -1.923326
     94          9           0        5.848643   -1.841967   -2.909217
     95          9           0        3.877294   -2.674380   -2.510288
     96          9           0        5.527557   -3.117536   -1.171268
     97          6           0        4.636385    2.824713   -1.357289
     98          9           0        4.040876    3.775904   -0.606957
     99          9           0        4.144328    2.941427   -2.615744
    100          9           0        5.951012    3.126845   -1.426960
 ---------------------------------------------------------------------
 Rotational constants (GHZ):           0.0589893           0.0373942           0.0366330
 Leave Link  202 at Tue May 28 07:49:41 2019, MaxMem=  6442450944 cpu:               2.4 elap:               0.1
 (Enter /home/ekwan/sw/g16/l301.exe)
 Standard basis: 6-31G(d) (6D, 7F)
 Ernie: Thresh=  0.10000D-02 Tol=  0.10000D-05 Strict=F.
 There are   897 symmetry adapted cartesian basis functions of A   symmetry.
 There are   897 symmetry adapted basis functions of A   symmetry.
   897 basis functions,  1720 primitive gaussians,   897 cartesian basis functions
   214 alpha electrons      214 beta electrons
       nuclear repulsion energy      9593.1677495350 Hartrees.
 IExCor=  402 DFT=T Ex+Corr=B3LYP ExCW=0 ScaHFX=  0.200000
 ScaDFX=  0.800000  0.720000  1.000000  0.810000 ScalE2=  1.000000  1.000000
 IRadAn=      5 IRanWt=     -1 IRanGd=            0 ICorTp=0 IEmpDi=141
 NAtoms=  100 NActive=  100 NUniq=  100 SFac= 1.00D+00 NAtFMM=   60 NAOKFM=T Big=T
 Integral buffers will be    131072 words long.
 Raffenetti 2 integral format.
 Two-electron integral symmetry is turned on.
 R6Disp:  Grimme-D3(BJ) Dispersion energy=       -0.2361813735 Hartrees.
 Nuclear repulsion after empirical dispersion term =     9592.9315681615 Hartrees.
 Force inversion solution in PCM.
 ------------------------------------------------------------------------------
 Polarizable Continuum Model (PCM)
 =================================
 Model                : PCM.
 Atomic radii         : UFF (Universal Force Field).
 Polarization charges : Total charges.
 Charge compensation  : None.
 Solution method      : Matrix inversion.
 Cavity type          : Scaled VdW (van der Waals Surface) (Alpha=1.100).
 Cavity algorithm     : GePol (No added spheres)
                        Default sphere list used, NSphG=  100.
                        Lebedev-Laikov grids with approx.  5.0 points / Ang**2.
                        Smoothing algorithm: York/Karplus (Gamma=1.0000).
                        Polarization charges: spherical gaussians, with
                                              point-specific exponents (IZeta= 3).
                        Self-potential: point-specific (ISelfS= 7).
                        Self-field    : sphere-specific E.n sum rule (ISelfD= 2).
 1st derivatives      : Analytical E(r).r(x)/FMM algorithm (CHGder, D1EAlg=3).
                        Cavity 1st derivative terms included.
 2nd derivatives      : Analytical E(r).r(xy)/FMM algorithm (CHGder, D2EAlg=3).
                        Cavity 2nd derivative terms included.
 Solvent              : TetraHydroFuran, Eps=   7.425700 Eps(inf)=   1.974025
 ------------------------------------------------------------------------------
 GePol: Number of generator spheres                  =     100
 GePol: Total number of spheres                      =     100
 GePol: Number of exposed spheres                    =      99 ( 99.00%)
 GePol: Number of points                             =    5936
 GePol: Average weight of points                     =       0.13
 GePol: Minimum weight of points                     =   0.14D-11
 GePol: Maximum weight of points                     =    0.21593
 GePol: Number of points with low weight             =     407
 GePol: Fraction of low-weight points (<1% of avg)   =       6.86%
 GePol: Cavity surface area                          =    754.373 Ang**2
 GePol: Cavity volume                                =    972.665 Ang**3
 Leave Link  301 at Tue May 28 07:49:41 2019, MaxMem=  6442450944 cpu:               7.8 elap:               0.3
 (Enter /home/ekwan/sw/g16/l302.exe)
 NPDir=0 NMtPBC=     1 NCelOv=     1 NCel=       1 NClECP=     1 NCelD=      1
         NCelK=      1 NCelE2=     1 NClLst=     1 CellRange=     0.0.
 One-electron integrals computed using PRISM.
 One-electron integral symmetry used in STVInt
 NBasis=   897 RedAO= T EigKep=  4.04D-04  NBF=   897
 NBsUse=   897 1.00D-06 EigRej= -1.00D+00 NBFU=   897
 Precomputing XC quadrature grid using
 IXCGrd= 4 IRadAn=           5 IRanWt=          -1 IRanGd=           0 AccXCQ= 0.00D+00.
 Generated NRdTot=       0 NPtTot=           0 NUsed=           0 NTot=          32
 NSgBfM=   862   854   858   862   862 MxSgAt=   100 MxSgA2=   100.
[...]
 071802,-0.00061960,0.00071192,-0.00030694,0.00003199,-0.00009813,0.000
 09566,0.00038219,-0.00018864,-0.00000882,0.00013748,-0.00004968,0.0000
 5010,-0.00001483,-0.00001082,-0.00000425,0.00000079,0.00000180,0.00000
 477,0.00000132,-0.00000091,-0.00003499,0.00005771,0.00000473,0.0013081
 1,-0.00036447,-0.00250169,-0.00000288,0.00007609,0.00089359,-0.0010229
 0,0.00038743,0.00042155,-0.00190380,-0.00133995,0.00041289,-0.00044551
 ,-0.00030759,0.00110414,0.00306656,-0.00363571,-0.00131335,-0.00009739
 ,0.00063369,-0.00006832,0.00002578,0.00000573,-0.00000034,0.00820469,-
 0.00290456,0.03734014,0.00032246,0.00008828,0.00042406,0.00007217,-0.0
 0056886,0.00102742,-0.00003180,-0.00034812,0.00057095,0.00008924,0.000
 07156,0.00006983,-0.00001408,-0.00000533,-0.00001407,-0.00006752,0.000
 00121,-0.00003769,0.00001513,0.00006563,0.00006480,-0.00038334,-0.0011
 3284,-0.00010324,-0.00006904,0.00026282,0.00025641,-0.00023952,0.00026
 711,0.00012331,-0.00003893,0.00003469,-0.00005501,0.00001965,-0.000033
 04,0.00005914,-0.00000851,-0.00000995,-0.00001512,0.00000183,0.0000040
 9,-0.00000931,-0.00001054,0.00001742,0.00000016,-0.00000616,-0.0000314
 6,-0.00001661,-0.00000421,0.00000552,0.00000154,0.00000161,0.00000307,
 0.00000259,0.00000444,0.00000032,0.00000323,0.00000892,-0.00001222,-0.
 00000829,-0.00000366,-0.00000023,0.00000010,0.00000102,0.00000265,-0.0
 0000085,0.00000174,0.00000166,0.00000261,0.00013565,0.00014628,-0.0000
 2617,-0.00005229,-0.00001305,0.00007186,0.00004872,-0.00000195,-0.0000
 1756,-0.00000178,-0.00001611,-0.00002023,0.00000548,0.00000283,-0.0000
 0829,-0.00001081,-0.00000780,0.00002090,0.00001373,0.00003885,-0.00002
 621,-0.00001544,-0.00001046,0.00002034,0.00000073,-0.00000145,-0.00000
 578,-0.00000268,-0.00001646,-0.00002890,-0.00043435,0.00150961,0.00103
 327,0.00026272,-0.00028556,-0.00040853,-0.00017295,-0.00048000,-0.0003
 9421,0.00021467,-0.00055808,-0.00005605,0.01171595,-0.08396154,0.03403
 006,-0.00385749,0.00391525,-0.04179556,-0.00899333,0.07516904,0.000011
 55,0.00000018,-0.00005007,-0.00000135,0.00004308,-0.00004049,-0.000041
 12,0.00004055,-0.00008538,0.00000890,0.00000037,-0.00000473,-0.0000143
 4,-0.00000768,-0.00002126,-0.00000098,-0.00000395,-0.00000009,-0.00000
 164,0.00000464,-0.00000970,-0.00000193,-0.00000283,0.00000746,0.000010
 41,-0.00000122,0.00000572,-0.00000389,-0.00000437,-0.00001538,0.000057
 19,-0.00003434,0.00006646,0.00001741,-0.00000735,0.00003590,-0.0000320
 9,-0.00005591,0.00009630,-0.00002112,-0.00000620,0.00005349,0.00001943
 ,-0.00000523,0.00003103,-0.00017192,0.00001972,0.00000470,0.00004554,0
 .00001978,0.00000034,0.00002498,-0.00001090,-0.00000665,0.00020237,0.0
 0012172,0.00004516,0.00007230,0.00003678,-0.00005055,-0.00000892,-0.00
 001713,-0.00000894,0.00000019,0.00001169,0.00000612,-0.00000419,-0.000
 00153,0.00000366,0.00000633,0.00000422,-0.00001055,-0.00000156,-0.0000
 0607,0.00000047,0.00000012,0.00000163,0.00000016,-0.00000246,0.0000065
 6,0.00000844,-0.00000913,0.00000492,-0.00002818,-0.00000585,0.00000111
 ,0.00000467,0.00000244,-0.00001072,0.00000693,0.00000232,0.00000166,0.
 00000332,-0.00023095,0.00011339,-0.00073504,-0.00005117,0.00011190,0.0
 0012884,-0.00083104,-0.00014478,-0.00019023,-0.00012184,0.00016028,-0.
 00006658,-0.00000534,0.00000458,0.00007564,-0.00000220,-0.00000642,0.0
 0006218,0.00001211,0.00000654,0.00001030,0.00001919,0.00007191,0.00004
 900,0.00000208,-0.00001754,0.00002644,0.00003579,-0.00000978,-0.000002
 65,0.00032098,-0.00018628,-0.00008652,0.00085774,0.00078876,-0.0006785
 4,0.00026168,-0.00001038,0.00025388,-0.00039161,-0.00010586,0.00076913
 ,0.00006236,-0.00009658,0.00009522,-0.00005018,0.00001620,0.00002315,-
 0.00000408,-0.00000185,0.00000304,0.00000092,-0.00000244,-0.00000404,0
 .00004664,-0.00003688,0.00001470,-0.00161718,0.00013176,0.00251591,0.0
 0006699,-0.00001759,-0.00090700,0.00124735,-0.00029454,-0.00041046,0.0
 0177291,0.00054438,-0.00010241,-0.00024075,0.00054205,-0.00026472,-0.0
 0234405,0.00397523,0.00091136,0.00106425,0.00148743,0.00031370,-0.0001
 8566,0.00004489,0.00004906,-0.01165291,0.01253287,-0.03360173,-0.00092
 062,-0.00048084,0.00018206,0.00198255,-0.00216553,-0.00186082,-0.00162
 362,0.00081173,0.00027575,-0.00010458,-0.00008934,-0.00012818,0.000025
 59,0.00000881,0.00002641,0.00011988,0.00000535,0.00005418,-0.00002675,
 -0.00004603,-0.00009555,0.00118951,-0.00027063,-0.00058885,0.00015098,
 0.00002849,-0.00043246,0.00018890,0.00049127,-0.00035483,0.00030386,-0
 .00000881,0.00020817,-0.00003856,0.00004126,-0.00011977,0.00000750,-0.
 00000460,0.00003448,0.00000682,0.00000088,0.00001350,0.00000031,-0.000
 00197,0.00000537,-0.00001117,0.00000841,0.00000339,0.00000709,-0.00000
 611,-0.00000026,-0.00000285,-0.00000247,0.00000083,0.00000035,0.000003
 48,-0.00000714,-0.00000094,0.00000255,-0.00001307,0.00000180,0.0000011
 5,0.00000176,-0.00000135,-0.00000484,0.00000548,-0.00000231,0.00000111
 ,-0.00000321,-0.00016039,-0.00017259,-0.00000279,0.00006992,0.00003400
 ,-0.00006561,-0.00005937,-0.00001661,0.00001899,0.00000543,0.00002037,
 0.00001781,-0.00000251,-0.00000175,0.00000764,0.00001142,0.00000747,-0
 .00002097,-0.00003135,-0.00005361,0.00002305,0.00001681,0.00001048,-0.
 00002026,-0.00000123,0.00000399,0.00000608,0.00000404,0.00002137,0.000
 03067,0.00046741,-0.00138225,-0.00166099,-0.00031854,0.00023760,0.0006
 0193,0.00027763,0.00055946,0.00060287,-0.00021124,0.00059262,0.0001756
 8,-0.05385646,0.03790916,-0.22231854,0.00266262,-0.02866429,-0.0653145
 3,0.10076380,-0.02202010,0.33312966,0.00000364,0.00001067,0.00003339,0
 .00006389,0.00000105,0.00002911,0.00012941,-0.00000971,0.00003771,0.00
 001607,0.00005631,-0.00001379,0.00004714,0.00004565,0.00000784,0.00000
 783,-0.00001364,-0.00000319,-0.00000871,0.00000552,0.00002287,-0.00001
 163,-0.00000752,-0.00000910,-0.00002547,-0.00000636,-0.00000238,-0.000
 00069,0.00001108,0.00001356,-0.00011584,-0.00002529,-0.00002305,-0.000
 10696,-0.00000174,0.00002024,-0.00005107,0.00000160,-0.00003130,-0.000
 02587,-0.00003692,-0.00005260,-0.00002933,-0.00005664,-0.00001155,0.00
 022034,-0.00000976,-0.00002769,-0.00006201,-0.00003794,0.00000369,-0.0
 0003865,0.00002041,0.00002395,-0.00024535,-0.00020013,0.00003719,0.000
 02922,0.00001641,0.00001527,-0.00000113,-0.00001468,-0.00000104,0.0000
 0580,0.00000312,0.00000104,-0.00000864,0.00000482,-0.00000721,0.000033
 61,0.00003705,0.00003065,-0.00000340,-0.00000636,0.00000146,-0.0000117
 5,-0.00000095,-0.00000407,0.00000019,-0.00000201,-0.00000192,0.0000029
 9,0.00001624,0.00000582,0.00000309,0.00000055,0.00000515,-0.00000066,0
 .00001528,-0.00000375,-0.00000658,-0.00001332,-0.00000294,0.00015113,0
 .00019038,-0.00027297,0.00017019,-0.00011046,-0.00007816,0.00062144,0.
 00006786,-0.00011575,0.00002666,-0.00006374,-0.00004199,0.00008231,-0.
 00016696,-0.00002512,0.00000524,0.00003340,-0.00000547,-0.00000290,0.0
 0000930,0.00000281,0.00001914,-0.00006872,-0.00005254,-0.00000210,0.00
 001509,-0.00000289,-0.00001827,0.00001756,-0.00000060,-0.00027223,0.00
 014825,0.00019301,-0.00063077,-0.00066258,0.00059575,-0.00032794,-0.00
 020785,-0.00002542,-0.00093708,-0.00023891,0.00033595,-0.00012236,0.00
 018734,-0.00002458,0.00011595,-0.00003056,-0.00001250,-0.00002917,0.00
 000238,0.00002380,0.00000041,0.00000508,-0.00000249,-0.00008113,0.0000
 7564,0.00004461,0.00120252,0.00005266,-0.00251348,0.00013763,0.0000574
 5,0.00105611,-0.00084463,0.00013446,0.00054849,0.00049254,-0.00052828,
 0.00135759,-0.00012781,-0.00048227,-0.00006805,0.00020225,-0.00320702,
 -0.00165377,0.00081907,-0.00138478,0.00072407,-0.00010740,-0.00004395,
 -0.00016646,-0.02439812,-0.01430553,0.00633052,-0.00035936,0.00030086,
 -0.00081640,-0.00049119,0.00152790,0.00219955,-0.00078939,-0.00033890,
 -0.00097483,0.00008775,0.00020946,0.00015525,-0.00002492,-0.00002964,-
 0.00002312,-0.00006992,-0.00000198,-0.00004788,0.00001690,0.00006600,0
 .00004832,0.00095832,0.00042252,0.00007690,0.00029735,-0.00052417,-0.0
 0004157,0.00009351,0.00035221,0.00006515,-0.00009129,-0.00002205,-0.00
 009876,0.00010047,-0.00007948,0.00006198,0.00001294,-0.00001562,0.0000
 1765,-0.00003292,-0.00000085,-0.00000377,-0.00000004,0.00002220,-0.000
 00313,0.00001978,-0.00004951,-0.00004682,-0.00000698,0.00000998,-0.000
 00059,-0.00000380,0.00000057,0.00001726,0.00000191,-0.00000805,-0.0000
 0610,0.00002574,-0.00001262,-0.00003339,-0.00001090,0.00000015,0.00000
 021,0.00000305,0.00000275,0.00000433,0.00000510,-0.00000154,0.00000687
 ,0.00010976,0.00019791,-0.00005153,-0.00002083,-0.00003995,0.00008942,
 0.00003794,0.00002925,-0.00002099,-0.00001025,-0.00002267,-0.00002740,
 0.00001539,0.00000652,-0.00001260,-0.00001025,-0.00001398,0.00002605,-
 0.00000921,0.00004525,-0.00004291,-0.00001326,-0.00001002,0.00002383,0
 .00000241,-0.00000909,-0.00000494,-0.00000426,-0.00000994,-0.00002987,
 -0.00084488,0.00141714,0.00122821,0.00040439,-0.00024313,-0.00048772,-
 0.00008996,-0.00050956,-0.00042112,0.00034487,-0.00070221,-0.00006173,
 -0.23725049,-0.06097234,0.01633911,-0.05740256,0.02097660,0.02852698,-
 0.05200174,-0.00720495,-0.03909143,0.37104676,0.00000576,-0.00000272,0
 .00002390,0.00003303,-0.00001446,0.00002475,0.00008089,-0.00003907,0.0
 0004162,0.00000432,0.00001145,-0.00000702,0.00003720,0.00002005,0.0000
 0920,0.00000080,0.00000168,-0.00000071,-0.00000389,-0.00000465,0.00001
 146,-0.00000744,-0.00000245,-0.00000672,-0.00001765,-0.00000068,-0.000
 00225,0.00000133,0.00000752,0.00001178,-0.00008082,0.00002073,-0.00002
 857,-0.00006089,0.00001355,0.00000440,-0.00002102,0.00002456,-0.000038
 24,-0.00001652,-0.00000931,-0.00003524,-0.00003354,-0.00001451,-0.0000
 1228,0.00018749,-0.00001224,-0.00001922,-0.00004827,-0.00002586,0.0000
 0152,-0.00003356,0.00001669,0.00002038,-0.00022331,-0.00012899,0.00001
 466,-0.00000562,-0.00000957,0.00001510,0.00000524,-0.00000342,0.000000
 43,0.00000421,0.00000252,0.00000210,-0.00000434,0.00000310,-0.00000555
 ,0.00001909,0.00001598,0.00001691,-0.00000062,-0.00000110,0.00000050,-
 0.00000832,0.00000013,-0.00000237,0.00000069,-0.00000211,-0.00000025,0
 .00001865,0.00000175,0.00000842,0.00000102,0.00000053,0.00000563,-0.00
 000119,0.00001066,-0.00000535,-0.00000538,-0.00000747,-0.00000226,0.00
 003153,-0.00005014,0.00012050,0.00020132,-0.00018121,-0.00012606,0.000
 70537,0.00005971,-0.00000052,0.00006957,-0.00015584,0.00000881,0.00002
 843,-0.00011787,-0.00003012,0.00000729,0.00001336,-0.00003644,-0.00002
 010,0.00001845,-0.00000158,0.00001926,-0.00007510,-0.00001583,-0.00000
 526,0.00002029,-0.00000445,-0.00001085,0.00001341,0.00000356,-0.000318
 19,0.00021521,0.00017039,-0.00074781,-0.00058069,0.00061606,-0.0003698
 0,-0.00001659,-0.00007448,-0.00008055,0.00010353,-0.00005320,-0.000029
 22,0.00016299,-0.00003975,0.00006928,-0.00001845,-0.00001266,-0.000010
 54,0.00000107,0.00000738,0.00000510,0.00000214,-0.00000181,-0.00004785
 ,0.00006929,0.00001675,0.00175886,-0.00030275,-0.00260087,-0.00000059,
 0.00012756,0.00112152,-0.00108221,0.00034778,0.00049144,0.00082202,-0.
 00142127,0.00189143,-0.00055744,-0.00047330,0.00089322,0.00007806,-0.0
 0366997,-0.00313169,0.00048979,0.00026420,0.00031327,-0.00010757,0.000
 00875,-0.00011213,-0.03866618,-0.00819363,0.00918678,-0.00066791,0.000
 05403,-0.00025038,-0.00018062,0.00057715,0.00127818,-0.00040889,-0.000
 17135,-0.00016195,0.00010293,0.00010703,0.00009567,-0.00001938,-0.0000
 1315,-0.00002004,-0.00008250,0.00000144,-0.00004435,0.00001716,0.00007
 655,0.00007667,0.00006554,-0.00027325,-0.00009924,-0.00016221,0.000047
 90,-0.00001198,0.00006915,0.00010777,0.00011665,-0.00002657,0.00004381
 ,-0.00002232,0.00003648,-0.00004420,0.00005610,-0.00000323,-0.00001054
 ,-0.00000757,-0.00000512,0.00000331,-0.00000752,-0.00000900,0.00002023
 ,-0.00000190,-0.00000288,-0.00004089,-0.00002665,-0.00000474,0.0000069
 8,0.00000129,0.00000035,0.00000274,0.00000664,0.00000471,-0.00000107,0
 .00000083,0.00001438,-0.00001419,-0.00001660,-0.00000578,-0.00000006,0
 .00000024,0.00000159,0.00000263,0.00000063,0.00000256,0.00000133,0.000
 00366,0.00014026,0.00016719,-0.00004076,-0.00004908,-0.00001705,0.0000
 8060,0.00004956,0.00000364,-0.00001993,-0.00000349,-0.00001876,-0.0000
 2421,0.00000859,0.00000410,-0.00001029,-0.00001162,-0.00001017,0.00002
 423,0.00001025,0.00004114,-0.00003207,-0.00001633,-0.00001112,0.000023
 07,0.00000117,-0.00000252,-0.00000619,-0.00000241,-0.00001558,-0.00003
 103,-0.00054528,0.00163998,0.00117081,0.00030392,-0.00031087,-0.000461
 93,-0.00018196,-0.00054131,-0.00043423,0.00026851,-0.00064884,-0.00007
 166,-0.05853418,-0.09667573,0.00641844,0.03483659,0.01110654,-0.009533
 40,-0.00300651,0.01371876,-0.00515304,0.06593695,0.08504318,0.00000233
 ,-0.00000103,-0.00001887,-0.00000960,0.00001260,-0.00001605,-0.0000297
 2,0.00001410,-0.00002985,0.00000008,-0.00000675,0.00000081,-0.00001189
 ,-0.00000820,-0.00000709,-0.00000117,0.00000039,0.00000027,0.00000090,
 0.00000137,-0.00000541,0.00000124,0.00000018,0.00000344,0.00000653,0.0
 0000045,0.00000173,-0.00000102,-0.00000287,-0.00000626,0.00003248,-0.0
 0000752,0.00002243,0.00001978,-0.00000234,0.00000773,-0.00000180,-0.00
 001706,0.00003244,-0.00000161,0.00000326,0.00002294,0.00001092,0.00000
 558,0.00001052,-0.00007872,0.00000638,0.00000415,0.00002104,0.00001068
 ,-0.00000040,0.00001256,-0.00000579,-0.00000520,0.00009118,0.00005958,
 0.00000552,0.00001694,0.00000893,-0.00001666,-0.00000258,-0.00000273,-
 0.00000214,-0.00000099,0.00000270,0.00000132,0.00000022,-0.00000123,0.
 00000214,-0.00000331,-0.00000420,-0.00000773,0.,-0.00000088,-0.0000000
 5,0.00000197,0.00000058,0.00000066,-0.00000082,0.00000216,0.00000258,-
 0.00000421,-0.00000056,-0.00000875,-0.00000204,0.00000013,0.00000022,0
 .00000071,-0.00000497,0.00000277,0.00000169,0.00000235,0.00000122,-0.0
 0009005,0.00000875,-0.00020718,-0.00004637,0.00005400,0.00005571,-0.00
 030496,-0.00005194,-0.00003505,-0.00003939,0.00005447,-0.00001417,-0.0
 0001233,0.00002299,0.00002855,0.00000018,-0.00000726,0.00001901,0.0000
 0555,0.00000111,0.00000169,0.00000818,0.00003320,0.00002191,0.00000095
 ,-0.00000672,0.00000818,0.00001381,-0.00000525,-0.00000086,0.00012376,
 -0.00007132,-0.00005025,0.00025498,0.00021262,-0.00020761,0.00012456,0
 .00001907,0.00006826,-0.00004665,-0.00001285,0.00015823,0.00003448,-0.
 00005340,0.00003188,-0.00002921,0.00000925,0.00000803,0.00000223,-0.00
 000096,-0.00000189,0.00000027,-0.00000133,-0.00000080,0.00002410,-0.00
 002034,-0.00000064,-0.00058039,-0.00005051,0.00091026,0.00002781,-0.00
 000467,-0.00033096,0.00043699,-0.00006978,-0.00019022,-0.00091524,0.00
 016728,-0.00021507,0.00000232,0.00047681,0.00012563,-0.00048971,-0.000
 01639,0.00048310,-0.00063657,0.00081270,-0.00075196,0.00008993,0.00000
 087,0.00010951,0.01486955,0.00826222,0.00806673,0.00039569,-0.00014137
 ,0.00045976,0.00114182,-0.00021897,-0.00110477,0.00038109,0.00039301,0
 .00057507,-0.00004765,-0.00004338,-0.00004774,0.00001235,0.00000521,0.
 00001112,0.00004743,-0.00000054,0.00002091,-0.00000728,-0.00002918,-0.
 00004033,0.00020939,-0.00011520,-0.00002994,-0.00008357,0.00002046,-0.
 00017599,-0.00001587,0.00011644,-0.00008412,0.00009324,0.00000663,0.00
 005660,-0.00002423,0.00002290,-0.00004463,0.00000083,0.00000051,0.0000
 0866,0.00000615,0.00000035,0.00000465,0.00000015,-0.00000347,0.0000019
 4,-0.00000611,0.00000849,0.00000643,0.00000313,-0.00000312,0.00000008,
 -0.00000053,-0.00000088,-0.00000177,-0.00000007,0.00000212,-0.00000157
 ,-0.00000382,0.00000266,0.00000059,0.00000205,0.00000032,0.00000046,-0
 .00000078,-0.00000187,0.00000105,-0.00000136,0.00000048,-0.00000192,-0
 .00005771,-0.00006899,0.00000948,0.00002289,0.00001406,-0.00002602,-0.
 00002052,-0.00000924,0.00000795,0.00000319,0.00000818,0.00000748,-0.00
 000252,-0.00000124,0.00000390,0.00000410,0.00000363,-0.00000898,-0.000
 01020,-0.00001944,0.00001038,0.00000598,0.00000344,-0.00000808,-0.0000
 0070,0.00000167,0.00000258,0.00000097,0.00000764,0.00001188,0.00020545
 ,-0.00061918,-0.00069765,-0.00015500,0.00010274,0.00023737,0.00007728,
 0.00021363,0.00020347,-0.00011444,0.00031274,0.00008857,0.01736720,0.0
 0695210,-0.07124691,0.03516567,-0.00561068,-0.00018245,-0.05471124,-0.
 00962986,-0.01071792,-0.01278235,-0.00151073,0.07460197\\-0.00000026,0
 .00000114,-0.00000123,0.00000112,0.00000141,-0.00000149,-0.00000180,0.
 00000021,0.00000255,-0.00000049,0.00000020,-0.00000140,0.00000010,0.00
 000075,-0.00000145,0.00000646,-0.00000307,-0.00001004,0.00000037,0.000
 00078,-0.00000021,0.00000085,0.00000148,-0.00000153,-0.00000073,0.0000
 0068,-0.00000147,0.00000011,0.00000054,-0.00000067,-0.00000006,0.00000
 032,-0.00000099,0.00000026,0.00000088,-0.00000030,0.00000117,0.0000019
 1,-0.00000096,0.00000072,0.00000126,-0.00000095,-0.00000011,0.00000111
 ,-0.00000162,-0.00000046,-0.00000060,0.00000020,-0.00000110,0.00000024
 ,-0.00000084,-0.00000013,0.00000222,-0.00000155,-0.00000106,-0.0000003
 9,-0.00000252,0.00000203,0.00000183,-0.00000007,0.00000110,0.00000096,
 -0.00000046,0.00000157,0.00000131,-0.00000069,0.00000176,0.00000175,-0
 .00000068,0.00000075,0.00000132,-0.00000118,0.00000027,0.00000152,-0.0
 0000164,0.00000058,0.00000207,-0.00000195,0.00000098,0.00000169,-0.000
 00163,-0.00000056,0.00000024,-0.00000228,-0.00000059,0.00000063,-0.000
 00087,-0.00000084,0.00000028,-0.00000104,-0.00000087,0.00000069,-0.000
 00174,0.00000021,-0.00000056,0.00000097,0.00000008,0.00000031,-0.00000
 021,0.00000066,-0.00000033,0.00000044,-0.00000022,0.00000074,0.0000001
 5,0.00000780,-0.00000804,-0.00000627,-0.00000236,-0.00000052,0.0000015
 0,0.00000021,0.00000018,0.00000029,0.00000046,-0.00000048,0.00000126,-
 0.00000030,-0.00000038,0.00000035,-0.00001122,0.00001254,0.00001208,-0
 .00000061,-0.00000078,0.00000012,-0.00000052,-0.00000183,0.00000492,0.
 00000022,-0.00000026,0.00000031,0.00000117,0.00000021,0.00000094,0.000
 00113,-0.00000026,0.00000030,-0.00000023,-0.00000009,-0.00000019,-0.00
 000071,-0.00000037,-0.00000035,-0.00000034,0.00000039,-0.00000079,0.00
 000018,0.00000065,0.,-0.00000118,-0.00000034,-0.00000058,-0.00000084,-
 0.00000140,0.00000088,-0.00000118,-0.00000118,0.00000073,-0.00000109,-
 0.00000037,0.00000117,-0.00000058,-0.00000147,0.00000064,0.00000097,-0
 .00000133,0.00000117,0.00000019,-0.00000085,0.00000077,-0.00000078,-0.
 00000120,0.00000095,0.00000053,-0.00000151,0.00000192,-0.00000013,-0.0
 0000069,0.00000192,0.00000083,-0.00000095,0.00000239,0.00000089,-0.000
 00086,0.00000196,-0.00000035,-0.00000068,0.00000035,-0.00000034,-0.000
 00003,-0.00000029,0.00000036,0.00000032,-0.00000016,0.00000001,-0.0000
 0018,0.00000027,0.00000128,0.00000004,0.00000148,0.00000114,-0.0000003
 8,0.00000113,0.00000094,0.00000004,0.00000099,0.00000159,0.00000033,0.
 00000102,0.00000121,0.00000049,0.00000022,0.00000136,0.00000051,0.0000
 0075,0.00000086,0.00000060,0.00000027,0.00000129,0.00000024,0.00000092
 ,-0.00000004,0.00000053,-0.00000019,0.00000071,0.00000005,0.00000007,-
 0.00000017,-0.00000016,-0.00000015,0.00000001,-0.00000027,0.00000032,0
 .00000022,0.00000048,-0.00000179,0.,0.00000138,-0.00000171,-0.00000055
 ,0.00000095,-0.00000170,0.00000038,0.00000124,-0.00000094,-0.00000116,
 -0.00000041,-0.00000242,-0.00000289,-0.00000130,-0.00000014,-0.0000011
 6,-0.00000063,-0.00000071,-0.00000098,-0.00000166,-0.00000094,-0.00000
 205,-0.00000222,-0.00000073,-0.00000211,-0.00000089,-0.00000020,-0.000
 00220,-0.00000110,0.00000026,-0.00000244,-0.00000169,0.00000001,-0.000
 00232,-0.00000166,-0.00000004,-0.00000189,-0.00000184,0.00000057,0.000
 00011,-0.00000067,0.00000176,0.00000036,-0.00000071,0.00000129,0.00000
 009,-0.00000058,0.00000103,-0.00000001,-0.00000104,0.00000124,0.000000
 69,-0.00000037,0.00000225,0.00000114,-0.00000122,0.00000208,0.00000140
 ,-0.00000060,0.00000229,0.00000112,-0.00000124,0.00000252\\\@


 YOU ARE IN A MAZE OF TWISTY LITTLE PASSAGES.
 Job cpu time:       4 days 17 hours 38 minutes 56.7 seconds.
 Elapsed time:       0 days  3 hours 43 minutes 59.2 seconds.
 File lengths (MBytes):  RWF=   9726 Int=      0 D2E=      0 Chk=     84 Scr=      1
 Normal termination of Gaussian 16 at Tue May 28 15:19:04 2019.
