 Entering Gaussian System, Link 0=g16
 Input=clay_new-glu_gluC6-FCUR-Na2_1Me2O-bisCF3-ts-b3lyp_d3bj-631gd-pcm_thf.gjf
 Output=clay_new-glu_gluC6-FCUR-Na2_1Me2O-bisCF3-ts-b3lyp_d3bj-631gd-pcm_thf.out
 Initial command:
 /home/ekwan/sw/g16/l1.exe "/scratch/users/ekwan/clay_new-glu_gluC6-FCUR-Na2_1Me2O-bisCF3-ts-b3lyp_d3bj-631gd-pcm_thf/Gau-23629.inp" -scrdir="/scratch/users/ekwan/clay_new-glu_gluC6-FCUR-Na2_1Me2O-bisCF3-ts-b3lyp_d3bj-631gd-pcm_thf/"
 Entering Link 1 = /home/ekwan/sw/g16/l1.exe PID=     23630.
  
 Copyright (c) 1988,1990,1992,1993,1995,1998,2003,2009,2016,
            Gaussian, Inc.  All Rights Reserved.
  
 This is part of the Gaussian(R) 16 program.  It is based on
 the Gaussian(R) 09 system (copyright 2009, Gaussian, Inc.),
 the Gaussian(R) 03 system (copyright 2003, Gaussian, Inc.),
 the Gaussian(R) 98 system (copyright 1998, Gaussian, Inc.),
 the Gaussian(R) 94 system (copyright 1995, Gaussian, Inc.),
 the Gaussian 92(TM) system (copyright 1992, Gaussian, Inc.),
 the Gaussian 90(TM) system (copyright 1990, Gaussian, Inc.),
 the Gaussian 88(TM) system (copyright 1988, Gaussian, Inc.),
 the Gaussian 86(TM) system (copyright 1986, Carnegie Mellon
 University), and the Gaussian 82(TM) system (copyright 1983,
 Carnegie Mellon University). Gaussian is a federally registered
 trademark of Gaussian, Inc.
  
 This software contains proprietary and confidential information,
 including trade secrets, belonging to Gaussian, Inc.
  
 This software is provided under written license and may be
 used, copied, transmitted, or stored only in accord with that
 written license.
  
 The following legend is applicable only to US Government
 contracts under FAR:
  
                    RESTRICTED RIGHTS LEGEND
  
 Use, reproduction and disclosure by the US Government is
 subject to restrictions as set forth in subparagraphs (a)
 and (c) of the Commercial Computer Software - Restricted
 Rights clause in FAR 52.227-19.
  
 Gaussian, Inc.
 340 Quinnipiac St., Bldg. 40, Wallingford CT 06492
  
  
 ---------------------------------------------------------------
 Warning -- This program may not be used in any manner that
 competes with the business of Gaussian, Inc. or will provide
 assistance to any competitor of Gaussian, Inc.  The licensee
 of this program is prohibited from giving any competitor of
 Gaussian, Inc. access to this program.  By using this program,
 the user acknowledges that Gaussian, Inc. is engaged in the
 business of creating and licensing software in the field of
 computational chemistry and represents and warrants to the
 licensee that it is not a competitor of Gaussian, Inc. and that
 it will not use this program in any manner prohibited above.
 ---------------------------------------------------------------
  

 Cite this work as:
 Gaussian 16, Revision A.03,
 M. J. Frisch, G. W. Trucks, H. B. Schlegel, G. E. Scuseria, 
 M. A. Robb, J. R. Cheeseman, G. Scalmani, V. Barone, 
 G. A. Petersson, H. Nakatsuji, X. Li, M. Caricato, A. V. Marenich, 
 J. Bloino, B. G. Janesko, R. Gomperts, B. Mennucci, H. P. Hratchian, 
 J. V. Ortiz, A. F. Izmaylov, J. L. Sonnenberg, D. Williams-Young, 
 F. Ding, F. Lipparini, F. Egidi, J. Goings, B. Peng, A. Petrone, 
 T. Henderson, D. Ranasinghe, V. G. Zakrzewski, J. Gao, N. Rega, 
 G. Zheng, W. Liang, M. Hada, M. Ehara, K. Toyota, R. Fukuda, 
 J. Hasegawa, M. Ishida, T. Nakajima, Y. Honda, O. Kitao, H. Nakai, 
 T. Vreven, K. Throssell, J. A. Montgomery, Jr., J. E. Peralta, 
 F. Ogliaro, M. J. Bearpark, J. J. Heyd, E. N. Brothers, K. N. Kudin, 
 V. N. Staroverov, T. A. Keith, R. Kobayashi, J. Normand, 
 K. Raghavachari, A. P. Rendell, J. C. Burant, S. S. Iyengar, 
 J. Tomasi, M. Cossi, J. M. Millam, M. Klene, C. Adamo, R. Cammi, 
 J. W. Ochterski, R. L. Martin, K. Morokuma, O. Farkas, 
 J. B. Foresman, and D. J. Fox, Gaussian, Inc., Wallingford CT, 2016.
 
 ******************************************
 Gaussian 16:  AS64L-G16RevA.03 25-Dec-2016
                 6-Jun-2019 
 ******************************************
 %mem=48GB
 %nprocshared=32
 Will use up to   32 processors via shared memory.
 ----------------------------------------------------------------------
 #p opt=(ts,noeigentest,calcfc,maxstep=10) freq=noraman b3lyp 6-31g* po
 p=none scrf=(solvent=tetrahydrofuran,pcm) empiricaldispersion=gd3bj
 ----------------------------------------------------------------------
 1/5=1,8=10,10=4,11=1,18=20,26=3,38=1/1,3;
 2/9=110,12=2,17=6,18=5,40=1/2;
 3/5=1,6=6,7=1,11=2,25=1,30=1,70=2201,71=2,72=20,74=-5,124=41,140=1/1,2,3;
 4//1;
 5/5=2,38=5,53=20/2;
 8/6=4,10=90,11=11/1;
 11/6=1,8=1,9=11,15=111,16=1/1,2,10;
 10/6=1,13=1/2;
 7/10=1,18=20,25=1/1,2,3,16;
 1/5=1,8=10,10=4,11=1,18=20,26=3/3(2);
 2/9=110/2;
 99//99;
 2/9=110/2;
 3/5=1,6=6,7=1,11=2,25=1,30=1,70=2205,71=1,72=20,74=-5,124=41/1,2,3;
 4/5=5,16=3,69=1/1;
 5/5=2,38=5,53=20/2;
 7//1,2,3,16;
 1/5=1,8=10,11=1,18=20,26=3/3(-5);
 2/9=110/2;
 99/9=1/99;
 Leave Link    1 at Thu Jun  6 06:50:46 2019, MaxMem=  6442450944 cpu:               4.0 elap:               0.2
 (Enter /home/ekwan/sw/g16/l101.exe)
 -----
 title
 -----
 Symbolic Z-matrix:
 Charge =  0 Multiplicity = 1
 C                    -5.73824  -0.32492  -0.42304 
 C                    -5.38655  -1.67541   0.2058 
 C                    -4.56769  -2.52085  -0.77388 
 C                    -3.64153  -0.56511  -1.84402 
 C                    -4.46197   0.34757  -0.92709 
 H                    -4.20527  -3.43418  -0.28134 
 H                    -4.74898  -1.48664   1.0799 
 H                    -6.43246  -0.492    -1.2566 
 H                    -4.21009  -0.77075  -2.75961 
 H                    -3.85046   0.58654  -0.0533 
 O                    -3.38933  -1.82325  -1.15936 
 O                    -5.37452  -2.84373  -1.86816 
 O                    -6.53389  -2.4173    0.58418 
 O                    -6.36214   0.47813   0.5773 
 O                    -4.79278   1.54591  -1.62909 
 C                    -2.26883   0.03089  -2.19389 
 H                    -2.48226   0.93607  -2.7998 
 H                    -1.79285  -0.68874  -2.90096 
 O                    -1.50216   0.27766  -1.08013 
 C                    -6.89435  -2.26485   1.95086 
 H                    -6.0748   -2.5787    2.61569 
 H                    -7.16158  -1.22903   2.1823 
 H                    -7.75608  -2.91552   2.12196 
 C                    -7.41553   1.29855   0.09156 
 H                    -7.05867   2.0045   -0.66555 
 H                    -8.22412   0.6903   -0.33962 
 H                    -7.80695   1.84907   0.95125 
 C                    -4.06749   2.67843  -1.16897 
 H                    -4.3752    2.95329  -0.1494 
 H                    -2.98719   2.48883  -1.17383 
 H                    -4.30098   3.50525  -1.84525 
 C                     2.40629   2.46451  -0.95387 
 C                     1.33501   1.37511  -1.08295 
 C                     0.29752   1.51988  -0.00523 
 C                     0.64963   3.91144   0.18068 
 C                     1.6991    3.82139  -0.93642 
 H                    -0.2496    0.68159   0.36689 
 H                     0.79263   1.55678  -2.02258 
 H                     2.95593   2.32808  -0.01515 
 H                     1.16543   4.06448   1.1316 
 H                     1.2165    3.97137  -1.91409 
 O                    -0.11726   2.66978   0.38717 
 O                     0.28721  -1.08434   1.67051 
 O                     1.91145   0.09756  -1.08621 
 O                     3.2823    2.44066  -2.06171 
 O                     2.59141   4.88356  -0.6594 
 C                    -0.35474   5.0347   -0.05623 
 H                    -1.09797   4.69875  -0.79706 
 H                     0.20232   5.87611  -0.47667 
 O                    -0.9751    5.5244    1.11032 
 S                     1.51239  -0.39586   2.17631 
 O                     1.73147  -0.54271   3.62826 
 O                     1.59575   1.04141   1.72158 
 C                     2.88121  -1.20833   1.34555 
 C                     2.699    -2.46753   0.79399 
 C                     4.10155  -0.54335   1.23558 
 C                     3.7524   -3.06511   0.09707 
 H                     1.73717  -2.95839   0.87753 
 C                     5.14225  -1.15218   0.54286 
 H                     4.22131   0.44824   1.65308 
 C                     4.97404  -2.41374  -0.03653 
 H                     5.78324  -2.87578  -0.58979 
 C                     1.32971  -0.80953  -2.02898 
 H                     0.25005  -0.87471  -1.86793 
 H                     1.53433  -0.47373  -3.05478 
 H                     1.81263  -1.77369  -1.86419 
 C                     4.46452   1.66896  -1.85997 
 H                     5.01398   2.01698  -0.97559 
 H                     4.23234   0.60759  -1.74299 
 H                     5.08556   1.81645  -2.74631 
 C                     3.1225    5.53388  -1.81286 
 H                     3.71384   4.84337  -2.41986 
 H                     2.31767   5.9614   -2.42715 
 H                     3.75644   6.3421   -1.44194 
 C                    -1.97291   4.67626   1.66565 
 H                    -2.50592   5.26978   2.41201 
 H                    -2.68327   4.34158   0.89668 
 H                    -1.54038   3.79374   2.1513 
 C                    -4.76782  -3.76634  -2.76742 
 H                    -5.51812  -4.00764  -3.52255 
 H                    -3.88603  -3.33265  -3.25256 
 H                    -4.4712   -4.68517  -2.24193 
 Na                   -1.60441  -1.4027    0.38594 
 O                    -2.75349  -0.42632   2.18721 
 C                    -2.38169   0.94445   2.30182 
 H                    -1.37949   1.04035   2.73869 
 H                    -2.3743    1.35376   1.29132 
 H                    -3.10461   1.49105   2.9221 
 C                    -2.71947  -1.09562   3.44208 
 H                    -3.40825  -0.62207   4.15442 
 H                    -3.03745  -2.12624   3.26582 
 H                    -1.70323  -1.08894   3.85665 
 C                     6.45724  -0.44854   0.35479 
 F                     6.47378   0.77352   0.92688 
 F                     6.73369  -0.27648  -0.96262 
 F                     7.4839   -1.15607   0.8738 
 C                     3.50396  -4.37265  -0.5992 
 F                     2.82502  -4.18326  -1.76181 
 F                     2.7523   -5.20638   0.15195 
 F                     4.64607  -5.01604  -0.9108 
 
 Add virtual bond connecting atoms H37        and O19        Dist= 3.70D+00.
 Add virtual bond connecting atoms H87        and H10        Dist= 4.04D+00.
 Add virtual bond connecting atoms O43        and H37        Dist= 4.27D+00.
 Add virtual bond connecting atoms O43        and Na83       Dist= 4.36D+00.
 Add virtual bond connecting atoms O53        and C34        Dist= 4.18D+00.
 Add virtual bond connecting atoms O53        and H37        Dist= 4.38D+00.
 ITRead=  0  0  0  0  0  0  0  0  0  0  0  0  0  0  0  0  0  0  0  0
 ITRead=  0  0  0  0  0  0  0  0  0  0  0  0  0  0  0  0  0  0  0  0
 ITRead=  0  0  0  0  0  0  0  0  0  0  0  0  0  0  0  0  0  0  0  0
 ITRead=  0  0  0  0  0  0  0  0  0  0  0  0  0  0  0  0  0  0  0  0
 ITRead=  0  0  0  0  0  0  0  0  0  0  0  0  0  0  0  0  0  0  0  0
 MicOpt= -1 -1 -1 -1 -1 -1 -1 -1 -1 -1 -1 -1 -1 -1 -1 -1 -1 -1 -1 -1
 MicOpt= -1 -1 -1 -1 -1 -1 -1 -1 -1 -1 -1 -1 -1 -1 -1 -1 -1 -1 -1 -1
 MicOpt= -1 -1 -1 -1 -1 -1 -1 -1 -1 -1 -1 -1 -1 -1 -1 -1 -1 -1 -1 -1
 MicOpt= -1 -1 -1 -1 -1 -1 -1 -1 -1 -1 -1 -1 -1 -1 -1 -1 -1 -1 -1 -1
 MicOpt= -1 -1 -1 -1 -1 -1 -1 -1 -1 -1 -1 -1 -1 -1 -1 -1 -1 -1 -1 -1
 NAtoms=    100 NQM=      100 NQMF=       0 NMMI=      0 NMMIF=      0
                NMic=       0 NMicF=      0.
                    Isotopes and Nuclear Properties:
 (Nuclear quadrupole moments (NQMom) in fm**2, nuclear magnetic moments (NMagM)
  in nuclear magnetons)

  Atom         1           2           3           4           5           6           7           8           9          10
 IAtWgt=          12          12          12          12          12           1           1           1           1           1
 AtmWgt=  12.0000000  12.0000000  12.0000000  12.0000000  12.0000000   1.0078250   1.0078250   1.0078250   1.0078250   1.0078250
 NucSpn=           0           0           0           0           0           1           1           1           1           1
 AtZEff=   0.0000000   0.0000000   0.0000000   0.0000000   0.0000000   0.0000000   0.0000000   0.0000000   0.0000000   0.0000000
 NQMom=    0.0000000   0.0000000   0.0000000   0.0000000   0.0000000   0.0000000   0.0000000   0.0000000   0.0000000   0.0000000
 NMagM=    0.0000000   0.0000000   0.0000000   0.0000000   0.0000000   2.7928460   2.7928460   2.7928460   2.7928460   2.7928460
 AtZNuc=   6.0000000   6.0000000   6.0000000   6.0000000   6.0000000   1.0000000   1.0000000   1.0000000   1.0000000   1.0000000

  Atom        11          12          13          14          15          16          17          18          19          20
 IAtWgt=          16          16          16          16          16          12           1           1          16          12
 AtmWgt=  15.9949146  15.9949146  15.9949146  15.9949146  15.9949146  12.0000000   1.0078250   1.0078250  15.9949146  12.0000000
 NucSpn=           0           0           0           0           0           0           1           1           0           0
 AtZEff=   0.0000000   0.0000000   0.0000000   0.0000000   0.0000000   0.0000000   0.0000000   0.0000000   0.0000000   0.0000000
 NQMom=    0.0000000   0.0000000   0.0000000   0.0000000   0.0000000   0.0000000   0.0000000   0.0000000   0.0000000   0.0000000
 NMagM=    0.0000000   0.0000000   0.0000000   0.0000000   0.0000000   0.0000000   2.7928460   2.7928460   0.0000000   0.0000000
 AtZNuc=   8.0000000   8.0000000   8.0000000   8.0000000   8.0000000   6.0000000   1.0000000   1.0000000   8.0000000   6.0000000

  Atom        21          22          23          24          25          26          27          28          29          30
 IAtWgt=           1           1           1          12           1           1           1          12           1           1
 AtmWgt=   1.0078250   1.0078250   1.0078250  12.0000000   1.0078250   1.0078250   1.0078250  12.0000000   1.0078250   1.0078250
 NucSpn=           1           1           1           0           1           1           1           0           1           1
 AtZEff=   0.0000000   0.0000000   0.0000000   0.0000000   0.0000000   0.0000000   0.0000000   0.0000000   0.0000000   0.0000000
 NQMom=    0.0000000   0.0000000   0.0000000   0.0000000   0.0000000   0.0000000   0.0000000   0.0000000   0.0000000   0.0000000
 NMagM=    2.7928460   2.7928460   2.7928460   0.0000000   2.7928460   2.7928460   2.7928460   0.0000000   2.7928460   2.7928460
 AtZNuc=   1.0000000   1.0000000   1.0000000   6.0000000   1.0000000   1.0000000   1.0000000   6.0000000   1.0000000   1.0000000

  Atom        31          32          33          34          35          36          37          38          39          40
 IAtWgt=           1          12          12          12          12          12           1           1           1           1
 AtmWgt=   1.0078250  12.0000000  12.0000000  12.0000000  12.0000000  12.0000000   1.0078250   1.0078250   1.0078250   1.0078250
 NucSpn=           1           0           0           0           0           0           1           1           1           1
 AtZEff=   0.0000000   0.0000000   0.0000000   0.0000000   0.0000000   0.0000000   0.0000000   0.0000000   0.0000000   0.0000000
 NQMom=    0.0000000   0.0000000   0.0000000   0.0000000   0.0000000   0.0000000   0.0000000   0.0000000   0.0000000   0.0000000
 NMagM=    2.7928460   0.0000000   0.0000000   0.0000000   0.0000000   0.0000000   2.7928460   2.7928460   2.7928460   2.7928460
 AtZNuc=   1.0000000   6.0000000   6.0000000   6.0000000   6.0000000   6.0000000   1.0000000   1.0000000   1.0000000   1.0000000

  Atom        41          42          43          44          45          46          47          48          49          50
 IAtWgt=           1          16          16          16          16          16          12           1           1          16
 AtmWgt=   1.0078250  15.9949146  15.9949146  15.9949146  15.9949146  15.9949146  12.0000000   1.0078250   1.0078250  15.9949146
 NucSpn=           1           0           0           0           0           0           0           1           1           0
 AtZEff=   0.0000000   0.0000000   0.0000000   0.0000000   0.0000000   0.0000000   0.0000000   0.0000000   0.0000000   0.0000000
 NQMom=    0.0000000   0.0000000   0.0000000   0.0000000   0.0000000   0.0000000   0.0000000   0.0000000   0.0000000   0.0000000
 NMagM=    2.7928460   0.0000000   0.0000000   0.0000000   0.0000000   0.0000000   0.0000000   2.7928460   2.7928460   0.0000000
 AtZNuc=   1.0000000   8.0000000   8.0000000   8.0000000   8.0000000   8.0000000   6.0000000   1.0000000   1.0000000   8.0000000

  Atom        51          52          53          54          55          56          57          58          59          60
 IAtWgt=          32          16          16          12          12          12          12           1          12           1
 AtmWgt=  31.9720718  15.9949146  15.9949146  12.0000000  12.0000000  12.0000000  12.0000000   1.0078250  12.0000000   1.0078250
 NucSpn=           0           0           0           0           0           0           0           1           0           1
 AtZEff=   0.0000000   0.0000000   0.0000000   0.0000000   0.0000000   0.0000000   0.0000000   0.0000000   0.0000000   0.0000000
 NQMom=    0.0000000   0.0000000   0.0000000   0.0000000   0.0000000   0.0000000   0.0000000   0.0000000   0.0000000   0.0000000
 NMagM=    0.0000000   0.0000000   0.0000000   0.0000000   0.0000000   0.0000000   0.0000000   2.7928460   0.0000000   2.7928460
 AtZNuc=  16.0000000   8.0000000   8.0000000   6.0000000   6.0000000   6.0000000   6.0000000   1.0000000   6.0000000   1.0000000

  Atom        61          62          63          64          65          66          67          68          69          70
 IAtWgt=          12           1          12           1           1           1          12           1           1           1
 AtmWgt=  12.0000000   1.0078250  12.0000000   1.0078250   1.0078250   1.0078250  12.0000000   1.0078250   1.0078250   1.0078250
 NucSpn=           0           1           0           1           1           1           0           1           1           1
 AtZEff=   0.0000000   0.0000000   0.0000000   0.0000000   0.0000000   0.0000000   0.0000000   0.0000000   0.0000000   0.0000000
 NQMom=    0.0000000   0.0000000   0.0000000   0.0000000   0.0000000   0.0000000   0.0000000   0.0000000   0.0000000   0.0000000
 NMagM=    0.0000000   2.7928460   0.0000000   2.7928460   2.7928460   2.7928460   0.0000000   2.7928460   2.7928460   2.7928460
 AtZNuc=   6.0000000   1.0000000   6.0000000   1.0000000   1.0000000   1.0000000   6.0000000   1.0000000   1.0000000   1.0000000

  Atom        71          72          73          74          75          76          77          78          79          80
 IAtWgt=          12           1           1           1          12           1           1           1          12           1
 AtmWgt=  12.0000000   1.0078250   1.0078250   1.0078250  12.0000000   1.0078250   1.0078250   1.0078250  12.0000000   1.0078250
 NucSpn=           0           1           1           1           0           1           1           1           0           1
 AtZEff=   0.0000000   0.0000000   0.0000000   0.0000000   0.0000000   0.0000000   0.0000000   0.0000000   0.0000000   0.0000000
 NQMom=    0.0000000   0.0000000   0.0000000   0.0000000   0.0000000   0.0000000   0.0000000   0.0000000   0.0000000   0.0000000
 NMagM=    0.0000000   2.7928460   2.7928460   2.7928460   0.0000000   2.7928460   2.7928460   2.7928460   0.0000000   2.7928460
 AtZNuc=   6.0000000   1.0000000   1.0000000   1.0000000   6.0000000   1.0000000   1.0000000   1.0000000   6.0000000   1.0000000

  Atom        81          82          83          84          85          86          87          88          89          90
 IAtWgt=           1           1          23          16          12           1           1           1          12           1
 AtmWgt=   1.0078250   1.0078250  22.9897697  15.9949146  12.0000000   1.0078250   1.0078250   1.0078250  12.0000000   1.0078250
 NucSpn=           1           1           3           0           0           1           1           1           0           1
 AtZEff=   0.0000000   0.0000000   0.0000000   0.0000000   0.0000000   0.0000000   0.0000000   0.0000000   0.0000000   0.0000000
 NQMom=    0.0000000   0.0000000  10.4000000   0.0000000   0.0000000   0.0000000   0.0000000   0.0000000   0.0000000   0.0000000
 NMagM=    2.7928460   2.7928460   2.2175200   0.0000000   0.0000000   2.7928460   2.7928460   2.7928460   0.0000000   2.7928460
 AtZNuc=   1.0000000   1.0000000  11.0000000   8.0000000   6.0000000   1.0000000   1.0000000   1.0000000   6.0000000   1.0000000

  Atom        91          92          93          94          95          96          97          98          99         100
 IAtWgt=           1           1          12          19          19          19          12          19          19          19
 AtmWgt=   1.0078250   1.0078250  12.0000000  18.9984033  18.9984033  18.9984033  12.0000000  18.9984033  18.9984033  18.9984033
 NucSpn=           1           1           0           1           1           1           0           1           1           1
 AtZEff=   0.0000000   0.0000000   0.0000000   0.0000000   0.0000000   0.0000000   0.0000000   0.0000000   0.0000000   0.0000000
 NQMom=    0.0000000   0.0000000   0.0000000   0.0000000   0.0000000   0.0000000   0.0000000   0.0000000   0.0000000   0.0000000
 NMagM=    2.7928460   2.7928460   0.0000000   2.6288670   2.6288670   2.6288670   0.0000000   2.6288670   2.6288670   2.6288670
 AtZNuc=   1.0000000   1.0000000   6.0000000   9.0000000   9.0000000   9.0000000   6.0000000   9.0000000   9.0000000   9.0000000
 Leave Link  101 at Thu Jun  6 06:50:46 2019, MaxMem=  6442450944 cpu:              18.8 elap:               0.7
 (Enter /home/ekwan/sw/g16/l103.exe)

 GradGradGradGradGradGradGradGradGradGradGradGradGradGradGradGradGradGrad
 Berny optimization.
 Initialization pass.
                           ----------------------------
                           !    Initial Parameters    !
                           ! (Angstroms and Degrees)  !
 --------------------------                            --------------------------
 ! Name  Definition              Value          Derivative Info.                !
 --------------------------------------------------------------------------------
 ! R1    R(1,2)                  1.5307         calculate D2E/DX2 analytically  !
 ! R2    R(1,5)                  1.5281         calculate D2E/DX2 analytically  !
 ! R3    R(1,8)                  1.0976         calculate D2E/DX2 analytically  !
 ! R4    R(1,14)                 1.4265         calculate D2E/DX2 analytically  !
 ! R5    R(2,3)                  1.5314         calculate D2E/DX2 analytically  !
 ! R6    R(2,7)                  1.0983         calculate D2E/DX2 analytically  !
 ! R7    R(2,13)                 1.4177         calculate D2E/DX2 analytically  !
 ! R8    R(3,6)                  1.0991         calculate D2E/DX2 analytically  !
 ! R9    R(3,11)                 1.4226         calculate D2E/DX2 analytically  !
 ! R10   R(3,12)                 1.3974         calculate D2E/DX2 analytically  !
 ! R11   R(4,5)                  1.532          calculate D2E/DX2 analytically  !
 ! R12   R(4,9)                  1.0972         calculate D2E/DX2 analytically  !
 ! R13   R(4,11)                 1.4544         calculate D2E/DX2 analytically  !
 ! R14   R(4,16)                 1.5369         calculate D2E/DX2 analytically  !
 ! R15   R(5,10)                 1.093          calculate D2E/DX2 analytically  !
 ! R16   R(5,15)                 1.4277         calculate D2E/DX2 analytically  !
 ! R17   R(10,87)                2.1391         calculate D2E/DX2 analytically  !
 ! R18   R(12,79)                1.4241         calculate D2E/DX2 analytically  !
 ! R19   R(13,20)                1.4216         calculate D2E/DX2 analytically  !
 ! R20   R(14,24)                1.4208         calculate D2E/DX2 analytically  !
 ! R21   R(15,28)                1.4214         calculate D2E/DX2 analytically  !
 ! R22   R(16,17)                1.11           calculate D2E/DX2 analytically  !
 ! R23   R(16,18)                1.1155         calculate D2E/DX2 analytically  !
 ! R24   R(16,19)                1.3745         calculate D2E/DX2 analytically  !
 ! R25   R(19,37)                1.956          calculate D2E/DX2 analytically  !
 ! R26   R(19,83)                2.2324         calculate D2E/DX2 analytically  !
 ! R27   R(20,21)                1.101          calculate D2E/DX2 analytically  !
 ! R28   R(20,22)                1.0945         calculate D2E/DX2 analytically  !
 ! R29   R(20,23)                1.0933         calculate D2E/DX2 analytically  !
 ! R30   R(24,25)                1.095          calculate D2E/DX2 analytically  !
 ! R31   R(24,26)                1.0999         calculate D2E/DX2 analytically  !
 ! R32   R(24,27)                1.0933         calculate D2E/DX2 analytically  !
 ! R33   R(28,29)                1.0999         calculate D2E/DX2 analytically  !
 ! R34   R(28,30)                1.0968         calculate D2E/DX2 analytically  !
 ! R35   R(28,31)                1.0934         calculate D2E/DX2 analytically  !
 ! R36   R(32,33)                1.5333         calculate D2E/DX2 analytically  !
 ! R37   R(32,36)                1.5302         calculate D2E/DX2 analytically  !
 ! R38   R(32,39)                1.0963         calculate D2E/DX2 analytically  !
 ! R39   R(32,45)                1.4125         calculate D2E/DX2 analytically  !
 ! R40   R(33,34)                1.5029         calculate D2E/DX2 analytically  !
 ! R41   R(33,38)                1.1            calculate D2E/DX2 analytically  !
 ! R42   R(33,44)                1.4016         calculate D2E/DX2 analytically  !
 ! R43   R(34,37)                1.068          calculate D2E/DX2 analytically  !
 ! R44   R(34,42)                1.2839         calculate D2E/DX2 analytically  !
 ! R45   R(34,53)                2.2127         calculate D2E/DX2 analytically  !
 ! R46   R(35,36)                1.5354         calculate D2E/DX2 analytically  !
 ! R47   R(35,40)                1.0926         calculate D2E/DX2 analytically  !
 ! R48   R(35,42)                1.4739         calculate D2E/DX2 analytically  !
 ! R49   R(35,47)                1.5253         calculate D2E/DX2 analytically  !
 ! R50   R(36,41)                1.1006         calculate D2E/DX2 analytically  !
 ! R51   R(36,46)                1.4146         calculate D2E/DX2 analytically  !
 ! R52   R(37,43)                2.2597         calculate D2E/DX2 analytically  !
 ! R53   R(37,53)                2.3173         calculate D2E/DX2 analytically  !
 ! R54   R(43,51)                1.4936         calculate D2E/DX2 analytically  !
 ! R55   R(43,83)                2.3086         calculate D2E/DX2 analytically  !
 ! R56   R(44,63)                1.4318         calculate D2E/DX2 analytically  !
 ! R57   R(45,67)                1.4261         calculate D2E/DX2 analytically  !
 ! R58   R(46,71)                1.4267         calculate D2E/DX2 analytically  !
 ! R59   R(47,48)                1.1019         calculate D2E/DX2 analytically  !
 ! R60   R(47,49)                1.0932         calculate D2E/DX2 analytically  !
 ! R61   R(47,50)                1.4091         calculate D2E/DX2 analytically  !
 ! R62   R(50,75)                1.4224         calculate D2E/DX2 analytically  !
 ! R63   R(51,52)                1.4757         calculate D2E/DX2 analytically  !
 ! R64   R(51,53)                1.5098         calculate D2E/DX2 analytically  !
 ! R65   R(51,54)                1.7955         calculate D2E/DX2 analytically  !
 ! R66   R(54,55)                1.3867         calculate D2E/DX2 analytically  !
 ! R67   R(54,56)                1.3941         calculate D2E/DX2 analytically  !
 ! R68   R(55,57)                1.3973         calculate D2E/DX2 analytically  !
 ! R69   R(55,58)                1.0831         calculate D2E/DX2 analytically  !
 ! R70   R(56,59)                1.3905         calculate D2E/DX2 analytically  !
 ! R71   R(56,60)                1.0826         calculate D2E/DX2 analytically  !
 ! R72   R(57,61)                1.3909         calculate D2E/DX2 analytically  !
 ! R73   R(57,97)                1.5021         calculate D2E/DX2 analytically  !
 ! R74   R(59,61)                1.3984         calculate D2E/DX2 analytically  !
 ! R75   R(59,93)                1.5032         calculate D2E/DX2 analytically  !
 ! R76   R(61,62)                1.0837         calculate D2E/DX2 analytically  !
 ! R77   R(63,64)                1.0935         calculate D2E/DX2 analytically  !
 ! R78   R(63,65)                1.0986         calculate D2E/DX2 analytically  !
 ! R79   R(63,66)                1.0909         calculate D2E/DX2 analytically  !
 ! R80   R(67,68)                1.0978         calculate D2E/DX2 analytically  !
 ! R81   R(67,69)                1.0927         calculate D2E/DX2 analytically  !
 ! R82   R(67,70)                1.0923         calculate D2E/DX2 analytically  !
 ! R83   R(71,72)                1.0931         calculate D2E/DX2 analytically  !
 ! R84   R(71,73)                1.099          calculate D2E/DX2 analytically  !
 ! R85   R(71,74)                1.0921         calculate D2E/DX2 analytically  !
 ! R86   R(75,76)                1.0924         calculate D2E/DX2 analytically  !
 ! R87   R(75,77)                1.0991         calculate D2E/DX2 analytically  !
 ! R88   R(75,78)                1.0962         calculate D2E/DX2 analytically  !
 ! R89   R(79,80)                1.0915         calculate D2E/DX2 analytically  !
 ! R90   R(79,81)                1.0959         calculate D2E/DX2 analytically  !
 ! R91   R(79,82)                1.0992         calculate D2E/DX2 analytically  !
 ! R92   R(84,85)                1.4249         calculate D2E/DX2 analytically  !
 ! R93   R(84,89)                1.4226         calculate D2E/DX2 analytically  !
 ! R94   R(85,86)                1.0975         calculate D2E/DX2 analytically  !
 ! R95   R(85,87)                1.0903         calculate D2E/DX2 analytically  !
 ! R96   R(85,88)                1.0982         calculate D2E/DX2 analytically  !
 ! R97   R(89,90)                1.0982         calculate D2E/DX2 analytically  !
 ! R98   R(89,91)                1.0929         calculate D2E/DX2 analytically  !
 ! R99   R(89,92)                1.0976         calculate D2E/DX2 analytically  !
 ! R100  R(93,94)                1.3494         calculate D2E/DX2 analytically  !
 ! R101  R(93,95)                1.3571         calculate D2E/DX2 analytically  !
 ! R102  R(93,96)                1.3506         calculate D2E/DX2 analytically  !
 ! R103  R(97,98)                1.3596         calculate D2E/DX2 analytically  !
 ! R104  R(97,99)                1.3507         calculate D2E/DX2 analytically  !
 ! R105  R(97,100)               1.3474         calculate D2E/DX2 analytically  !
 ! A1    A(2,1,5)              109.3838         calculate D2E/DX2 analytically  !
 ! A2    A(2,1,8)              108.8458         calculate D2E/DX2 analytically  !
 ! A3    A(2,1,14)             108.0044         calculate D2E/DX2 analytically  !
 ! A4    A(5,1,8)              110.1659         calculate D2E/DX2 analytically  !
 ! A5    A(5,1,14)             110.4172         calculate D2E/DX2 analytically  !
 ! A6    A(8,1,14)             109.9765         calculate D2E/DX2 analytically  !
 ! A7    A(1,2,3)              110.3124         calculate D2E/DX2 analytically  !
 ! A8    A(1,2,7)              107.9813         calculate D2E/DX2 analytically  !
 ! A9    A(1,2,13)             112.6688         calculate D2E/DX2 analytically  !
 ! A10   A(3,2,7)              107.0758         calculate D2E/DX2 analytically  !
 ! A11   A(3,2,13)             108.3354         calculate D2E/DX2 analytically  !
 ! A12   A(7,2,13)             110.3241         calculate D2E/DX2 analytically  !
 ! A13   A(2,3,6)              110.3894         calculate D2E/DX2 analytically  !
 ! A14   A(2,3,11)             110.215          calculate D2E/DX2 analytically  !
 ! A15   A(2,3,12)             108.6509         calculate D2E/DX2 analytically  !
 ! A16   A(6,3,11)             104.8198         calculate D2E/DX2 analytically  !
 ! A17   A(6,3,12)             110.4444         calculate D2E/DX2 analytically  !
 ! A18   A(11,3,12)            112.2942         calculate D2E/DX2 analytically  !
 ! A19   A(5,4,9)              109.4877         calculate D2E/DX2 analytically  !
 ! A20   A(5,4,11)             109.0546         calculate D2E/DX2 analytically  !
 ! A21   A(5,4,16)             112.555          calculate D2E/DX2 analytically  !
 ! A22   A(9,4,11)             108.6968         calculate D2E/DX2 analytically  !
 ! A23   A(9,4,16)             110.2155         calculate D2E/DX2 analytically  !
 ! A24   A(11,4,16)            106.724          calculate D2E/DX2 analytically  !
 ! A25   A(1,5,4)              112.4905         calculate D2E/DX2 analytically  !
 ! A26   A(1,5,10)             107.4458         calculate D2E/DX2 analytically  !
 ! A27   A(1,5,15)             109.7584         calculate D2E/DX2 analytically  !
 ! A28   A(4,5,10)             108.0068         calculate D2E/DX2 analytically  !
 ! A29   A(4,5,15)             109.2595         calculate D2E/DX2 analytically  !
 ! A30   A(10,5,15)            109.8299         calculate D2E/DX2 analytically  !
 ! A31   A(3,11,4)             114.0876         calculate D2E/DX2 analytically  !
 ! A32   A(3,12,79)            113.4664         calculate D2E/DX2 analytically  !
 ! A33   A(2,13,20)            113.9326         calculate D2E/DX2 analytically  !
 ! A34   A(1,14,24)            114.1796         calculate D2E/DX2 analytically  !
 ! A35   A(5,15,28)            113.04           calculate D2E/DX2 analytically  !
 ! A36   A(4,16,17)            105.5914         calculate D2E/DX2 analytically  !
 ! A37   A(4,16,18)            105.9761         calculate D2E/DX2 analytically  !
 ! A38   A(4,16,19)            112.5422         calculate D2E/DX2 analytically  !
 ! A39   A(17,16,18)           105.1968         calculate D2E/DX2 analytically  !
 ! A40   A(17,16,19)           113.7772         calculate D2E/DX2 analytically  !
 ! A41   A(18,16,19)           113.0444         calculate D2E/DX2 analytically  !
 ! A42   A(16,19,83)           111.8071         calculate D2E/DX2 analytically  !
 ! A43   A(37,19,83)            72.4781         calculate D2E/DX2 analytically  !
 ! A44   A(13,20,21)           111.1742         calculate D2E/DX2 analytically  !
 ! A45   A(13,20,22)           111.5114         calculate D2E/DX2 analytically  !
 ! A46   A(13,20,23)           106.6483         calculate D2E/DX2 analytically  !
 ! A47   A(21,20,22)           108.8952         calculate D2E/DX2 analytically  !
 ! A48   A(21,20,23)           108.8181         calculate D2E/DX2 analytically  !
 ! A49   A(22,20,23)           109.738          calculate D2E/DX2 analytically  !
 ! A50   A(14,24,25)           111.534          calculate D2E/DX2 analytically  !
 ! A51   A(14,24,26)           111.0851         calculate D2E/DX2 analytically  !
 ! A52   A(14,24,27)           106.7002         calculate D2E/DX2 analytically  !
 ! A53   A(25,24,26)           108.9708         calculate D2E/DX2 analytically  !
 ! A54   A(25,24,27)           109.6169         calculate D2E/DX2 analytically  !
 ! A55   A(26,24,27)           108.876          calculate D2E/DX2 analytically  !
 ! A56   A(15,28,29)           110.8809         calculate D2E/DX2 analytically  !
 ! A57   A(15,28,30)           111.3104         calculate D2E/DX2 analytically  !
 ! A58   A(15,28,31)           107.0573         calculate D2E/DX2 analytically  !
 ! A59   A(29,28,30)           108.8354         calculate D2E/DX2 analytically  !
 ! A60   A(29,28,31)           108.9432         calculate D2E/DX2 analytically  !
 ! A61   A(30,28,31)           109.7739         calculate D2E/DX2 analytically  !
 ! A62   A(33,32,36)           107.9433         calculate D2E/DX2 analytically  !
 ! A63   A(33,32,39)           109.5084         calculate D2E/DX2 analytically  !
 ! A64   A(33,32,45)           110.8098         calculate D2E/DX2 analytically  !
 ! A65   A(36,32,39)           109.4077         calculate D2E/DX2 analytically  !
 ! A66   A(36,32,45)           108.0908         calculate D2E/DX2 analytically  !
 ! A67   A(39,32,45)           111.0092         calculate D2E/DX2 analytically  !
 ! A68   A(32,33,34)           110.7008         calculate D2E/DX2 analytically  !
 ! A69   A(32,33,38)           107.4003         calculate D2E/DX2 analytically  !
 ! A70   A(32,33,44)           111.1284         calculate D2E/DX2 analytically  !
 ! A71   A(34,33,38)           104.8477         calculate D2E/DX2 analytically  !
 ! A72   A(34,33,44)           111.9242         calculate D2E/DX2 analytically  !
 ! A73   A(38,33,44)           110.5686         calculate D2E/DX2 analytically  !
 ! A74   A(33,34,37)           121.8628         calculate D2E/DX2 analytically  !
 ! A75   A(33,34,42)           121.9014         calculate D2E/DX2 analytically  !
 ! A76   A(33,34,53)            97.6872         calculate D2E/DX2 analytically  !
 ! A77   A(37,34,42)           115.5339         calculate D2E/DX2 analytically  !
 ! A78   A(42,34,53)            98.3203         calculate D2E/DX2 analytically  !
 ! A79   A(36,35,40)           108.5882         calculate D2E/DX2 analytically  !
 ! A80   A(36,35,42)           114.0893         calculate D2E/DX2 analytically  !
 ! A81   A(36,35,47)           112.3495         calculate D2E/DX2 analytically  !
 ! A82   A(40,35,42)           103.9872         calculate D2E/DX2 analytically  !
 ! A83   A(40,35,47)           110.053          calculate D2E/DX2 analytically  !
 ! A84   A(42,35,47)           107.429          calculate D2E/DX2 analytically  !
 ! A85   A(32,36,35)           112.0978         calculate D2E/DX2 analytically  !
 ! A86   A(32,36,41)           108.2621         calculate D2E/DX2 analytically  !
 ! A87   A(32,36,46)           112.1178         calculate D2E/DX2 analytically  !
 ! A88   A(35,36,41)           109.7923         calculate D2E/DX2 analytically  !
 ! A89   A(35,36,46)           104.1604         calculate D2E/DX2 analytically  !
 ! A90   A(41,36,46)           110.3798         calculate D2E/DX2 analytically  !
 ! A91   A(19,37,34)           103.4381         calculate D2E/DX2 analytically  !
 ! A92   A(19,37,43)           114.6787         calculate D2E/DX2 analytically  !
 ! A93   A(34,37,43)           133.8482         calculate D2E/DX2 analytically  !
 ! A94   A(43,37,53)            66.1034         calculate D2E/DX2 analytically  !
 ! A95   A(34,42,35)           122.9294         calculate D2E/DX2 analytically  !
 ! A96   A(37,43,51)            91.7191         calculate D2E/DX2 analytically  !
 ! A97   A(37,43,83)            65.9277         calculate D2E/DX2 analytically  !
 ! A98   A(51,43,83)           157.5338         calculate D2E/DX2 analytically  !
 ! A99   A(33,44,63)           114.3239         calculate D2E/DX2 analytically  !
 ! A100  A(32,45,67)           114.3484         calculate D2E/DX2 analytically  !
 ! A101  A(36,46,71)           114.755          calculate D2E/DX2 analytically  !
 ! A102  A(35,47,48)           108.9078         calculate D2E/DX2 analytically  !
 ! A103  A(35,47,49)           106.9185         calculate D2E/DX2 analytically  !
 ! A104  A(35,47,50)           114.6601         calculate D2E/DX2 analytically  !
 ! A105  A(48,47,49)           108.6518         calculate D2E/DX2 analytically  !
 ! A106  A(48,47,50)           111.4459         calculate D2E/DX2 analytically  !
 ! A107  A(49,47,50)           105.9771         calculate D2E/DX2 analytically  !
 ! A108  A(47,50,75)           115.1393         calculate D2E/DX2 analytically  !
 ! A109  A(43,51,52)           114.1482         calculate D2E/DX2 analytically  !
 ! A110  A(43,51,53)           112.4639         calculate D2E/DX2 analytically  !
 ! A111  A(43,51,54)           105.0747         calculate D2E/DX2 analytically  !
 ! A112  A(52,51,53)           112.5115         calculate D2E/DX2 analytically  !
 ! A113  A(52,51,54)           107.279          calculate D2E/DX2 analytically  !
 ! A114  A(53,51,54)           104.4369         calculate D2E/DX2 analytically  !
 ! A115  A(34,53,51)           114.1105         calculate D2E/DX2 analytically  !
 ! A116  A(37,53,51)            89.0997         calculate D2E/DX2 analytically  !
 ! A117  A(51,54,55)           119.6528         calculate D2E/DX2 analytically  !
 ! A118  A(51,54,56)           119.2087         calculate D2E/DX2 analytically  !
 ! A119  A(55,54,56)           121.1157         calculate D2E/DX2 analytically  !
 ! A120  A(54,55,57)           119.1869         calculate D2E/DX2 analytically  !
 ! A121  A(54,55,58)           119.8375         calculate D2E/DX2 analytically  !
 ! A122  A(57,55,58)           120.94           calculate D2E/DX2 analytically  !
 ! A123  A(54,56,59)           119.0509         calculate D2E/DX2 analytically  !
 ! A124  A(54,56,60)           120.2204         calculate D2E/DX2 analytically  !
 ! A125  A(59,56,60)           120.6896         calculate D2E/DX2 analytically  !
 ! A126  A(55,57,61)           120.649          calculate D2E/DX2 analytically  !
 ! A127  A(55,57,97)           118.6062         calculate D2E/DX2 analytically  !
 ! A128  A(61,57,97)           120.5587         calculate D2E/DX2 analytically  !
 ! A129  A(56,59,61)           120.7552         calculate D2E/DX2 analytically  !
 ! A130  A(56,59,93)           120.8021         calculate D2E/DX2 analytically  !
 ! A131  A(61,59,93)           118.4036         calculate D2E/DX2 analytically  !
 ! A132  A(57,61,59)           119.2319         calculate D2E/DX2 analytically  !
 ! A133  A(57,61,62)           120.3462         calculate D2E/DX2 analytically  !
 ! A134  A(59,61,62)           120.4202         calculate D2E/DX2 analytically  !
 ! A135  A(44,63,64)           109.9948         calculate D2E/DX2 analytically  !
 ! A136  A(44,63,65)           110.2122         calculate D2E/DX2 analytically  !
 ! A137  A(44,63,66)           106.2966         calculate D2E/DX2 analytically  !
 ! A138  A(64,63,65)           109.854          calculate D2E/DX2 analytically  !
 ! A139  A(64,63,66)           111.2322         calculate D2E/DX2 analytically  !
 ! A140  A(65,63,66)           109.1935         calculate D2E/DX2 analytically  !
 ! A141  A(45,67,68)           110.9366         calculate D2E/DX2 analytically  !
 ! A142  A(45,67,69)           111.3816         calculate D2E/DX2 analytically  !
 ! A143  A(45,67,70)           106.4673         calculate D2E/DX2 analytically  !
 ! A144  A(68,67,69)           109.149          calculate D2E/DX2 analytically  !
 ! A145  A(68,67,70)           109.0461         calculate D2E/DX2 analytically  !
 ! A146  A(69,67,70)           109.8056         calculate D2E/DX2 analytically  !
 ! A147  A(46,71,72)           111.2465         calculate D2E/DX2 analytically  !
 ! A148  A(46,71,73)           110.892          calculate D2E/DX2 analytically  !
 ! A149  A(46,71,74)           106.1906         calculate D2E/DX2 analytically  !
 ! A150  A(72,71,73)           109.3595         calculate D2E/DX2 analytically  !
 ! A151  A(72,71,74)           110.0028         calculate D2E/DX2 analytically  !
 ! A152  A(73,71,74)           109.089          calculate D2E/DX2 analytically  !
 ! A153  A(50,75,76)           106.561          calculate D2E/DX2 analytically  !
 ! A154  A(50,75,77)           111.2107         calculate D2E/DX2 analytically  !
 ! A155  A(50,75,78)           112.098          calculate D2E/DX2 analytically  !
 ! A156  A(76,75,77)           109.1535         calculate D2E/DX2 analytically  !
 ! A157  A(76,75,78)           109.1            calculate D2E/DX2 analytically  !
 ! A158  A(77,75,78)           108.6522         calculate D2E/DX2 analytically  !
 ! A159  A(12,79,80)           106.692          calculate D2E/DX2 analytically  !
 ! A160  A(12,79,81)           111.4661         calculate D2E/DX2 analytically  !
 ! A161  A(12,79,82)           110.7703         calculate D2E/DX2 analytically  !
 ! A162  A(80,79,81)           109.5317         calculate D2E/DX2 analytically  !
 ! A163  A(80,79,82)           109.3548         calculate D2E/DX2 analytically  !
 ! A164  A(81,79,82)           108.9834         calculate D2E/DX2 analytically  !
 ! A165  A(19,83,43)           102.9497         calculate D2E/DX2 analytically  !
 ! A166  A(85,84,89)           112.0492         calculate D2E/DX2 analytically  !
 ! A167  A(84,85,86)           110.7544         calculate D2E/DX2 analytically  !
 ! A168  A(84,85,87)           106.7607         calculate D2E/DX2 analytically  !
 ! A169  A(84,85,88)           110.6383         calculate D2E/DX2 analytically  !
 ! A170  A(86,85,87)           109.2655         calculate D2E/DX2 analytically  !
 ! A171  A(86,85,88)           109.4383         calculate D2E/DX2 analytically  !
 ! A172  A(87,85,88)           109.942          calculate D2E/DX2 analytically  !
 ! A173  A(10,87,85)           116.3127         calculate D2E/DX2 analytically  !
 ! A174  A(84,89,90)           110.7499         calculate D2E/DX2 analytically  !
 ! A175  A(84,89,91)           107.125          calculate D2E/DX2 analytically  !
 ! A176  A(84,89,92)           110.6381         calculate D2E/DX2 analytically  !
 ! A177  A(90,89,91)           109.1936         calculate D2E/DX2 analytically  !
 ! A178  A(90,89,92)           109.4557         calculate D2E/DX2 analytically  !
 ! A179  A(91,89,92)           109.6366         calculate D2E/DX2 analytically  !
 ! A180  A(59,93,94)           112.4323         calculate D2E/DX2 analytically  !
 ! A181  A(59,93,95)           111.0389         calculate D2E/DX2 analytically  !
 ! A182  A(59,93,96)           111.8195         calculate D2E/DX2 analytically  !
 ! A183  A(94,93,95)           107.1122         calculate D2E/DX2 analytically  !
 ! A184  A(94,93,96)           107.5896         calculate D2E/DX2 analytically  !
 ! A185  A(95,93,96)           106.5365         calculate D2E/DX2 analytically  !
 ! A186  A(57,97,98)           110.9597         calculate D2E/DX2 analytically  !
 ! A187  A(57,97,99)           111.8139         calculate D2E/DX2 analytically  !
 ! A188  A(57,97,100)          112.4991         calculate D2E/DX2 analytically  !
 ! A189  A(98,97,99)           106.4773         calculate D2E/DX2 analytically  !
 ! A190  A(98,97,100)          106.9808         calculate D2E/DX2 analytically  !
 ! A191  A(99,97,100)          107.7937         calculate D2E/DX2 analytically  !
 ! A192  L(5,10,87,7,-1)       193.7972         calculate D2E/DX2 analytically  !
 ! A193  L(16,19,37,83,-1)     184.2852         calculate D2E/DX2 analytically  !
 ! A194  L(19,37,53,43,-1)     180.7821         calculate D2E/DX2 analytically  !
 ! A195  L(5,10,87,7,-2)       174.7352         calculate D2E/DX2 analytically  !
 ! A196  L(16,19,37,83,-2)     174.9285         calculate D2E/DX2 analytically  !
 ! A197  L(19,37,53,43,-2)     165.7893         calculate D2E/DX2 analytically  !
 ! D1    D(5,1,2,3)            -53.2054         calculate D2E/DX2 analytically  !
 ! D2    D(5,1,2,7)             63.495          calculate D2E/DX2 analytically  !
 ! D3    D(5,1,2,13)          -174.412          calculate D2E/DX2 analytically  !
 ! D4    D(8,1,2,3)             67.2086         calculate D2E/DX2 analytically  !
 ! D5    D(8,1,2,7)           -176.091          calculate D2E/DX2 analytically  !
 ! D6    D(8,1,2,13)           -53.998          calculate D2E/DX2 analytically  !
 ! D7    D(14,1,2,3)          -173.4177         calculate D2E/DX2 analytically  !
 ! D8    D(14,1,2,7)           -56.7174         calculate D2E/DX2 analytically  !
 ! D9    D(14,1,2,13)           65.3757         calculate D2E/DX2 analytically  !
 ! D10   D(2,1,5,4)             52.5688         calculate D2E/DX2 analytically  !
 ! D11   D(2,1,5,10)           -66.1701         calculate D2E/DX2 analytically  !
 ! D12   D(2,1,5,15)           174.4425         calculate D2E/DX2 analytically  !
 ! D13   D(8,1,5,4)            -67.0356         calculate D2E/DX2 analytically  !
 ! D14   D(8,1,5,10)           174.2256         calculate D2E/DX2 analytically  !
 ! D15   D(8,1,5,15)            54.8382         calculate D2E/DX2 analytically  !
 ! D16   D(14,1,5,4)           171.293          calculate D2E/DX2 analytically  !
 ! D17   D(14,1,5,10)           52.5541         calculate D2E/DX2 analytically  !
 ! D18   D(14,1,5,15)          -66.8333         calculate D2E/DX2 analytically  !
 ! D19   D(2,1,14,24)         -143.0847         calculate D2E/DX2 analytically  !
 ! D20   D(5,1,14,24)           97.354          calculate D2E/DX2 analytically  !
 ! D21   D(8,1,14,24)          -24.4294         calculate D2E/DX2 analytically  !
 ! D22   D(1,2,3,6)            172.7597         calculate D2E/DX2 analytically  !
 ! D23   D(1,2,3,11)            57.4411         calculate D2E/DX2 analytically  !
 ! D24   D(1,2,3,12)           -65.9916         calculate D2E/DX2 analytically  !
 ! D25   D(7,2,3,6)             55.4976         calculate D2E/DX2 analytically  !
 ! D26   D(7,2,3,11)           -59.821          calculate D2E/DX2 analytically  !
 ! D27   D(7,2,3,12)           176.7463         calculate D2E/DX2 analytically  !
 ! D28   D(13,2,3,6)           -63.4874         calculate D2E/DX2 analytically  !
 ! D29   D(13,2,3,11)         -178.8061         calculate D2E/DX2 analytically  !
 ! D30   D(13,2,3,12)           57.7612         calculate D2E/DX2 analytically  !
 ! D31   D(1,2,13,20)          -95.8342         calculate D2E/DX2 analytically  !
 ! D32   D(3,2,13,20)          141.8396         calculate D2E/DX2 analytically  !
 ! D33   D(7,2,13,20)           24.9271         calculate D2E/DX2 analytically  !
 ! D34   D(2,3,11,4)           -61.3934         calculate D2E/DX2 analytically  !
 ! D35   D(6,3,11,4)           179.8253         calculate D2E/DX2 analytically  !
 ! D36   D(12,3,11,4)           59.8921         calculate D2E/DX2 analytically  !
 ! D37   D(2,3,12,79)         -172.7241         calculate D2E/DX2 analytically  !
 ! D38   D(6,3,12,79)          -51.5092         calculate D2E/DX2 analytically  !
 ! D39   D(11,3,12,79)          65.098          calculate D2E/DX2 analytically  !
 ! D40   D(9,4,5,1)             65.0347         calculate D2E/DX2 analytically  !
 ! D41   D(9,4,5,10)          -176.5557         calculate D2E/DX2 analytically  !
 ! D42   D(9,4,5,15)           -57.1218         calculate D2E/DX2 analytically  !
 ! D43   D(11,4,5,1)           -53.7799         calculate D2E/DX2 analytically  !
 ! D44   D(11,4,5,10)           64.6296         calculate D2E/DX2 analytically  !
 ! D45   D(11,4,5,15)         -175.9364         calculate D2E/DX2 analytically  !
 ! D46   D(16,4,5,1)          -172.0165         calculate D2E/DX2 analytically  !
 ! D47   D(16,4,5,10)          -53.6069         calculate D2E/DX2 analytically  !
 ! D48   D(16,4,5,15)           65.827          calculate D2E/DX2 analytically  !
 ! D49   D(5,4,11,3)            58.8089         calculate D2E/DX2 analytically  !
 ! D50   D(9,4,11,3)           -60.4984         calculate D2E/DX2 analytically  !
 ! D51   D(16,4,11,3)         -179.3538         calculate D2E/DX2 analytically  !
 ! D52   D(5,4,16,17)          -65.7608         calculate D2E/DX2 analytically  !
 ! D53   D(5,4,16,18)         -177.0436         calculate D2E/DX2 analytically  !
 ! D54   D(5,4,16,19)           58.9222         calculate D2E/DX2 analytically  !
 ! D55   D(9,4,16,17)           56.7794         calculate D2E/DX2 analytically  !
 ! D56   D(9,4,16,18)          -54.5035         calculate D2E/DX2 analytically  !
 ! D57   D(9,4,16,19)         -178.5377         calculate D2E/DX2 analytically  !
 ! D58   D(11,4,16,17)         174.6408         calculate D2E/DX2 analytically  !
 ! D59   D(11,4,16,18)          63.3579         calculate D2E/DX2 analytically  !
 ! D60   D(11,4,16,19)         -60.6763         calculate D2E/DX2 analytically  !
 ! D61   D(1,5,87,85)           20.9127         calculate D2E/DX2 analytically  !
 ! D62   D(4,5,87,85)         -104.2662         calculate D2E/DX2 analytically  !
 ! D63   D(15,5,87,85)         141.4686         calculate D2E/DX2 analytically  !
 ! D64   D(1,5,15,28)          128.3814         calculate D2E/DX2 analytically  !
 ! D65   D(4,5,15,28)         -107.8347         calculate D2E/DX2 analytically  !
 ! D66   D(10,5,15,28)          10.4658         calculate D2E/DX2 analytically  !
 ! D67   D(3,12,79,80)         175.0432         calculate D2E/DX2 analytically  !
 ! D68   D(3,12,79,81)         -65.4212         calculate D2E/DX2 analytically  !
 ! D69   D(3,12,79,82)          56.111          calculate D2E/DX2 analytically  !
 ! D70   D(2,13,20,21)         -59.0292         calculate D2E/DX2 analytically  !
 ! D71   D(2,13,20,22)          62.7036         calculate D2E/DX2 analytically  !
 ! D72   D(2,13,20,23)        -177.5114         calculate D2E/DX2 analytically  !
 ! D73   D(1,14,24,25)         -60.736          calculate D2E/DX2 analytically  !
 ! D74   D(1,14,24,26)          61.0469         calculate D2E/DX2 analytically  !
 ! D75   D(1,14,24,27)         179.581          calculate D2E/DX2 analytically  !
 ! D76   D(5,15,28,29)         -68.0983         calculate D2E/DX2 analytically  !
 ! D77   D(5,15,28,30)          53.2152         calculate D2E/DX2 analytically  !
 ! D78   D(5,15,28,31)         173.1846         calculate D2E/DX2 analytically  !
 ! D79   D(4,16,19,83)          43.2343         calculate D2E/DX2 analytically  !
 ! D80   D(17,16,19,83)        163.2922         calculate D2E/DX2 analytically  !
 ! D81   D(18,16,19,83)        -76.7933         calculate D2E/DX2 analytically  !
 ! D82   D(4,16,37,34)        -149.1011         calculate D2E/DX2 analytically  !
 ! D83   D(4,16,37,43)          59.0411         calculate D2E/DX2 analytically  !
 ! D84   D(17,16,37,34)        -27.421          calculate D2E/DX2 analytically  !
 ! D85   D(17,16,37,43)       -179.2788         calculate D2E/DX2 analytically  !
 ! D86   D(18,16,37,34)         89.8235         calculate D2E/DX2 analytically  !
 ! D87   D(18,16,37,43)        -62.0342         calculate D2E/DX2 analytically  !
 ! D88   D(4,16,53,51)          54.979          calculate D2E/DX2 analytically  !
 ! D89   D(17,16,53,51)       -179.1518         calculate D2E/DX2 analytically  !
 ! D90   D(18,16,53,51)        -65.4982         calculate D2E/DX2 analytically  !
 ! D91   D(83,19,37,34)        169.8969         calculate D2E/DX2 analytically  !
 ! D92   D(83,19,37,43)         16.5634         calculate D2E/DX2 analytically  !
 ! D93   D(83,19,53,51)         17.3791         calculate D2E/DX2 analytically  !
 ! D94   D(16,19,83,43)        159.8487         calculate D2E/DX2 analytically  !
 ! D95   D(37,19,83,43)        -15.0798         calculate D2E/DX2 analytically  !
 ! D96   D(36,32,33,34)        -54.1253         calculate D2E/DX2 analytically  !
 ! D97   D(36,32,33,38)         59.797          calculate D2E/DX2 analytically  !
 ! D98   D(36,32,33,44)       -179.1511         calculate D2E/DX2 analytically  !
 ! D99   D(39,32,33,34)         64.9051         calculate D2E/DX2 analytically  !
 ! D100  D(39,32,33,38)        178.8274         calculate D2E/DX2 analytically  !
 ! D101  D(39,32,33,44)        -60.1206         calculate D2E/DX2 analytically  !
 ! D102  D(45,32,33,34)       -172.3058         calculate D2E/DX2 analytically  !
 ! D103  D(45,32,33,38)        -58.3835         calculate D2E/DX2 analytically  !
 ! D104  D(45,32,33,44)         62.6684         calculate D2E/DX2 analytically  !
 ! D105  D(33,32,36,35)         56.1869         calculate D2E/DX2 analytically  !
 ! D106  D(33,32,36,41)        -65.0661         calculate D2E/DX2 analytically  !
 ! D107  D(33,32,36,46)        172.9317         calculate D2E/DX2 analytically  !
 ! D108  D(39,32,36,35)        -62.9077         calculate D2E/DX2 analytically  !
 ! D109  D(39,32,36,41)        175.8394         calculate D2E/DX2 analytically  !
 ! D110  D(39,32,36,46)         53.8371         calculate D2E/DX2 analytically  !
 ! D111  D(45,32,36,35)        176.0966         calculate D2E/DX2 analytically  !
 ! D112  D(45,32,36,41)         54.8437         calculate D2E/DX2 analytically  !
 ! D113  D(45,32,36,46)        -67.1586         calculate D2E/DX2 analytically  !
 ! D114  D(33,32,45,67)        -94.0507         calculate D2E/DX2 analytically  !
 ! D115  D(36,32,45,67)        147.8584         calculate D2E/DX2 analytically  !
 ! D116  D(39,32,45,67)         27.8638         calculate D2E/DX2 analytically  !
 ! D117  D(32,33,34,37)       -151.7241         calculate D2E/DX2 analytically  !
 ! D118  D(32,33,34,42)         38.3074         calculate D2E/DX2 analytically  !
 ! D119  D(32,33,34,53)        -66.5266         calculate D2E/DX2 analytically  !
 ! D120  D(38,33,34,37)         92.7508         calculate D2E/DX2 analytically  !
 ! D121  D(38,33,34,42)        -77.2177         calculate D2E/DX2 analytically  !
 ! D122  D(38,33,34,53)        177.9484         calculate D2E/DX2 analytically  !
 ! D123  D(44,33,34,37)        -27.15           calculate D2E/DX2 analytically  !
 ! D124  D(44,33,34,42)        162.8815         calculate D2E/DX2 analytically  !
 ! D125  D(44,33,34,53)         58.0475         calculate D2E/DX2 analytically  !
 ! D126  D(32,33,44,63)       -138.9439         calculate D2E/DX2 analytically  !
 ! D127  D(34,33,44,63)         96.7201         calculate D2E/DX2 analytically  !
 ! D128  D(38,33,44,63)        -19.7717         calculate D2E/DX2 analytically  !
 ! D129  D(33,34,37,19)        -73.7615         calculate D2E/DX2 analytically  !
 ! D130  D(33,34,37,43)         71.8035         calculate D2E/DX2 analytically  !
 ! D131  D(42,34,37,19)         96.8059         calculate D2E/DX2 analytically  !
 ! D132  D(42,34,37,43)       -117.6291         calculate D2E/DX2 analytically  !
 ! D133  D(33,34,42,35)        -20.8846         calculate D2E/DX2 analytically  !
 ! D134  D(37,34,42,35)        168.552          calculate D2E/DX2 analytically  !
 ! D135  D(53,34,42,35)         83.6092         calculate D2E/DX2 analytically  !
 ! D136  D(33,34,53,51)        -96.841          calculate D2E/DX2 analytically  !
 ! D137  D(42,34,53,51)        139.1956         calculate D2E/DX2 analytically  !
 ! D138  D(40,35,36,32)         76.5702         calculate D2E/DX2 analytically  !
 ! D139  D(40,35,36,41)       -163.0617         calculate D2E/DX2 analytically  !
 ! D140  D(40,35,36,46)        -44.865          calculate D2E/DX2 analytically  !
 ! D141  D(42,35,36,32)        -38.8781         calculate D2E/DX2 analytically  !
 ! D142  D(42,35,36,41)         81.4899         calculate D2E/DX2 analytically  !
 ! D143  D(42,35,36,46)       -160.3134         calculate D2E/DX2 analytically  !
 ! D144  D(47,35,36,32)       -161.4641         calculate D2E/DX2 analytically  !
 ! D145  D(47,35,36,41)        -41.096          calculate D2E/DX2 analytically  !
 ! D146  D(47,35,36,46)         77.1007         calculate D2E/DX2 analytically  !
 ! D147  D(36,35,42,34)         20.5246         calculate D2E/DX2 analytically  !
 ! D148  D(40,35,42,34)        -97.5883         calculate D2E/DX2 analytically  !
 ! D149  D(47,35,42,34)        145.7598         calculate D2E/DX2 analytically  !
 ! D150  D(36,35,47,48)         78.8482         calculate D2E/DX2 analytically  !
 ! D151  D(36,35,47,49)        -38.3801         calculate D2E/DX2 analytically  !
 ! D152  D(36,35,47,50)       -155.524          calculate D2E/DX2 analytically  !
 ! D153  D(40,35,47,48)       -160.0226         calculate D2E/DX2 analytically  !
 ! D154  D(40,35,47,49)         82.7491         calculate D2E/DX2 analytically  !
 ! D155  D(40,35,47,50)        -34.3948         calculate D2E/DX2 analytically  !
 ! D156  D(42,35,47,48)        -47.4237         calculate D2E/DX2 analytically  !
 ! D157  D(42,35,47,49)       -164.652          calculate D2E/DX2 analytically  !
 ! D158  D(42,35,47,50)         78.2041         calculate D2E/DX2 analytically  !
 ! D159  D(32,36,46,71)         94.4503         calculate D2E/DX2 analytically  !
 ! D160  D(35,36,46,71)       -144.1278         calculate D2E/DX2 analytically  !
 ! D161  D(41,36,46,71)        -26.3353         calculate D2E/DX2 analytically  !
 ! D162  D(19,37,43,51)        160.9405         calculate D2E/DX2 analytically  !
 ! D163  D(19,37,43,83)        -16.7328         calculate D2E/DX2 analytically  !
 ! D164  D(34,37,43,51)         18.189          calculate D2E/DX2 analytically  !
 ! D165  D(34,37,43,83)       -159.4844         calculate D2E/DX2 analytically  !
 ! D166  D(53,37,43,51)         -4.8488         calculate D2E/DX2 analytically  !
 ! D167  D(53,37,43,83)        177.4778         calculate D2E/DX2 analytically  !
 ! D168  D(43,37,53,51)          4.7952         calculate D2E/DX2 analytically  !
 ! D169  D(37,43,51,52)        137.1227         calculate D2E/DX2 analytically  !
 ! D170  D(37,43,51,53)          7.3746         calculate D2E/DX2 analytically  !
 ! D171  D(37,43,51,54)       -105.6278         calculate D2E/DX2 analytically  !
 ! D172  D(83,43,51,52)        142.6889         calculate D2E/DX2 analytically  !
 ! D173  D(83,43,51,53)         12.9408         calculate D2E/DX2 analytically  !
 ! D174  D(83,43,51,54)       -100.0616         calculate D2E/DX2 analytically  !
 ! D175  D(37,43,83,19)         13.6039         calculate D2E/DX2 analytically  !
 ! D176  D(51,43,83,19)          7.5083         calculate D2E/DX2 analytically  !
 ! D177  D(33,44,63,64)        -54.8567         calculate D2E/DX2 analytically  !
 ! D178  D(33,44,63,65)         66.4146         calculate D2E/DX2 analytically  !
 ! D179  D(33,44,63,66)       -175.3799         calculate D2E/DX2 analytically  !
 ! D180  D(32,45,67,68)        -56.14           calculate D2E/DX2 analytically  !
 ! D181  D(32,45,67,69)         65.661          calculate D2E/DX2 analytically  !
 ! D182  D(32,45,67,70)       -174.658          calculate D2E/DX2 analytically  !
 ! D183  D(36,46,71,72)        -62.2909         calculate D2E/DX2 analytically  !
 ! D184  D(36,46,71,73)         59.6543         calculate D2E/DX2 analytically  !
 ! D185  D(36,46,71,74)        178.0354         calculate D2E/DX2 analytically  !
 ! D186  D(35,47,50,75)        -74.8449         calculate D2E/DX2 analytically  !
 ! D187  D(48,47,50,75)         49.4488         calculate D2E/DX2 analytically  !
 ! D188  D(49,47,50,75)        167.4753         calculate D2E/DX2 analytically  !
 ! D189  D(47,50,75,76)       -167.8061         calculate D2E/DX2 analytically  !
 ! D190  D(47,50,75,77)        -48.952          calculate D2E/DX2 analytically  !
 ! D191  D(47,50,75,78)         72.907          calculate D2E/DX2 analytically  !
 ! D192  D(43,51,53,34)        -18.0583         calculate D2E/DX2 analytically  !
 ! D193  D(43,51,53,37)         -7.1878         calculate D2E/DX2 analytically  !
 ! D194  D(52,51,53,34)       -148.6427         calculate D2E/DX2 analytically  !
 ! D195  D(52,51,53,37)       -137.7722         calculate D2E/DX2 analytically  !
 ! D196  D(54,51,53,34)         95.336          calculate D2E/DX2 analytically  !
 ! D197  D(54,51,53,37)        106.2066         calculate D2E/DX2 analytically  !
 ! D198  D(43,51,54,55)        -19.7644         calculate D2E/DX2 analytically  !
 ! D199  D(43,51,54,56)        158.5198         calculate D2E/DX2 analytically  !
 ! D200  D(52,51,54,55)        102.0714         calculate D2E/DX2 analytically  !
 ! D201  D(52,51,54,56)        -79.6444         calculate D2E/DX2 analytically  !
 ! D202  D(53,51,54,55)       -138.3169         calculate D2E/DX2 analytically  !
 ! D203  D(53,51,54,56)         39.9673         calculate D2E/DX2 analytically  !
 ! D204  D(51,54,55,57)        177.1145         calculate D2E/DX2 analytically  !
 ! D205  D(51,54,55,58)         -0.7361         calculate D2E/DX2 analytically  !
 ! D206  D(56,54,55,57)         -1.1362         calculate D2E/DX2 analytically  !
 ! D207  D(56,54,55,58)       -178.9868         calculate D2E/DX2 analytically  !
 ! D208  D(51,54,56,59)       -177.3268         calculate D2E/DX2 analytically  !
 ! D209  D(51,54,56,60)          0.4158         calculate D2E/DX2 analytically  !
 ! D210  D(55,54,56,59)          0.9316         calculate D2E/DX2 analytically  !
 ! D211  D(55,54,56,60)        178.6741         calculate D2E/DX2 analytically  !
 ! D212  D(54,55,57,61)          0.4662         calculate D2E/DX2 analytically  !
 ! D213  D(54,55,57,97)       -174.6047         calculate D2E/DX2 analytically  !
 ! D214  D(58,55,57,61)        178.2924         calculate D2E/DX2 analytically  !
 ! D215  D(58,55,57,97)          3.2215         calculate D2E/DX2 analytically  !
 ! D216  D(54,56,59,61)         -0.0532         calculate D2E/DX2 analytically  !
 ! D217  D(54,56,59,93)        177.6327         calculate D2E/DX2 analytically  !
 ! D218  D(60,56,59,61)       -177.7848         calculate D2E/DX2 analytically  !
 ! D219  D(60,56,59,93)         -0.0989         calculate D2E/DX2 analytically  !
 ! D220  D(55,57,61,59)          0.3872         calculate D2E/DX2 analytically  !
 ! D221  D(55,57,61,62)       -179.149          calculate D2E/DX2 analytically  !
 ! D222  D(97,57,61,59)        175.3615         calculate D2E/DX2 analytically  !
 ! D223  D(97,57,61,62)         -4.1746         calculate D2E/DX2 analytically  !
 ! D224  D(55,57,97,98)         77.2587         calculate D2E/DX2 analytically  !
 ! D225  D(55,57,97,99)        -41.4578         calculate D2E/DX2 analytically  !
 ! D226  D(55,57,97,100)      -162.9283         calculate D2E/DX2 analytically  !
 ! D227  D(61,57,97,98)        -97.8167         calculate D2E/DX2 analytically  !
 ! D228  D(61,57,97,99)        143.4667         calculate D2E/DX2 analytically  !
 ! D229  D(61,57,97,100)        21.9962         calculate D2E/DX2 analytically  !
 ! D230  D(56,59,61,57)         -0.5956         calculate D2E/DX2 analytically  !
 ! D231  D(56,59,61,62)        178.9403         calculate D2E/DX2 analytically  !
 ! D232  D(93,59,61,57)       -178.3359         calculate D2E/DX2 analytically  !
 ! D233  D(93,59,61,62)          1.1999         calculate D2E/DX2 analytically  !
 ! D234  D(56,59,93,94)          0.3296         calculate D2E/DX2 analytically  !
 ! D235  D(56,59,93,95)       -119.6612         calculate D2E/DX2 analytically  !
 ! D236  D(56,59,93,96)        121.4908         calculate D2E/DX2 analytically  !
 ! D237  D(61,59,93,94)        178.0688         calculate D2E/DX2 analytically  !
 ! D238  D(61,59,93,95)         58.078          calculate D2E/DX2 analytically  !
 ! D239  D(61,59,93,96)        -60.77           calculate D2E/DX2 analytically  !
 ! D240  D(89,84,85,86)         57.5627         calculate D2E/DX2 analytically  !
 ! D241  D(89,84,85,87)        176.4198         calculate D2E/DX2 analytically  !
 ! D242  D(89,84,85,88)        -63.9723         calculate D2E/DX2 analytically  !
 ! D243  D(85,84,89,90)         59.7736         calculate D2E/DX2 analytically  !
 ! D244  D(85,84,89,91)        178.7605         calculate D2E/DX2 analytically  !
 ! D245  D(85,84,89,92)        -61.7802         calculate D2E/DX2 analytically  !
 ! D246  D(84,85,87,10)         34.952          calculate D2E/DX2 analytically  !
 ! D247  D(86,85,87,10)        154.7738         calculate D2E/DX2 analytically  !
 ! D248  D(88,85,87,10)        -85.1047         calculate D2E/DX2 analytically  !
 --------------------------------------------------------------------------------
 Trust Radius=1.00D-01 FncErr=1.00D-07 GrdErr=1.00D-06 EigMax=2.50D+02 EigMin=1.00D-04
 Number of steps in this run=    560 maximum allowed number of steps=    600.
 Search for a saddle point of order  1.
 GradGradGradGradGradGradGradGradGradGradGradGradGradGradGradGradGradGrad

 Leave Link  103 at Thu Jun  6 06:50:47 2019, MaxMem=  6442450944 cpu:               4.2 elap:               0.2
 (Enter /home/ekwan/sw/g16/l202.exe)
 Stoichiometry    C30H47F6NaO15S
 Framework group  C1[X(C30H47F6NaO15S)]
 Deg. of freedom   294
 Full point group                 C1      NOp   1
 Largest Abelian subgroup         C1      NOp   1
 Largest concise Abelian subgroup C1      NOp   1
                         Standard orientation:                         
 ---------------------------------------------------------------------
 Center     Atomic      Atomic             Coordinates (Angstroms)
 Number     Number       Type             X           Y           Z
 ---------------------------------------------------------------------
      1          6           0       -5.738235   -0.324924   -0.423036
      2          6           0       -5.386550   -1.675406    0.205796
      3          6           0       -4.567693   -2.520851   -0.773876
      4          6           0       -3.641528   -0.565112   -1.844023
      5          6           0       -4.461973    0.347570   -0.927086
      6          1           0       -4.205273   -3.434175   -0.281342
      7          1           0       -4.748981   -1.486636    1.079897
      8          1           0       -6.432460   -0.492002   -1.256602
      9          1           0       -4.210086   -0.770747   -2.759605
     10          1           0       -3.850459    0.586538   -0.053298
     11          8           0       -3.389334   -1.823245   -1.159362
     12          8           0       -5.374521   -2.843729   -1.868164
     13          8           0       -6.533894   -2.417302    0.584182
     14          8           0       -6.362140    0.478127    0.577303
     15          8           0       -4.792780    1.545908   -1.629087
     16          6           0       -2.268828    0.030887   -2.193895
     17          1           0       -2.482264    0.936072   -2.799800
     18          1           0       -1.792853   -0.688737   -2.900957
     19          8           0       -1.502164    0.277656   -1.080131
     20          6           0       -6.894354   -2.264851    1.950858
     21          1           0       -6.074802   -2.578699    2.615690
     22          1           0       -7.161582   -1.229028    2.182297
     23          1           0       -7.756077   -2.915520    2.121965
     24          6           0       -7.415529    1.298549    0.091559
     25          1           0       -7.058670    2.004504   -0.665547
     26          1           0       -8.224117    0.690303   -0.339617
     27          1           0       -7.806950    1.849073    0.951252
     28          6           0       -4.067488    2.678428   -1.168970
     29          1           0       -4.375199    2.953292   -0.149395
     30          1           0       -2.987186    2.488832   -1.173826
     31          1           0       -4.300982    3.505254   -1.845254
     32          6           0        2.406285    2.464508   -0.953868
     33          6           0        1.335006    1.375105   -1.082946
     34          6           0        0.297519    1.519877   -0.005227
     35          6           0        0.649625    3.911436    0.180680
     36          6           0        1.699095    3.821391   -0.936423
     37          1           0       -0.249596    0.681585    0.366886
     38          1           0        0.792634    1.556775   -2.022579
     39          1           0        2.955933    2.328080   -0.015150
     40          1           0        1.165430    4.064477    1.131602
     41          1           0        1.216496    3.971367   -1.914093
     42          8           0       -0.117262    2.669783    0.387165
     43          8           0        0.287207   -1.084340    1.670510
     44          8           0        1.911446    0.097561   -1.086207
     45          8           0        3.282297    2.440658   -2.061714
     46          8           0        2.591413    4.883556   -0.659398
     47          6           0       -0.354740    5.034701   -0.056232
     48          1           0       -1.097969    4.698745   -0.797059
     49          1           0        0.202315    5.876112   -0.476668
     50          8           0       -0.975097    5.524402    1.110321
     51         16           0        1.512388   -0.395862    2.176310
     52          8           0        1.731473   -0.542709    3.628261
     53          8           0        1.595750    1.041407    1.721582
     54          6           0        2.881207   -1.208330    1.345554
     55          6           0        2.698998   -2.467530    0.793989
     56          6           0        4.101549   -0.543354    1.235576
     57          6           0        3.752401   -3.065109    0.097069
     58          1           0        1.737170   -2.958389    0.877527
     59          6           0        5.142247   -1.152184    0.542856
     60          1           0        4.221307    0.448241    1.653083
     61          6           0        4.974035   -2.413738   -0.036532
     62          1           0        5.783243   -2.875776   -0.589794
     63          6           0        1.329705   -0.809526   -2.028977
     64          1           0        0.250046   -0.874707   -1.867934
     65          1           0        1.534330   -0.473726   -3.054777
     66          1           0        1.812632   -1.773693   -1.864186
     67          6           0        4.464522    1.668960   -1.859965
     68          1           0        5.013985    2.016978   -0.975586
     69          1           0        4.232338    0.607591   -1.742992
     70          1           0        5.085557    1.816453   -2.746305
     71          6           0        3.122504    5.533877   -1.812856
     72          1           0        3.713842    4.843368   -2.419859
     73          1           0        2.317674    5.961402   -2.427154
     74          1           0        3.756439    6.342097   -1.441942
     75          6           0       -1.972906    4.676259    1.665653
     76          1           0       -2.505915    5.269779    2.412005
     77          1           0       -2.683270    4.341580    0.896675
     78          1           0       -1.540382    3.793742    2.151297
     79          6           0       -4.767815   -3.766344   -2.767419
     80          1           0       -5.518124   -4.007644   -3.522550
     81          1           0       -3.886030   -3.332652   -3.252555
     82          1           0       -4.471204   -4.685165   -2.241932
     83         11           0       -1.604411   -1.402696    0.385943
     84          8           0       -2.753488   -0.426315    2.187206
     85          6           0       -2.381686    0.944445    2.301819
     86          1           0       -1.379492    1.040350    2.738687
     87          1           0       -2.374298    1.353761    1.291318
     88          1           0       -3.104614    1.491054    2.922095
     89          6           0       -2.719468   -1.095615    3.442080
     90          1           0       -3.408246   -0.622069    4.154421
     91          1           0       -3.037448   -2.126238    3.265825
     92          1           0       -1.703232   -1.088938    3.856653
     93          6           0        6.457238   -0.448537    0.354794
     94          9           0        6.473779    0.773521    0.926881
     95          9           0        6.733688   -0.276480   -0.962621
     96          9           0        7.483904   -1.156075    0.873800
     97          6           0        3.503961   -4.372654   -0.599195
     98          9           0        2.825015   -4.183256   -1.761806
     99          9           0        2.752302   -5.206378    0.151948
    100          9           0        4.646071   -5.016036   -0.910802
 ---------------------------------------------------------------------
 Rotational constants (GHZ):           0.0665589           0.0340384           0.0270055
 Leave Link  202 at Thu Jun  6 06:50:47 2019, MaxMem=  6442450944 cpu:               2.8 elap:               0.1
 (Enter /home/ekwan/sw/g16/l301.exe)
 Standard basis: 6-31G(d) (6D, 7F)
 Ernie: Thresh=  0.10000D-02 Tol=  0.10000D-05 Strict=F.
 There are   897 symmetry adapted cartesian basis functions of A   symmetry.
 There are   897 symmetry adapted basis functions of A   symmetry.
   897 basis functions,  1720 primitive gaussians,   897 cartesian basis functions
   214 alpha electrons      214 beta electrons
       nuclear repulsion energy      9349.4889023916 Hartrees.
 IExCor=  402 DFT=T Ex+Corr=B3LYP ExCW=0 ScaHFX=  0.200000
 ScaDFX=  0.800000  0.720000  1.000000  0.810000 ScalE2=  1.000000  1.000000
 IRadAn=      5 IRanWt=     -1 IRanGd=            0 ICorTp=0 IEmpDi=141
 NAtoms=  100 NActive=  100 NUniq=  100 SFac= 1.00D+00 NAtFMM=   60 NAOKFM=T Big=T
 Integral buffers will be    131072 words long.
 Raffenetti 2 integral format.
 Two-electron integral symmetry is turned on.
 R6Disp:  Grimme-D3(BJ) Dispersion energy=       -0.2308016250 Hartrees.
 Nuclear repulsion after empirical dispersion term =     9349.2581007666 Hartrees.
 Force inversion solution in PCM.
 ------------------------------------------------------------------------------
 Polarizable Continuum Model (PCM)
 =================================
 Model                : PCM.
 Atomic radii         : UFF (Universal Force Field).
 Polarization charges : Total charges.
 Charge compensation  : None.
 Solution method      : Matrix inversion.
 Cavity type          : Scaled VdW (van der Waals Surface) (Alpha=1.100).
 Cavity algorithm     : GePol (No added spheres)
                        Default sphere list used, NSphG=  100.
                        Lebedev-Laikov grids with approx.  5.0 points / Ang**2.
                        Smoothing algorithm: York/Karplus (Gamma=1.0000).
                        Polarization charges: spherical gaussians, with
                                              point-specific exponents (IZeta= 3).
                        Self-potential: point-specific (ISelfS= 7).
                        Self-field    : sphere-specific E.n sum rule (ISelfD= 2).
 1st derivatives      : Analytical E(r).r(x)/FMM algorithm (CHGder, D1EAlg=3).
                        Cavity 1st derivative terms included.
 2nd derivatives      : Analytical E(r).r(xy)/FMM algorithm (CHGder, D2EAlg=3).
                        Cavity 2nd derivative terms included.
 Solvent              : TetraHydroFuran, Eps=   7.425700 Eps(inf)=   1.974025
 ------------------------------------------------------------------------------
 GePol: Number of generator spheres                  =     100
 GePol: Total number of spheres                      =     100
 GePol: Number of exposed spheres                    =     100 (100.00%)
 GePol: Number of points                             =    6268
 GePol: Average weight of points                     =       0.12
 GePol: Minimum weight of points                     =   0.12D-10
 GePol: Maximum weight of points                     =    0.21593
 GePol: Number of points with low weight             =     470
 GePol: Fraction of low-weight points (<1% of avg)   =       7.50%
 GePol: Cavity surface area                          =    773.497 Ang**2
 GePol: Cavity volume                                =    977.732 Ang**3
 Leave Link  301 at Thu Jun  6 06:50:47 2019, MaxMem=  6442450944 cpu:               7.8 elap:               0.3
 (Enter /home/ekwan/sw/g16/l302.exe)
 NPDir=0 NMtPBC=     1 NCelOv=     1 NCel=       1 NClECP=     1 NCelD=      1
         NCelK=      1 NCelE2=     1 NClLst=     1 CellRange=     0.0.
 One-electron integrals computed using PRISM.
 One-electron integral symmetry used in STVInt
 NBasis=   897 RedAO= T EigKep=  4.02D-04  NBF=   897
[...]
 00045559,0.00008173,-0.00045023,-0.00147063,-0.00032304,0.00046589,-0.
 00037985,-0.00068927,-0.00015300,-0.03227066,-0.02925372,0.02206959,0.
 00016901,-0.00154116,0.00011509,-0.00264631,-0.00089794,-0.00097759,0.
 00005721,-0.00005490,0.00009849,0.00436165,-0.00592284,-0.00303828,0.0
 0018750,0.00012194,0.00056119,-0.00018224,0.00014340,-0.00017183,0.000
 03136,-0.00004599,0.00004417,0.00004214,-0.00006456,0.00007856,-0.0001
 0340,0.00004937,-0.00005232,-0.00006953,0.00019911,-0.00004799,0.00001
 430,0.00007304,-0.00000947,-0.00003951,-0.00006455,-0.00010296,-0.0000
 0679,-0.00004619,0.00004587,0.00001458,0.00004986,-0.00006474,0.000005
 36,0.00000870,-0.00000119,0.00001005,-0.00000659,0.00001477,-0.0000081
 5,-0.00001188,0.00000279,-0.00003681,-0.00000477,-0.00000005,0.0000069
 2,-0.00000726,-0.00000483,0.00000219,0.00000461,0.00000442,0.00000088,
 0.00000240,0.00001210,0.00000972,-0.00004228,0.00000276,-0.00000291,0.
 00000242,-0.00000034,0.00000241,-0.00000136,0.00000070,-0.00000020,0.0
 0001373,-0.00000848,-0.00014320,-0.00025192,-0.00004913,0.00007769,0.0
 0006719,-0.00005734,-0.00005650,-0.00003650,-0.00001630,0.00000854,0.0
 0001738,0.00004075,-0.00001739,0.00001555,-0.00000525,0.00002592,0.000
 00539,-0.00000702,-0.00003855,-0.00006364,0.00004992,0.00000922,0.0000
 0534,-0.00000967,0.00001670,0.00001705,0.00000161,0.00000654,-0.000008
 55,0.00001085,0.00269544,0.00072731,-0.00082543,-0.00074472,-0.0009802
 7,-0.00010895,-0.00059294,-0.00029126,0.00050062,-0.00095988,0.0000858
 9,-0.00011938,-0.06902906,-0.17005140,0.05468514,-0.00075362,-0.006326
 58,0.03666457,0.10446044,0.19399093,0.00000620,0.00000586,-0.00000756,
 -0.00000074,0.00000739,-0.00001404,0.00000256,0.00003284,-0.00004849,0
 .00000142,0.00002605,-0.00001502,-0.00000190,-0.00000641,-0.00000874,0
 .00000210,-0.00001247,0.00000374,-0.00000230,0.00000056,0.00000332,0.0
 0000112,-0.00000144,0.00000204,0.00000293,-0.00000207,0.00000325,0.000
 00388,0.00000064,-0.00000177,-0.00002208,-0.00002655,0.00004158,-0.000
 00436,-0.00000102,0.00003862,-0.00000507,-0.00001077,0.00002233,-0.000
 00479,-0.00000305,0.00001284,-0.00000596,-0.00000496,0.00001265,0.0000
 3309,-0.00001943,-0.00002754,-0.00000306,0.00000001,0.00000259,-0.0000
 0202,0.00001641,0.00002099,-0.00006696,0.00003205,0.00007958,-0.000007
 67,0.00000364,-0.00001933,0.00000589,0.00000003,0.00000617,0.00000161,
 -0.00000078,0.00000059,-0.00000088,0.00000052,0.00000125,-0.00000208,0
 .00000240,-0.00000356,0.00000058,-0.00000208,0.00000078,0.00000045,0.0
 0000034,-0.00000016,-0.00000068,0.00000086,0.00000085,0.00000647,-0.00
 000090,-0.00000630,-0.00000322,0.00000183,0.00000343,-0.00000239,-0.00
 000187,-0.00000292,0.00000050,-0.00000141,0.00000046,-0.00002343,0.000
 01255,-0.00003514,0.00008544,-0.00011581,0.00002747,-0.00003640,0.0000
 2452,-0.00016125,0.00000103,0.00000027,-0.00001776,0.00001285,-0.00001
 611,-0.00000859,-0.00000046,0.00001229,-0.00000566,-0.00000827,-0.0000
 0549,-0.00000101,0.00000806,0.00000636,0.00000387,-0.00000011,0.000002
 51,0.00000174,0.00000211,-0.00000257,0.00000336,-0.00001333,0.00000611
 ,0.00005143,0.00002049,-0.00016221,0.00003659,-0.00004346,0.00027393,0
 .00014131,-0.00001720,0.00003342,0.00003778,0.00000387,0.00002403,0.00
 001256,0.00000701,-0.00001064,-0.00001254,0.00000215,0.00000221,0.0000
 0191,-0.00000049,-0.00000030,0.00000052,-0.00001279,0.00000090,0.00002
 028,-0.00000022,0.00047691,-0.00009556,0.00001517,-0.00010746,0.000064
 45,0.00000868,-0.00017132,0.00013283,-0.00026211,0.00062538,0.00062788
 ,0.00145135,-0.00196744,-0.00058962,-0.00060634,-0.00023324,0.00009670
 ,-0.00005514,-0.00234014,0.00814629,-0.00119535,-0.00019804,-0.0001885
 2,-0.00000717,-0.00044350,-0.00085409,-0.00008315,-0.00000172,0.000012
 22,0.00043751,0.00038407,0.00074619,-0.00024125,-0.00024406,0.00015017
 ,0.00010205,-0.00048087,0.00001253,0.00000748,0.00006807,-0.00002320,-
 0.00001407,0.00005338,0.00000141,0.00011053,-0.00021971,-0.00019607,0.
 00000332,-0.00004533,-0.00000736,0.00000538,0.00002398,0.00001003,-0.0
 0000561,0.00000419,-0.00002488,-0.00000533,-0.00000995,0.00000402,0.00
 000119,-0.00000387,-0.00000289,-0.00000389,-0.00000136,0.00000138,0.00
 000029,-0.00000085,-0.00000125,0.00000174,0.00000302,0.00000052,0.0000
 0552,0.00000979,-0.00000886,-0.00000184,0.00000114,0.00000118,0.000000
 41,-0.00000136,0.00000102,0.00000102,-0.00000309,0.00000009,0.00001708
 ,0.00000478,-0.00002542,0.00000017,-0.00000004,0.00000179,-0.00000448,
 -0.00000543,0.00000471,-0.00000018,-0.00000315,0.00000181,-0.00004735,
 0.00010370,-0.00010816,0.00001121,-0.00004439,0.00003042,-0.00000186,0
 .00002864,-0.00000543,0.00000094,0.00000047,0.00000023,0.00000320,-0.0
 0000813,0.00000028,0.00000196,-0.00000472,0.00000031,-0.00001170,0.000
 02613,-0.00003241,0.00000631,-0.00000775,0.00000244,-0.00001252,-0.000
 00620,-0.00000090,0.00000615,0.00001149,0.00000985,0.00014133,0.000090
 21,-0.00030254,0.00000155,0.00003134,0.00007250,-0.00005705,-0.0000160
 7,0.00012806,-0.00005220,-0.00000117,0.00005809,0.04901252,0.06107202,
 -0.11214596,0.01073897,0.04618662,-0.06081648,-0.09686331,-0.10843161,
 0.17464312,0.00002899,-0.00001590,-0.00001392,0.00003024,0.00000803,-0
 .00001581,0.00010025,0.00001082,0.00001367,0.00000899,-0.00004412,0.00
 002705,0.00001311,-0.00004196,0.00000460,0.00000064,0.00001478,-0.0000
 0474,0.00000271,-0.00000287,-0.00000484,-0.00000592,0.00000158,-0.0000
 0066,-0.00001416,0.00000063,-0.00000970,0.00000368,-0.00000181,-0.0000
 0433,-0.00008841,0.00004780,0.00001138,-0.00005886,0.00000592,-0.00002
 344,-0.00004073,-0.00000155,0.00002724,-0.00004539,0.00003547,0.000015
 10,-0.00002046,0.00005053,-0.00000315,0.00009047,-0.00002669,0.0000811
 9,-0.00002106,0.00002881,-0.00002701,-0.00000109,-0.00000259,0.0000114
 9,-0.00017143,0.00009252,-0.00006307,0.00001663,-0.00000675,-0.0000200
 2,-0.00000340,-0.00000037,-0.00000227,-0.00000152,0.00000500,0.0000040
 8,-0.00000373,-0.00000325,0.00000331,0.00002767,-0.00001795,0.00001110
 ,0.00000044,0.00000141,-0.00000372,-0.00000437,0.00000010,-0.00000372,
 -0.00000433,0.00000381,0.00000219,0.00000445,-0.00002344,-0.00001098,-
 0.00000002,0.00000294,0.00000661,-0.00000363,-0.00000907,0.00000246,-0
 .00000325,0.00000742,-0.00000328,-0.00009951,-0.00001194,0.00007287,0.
 00011224,-0.00020241,0.00003091,0.00021501,-0.00020285,0.00009758,-0.0
 0004067,-0.00011725,0.00000886,0.00000674,-0.00006254,-0.00000095,0.00
 001022,-0.00001842,-0.00000919,-0.00001888,0.00000868,-0.00001784,-0.0
 0000626,-0.00002177,-0.00000463,0.00001117,0.00000707,-0.00000277,-0.0
 0000338,0.00000727,-0.00000357,-0.00008561,0.00025728,0.00003064,-0.00
 026699,0.00021389,0.00018189,-0.00006662,0.00038975,-0.00002733,0.0000
 6808,0.00003143,-0.00006570,0.00005158,0.00009452,-0.00002730,0.000032
 37,-0.00002197,-0.00001357,-0.00000163,-0.00000076,0.00000268,-0.00000
 252,0.00000986,0.00000059,-0.00001945,0.00002036,0.00001548,0.00069403
 ,-0.00061354,-0.00071976,-0.00011051,0.00010867,0.00045802,-0.00024362
 ,0.00056732,-0.00001394,-0.00077667,-0.00021979,0.00026708,0.00198324,
 0.00244757,0.00066712,0.00040646,-0.00005508,-0.00017131,-0.00881877,0
 .00987620,0.00480536,0.00043517,-0.00040394,-0.00041092,0.00130582,0.0
 0087354,0.00034420,0.00013507,-0.00000633,-0.00012623,-0.00340632,-0.0
 0339280,0.00068723,0.00213903,-0.00007822,-0.00126978,0.00016158,-0.00
 050109,0.00009365,0.00001969,0.00004021,-0.00003573,-0.00003537,0.0001
 2696,-0.00006850,-0.00000841,-0.00025407,-0.00005747,-0.00004394,-0.00
 002951,0.00000318,-0.00000027,-0.00001828,0.00000849,-0.00001079,0.000
 01838,0.00004196,0.00001108,0.00002380,-0.00002375,-0.00001996,-0.0000
 2706,0.00004666,-0.00000145,-0.00000491,-0.00000479,-0.00000181,0.0000
 0254,-0.00000860,0.00000511,0.00000929,-0.00000259,0.00001090,-0.00000
 792,0.00000386,-0.00000389,0.00000505,0.00000253,0.00000106,-0.0000034
 2,-0.00000015,-0.00000245,-0.00000069,-0.00000946,0.00002700,-0.000008
 02,-0.00000053,-0.00001287,-0.00000008,-0.00000533,0.00000324,-0.00001
 100,0.00001391,0.00000666,0.00001031,-0.00000626,0.00022148,-0.0001698
 0,-0.00004822,-0.00003833,0.00004317,0.00003238,0.00001363,-0.00003538
 ,0.00000059,0.00000056,-0.00000596,-0.00001677,0.00000991,-0.00000649,
 -0.00000123,-0.00001797,0.00000660,0.00000977,0.00001737,-0.00000501,-
 0.00001800,-0.00001464,0.00001141,0.00000839,0.00001247,0.00000113,-0.
 00000450,-0.00000508,-0.00000964,-0.00001197,-0.00087495,0.00015160,0.
 00028526,0.00018819,0.00006663,-0.00002701,0.00021972,0.00003875,-0.00
 021877,0.00035122,-0.00011890,0.00003860,-0.19075377,0.08855554,0.0442
 9845,-0.05296725,0.03156871,-0.02595251,-0.05685766,-0.00235127,0.0375
 1943,0.30691466,-0.00002587,0.00000015,0.00001423,-0.00002308,-0.00001
 299,0.00000864,-0.00008445,-0.00005573,-0.00000547,-0.00000080,-0.0000
 0176,0.00001740,-0.00001781,0.00002567,-0.00000928,0.00000218,0.000002
 75,-0.00000133,-0.00000453,-0.00000048,0.00000537,0.00000756,-0.000000
 53,0.00000052,0.00002252,0.00000912,0.00000600,-0.00000887,0.00000507,
 0.00000821,0.00007349,0.00002983,-0.00001366,0.00003648,0.00003283,0.0
 0003132,0.00003238,0.00001478,-0.00001883,0.00003650,-0.00001560,-0.00
 001092,0.00002812,-0.00001663,0.00000540,-0.00010597,-0.00000651,-0.00
 020427,0.00002528,-0.00002395,0.00004061,-0.00000138,0.00002522,0.0000
 2603,0.00027636,-0.00001275,0.00021936,-0.00000806,0.00000078,0.000013
 95,0.00000133,-0.00000151,-0.00000055,-0.00000109,-0.00000116,-0.00000
 257,0.00000425,0.00000223,-0.00000259,-0.00002102,0.00001045,-0.000008
 20,-0.00000119,0.00000003,0.00000170,0.00000466,0.00000114,0.00000334,
 0.00000222,-0.00000244,-0.00000105,-0.00002075,0.00000780,0.00000349,0
 .00000009,-0.00000161,-0.00000331,0.00000736,0.00000923,-0.00000210,0.
 00000457,-0.00000543,0.00000344,0.00005325,0.00003142,-0.00010289,-0.0
 0008906,0.00027353,-0.00000828,-0.00057344,0.00036647,-0.00044574,0.00
 005742,0.00017896,-0.00002352,0.00000054,0.00010489,-0.00000496,-0.000
 01984,0.00001283,0.00001536,0.00003294,-0.00003992,0.00004088,0.000025
 80,0.00006220,0.00001015,-0.00002056,-0.00000465,0.00000606,0.00000879
 ,-0.00001796,0.00001183,0.00017901,-0.00042054,0.00000987,0.00110903,-
 0.00012652,-0.00017066,0.00018613,-0.00026113,0.00026763,0.00001726,-0
 .00011558,0.00011088,-0.00006669,-0.00014208,0.00005052,-0.00006369,0.
 00004285,0.00002018,0.00000727,0.00000042,-0.00000223,0.00000373,-0.00
 001518,-0.00000252,0.00004938,-0.00003057,-0.00002829,-0.00270309,0.00
 126752,0.00159505,0.00054470,-0.00027200,-0.00114967,0.00083722,-0.001
 37598,0.00007477,0.00196212,-0.00085809,-0.00179258,-0.00491509,-0.006
 35997,-0.00123497,0.00023761,-0.00054171,-0.00036568,0.03799549,-0.018
 39064,-0.01520585,0.00003954,0.00025383,0.00031710,0.00020007,-0.00012
 828,-0.00057371,0.00002442,-0.00005321,0.00006897,0.00116722,-0.000786
 92,-0.00052888,0.00000942,-0.00249753,-0.00061833,-0.00015926,0.000136
 43,-0.00016574,0.00001472,-0.00002481,0.00003879,0.00003896,-0.0000848
 8,0.00009184,-0.00003937,0.00008370,-0.00008958,-0.00001218,0.00013043
 ,-0.00003449,0.00001003,0.00006138,-0.00000864,-0.00002300,-0.00004838
 ,-0.00009412,-0.00001361,-0.00004311,0.00004282,0.00002233,0.00004955,
 -0.00007416,0.00000285,0.00000808,0.00000298,0.00000811,-0.00000638,0.
 00001496,-0.00000821,-0.00001276,0.00000387,-0.00003099,0.00000618,-0.
 00000647,0.00000670,-0.00000815,-0.00000450,0.00000102,0.00000482,0.00
 000368,0.00000250,0.00000086,0.00001497,-0.00000240,-0.00002183,-0.000
 00836,0.00000563,0.00000163,0.00000371,-0.00000201,0.00000325,-0.00000
 580,-0.00000421,0.00000196,-0.00000118,-0.00024468,-0.00004855,-0.0000
 6375,0.00008586,0.00000718,-0.00005034,-0.00005248,0.00000475,-0.00001
 621,0.00000607,0.00001686,0.00004218,-0.00001756,0.00001179,-0.0000033
 4,0.00003145,-0.00000183,-0.00001072,-0.00004368,-0.00003393,0.0000359
 6,0.00001793,-0.00000595,-0.00001139,0.00000014,0.00000959,0.00000308,
 0.00001067,0.00000317,0.00001892,0.00210148,0.00078658,-0.00024466,-0.
 00046194,-0.00048604,-0.00007269,-0.00054439,-0.00025179,0.00043615,-0
 .00080357,0.00004716,-0.00010671,0.07898877,-0.14128254,-0.03373618,0.
 02688251,-0.00012158,0.01344388,-0.01559693,0.02122617,0.00567442,-0.1
 2671466,0.14970651,-0.00000665,0.00000155,0.00000150,-0.00000857,-0.00
 000145,-0.00000471,-0.00003074,-0.00000920,-0.00002757,0.00000162,0.00
 000965,0.00000353,-0.00000889,0.00000532,-0.00000929,0.00000229,-0.000
 00393,0.00000137,-0.00000318,-0.00000020,0.00000425,0.00000390,-0.0000
 0081,0.00000128,0.00001216,0.00000377,0.00000388,-0.00000235,0.0000028
 1,0.00000318,0.00001617,0.00000493,0.00001761,0.00001001,0.00001619,0.
 00003457,0.00000909,0.00000130,0.00000562,0.00001109,-0.00000585,0.000
 00337,0.00000889,-0.00000615,0.00001000,-0.00002768,-0.00001765,-0.000
 11737,0.00000970,-0.00000995,0.00002008,-0.00000204,0.00002287,0.00002
 679,0.00009146,0.00002055,0.00015483,-0.00000617,0.00000160,-0.0000055
 9,0.00000357,-0.00000080,0.00000280,0.00000022,-0.00000044,-0.00000053
 ,0.00000120,0.00000105,-0.00000028,-0.00000880,0.00000476,-0.00000509,
 -0.00000025,-0.00000104,0.00000091,0.00000215,0.00000080,0.00000118,0.
 00000028,-0.00000034,0.00000022,-0.00000654,0.00000107,-0.00000314,-0.
 00000186,0.00000043,0.00000115,0.00000211,0.00000283,-0.00000257,0.000
 00247,-0.00000294,0.00000168,0.00000844,0.00002151,-0.00008014,0.00000
 743,0.00006376,0.00001376,-0.00030106,0.00018400,-0.00031243,0.0000262
 0,0.00008209,-0.00002172,0.00000707,0.00004056,-0.00000599,-0.00000912
 ,0.00001150,0.00000431,0.00001230,-0.00002513,0.00002026,0.00001764,0.
 00003670,0.00000909,-0.00000983,-0.00000039,0.00000413,0.00000627,-0.0
 0001105,0.00000806,0.00007799,-0.00019025,0.00003605,0.00057408,-0.000
 11873,-0.00004304,0.00007291,0.00006399,0.00022365,-0.00000171,-0.0000
 3144,0.00008148,-0.00002829,-0.00005256,0.00003243,-0.00002589,0.00001
 379,0.00000142,0.00000507,0.00000152,0.00000031,0.00000139,-0.00000709
 ,-0.00000098,0.00001632,-0.00001318,-0.00000090,-0.00146321,0.00087545
 ,0.00058457,0.00034394,-0.00019340,-0.00057034,0.00039910,-0.00071680,
 0.00012928,0.00039768,-0.00051182,-0.00130026,-0.00201012,-0.00325012,
 0.00068772,0.00030518,-0.00030064,-0.00024830,0.02041194,-0.01558930,0
 .00133474,-0.00010137,0.00027704,0.00039593,-0.00020176,-0.00010451,-0
 .00017586,-0.00001556,-0.00001712,0.00006276,0.00090728,0.00011277,-0.
 00074875,-0.00054341,-0.00078883,-0.00009824,0.00001629,-0.00023567,-0
 .00006792,0.00001538,0.00002663,0.00000492,0.00001476,-0.00001164,0.00
 004835,-0.00001185,-0.00017669,-0.00012808,-0.00000577,0.00003092,-0.0
 0002447,0.00000922,0.00004913,0.00000342,-0.00001353,-0.00002186,-0.00
 006678,-0.00001055,-0.00003024,0.00002458,0.00001142,0.00002115,-0.000
 03783,-0.00000132,0.00000298,0.00000219,0.00000427,-0.00000375,0.00000
 638,-0.00000276,-0.00000389,0.00000227,-0.00001181,0.00000805,-0.00000
 826,0.00000197,-0.00000305,-0.00000136,0.00000092,0.00000132,0.0000025
 5,0.00000160,-0.00000155,0.00000686,0.00001100,-0.00000840,-0.00001867
 ,0.00000176,0.00000085,0.00000228,-0.00000312,-0.00000253,0.00000103,-
 0.00000150,0.,0.00000021,-0.00011995,-0.00000192,-0.00010069,0.0000468
 9,-0.00001393,-0.00000701,-0.00002774,0.00001316,-0.00001199,0.0000041
 9,0.00000877,0.00002060,-0.00000619,0.00000132,-0.00000179,0.00001538,
 -0.00000267,-0.00000425,-0.00002722,-0.00000508,0.00000003,0.00001063,
 -0.00000561,-0.00000383,-0.00000454,0.00000183,0.00000056,0.00000859,0
 .00000573,0.00001387,0.00109753,0.00040803,-0.00033302,-0.00024616,-0.
 00023753,0.00000566,-0.00029916,-0.00013090,0.00032388,-0.00038616,-0.
 00000341,-0.00001901,0.04019277,-0.03419597,-0.08676996,-0.03896252,0.
 02147018,0.00521159,0.04039327,-0.00132821,-0.00973147,-0.06067750,0.0
 3447143,0.09150848\\-0.00000056,-0.00000006,-0.00000009,-0.00000023,-0
 .00000080,0.00000046,0.00000004,0.,0.00000158,0.00000029,-0.00000004,0
 .00000132,0.,-0.00000239,0.00000101,-0.00000004,-0.00000018,0.00000111
 ,0.00000072,0.00000049,0.00000070,0.00000012,-0.00000044,0.00000094,-0
 .00000100,-0.00000086,0.00000048,0.00000043,0.00000312,-0.00000009,0.0
 0000079,-0.00000052,0.00000087,0.00000023,-0.00000075,0.00000133,-0.00
 000004,0.00000021,0.00000109,0.00000052,-0.00000023,0.00000059,0.00000
 018,-0.00000056,0.00000046,-0.00000037,-0.00000023,0.00000037,-0.00000
 044,-0.00000096,-0.00000024,0.00000003,-0.00000087,0.00000036,0.000000
 05,-0.00000118,0.00000144,0.00000043,-0.00000016,0.00000157,-0.0000002
 3,0.00000034,0.00000102,0.00000036,0.00000034,0.00000095,0.00000030,0.
 00000044,0.00000152,-0.00000066,-0.00000013,0.00000042,-0.00000004,-0.
 00000023,0.00000015,0.00000007,-0.00000028,0.00000073,0.00000015,-0.00
 000007,0.00000014,-0.00000003,-0.00000072,-0.00000049,0.,-0.00000030,-
 0.00000052,-0.00000021,-0.00000019,-0.00000015,-0.00000053,-0.00000028
 ,-0.00000041,-0.00000038,0.00000005,-0.00000114,0.00000032,-0.00000047
 ,0.00000007,0.00000067,0.00000104,0.00000146,-0.00000062,0.00000032,-0
 .00000117,-0.00000014,-0.00000104,-0.00000112,0.00000056,0.00000015,-0
 .00000331,-0.00000032,-0.00000010,-0.00000093,0.00000025,0.00000013,-0
 .00000091,0.00000012,0.00000089,-0.00000136,-0.00000027,-0.00000037,-0
 .00000130,-0.00000017,-0.00000020,-0.00000017,-0.00000189,0.00000182,0
 .00000220,-0.00000020,-0.00000009,-0.00000002,-0.00000057,-0.00000036,
 -0.00000090,-0.00000042,0.00000016,-0.00000087,-0.00000068,-0.00000055
 ,-0.00000188,0.00000035,0.00000010,-0.00000125,0.00000022,0.00000051,-
 0.00000093,-0.00000043,-0.00000009,-0.00000045,0.00000009,0.00000104,-
 0.00000174,0.00000063,0.00000100,0.00000054,0.00000019,-0.00000062,0.0
 0000077,-0.00000003,0.00000065,-0.00000047,-0.00000007,0.00000049,0.00
 000087,-0.00000013,0.00000004,-0.00000010,0.00000046,0.00000014,0.0000
 0016,0.00000018,0.00000050,0.00000048,0.00000050,0.00000054,-0.0000002
 3,0.00000025,0.00000095,-0.00000027,-0.00000020,-0.00000005,-0.0000001
 0,-0.00000003,0.00000018,0.00000015,0.00000016,-0.00000075,-0.00000034
 ,-0.00000030,-0.00000043,-0.00000002,-0.00000048,-0.00000066,0.0000001
 5,-0.00000008,-0.00000016,0.00000013,-0.00000031,-0.00000065,-0.000001
 25,0.00000007,0.00000007,-0.00000077,0.,0.,-0.00000048,-0.00000043,-0.
 00000050,-0.00000066,0.00000036,-0.00000015,-0.00000187,-0.00000046,-0
 .00000037,-0.00000155,-0.00000087,-0.00000037,-0.00000177,-0.00000036,
 -0.00000045,-0.00000205,-0.00000056,0.00000063,-0.00000171,0.00000006,
 0.00000039,-0.00000096,0.00000043,0.00000046,0.00000009,0.00000001,0.0
 0000058,-0.00000091,-0.00000021,-0.00000068,0.00000160,-0.00000024,-0.
 00000108,0.00000144,0.00000003,-0.00000093,0.00000117,-0.00000005,-0.0
 0000052,0.00000157,-0.00000045,-0.00000166,0.00000059,0.00000206,0.000
 00022,0.00000024,0.00000001,0.00000049,0.00000079,0.00000047,0.0000008
 4,-0.00000037,-0.00000063,-0.00000044,-0.00000029,0.00000053,0.0000005
 3,-0.00000023,0.,0.00000189,-0.00000024,0.00000031,0.00000107,0.000000
 67,0.00000017,0.00000050,0.00000058,0.00000147,0.00000121,0.00000032,-
 0.00000038,0.00000031,-0.00000104,0.00000010,0.00000071,-0.00000067,-0
 .00000014,0.00000005,-0.00000020,0.00000038,0.00000053,-0.00000036,0.,
 0.00000027,0.00000050,0.00000020,-0.00000014,0.00000089,0.00000034,0.0
 0000003,0.00000109,0.00000023,-0.00000013,0.00000119\\\@


            ARSENIC

 FOR SMELTER FUMES HAVE I BEEN NAMED,
    I AM AN EVIL POISONOUS SMOKE...
 BUT WHEN FROM POISON I AM FREED,
    THROUGH ART AND SLEIGHT OF HAND,
 THEN CAN I CURE BOTH MAN AND BEAST,
    FROM DIRE DISEASE OFTTIMES DIRECT THEM;
 BUT PREPARE ME CORRECTLY, AND TAKE GREAT CARE
    THAT YOU FAITHFULLY KEEP WATCHFUL GUARD OVER ME;
 FOR ELSE I AM POISON, AND POISON REMAIN,
    THAT PIERCES THE HEART OF MANY A ONE.

 ATTRIBUTED TO THE PROBABLY MYTHICAL 15TH
 CENTURY MONK, BASILIUS VALENTINUS
 Job cpu time:       4 days  3 hours 38 minutes 36.8 seconds.
 Elapsed time:       0 days  3 hours 24 minutes 49.5 seconds.
 File lengths (MBytes):  RWF=   9796 Int=      0 D2E=      0 Chk=     86 Scr=      1
 Normal termination of Gaussian 16 at Thu Jun  6 13:43:48 2019.
