 Entering Gaussian System, Link 0=g16
 Input=clay_new-glu_gluC6-AAUR-Na2_1Me2O-bisCF3-ts-b3lyp_d3bj-631gd-pcm_thf.gjf
 Output=clay_new-glu_gluC6-AAUR-Na2_1Me2O-bisCF3-ts-b3lyp_d3bj-631gd-pcm_thf.out
 Initial command:
 /home/ekwan/sw/g16/l1.exe "/scratch/users/ekwan/clay_new-glu_gluC6-AAUR-Na2_1Me2O-bisCF3-ts-b3lyp_d3bj-631gd-pcm_thf/Gau-64263.inp" -scrdir="/scratch/users/ekwan/clay_new-glu_gluC6-AAUR-Na2_1Me2O-bisCF3-ts-b3lyp_d3bj-631gd-pcm_thf/"
 Entering Link 1 = /home/ekwan/sw/g16/l1.exe PID=     64264.
  
 Copyright (c) 1988,1990,1992,1993,1995,1998,2003,2009,2016,
            Gaussian, Inc.  All Rights Reserved.
  
 This is part of the Gaussian(R) 16 program.  It is based on
 the Gaussian(R) 09 system (copyright 2009, Gaussian, Inc.),
 the Gaussian(R) 03 system (copyright 2003, Gaussian, Inc.),
 the Gaussian(R) 98 system (copyright 1998, Gaussian, Inc.),
 the Gaussian(R) 94 system (copyright 1995, Gaussian, Inc.),
 the Gaussian 92(TM) system (copyright 1992, Gaussian, Inc.),
 the Gaussian 90(TM) system (copyright 1990, Gaussian, Inc.),
 the Gaussian 88(TM) system (copyright 1988, Gaussian, Inc.),
 the Gaussian 86(TM) system (copyright 1986, Carnegie Mellon
 University), and the Gaussian 82(TM) system (copyright 1983,
 Carnegie Mellon University). Gaussian is a federally registered
 trademark of Gaussian, Inc.
  
 This software contains proprietary and confidential information,
 including trade secrets, belonging to Gaussian, Inc.
  
 This software is provided under written license and may be
 used, copied, transmitted, or stored only in accord with that
 written license.
  
 The following legend is applicable only to US Government
 contracts under FAR:
  
                    RESTRICTED RIGHTS LEGEND
  
 Use, reproduction and disclosure by the US Government is
 subject to restrictions as set forth in subparagraphs (a)
 and (c) of the Commercial Computer Software - Restricted
 Rights clause in FAR 52.227-19.
  
 Gaussian, Inc.
 340 Quinnipiac St., Bldg. 40, Wallingford CT 06492
  
  
 ---------------------------------------------------------------
 Warning -- This program may not be used in any manner that
 competes with the business of Gaussian, Inc. or will provide
 assistance to any competitor of Gaussian, Inc.  The licensee
 of this program is prohibited from giving any competitor of
 Gaussian, Inc. access to this program.  By using this program,
 the user acknowledges that Gaussian, Inc. is engaged in the
 business of creating and licensing software in the field of
 computational chemistry and represents and warrants to the
 licensee that it is not a competitor of Gaussian, Inc. and that
 it will not use this program in any manner prohibited above.
 ---------------------------------------------------------------
  

 Cite this work as:
 Gaussian 16, Revision A.03,
 M. J. Frisch, G. W. Trucks, H. B. Schlegel, G. E. Scuseria, 
 M. A. Robb, J. R. Cheeseman, G. Scalmani, V. Barone, 
 G. A. Petersson, H. Nakatsuji, X. Li, M. Caricato, A. V. Marenich, 
 J. Bloino, B. G. Janesko, R. Gomperts, B. Mennucci, H. P. Hratchian, 
 J. V. Ortiz, A. F. Izmaylov, J. L. Sonnenberg, D. Williams-Young, 
 F. Ding, F. Lipparini, F. Egidi, J. Goings, B. Peng, A. Petrone, 
 T. Henderson, D. Ranasinghe, V. G. Zakrzewski, J. Gao, N. Rega, 
 G. Zheng, W. Liang, M. Hada, M. Ehara, K. Toyota, R. Fukuda, 
 J. Hasegawa, M. Ishida, T. Nakajima, Y. Honda, O. Kitao, H. Nakai, 
 T. Vreven, K. Throssell, J. A. Montgomery, Jr., J. E. Peralta, 
 F. Ogliaro, M. J. Bearpark, J. J. Heyd, E. N. Brothers, K. N. Kudin, 
 V. N. Staroverov, T. A. Keith, R. Kobayashi, J. Normand, 
 K. Raghavachari, A. P. Rendell, J. C. Burant, S. S. Iyengar, 
 J. Tomasi, M. Cossi, J. M. Millam, M. Klene, C. Adamo, R. Cammi, 
 J. W. Ochterski, R. L. Martin, K. Morokuma, O. Farkas, 
 J. B. Foresman, and D. J. Fox, Gaussian, Inc., Wallingford CT, 2016.
 
 ******************************************
 Gaussian 16:  AS64L-G16RevA.03 25-Dec-2016
                22-May-2019 
 ******************************************
 %mem=48GB
 %nprocshared=32
 Will use up to   32 processors via shared memory.
 ----------------------------------------------------------------------
 #p opt=(ts,noeigentest,calcfc,maxstep=3,modredundant,recalc=30) freq=n
 oraman b3lyp 6-31g* pop=none scrf=(solvent=tetrahydrofuran,pcm) empiri
 caldispersion=gd3bj
 ----------------------------------------------------------------------
 1/5=1,8=3,10=4,11=1,18=120,26=3,38=1,71=30/1,3;
 2/9=110,12=2,17=6,18=5,40=1/2;
 3/5=1,6=6,7=1,11=2,25=1,30=1,70=2201,71=2,72=20,74=-5,124=41,140=1/1,2,3;
 4//1;
 5/5=2,38=5,53=20/2;
 8/6=4,10=90,11=11/1;
 11/6=1,8=1,9=11,15=111,16=1/1,2,10;
 10/6=1,13=1/2;
 7/10=1,18=20,25=1/1,2,3,16;
 1/5=1,8=3,10=4,11=1,18=20,26=3,71=30/3(2);
 2/9=110/2;
 99//99;
 2/9=110/2;
 3/5=1,6=6,7=1,11=2,25=1,30=1,70=2205,71=1,72=20,74=-5,124=41/1,2,3;
 4/5=5,16=3,69=1/1;
 5/5=2,38=5,53=20/2;
 7//1,2,3,16;
 1/5=1,8=3,11=1,18=20,26=3,71=30/3(-5);
 2/9=110/2;
 99/9=1/99;
 Leave Link    1 at Wed May 22 18:08:57 2019, MaxMem=  6442450944 cpu:              37.7 elap:               1.4
 (Enter /home/ekwan/sw/g16/l101.exe)
 -----
 title
 -----
 Symbolic Z-matrix:
 Charge =  0 Multiplicity = 1
 C                    -4.15685   0.08453   1.127 
 C                    -3.91913  -1.42856   1.11479 
 C                    -4.4219   -2.05416  -0.19037 
 C                    -3.97402  -0.05022  -1.41519 
 C                    -3.56566   0.70812  -0.14209 
 H                    -4.15247  -3.11785  -0.25159 
 H                    -2.83476  -1.59692   1.14336 
 H                    -5.23683   0.27956   1.1689 
 H                    -5.04538   0.1313   -1.57794 
 H                    -2.47429   0.66639  -0.04278 
 O                    -3.7533   -1.46453  -1.28065 
 O                    -5.81803  -1.91343  -0.23795 
 O                    -4.52005  -1.97705   2.2777 
 O                    -3.50462   0.67762   2.24854 
 O                    -3.9942    2.04609  -0.39873 
 C                    -3.19325   0.40955  -2.65576 
 H                    -3.5065    1.45762  -2.8364 
 H                    -3.61802  -0.17641  -3.50204 
 O                    -1.83205   0.2658   -2.54961 
 C                    -4.26436  -3.35901   2.46847 
 H                    -4.8354   -3.98235   1.7678 
 H                    -3.19443  -3.5893    2.3575 
 H                    -4.57651  -3.6007    3.48723 
 C                    -4.314     0.83967   3.40246 
 H                    -5.20477   1.44819   3.18365 
 H                    -4.63341  -0.1238    3.80995 
 H                    -3.70138   1.36737   4.1387 
 C                    -3.99251   2.99756   0.65782 
 H                    -4.7524    2.77349   1.41489 
 H                    -3.01786   3.08765   1.14506 
 H                    -4.23858   3.95351   0.18624 
 C                    -0.01376   3.29418   0.3671 
 C                    -0.5881    2.78134  -0.95728 
 C                    -0.03397   1.43973  -1.34397 
 C                     0.7266    0.9405    0.86776 
 C                    -0.04053   2.15596   1.38884 
 H                    -0.09507   1.11861  -2.36186 
 H                    -1.66143   2.58853  -0.7971 
 H                     1.02385   3.61884   0.21239 
 H                     1.77786   1.20425   0.72501 
 H                    -1.07572   1.85954   1.59063 
 O                     0.25406   0.53144  -0.46389 
 O                     3.76969   1.23139  -3.42887 
 O                    -0.41866   3.7242   -1.98721 
 O                    -0.79672   4.34876   0.88927 
 O                     0.60991   2.54168   2.58675 
 C                     0.63824  -0.26341   1.77599 
 H                     1.15541   0.00051   2.70872 
 H                     1.15854  -1.11736   1.32647 
 O                    -0.71997  -0.55846   2.01522 
 S                     2.66201   0.81791  -2.55059 
 O                     1.68003  -0.11762  -3.17492 
 O                     1.99097   1.99673  -1.8764 
 C                     3.40328  -0.09779  -1.18995 
 C                     4.36617   0.55072  -0.41429 
 C                     3.00591  -1.39869  -0.90366 
 C                     4.93316  -0.11907   0.66605 
 H                     4.65977   1.56787  -0.6461 
 C                     3.59704  -2.06121   0.1776 
 H                     2.23601  -1.8813   -1.4943 
 C                     4.55343  -1.42917   0.96705 
 H                     4.9978   -1.94708   1.80803 
 C                    -1.42805   3.62998  -2.99793 
 H                    -1.49034   2.61375  -3.40239 
 H                    -2.40813   3.90728  -2.58748 
 H                    -1.14483   4.3335   -3.78286 
 C                    -0.39499   5.65205   0.47693 
 H                     0.64635   5.84911   0.76748 
 H                    -0.4959    5.77792  -0.60493 
 H                    -1.05091   6.35486   0.99566 
 C                    -0.28624   2.82976   3.65692 
 H                    -0.92775   3.68292   3.41286 
 H                    -0.91253   1.95801   3.88917 
 H                     0.33333   3.0717    4.52362 
 C                    -0.91212  -1.45055   3.09987 
 H                    -1.9889   -1.52713   3.25384 
 H                    -0.49191  -2.44371   2.88366 
 H                    -0.44209  -1.06228   4.01509 
 C                    -6.40989  -2.56507  -1.35606 
 H                    -7.49123  -2.46421  -1.24364 
 H                    -6.09542  -2.10756  -2.3009 
 H                    -6.14412  -3.63202  -1.37314 
 Na                   -0.37071  -1.22406  -3.12393 
 O                     0.08308  -2.98498  -1.69838 
 C                    -0.70666  -2.96938  -0.50852 
 H                    -0.24684  -3.60071   0.25963 
 H                    -0.74979  -1.93809  -0.16007 
 H                    -1.72359  -3.3228   -0.718 
 C                     0.22091  -4.29817  -2.23279 
 H                    -0.75842  -4.71126  -2.51118 
 H                     0.85193  -4.22039  -3.12098 
 H                     0.70082  -4.96225  -1.50532 
 C                     6.00437   0.5457    1.48798 
 F                     7.24081   0.21385   1.05171 
 F                     5.93423   0.1763    2.78599 
 F                     5.91311   1.89054   1.43975 
 C                     3.14369  -3.4516    0.5259 
 F                     4.05069  -4.11235   1.27122 
 F                     2.90316  -4.19166  -0.57766 
 F                     1.9869   -3.43553   1.24311 
 
 Add virtual bond connecting atoms H37        and O19        Dist= 3.67D+00.
 Add virtual bond connecting atoms O52        and H37        Dist= 4.37D+00.
 Add virtual bond connecting atoms O53        and C34        Dist= 4.09D+00.
 Add virtual bond connecting atoms O53        and H37        Dist= 4.37D+00.
 Add virtual bond connecting atoms O84        and H60        Dist= 4.59D+00.
 Add virtual bond connecting atoms O84        and Na83       Dist= 4.37D+00.
 Add virtual bond connecting atoms H86        and F100       Dist= 4.62D+00.
 The following ModRedundant input section has been read:
 
 ITRead=  0  0  0  0  0  0  0  0  0  0  0  0  0  0  0  0  0  0  0  0
 ITRead=  0  0  0  0  0  0  0  0  0  0  0  0  0  0  0  0  0  0  0  0
 ITRead=  0  0  0  0  0  0  0  0  0  0  0  0  0  0  0  0  0  0  0  0
 ITRead=  0  0  0  0  0  0  0  0  0  0  0  0  0  0  0  0  0  0  0  0
 ITRead=  0  0  0  0  0  0  0  0  0  0  0  0  0  0  0  0  0  0  0  0
 MicOpt= -1 -1 -1 -1 -1 -1 -1 -1 -1 -1 -1 -1 -1 -1 -1 -1 -1 -1 -1 -1
 MicOpt= -1 -1 -1 -1 -1 -1 -1 -1 -1 -1 -1 -1 -1 -1 -1 -1 -1 -1 -1 -1
 MicOpt= -1 -1 -1 -1 -1 -1 -1 -1 -1 -1 -1 -1 -1 -1 -1 -1 -1 -1 -1 -1
 MicOpt= -1 -1 -1 -1 -1 -1 -1 -1 -1 -1 -1 -1 -1 -1 -1 -1 -1 -1 -1 -1
 MicOpt= -1 -1 -1 -1 -1 -1 -1 -1 -1 -1 -1 -1 -1 -1 -1 -1 -1 -1 -1 -1
 NAtoms=    100 NQM=      100 NQMF=       0 NMMI=      0 NMMIF=      0
                NMic=       0 NMicF=      0.
                    Isotopes and Nuclear Properties:
 (Nuclear quadrupole moments (NQMom) in fm**2, nuclear magnetic moments (NMagM)
  in nuclear magnetons)

  Atom         1           2           3           4           5           6           7           8           9          10
 IAtWgt=          12          12          12          12          12           1           1           1           1           1
 AtmWgt=  12.0000000  12.0000000  12.0000000  12.0000000  12.0000000   1.0078250   1.0078250   1.0078250   1.0078250   1.0078250
 NucSpn=           0           0           0           0           0           1           1           1           1           1
 AtZEff=   0.0000000   0.0000000   0.0000000   0.0000000   0.0000000   0.0000000   0.0000000   0.0000000   0.0000000   0.0000000
 NQMom=    0.0000000   0.0000000   0.0000000   0.0000000   0.0000000   0.0000000   0.0000000   0.0000000   0.0000000   0.0000000
 NMagM=    0.0000000   0.0000000   0.0000000   0.0000000   0.0000000   2.7928460   2.7928460   2.7928460   2.7928460   2.7928460
 AtZNuc=   6.0000000   6.0000000   6.0000000   6.0000000   6.0000000   1.0000000   1.0000000   1.0000000   1.0000000   1.0000000

  Atom        11          12          13          14          15          16          17          18          19          20
 IAtWgt=          16          16          16          16          16          12           1           1          16          12
 AtmWgt=  15.9949146  15.9949146  15.9949146  15.9949146  15.9949146  12.0000000   1.0078250   1.0078250  15.9949146  12.0000000
 NucSpn=           0           0           0           0           0           0           1           1           0           0
 AtZEff=   0.0000000   0.0000000   0.0000000   0.0000000   0.0000000   0.0000000   0.0000000   0.0000000   0.0000000   0.0000000
 NQMom=    0.0000000   0.0000000   0.0000000   0.0000000   0.0000000   0.0000000   0.0000000   0.0000000   0.0000000   0.0000000
 NMagM=    0.0000000   0.0000000   0.0000000   0.0000000   0.0000000   0.0000000   2.7928460   2.7928460   0.0000000   0.0000000
 AtZNuc=   8.0000000   8.0000000   8.0000000   8.0000000   8.0000000   6.0000000   1.0000000   1.0000000   8.0000000   6.0000000

  Atom        21          22          23          24          25          26          27          28          29          30
 IAtWgt=           1           1           1          12           1           1           1          12           1           1
 AtmWgt=   1.0078250   1.0078250   1.0078250  12.0000000   1.0078250   1.0078250   1.0078250  12.0000000   1.0078250   1.0078250
 NucSpn=           1           1           1           0           1           1           1           0           1           1
 AtZEff=   0.0000000   0.0000000   0.0000000   0.0000000   0.0000000   0.0000000   0.0000000   0.0000000   0.0000000   0.0000000
 NQMom=    0.0000000   0.0000000   0.0000000   0.0000000   0.0000000   0.0000000   0.0000000   0.0000000   0.0000000   0.0000000
 NMagM=    2.7928460   2.7928460   2.7928460   0.0000000   2.7928460   2.7928460   2.7928460   0.0000000   2.7928460   2.7928460
 AtZNuc=   1.0000000   1.0000000   1.0000000   6.0000000   1.0000000   1.0000000   1.0000000   6.0000000   1.0000000   1.0000000

  Atom        31          32          33          34          35          36          37          38          39          40
 IAtWgt=           1          12          12          12          12          12           1           1           1           1
 AtmWgt=   1.0078250  12.0000000  12.0000000  12.0000000  12.0000000  12.0000000   1.0078250   1.0078250   1.0078250   1.0078250
 NucSpn=           1           0           0           0           0           0           1           1           1           1
 AtZEff=   0.0000000   0.0000000   0.0000000   0.0000000   0.0000000   0.0000000   0.0000000   0.0000000   0.0000000   0.0000000
 NQMom=    0.0000000   0.0000000   0.0000000   0.0000000   0.0000000   0.0000000   0.0000000   0.0000000   0.0000000   0.0000000
 NMagM=    2.7928460   0.0000000   0.0000000   0.0000000   0.0000000   0.0000000   2.7928460   2.7928460   2.7928460   2.7928460
 AtZNuc=   1.0000000   6.0000000   6.0000000   6.0000000   6.0000000   6.0000000   1.0000000   1.0000000   1.0000000   1.0000000

  Atom        41          42          43          44          45          46          47          48          49          50
 IAtWgt=           1          16          16          16          16          16          12           1           1          16
 AtmWgt=   1.0078250  15.9949146  15.9949146  15.9949146  15.9949146  15.9949146  12.0000000   1.0078250   1.0078250  15.9949146
 NucSpn=           1           0           0           0           0           0           0           1           1           0
 AtZEff=   0.0000000   0.0000000   0.0000000   0.0000000   0.0000000   0.0000000   0.0000000   0.0000000   0.0000000   0.0000000
 NQMom=    0.0000000   0.0000000   0.0000000   0.0000000   0.0000000   0.0000000   0.0000000   0.0000000   0.0000000   0.0000000
 NMagM=    2.7928460   0.0000000   0.0000000   0.0000000   0.0000000   0.0000000   0.0000000   2.7928460   2.7928460   0.0000000
 AtZNuc=   1.0000000   8.0000000   8.0000000   8.0000000   8.0000000   8.0000000   6.0000000   1.0000000   1.0000000   8.0000000

  Atom        51          52          53          54          55          56          57          58          59          60
 IAtWgt=          32          16          16          12          12          12          12           1          12           1
 AtmWgt=  31.9720718  15.9949146  15.9949146  12.0000000  12.0000000  12.0000000  12.0000000   1.0078250  12.0000000   1.0078250
 NucSpn=           0           0           0           0           0           0           0           1           0           1
 AtZEff=   0.0000000   0.0000000   0.0000000   0.0000000   0.0000000   0.0000000   0.0000000   0.0000000   0.0000000   0.0000000
 NQMom=    0.0000000   0.0000000   0.0000000   0.0000000   0.0000000   0.0000000   0.0000000   0.0000000   0.0000000   0.0000000
 NMagM=    0.0000000   0.0000000   0.0000000   0.0000000   0.0000000   0.0000000   0.0000000   2.7928460   0.0000000   2.7928460
 AtZNuc=  16.0000000   8.0000000   8.0000000   6.0000000   6.0000000   6.0000000   6.0000000   1.0000000   6.0000000   1.0000000

  Atom        61          62          63          64          65          66          67          68          69          70
 IAtWgt=          12           1          12           1           1           1          12           1           1           1
 AtmWgt=  12.0000000   1.0078250  12.0000000   1.0078250   1.0078250   1.0078250  12.0000000   1.0078250   1.0078250   1.0078250
 NucSpn=           0           1           0           1           1           1           0           1           1           1
 AtZEff=   0.0000000   0.0000000   0.0000000   0.0000000   0.0000000   0.0000000   0.0000000   0.0000000   0.0000000   0.0000000
 NQMom=    0.0000000   0.0000000   0.0000000   0.0000000   0.0000000   0.0000000   0.0000000   0.0000000   0.0000000   0.0000000
 NMagM=    0.0000000   2.7928460   0.0000000   2.7928460   2.7928460   2.7928460   0.0000000   2.7928460   2.7928460   2.7928460
 AtZNuc=   6.0000000   1.0000000   6.0000000   1.0000000   1.0000000   1.0000000   6.0000000   1.0000000   1.0000000   1.0000000

  Atom        71          72          73          74          75          76          77          78          79          80
 IAtWgt=          12           1           1           1          12           1           1           1          12           1
 AtmWgt=  12.0000000   1.0078250   1.0078250   1.0078250  12.0000000   1.0078250   1.0078250   1.0078250  12.0000000   1.0078250
 NucSpn=           0           1           1           1           0           1           1           1           0           1
 AtZEff=   0.0000000   0.0000000   0.0000000   0.0000000   0.0000000   0.0000000   0.0000000   0.0000000   0.0000000   0.0000000
 NQMom=    0.0000000   0.0000000   0.0000000   0.0000000   0.0000000   0.0000000   0.0000000   0.0000000   0.0000000   0.0000000
 NMagM=    0.0000000   2.7928460   2.7928460   2.7928460   0.0000000   2.7928460   2.7928460   2.7928460   0.0000000   2.7928460
 AtZNuc=   6.0000000   1.0000000   1.0000000   1.0000000   6.0000000   1.0000000   1.0000000   1.0000000   6.0000000   1.0000000

  Atom        81          82          83          84          85          86          87          88          89          90
 IAtWgt=           1           1          23          16          12           1           1           1          12           1
 AtmWgt=   1.0078250   1.0078250  22.9897697  15.9949146  12.0000000   1.0078250   1.0078250   1.0078250  12.0000000   1.0078250
 NucSpn=           1           1           3           0           0           1           1           1           0           1
 AtZEff=   0.0000000   0.0000000   0.0000000   0.0000000   0.0000000   0.0000000   0.0000000   0.0000000   0.0000000   0.0000000
 NQMom=    0.0000000   0.0000000  10.4000000   0.0000000   0.0000000   0.0000000   0.0000000   0.0000000   0.0000000   0.0000000
 NMagM=    2.7928460   2.7928460   2.2175200   0.0000000   0.0000000   2.7928460   2.7928460   2.7928460   0.0000000   2.7928460
 AtZNuc=   1.0000000   1.0000000  11.0000000   8.0000000   6.0000000   1.0000000   1.0000000   1.0000000   6.0000000   1.0000000

  Atom        91          92          93          94          95          96          97          98          99         100
 IAtWgt=           1           1          12          19          19          19          12          19          19          19
 AtmWgt=   1.0078250   1.0078250  12.0000000  18.9984033  18.9984033  18.9984033  12.0000000  18.9984033  18.9984033  18.9984033
 NucSpn=           1           1           0           1           1           1           0           1           1           1
 AtZEff=   0.0000000   0.0000000   0.0000000   0.0000000   0.0000000   0.0000000   0.0000000   0.0000000   0.0000000   0.0000000
 NQMom=    0.0000000   0.0000000   0.0000000   0.0000000   0.0000000   0.0000000   0.0000000   0.0000000   0.0000000   0.0000000
 NMagM=    2.7928460   2.7928460   0.0000000   2.6288670   2.6288670   2.6288670   0.0000000   2.6288670   2.6288670   2.6288670
 AtZNuc=   1.0000000   1.0000000   6.0000000   9.0000000   9.0000000   9.0000000   6.0000000   9.0000000   9.0000000   9.0000000
 Leave Link  101 at Wed May 22 18:08:59 2019, MaxMem=  6442450944 cpu:              18.3 elap:               1.7
 (Enter /home/ekwan/sw/g16/l103.exe)

 GradGradGradGradGradGradGradGradGradGradGradGradGradGradGradGradGradGrad
 Berny optimization.
 Initialization pass.
                           ----------------------------
                           !    Initial Parameters    !
                           ! (Angstroms and Degrees)  !
 --------------------------                            --------------------------
 ! Name  Definition              Value          Derivative Info.                !
 --------------------------------------------------------------------------------
 ! R1    R(1,2)                  1.5317         calculate D2E/DX2 analytically  !
 ! R2    R(1,5)                  1.5326         calculate D2E/DX2 analytically  !
 ! R3    R(1,8)                  1.0982         calculate D2E/DX2 analytically  !
 ! R4    R(1,14)                 1.4265         calculate D2E/DX2 analytically  !
 ! R5    R(2,3)                  1.5322         calculate D2E/DX2 analytically  !
 ! R6    R(2,7)                  1.0977         calculate D2E/DX2 analytically  !
 ! R7    R(2,13)                 1.4193         calculate D2E/DX2 analytically  !
 ! R8    R(3,6)                  1.099          calculate D2E/DX2 analytically  !
 ! R9    R(3,11)                 1.4083         calculate D2E/DX2 analytically  !
 ! R10   R(3,12)                 1.404          calculate D2E/DX2 analytically  !
 ! R11   R(4,5)                  1.5371         calculate D2E/DX2 analytically  !
 ! R12   R(4,9)                  1.0987         calculate D2E/DX2 analytically  !
 ! R13   R(4,11)                 1.4377         calculate D2E/DX2 analytically  !
 ! R14   R(4,16)                 1.5362         calculate D2E/DX2 analytically  !
 ! R15   R(5,10)                 1.0967         calculate D2E/DX2 analytically  !
 ! R16   R(5,15)                 1.4282         calculate D2E/DX2 analytically  !
 ! R17   R(12,79)                1.4231         calculate D2E/DX2 analytically  !
 ! R18   R(13,20)                1.4183         calculate D2E/DX2 analytically  !
 ! R19   R(14,24)                1.4188         calculate D2E/DX2 analytically  !
 ! R20   R(15,28)                1.4218         calculate D2E/DX2 analytically  !
 ! R21   R(16,17)                1.1087         calculate D2E/DX2 analytically  !
 ! R22   R(16,18)                1.1135         calculate D2E/DX2 analytically  !
 ! R23   R(16,19)                1.3729         calculate D2E/DX2 analytically  !
 ! R24   R(19,37)                1.9441         calculate D2E/DX2 analytically  !
 ! R25   R(19,83)                2.1645         calculate D2E/DX2 analytically  !
 ! R26   R(20,21)                1.098          calculate D2E/DX2 analytically  !
 ! R27   R(20,22)                1.1            calculate D2E/DX2 analytically  !
 ! R28   R(20,23)                1.0926         calculate D2E/DX2 analytically  !
 ! R29   R(24,25)                1.1007         calculate D2E/DX2 analytically  !
 ! R30   R(24,26)                1.0938         calculate D2E/DX2 analytically  !
 ! R31   R(24,27)                1.0935         calculate D2E/DX2 analytically  !
 ! R32   R(28,29)                1.0958         calculate D2E/DX2 analytically  !
 ! R33   R(28,30)                1.0934         calculate D2E/DX2 analytically  !
 ! R34   R(28,31)                1.094          calculate D2E/DX2 analytically  !
 ! R35   R(32,33)                1.5319         calculate D2E/DX2 analytically  !
 ! R36   R(32,36)                1.5298         calculate D2E/DX2 analytically  !
 ! R37   R(32,39)                1.0982         calculate D2E/DX2 analytically  !
 ! R38   R(32,45)                1.4134         calculate D2E/DX2 analytically  !
 ! R39   R(33,34)                1.5022         calculate D2E/DX2 analytically  !
 ! R40   R(33,38)                1.1022         calculate D2E/DX2 analytically  !
 ! R41   R(33,44)                1.4066         calculate D2E/DX2 analytically  !
 ! R42   R(34,37)                1.0691         calculate D2E/DX2 analytically  !
 ! R43   R(34,42)                1.2971         calculate D2E/DX2 analytically  !
 ! R44   R(34,53)                2.1666         calculate D2E/DX2 analytically  !
 ! R45   R(35,36)                1.5288         calculate D2E/DX2 analytically  !
 ! R46   R(35,40)                1.0932         calculate D2E/DX2 analytically  !
 ! R47   R(35,42)                1.471          calculate D2E/DX2 analytically  !
 ! R48   R(35,47)                1.5107         calculate D2E/DX2 analytically  !
 ! R49   R(36,41)                1.0955         calculate D2E/DX2 analytically  !
 ! R50   R(36,46)                1.4166         calculate D2E/DX2 analytically  !
 ! R51   R(37,52)                2.3109         calculate D2E/DX2 analytically  !
 ! R52   R(37,53)                2.3148         calculate D2E/DX2 analytically  !
 ! R53   R(43,51)                1.4729         calculate D2E/DX2 analytically  !
 ! R54   R(44,63)                1.4315         calculate D2E/DX2 analytically  !
 ! R55   R(45,67)                1.4248         calculate D2E/DX2 analytically  !
 ! R56   R(46,71)                1.4252         calculate D2E/DX2 analytically  !
 ! R57   R(47,48)                1.0987         calculate D2E/DX2 analytically  !
 ! R58   R(47,49)                1.0964         calculate D2E/DX2 analytically  !
 ! R59   R(47,50)                1.4103         calculate D2E/DX2 analytically  !
 ! R60   R(50,75)                1.4175         calculate D2E/DX2 analytically  !
 ! R61   R(51,52)                1.4931         calculate D2E/DX2 analytically  !
 ! R62   R(51,53)                1.5148         calculate D2E/DX2 analytically  !
 ! R63   R(51,54)                1.7998         calculate D2E/DX2 analytically  !
 ! R64   R(54,55)                1.3962         calculate D2E/DX2 analytically  !
 ! R65   R(54,56)                1.39           calculate D2E/DX2 analytically  !
 ! R66   R(55,57)                1.3918         calculate D2E/DX2 analytically  !
 ! R67   R(55,58)                1.0838         calculate D2E/DX2 analytically  !
 ! R68   R(56,59)                1.3991         calculate D2E/DX2 analytically  !
 ! R69   R(56,60)                1.0837         calculate D2E/DX2 analytically  !
 ! R70   R(57,61)                1.3968         calculate D2E/DX2 analytically  !
 ! R71   R(57,93)                1.505          calculate D2E/DX2 analytically  !
 ! R72   R(59,61)                1.3919         calculate D2E/DX2 analytically  !
 ! R73   R(59,97)                1.5033         calculate D2E/DX2 analytically  !
 ! R74   R(60,84)                2.4279         calculate D2E/DX2 analytically  !
 ! R75   R(61,62)                1.083          calculate D2E/DX2 analytically  !
 ! R76   R(63,64)                1.0955         calculate D2E/DX2 analytically  !
 ! R77   R(63,65)                1.0981         calculate D2E/DX2 analytically  !
 ! R78   R(63,66)                1.0915         calculate D2E/DX2 analytically  !
 ! R79   R(67,68)                1.0989         calculate D2E/DX2 analytically  !
 ! R80   R(67,69)                1.0938         calculate D2E/DX2 analytically  !
 ! R81   R(67,70)                1.0924         calculate D2E/DX2 analytically  !
 ! R82   R(71,72)                1.095          calculate D2E/DX2 analytically  !
 ! R83   R(71,73)                1.0982         calculate D2E/DX2 analytically  !
 ! R84   R(71,74)                1.0925         calculate D2E/DX2 analytically  !
 ! R85   R(75,76)                1.0904         calculate D2E/DX2 analytically  !
 ! R86   R(75,77)                1.0999         calculate D2E/DX2 analytically  !
 ! R87   R(75,78)                1.0997         calculate D2E/DX2 analytically  !
 ! R88   R(79,80)                1.0918         calculate D2E/DX2 analytically  !
 ! R89   R(79,81)                1.0959         calculate D2E/DX2 analytically  !
 ! R90   R(79,82)                1.0997         calculate D2E/DX2 analytically  !
 ! R91   R(83,84)                2.3106         calculate D2E/DX2 analytically  !
 ! R92   R(84,85)                1.4282         calculate D2E/DX2 analytically  !
 ! R93   R(84,89)                1.4245         calculate D2E/DX2 analytically  !
 ! R94   R(85,86)                1.0955         calculate D2E/DX2 analytically  !
 ! R95   R(85,87)                1.0894         calculate D2E/DX2 analytically  !
 ! R96   R(85,88)                1.0968         calculate D2E/DX2 analytically  !
 ! R97   R(86,100)               2.4462         calculate D2E/DX2 analytically  !
 ! R98   R(89,90)                1.0987         calculate D2E/DX2 analytically  !
 ! R99   R(89,91)                1.0923         calculate D2E/DX2 analytically  !
 ! R100  R(89,92)                1.0957         calculate D2E/DX2 analytically  !
 ! R101  R(93,94)                1.3525         calculate D2E/DX2 analytically  !
 ! R102  R(93,95)                1.3514         calculate D2E/DX2 analytically  !
 ! R103  R(93,96)                1.3488         calculate D2E/DX2 analytically  !
 ! R104  R(97,98)                1.3471         calculate D2E/DX2 analytically  !
 ! R105  R(97,99)                1.3503         calculate D2E/DX2 analytically  !
 ! R106  R(97,100)               1.3612         calculate D2E/DX2 analytically  !
 ! A1    A(2,1,5)              109.6009         calculate D2E/DX2 analytically  !
 ! A2    A(2,1,8)              109.169          calculate D2E/DX2 analytically  !
 ! A3    A(2,1,14)             110.2432         calculate D2E/DX2 analytically  !
 ! A4    A(5,1,8)              109.7951         calculate D2E/DX2 analytically  !
 ! A5    A(5,1,14)             107.7874         calculate D2E/DX2 analytically  !
 ! A6    A(8,1,14)             110.2293         calculate D2E/DX2 analytically  !
 ! A7    A(1,2,3)              111.0513         calculate D2E/DX2 analytically  !
 ! A8    A(1,2,7)              107.7354         calculate D2E/DX2 analytically  !
 ! A9    A(1,2,13)             108.0305         calculate D2E/DX2 analytically  !
 ! A10   A(3,2,7)              106.4806         calculate D2E/DX2 analytically  !
 ! A11   A(3,2,13)             113.6554         calculate D2E/DX2 analytically  !
 ! A12   A(7,2,13)             109.7338         calculate D2E/DX2 analytically  !
 ! A13   A(2,3,6)              111.2348         calculate D2E/DX2 analytically  !
 ! A14   A(2,3,11)             109.4344         calculate D2E/DX2 analytically  !
 ! A15   A(2,3,12)             108.3148         calculate D2E/DX2 analytically  !
 ! A16   A(6,3,11)             104.2237         calculate D2E/DX2 analytically  !
 ! A17   A(6,3,12)             109.8107         calculate D2E/DX2 analytically  !
 ! A18   A(11,3,12)            113.8212         calculate D2E/DX2 analytically  !
 ! A19   A(5,4,9)              107.4715         calculate D2E/DX2 analytically  !
 ! A20   A(5,4,11)             111.5327         calculate D2E/DX2 analytically  !
 ! A21   A(5,4,16)             112.7164         calculate D2E/DX2 analytically  !
 ! A22   A(9,4,11)             109.03           calculate D2E/DX2 analytically  !
 ! A23   A(9,4,16)             109.0573         calculate D2E/DX2 analytically  !
 ! A24   A(11,4,16)            106.9746         calculate D2E/DX2 analytically  !
 ! A25   A(1,5,4)              112.496          calculate D2E/DX2 analytically  !
 ! A26   A(1,5,10)             107.0619         calculate D2E/DX2 analytically  !
 ! A27   A(1,5,15)             114.4708         calculate D2E/DX2 analytically  !
 ! A28   A(4,5,10)             108.7006         calculate D2E/DX2 analytically  !
 ! A29   A(4,5,15)             103.5123         calculate D2E/DX2 analytically  !
 ! A30   A(10,5,15)            110.5194         calculate D2E/DX2 analytically  !
 ! A31   A(3,11,4)             114.2934         calculate D2E/DX2 analytically  !
 ! A32   A(3,12,79)            113.2222         calculate D2E/DX2 analytically  !
 ! A33   A(2,13,20)            114.2325         calculate D2E/DX2 analytically  !
 ! A34   A(1,14,24)            115.2201         calculate D2E/DX2 analytically  !
 ! A35   A(5,15,28)            119.5405         calculate D2E/DX2 analytically  !
 ! A36   A(4,16,17)            105.7172         calculate D2E/DX2 analytically  !
 ! A37   A(4,16,18)            105.2106         calculate D2E/DX2 analytically  !
 ! A38   A(4,16,19)            114.2138         calculate D2E/DX2 analytically  !
 ! A39   A(17,16,18)           105.4165         calculate D2E/DX2 analytically  !
 ! A40   A(17,16,19)           113.0613         calculate D2E/DX2 analytically  !
 ! A41   A(18,16,19)           112.45           calculate D2E/DX2 analytically  !
 ! A42   A(16,19,37)           147.9281         calculate D2E/DX2 analytically  !
 ! A43   A(16,19,83)           136.133          calculate D2E/DX2 analytically  !
 ! A44   A(37,19,83)            74.0001         calculate D2E/DX2 analytically  !
 ! A45   A(13,20,21)           111.9358         calculate D2E/DX2 analytically  !
 ! A46   A(13,20,22)           111.4541         calculate D2E/DX2 analytically  !
 ! A47   A(13,20,23)           106.8251         calculate D2E/DX2 analytically  !
 ! A48   A(21,20,22)           108.8214         calculate D2E/DX2 analytically  !
 ! A49   A(21,20,23)           108.7147         calculate D2E/DX2 analytically  !
 ! A50   A(22,20,23)           109.0044         calculate D2E/DX2 analytically  !
 ! A51   A(14,24,25)           111.2919         calculate D2E/DX2 analytically  !
 ! A52   A(14,24,26)           111.6536         calculate D2E/DX2 analytically  !
 ! A53   A(14,24,27)           106.4458         calculate D2E/DX2 analytically  !
 ! A54   A(25,24,26)           108.9476         calculate D2E/DX2 analytically  !
 ! A55   A(25,24,27)           108.6877         calculate D2E/DX2 analytically  !
 ! A56   A(26,24,27)           109.746          calculate D2E/DX2 analytically  !
 ! A57   A(15,28,29)           112.069          calculate D2E/DX2 analytically  !
 ! A58   A(15,28,30)           112.7896         calculate D2E/DX2 analytically  !
 ! A59   A(15,28,31)           105.3174         calculate D2E/DX2 analytically  !
 ! A60   A(29,28,30)           109.094          calculate D2E/DX2 analytically  !
 ! A61   A(29,28,31)           108.6944         calculate D2E/DX2 analytically  !
 ! A62   A(30,28,31)           108.6998         calculate D2E/DX2 analytically  !
 ! A63   A(33,32,36)           108.7701         calculate D2E/DX2 analytically  !
 ! A64   A(33,32,39)           109.3549         calculate D2E/DX2 analytically  !
 ! A65   A(33,32,45)           111.1908         calculate D2E/DX2 analytically  !
 ! A66   A(36,32,39)           109.3047         calculate D2E/DX2 analytically  !
 ! A67   A(36,32,45)           107.3792         calculate D2E/DX2 analytically  !
 ! A68   A(39,32,45)           110.7843         calculate D2E/DX2 analytically  !
 ! A69   A(32,33,34)           112.5339         calculate D2E/DX2 analytically  !
 ! A70   A(32,33,38)           107.3381         calculate D2E/DX2 analytically  !
 ! A71   A(32,33,44)           111.3126         calculate D2E/DX2 analytically  !
 ! A72   A(34,33,38)           103.9101         calculate D2E/DX2 analytically  !
 ! A73   A(34,33,44)           111.4532         calculate D2E/DX2 analytically  !
 ! A74   A(38,33,44)           109.9366         calculate D2E/DX2 analytically  !
 ! A75   A(33,34,37)           119.49           calculate D2E/DX2 analytically  !
 ! A76   A(33,34,42)           122.1845         calculate D2E/DX2 analytically  !
 ! A77   A(33,34,53)           100.2776         calculate D2E/DX2 analytically  !
 ! A78   A(37,34,42)           116.6391         calculate D2E/DX2 analytically  !
 ! A79   A(42,34,53)            98.0026         calculate D2E/DX2 analytically  !
 ! A80   A(36,35,40)           109.5855         calculate D2E/DX2 analytically  !
 ! A81   A(36,35,42)           111.6191         calculate D2E/DX2 analytically  !
 ! A82   A(36,35,47)           113.5358         calculate D2E/DX2 analytically  !
 ! A83   A(40,35,42)           104.9391         calculate D2E/DX2 analytically  !
 ! A84   A(40,35,47)           109.0883         calculate D2E/DX2 analytically  !
 ! A85   A(42,35,47)           107.6892         calculate D2E/DX2 analytically  !
 ! A86   A(32,36,35)           110.7997         calculate D2E/DX2 analytically  !
 ! A87   A(32,36,41)           109.9301         calculate D2E/DX2 analytically  !
 ! A88   A(32,36,46)           110.7421         calculate D2E/DX2 analytically  !
 ! A89   A(35,36,41)           108.7718         calculate D2E/DX2 analytically  !
 ! A90   A(35,36,46)           105.9201         calculate D2E/DX2 analytically  !
 ! A91   A(41,36,46)           110.5957         calculate D2E/DX2 analytically  !
 ! A92   A(19,37,34)           105.9484         calculate D2E/DX2 analytically  !
 ! A93   A(19,37,52)           114.6862         calculate D2E/DX2 analytically  !
 ! A94   A(34,37,52)           116.8569         calculate D2E/DX2 analytically  !
 ! A95   A(52,37,53)            65.449          calculate D2E/DX2 analytically  !
 ! A96   A(34,42,35)           119.3947         calculate D2E/DX2 analytically  !
 ! A97   A(33,44,63)           112.8249         calculate D2E/DX2 analytically  !
 ! A98   A(32,45,67)           114.7959         calculate D2E/DX2 analytically  !
 ! A99   A(36,46,71)           113.658          calculate D2E/DX2 analytically  !
 ! A100  A(35,47,48)           106.9441         calculate D2E/DX2 analytically  !
 ! A101  A(35,47,49)           110.2722         calculate D2E/DX2 analytically  !
 ! A102  A(35,47,50)           108.9678         calculate D2E/DX2 analytically  !
 ! A103  A(48,47,49)           108.1674         calculate D2E/DX2 analytically  !
 ! A104  A(48,47,50)           111.0735         calculate D2E/DX2 analytically  !
 ! A105  A(49,47,50)           111.3229         calculate D2E/DX2 analytically  !
 ! A106  A(47,50,75)           113.08           calculate D2E/DX2 analytically  !
 ! A107  A(43,51,52)           114.9093         calculate D2E/DX2 analytically  !
 ! A108  A(43,51,53)           112.3397         calculate D2E/DX2 analytically  !
 ! A109  A(43,51,54)           106.4926         calculate D2E/DX2 analytically  !
 ! A110  A(52,51,53)           112.4808         calculate D2E/DX2 analytically  !
 ! A111  A(52,51,54)           105.5576         calculate D2E/DX2 analytically  !
 ! A112  A(53,51,54)           103.9998         calculate D2E/DX2 analytically  !
 ! A113  A(37,52,51)            91.3114         calculate D2E/DX2 analytically  !
 ! A114  A(34,53,51)           108.8652         calculate D2E/DX2 analytically  !
 ! A115  A(37,53,51)            90.6107         calculate D2E/DX2 analytically  !
 ! A116  A(51,54,55)           117.8865         calculate D2E/DX2 analytically  !
 ! A117  A(51,54,56)           120.9379         calculate D2E/DX2 analytically  !
 ! A118  A(55,54,56)           121.1595         calculate D2E/DX2 analytically  !
 ! A119  A(54,55,57)           119.2514         calculate D2E/DX2 analytically  !
 ! A120  A(54,55,58)           120.2604         calculate D2E/DX2 analytically  !
 ! A121  A(57,55,58)           120.4851         calculate D2E/DX2 analytically  !
 ! A122  A(54,56,59)           118.7867         calculate D2E/DX2 analytically  !
 ! A123  A(54,56,60)           120.5037         calculate D2E/DX2 analytically  !
 ! A124  A(59,56,60)           120.6951         calculate D2E/DX2 analytically  !
 ! A125  A(55,57,61)           120.5209         calculate D2E/DX2 analytically  !
 ! A126  A(55,57,93)           120.0861         calculate D2E/DX2 analytically  !
 ! A127  A(61,57,93)           119.3471         calculate D2E/DX2 analytically  !
 ! A128  A(56,59,61)           120.9048         calculate D2E/DX2 analytically  !
 ! A129  A(56,59,97)           119.3137         calculate D2E/DX2 analytically  !
 ! A130  A(61,59,97)           119.7206         calculate D2E/DX2 analytically  !
 ! A131  A(56,60,84)           151.4232         calculate D2E/DX2 analytically  !
 ! A132  A(57,61,59)           119.3712         calculate D2E/DX2 analytically  !
 ! A133  A(57,61,62)           120.284          calculate D2E/DX2 analytically  !
 ! A134  A(59,61,62)           120.3447         calculate D2E/DX2 analytically  !
 ! A135  A(44,63,64)           111.2107         calculate D2E/DX2 analytically  !
 ! A136  A(44,63,65)           110.4138         calculate D2E/DX2 analytically  !
 ! A137  A(44,63,66)           106.4009         calculate D2E/DX2 analytically  !
 ! A138  A(64,63,65)           108.7533         calculate D2E/DX2 analytically  !
 ! A139  A(64,63,66)           110.3136         calculate D2E/DX2 analytically  !
 ! A140  A(65,63,66)           109.7319         calculate D2E/DX2 analytically  !
 ! A141  A(45,67,68)           110.7755         calculate D2E/DX2 analytically  !
 ! A142  A(45,67,69)           111.4379         calculate D2E/DX2 analytically  !
 ! A143  A(45,67,70)           106.3673         calculate D2E/DX2 analytically  !
 ! A144  A(68,67,69)           109.1649         calculate D2E/DX2 analytically  !
 ! A145  A(68,67,70)           109.1514         calculate D2E/DX2 analytically  !
 ! A146  A(69,67,70)           109.8913         calculate D2E/DX2 analytically  !
 ! A147  A(46,71,72)           111.0078         calculate D2E/DX2 analytically  !
 ! A148  A(46,71,73)           110.9106         calculate D2E/DX2 analytically  !
 ! A149  A(46,71,74)           106.4902         calculate D2E/DX2 analytically  !
 ! A150  A(72,71,73)           109.3602         calculate D2E/DX2 analytically  !
 ! A151  A(72,71,74)           109.6656         calculate D2E/DX2 analytically  !
 ! A152  A(73,71,74)           109.3553         calculate D2E/DX2 analytically  !
 ! A153  A(50,75,76)           106.625          calculate D2E/DX2 analytically  !
 ! A154  A(50,75,77)           111.4743         calculate D2E/DX2 analytically  !
 ! A155  A(50,75,78)           110.8973         calculate D2E/DX2 analytically  !
 ! A156  A(76,75,77)           109.9757         calculate D2E/DX2 analytically  !
 ! A157  A(76,75,78)           109.2294         calculate D2E/DX2 analytically  !
 ! A158  A(77,75,78)           108.6104         calculate D2E/DX2 analytically  !
 ! A159  A(12,79,80)           106.7806         calculate D2E/DX2 analytically  !
 ! A160  A(12,79,81)           111.5253         calculate D2E/DX2 analytically  !
 ! A161  A(12,79,82)           110.8529         calculate D2E/DX2 analytically  !
 ! A162  A(80,79,81)           109.5366         calculate D2E/DX2 analytically  !
 ! A163  A(80,79,82)           109.3039         calculate D2E/DX2 analytically  !
 ! A164  A(81,79,82)           108.8026         calculate D2E/DX2 analytically  !
 ! A165  A(19,83,84)           119.5679         calculate D2E/DX2 analytically  !
 ! A166  A(60,84,83)            83.0834         calculate D2E/DX2 analytically  !
 ! A167  A(60,84,85)           114.5408         calculate D2E/DX2 analytically  !
 ! A168  A(60,84,89)           111.3954         calculate D2E/DX2 analytically  !
 ! A169  A(83,84,85)           113.3962         calculate D2E/DX2 analytically  !
 ! A170  A(83,84,89)           119.348          calculate D2E/DX2 analytically  !
 ! A171  A(85,84,89)           112.0946         calculate D2E/DX2 analytically  !
 ! A172  A(84,85,86)           110.2302         calculate D2E/DX2 analytically  !
 ! A173  A(84,85,87)           107.3797         calculate D2E/DX2 analytically  !
 ! A174  A(84,85,88)           110.4911         calculate D2E/DX2 analytically  !
 ! A175  A(86,85,87)           109.7483         calculate D2E/DX2 analytically  !
 ! A176  A(86,85,88)           109.7194         calculate D2E/DX2 analytically  !
 ! A177  A(87,85,88)           109.234          calculate D2E/DX2 analytically  !
 ! A178  A(85,86,100)          128.7764         calculate D2E/DX2 analytically  !
 ! A179  A(84,89,90)           110.819          calculate D2E/DX2 analytically  !
 ! A180  A(84,89,91)           107.1766         calculate D2E/DX2 analytically  !
 ! A181  A(84,89,92)           110.6123         calculate D2E/DX2 analytically  !
 ! A182  A(90,89,91)           109.6124         calculate D2E/DX2 analytically  !
 ! A183  A(90,89,92)           109.314          calculate D2E/DX2 analytically  !
 ! A184  A(91,89,92)           109.2689         calculate D2E/DX2 analytically  !
 ! A185  A(57,93,94)           111.4787         calculate D2E/DX2 analytically  !
 ! A186  A(57,93,95)           111.5235         calculate D2E/DX2 analytically  !
 ! A187  A(57,93,96)           111.8838         calculate D2E/DX2 analytically  !
 ! A188  A(94,93,95)           106.8706         calculate D2E/DX2 analytically  !
 ! A189  A(94,93,96)           107.1557         calculate D2E/DX2 analytically  !
 ! A190  A(95,93,96)           107.6609         calculate D2E/DX2 analytically  !
 ! A191  A(59,97,98)           112.2583         calculate D2E/DX2 analytically  !
 ! A192  A(59,97,99)           111.7929         calculate D2E/DX2 analytically  !
 ! A193  A(59,97,100)          111.5579         calculate D2E/DX2 analytically  !
 ! A194  A(98,97,99)           107.6539         calculate D2E/DX2 analytically  !
 ! A195  A(98,97,100)          106.6465         calculate D2E/DX2 analytically  !
 ! A196  A(99,97,100)          106.6009         calculate D2E/DX2 analytically  !
 ! A197  A(86,100,97)          124.2908         calculate D2E/DX2 analytically  !
 ! A198  L(19,37,53,52,-1)     180.1351         calculate D2E/DX2 analytically  !
 ! A199  L(19,37,53,52,-2)     188.0714         calculate D2E/DX2 analytically  !
 ! D1    D(5,1,2,3)            -52.6692         calculate D2E/DX2 analytically  !
 ! D2    D(5,1,2,7)             63.5779         calculate D2E/DX2 analytically  !
 ! D3    D(5,1,2,13)          -177.9383         calculate D2E/DX2 analytically  !
 ! D4    D(8,1,2,3)             67.6212         calculate D2E/DX2 analytically  !
 ! D5    D(8,1,2,7)           -176.1317         calculate D2E/DX2 analytically  !
 ! D6    D(8,1,2,13)           -57.6479         calculate D2E/DX2 analytically  !
 ! D7    D(14,1,2,3)          -171.1555         calculate D2E/DX2 analytically  !
 ! D8    D(14,1,2,7)           -54.9084         calculate D2E/DX2 analytically  !
 ! D9    D(14,1,2,13)           63.5754         calculate D2E/DX2 analytically  !
 ! D10   D(2,1,5,4)             48.1151         calculate D2E/DX2 analytically  !
 ! D11   D(2,1,5,10)           -71.2326         calculate D2E/DX2 analytically  !
 ! D12   D(2,1,5,15)           165.9116         calculate D2E/DX2 analytically  !
 ! D13   D(8,1,5,4)            -71.7931         calculate D2E/DX2 analytically  !
 ! D14   D(8,1,5,10)           168.8592         calculate D2E/DX2 analytically  !
 ! D15   D(8,1,5,15)            46.0033         calculate D2E/DX2 analytically  !
 ! D16   D(14,1,5,4)           168.1133         calculate D2E/DX2 analytically  !
 ! D17   D(14,1,5,10)           48.7656         calculate D2E/DX2 analytically  !
 ! D18   D(14,1,5,15)          -74.0902         calculate D2E/DX2 analytically  !
 ! D19   D(2,1,14,24)          -94.0819         calculate D2E/DX2 analytically  !
 ! D20   D(5,1,14,24)          146.3264         calculate D2E/DX2 analytically  !
 ! D21   D(8,1,14,24)           26.5072         calculate D2E/DX2 analytically  !
 ! D22   D(1,2,3,6)            173.6244         calculate D2E/DX2 analytically  !
 ! D23   D(1,2,3,11)            59.0022         calculate D2E/DX2 analytically  !
 ! D24   D(1,2,3,12)           -65.6036         calculate D2E/DX2 analytically  !
 ! D25   D(7,2,3,6)             56.6072         calculate D2E/DX2 analytically  !
 ! D26   D(7,2,3,11)           -58.0151         calculate D2E/DX2 analytically  !
 ! D27   D(7,2,3,12)           177.3791         calculate D2E/DX2 analytically  !
 ! D28   D(13,2,3,6)           -64.3241         calculate D2E/DX2 analytically  !
 ! D29   D(13,2,3,11)         -178.9464         calculate D2E/DX2 analytically  !
 ! D30   D(13,2,3,12)           56.4478         calculate D2E/DX2 analytically  !
 ! D31   D(1,2,13,20)         -174.0304         calculate D2E/DX2 analytically  !
 ! D32   D(3,2,13,20)           62.2594         calculate D2E/DX2 analytically  !
 ! D33   D(7,2,13,20)          -56.8298         calculate D2E/DX2 analytically  !
 ! D34   D(2,3,11,4)           -61.6269         calculate D2E/DX2 analytically  !
 ! D35   D(6,3,11,4)           179.3176         calculate D2E/DX2 analytically  !
 ! D36   D(12,3,11,4)           59.7071         calculate D2E/DX2 analytically  !
 ! D37   D(2,3,12,79)         -174.7919         calculate D2E/DX2 analytically  !
 ! D38   D(6,3,12,79)          -53.1401         calculate D2E/DX2 analytically  !
 ! D39   D(11,3,12,79)          63.2529         calculate D2E/DX2 analytically  !
 ! D40   D(9,4,5,1)             70.0203         calculate D2E/DX2 analytically  !
 ! D41   D(9,4,5,10)          -171.5911         calculate D2E/DX2 analytically  !
 ! D42   D(9,4,5,15)           -54.0789         calculate D2E/DX2 analytically  !
 ! D43   D(11,4,5,1)           -49.4304         calculate D2E/DX2 analytically  !
 ! D44   D(11,4,5,10)           68.9583         calculate D2E/DX2 analytically  !
 ! D45   D(11,4,5,15)         -173.5295         calculate D2E/DX2 analytically  !
 ! D46   D(16,4,5,1)          -169.7903         calculate D2E/DX2 analytically  !
 ! D47   D(16,4,5,10)          -51.4016         calculate D2E/DX2 analytically  !
 ! D48   D(16,4,5,15)           66.1106         calculate D2E/DX2 analytically  !
 ! D49   D(5,4,11,3)            57.1805         calculate D2E/DX2 analytically  !
 ! D50   D(9,4,11,3)           -61.3424         calculate D2E/DX2 analytically  !
 ! D51   D(16,4,11,3)         -179.1436         calculate D2E/DX2 analytically  !
 ! D52   D(5,4,16,17)          -66.0123         calculate D2E/DX2 analytically  !
 ! D53   D(5,4,16,18)         -177.2783         calculate D2E/DX2 analytically  !
 ! D54   D(5,4,16,19)           58.9292         calculate D2E/DX2 analytically  !
 ! D55   D(9,4,16,17)           53.2608         calculate D2E/DX2 analytically  !
 ! D56   D(9,4,16,18)          -58.0052         calculate D2E/DX2 analytically  !
 ! D57   D(9,4,16,19)          178.2023         calculate D2E/DX2 analytically  !
 ! D58   D(11,4,16,17)         171.0442         calculate D2E/DX2 analytically  !
 ! D59   D(11,4,16,18)          59.7782         calculate D2E/DX2 analytically  !
 ! D60   D(11,4,16,19)         -64.0144         calculate D2E/DX2 analytically  !
 ! D61   D(1,5,15,28)           46.327          calculate D2E/DX2 analytically  !
 ! D62   D(4,5,15,28)          169.1273         calculate D2E/DX2 analytically  !
 ! D63   D(10,5,15,28)         -74.6394         calculate D2E/DX2 analytically  !
 ! D64   D(3,12,79,80)         175.1971         calculate D2E/DX2 analytically  !
 ! D65   D(3,12,79,81)         -65.1722         calculate D2E/DX2 analytically  !
 ! D66   D(3,12,79,82)          56.2272         calculate D2E/DX2 analytically  !
 ! D67   D(2,13,20,21)         -73.757          calculate D2E/DX2 analytically  !
 ! D68   D(2,13,20,22)          48.3808         calculate D2E/DX2 analytically  !
 ! D69   D(2,13,20,23)         167.3518         calculate D2E/DX2 analytically  !
 ! D70   D(1,14,24,25)         -57.6405         calculate D2E/DX2 analytically  !
 ! D71   D(1,14,24,26)          64.343          calculate D2E/DX2 analytically  !
 ! D72   D(1,14,24,27)        -175.9081         calculate D2E/DX2 analytically  !
 ! D73   D(5,15,28,29)         -68.6994         calculate D2E/DX2 analytically  !
 ! D74   D(5,15,28,30)          54.8881         calculate D2E/DX2 analytically  !
 ! D75   D(5,15,28,31)         173.2894         calculate D2E/DX2 analytically  !
 ! D76   D(4,16,19,37)        -109.2722         calculate D2E/DX2 analytically  !
 ! D77   D(4,16,19,83)          95.0571         calculate D2E/DX2 analytically  !
 ! D78   D(17,16,19,37)         11.677          calculate D2E/DX2 analytically  !
 ! D79   D(17,16,19,83)       -143.9938         calculate D2E/DX2 analytically  !
 ! D80   D(18,16,19,37)        130.9207         calculate D2E/DX2 analytically  !
 ! D81   D(18,16,19,83)        -24.75           calculate D2E/DX2 analytically  !
 ! D82   D(16,19,37,34)         74.7833         calculate D2E/DX2 analytically  !
 ! D83   D(16,19,37,52)       -154.7908         calculate D2E/DX2 analytically  !
 ! D84   D(83,19,37,34)       -122.4943         calculate D2E/DX2 analytically  !
 ! D85   D(83,19,37,52)          7.9316         calculate D2E/DX2 analytically  !
 ! D86   D(16,19,53,51)       -159.8622         calculate D2E/DX2 analytically  !
 ! D87   D(83,19,53,51)          7.7594         calculate D2E/DX2 analytically  !
 ! D88   D(16,19,83,84)        -86.8106         calculate D2E/DX2 analytically  !
 ! D89   D(37,19,83,84)        106.3434         calculate D2E/DX2 analytically  !
 ! D90   D(36,32,33,34)        -45.8233         calculate D2E/DX2 analytically  !
 ! D91   D(36,32,33,38)         67.892          calculate D2E/DX2 analytically  !
 ! D92   D(36,32,33,44)       -171.7613         calculate D2E/DX2 analytically  !
 ! D93   D(39,32,33,34)         73.4814         calculate D2E/DX2 analytically  !
 ! D94   D(39,32,33,38)       -172.8033         calculate D2E/DX2 analytically  !
 ! D95   D(39,32,33,44)        -52.4566         calculate D2E/DX2 analytically  !
 ! D96   D(45,32,33,34)       -163.8644         calculate D2E/DX2 analytically  !
 ! D97   D(45,32,33,38)        -50.1492         calculate D2E/DX2 analytically  !
 ! D98   D(45,32,33,44)         70.1975         calculate D2E/DX2 analytically  !
 ! D99   D(33,32,36,35)         56.6229         calculate D2E/DX2 analytically  !
 ! D100  D(33,32,36,41)        -63.6352         calculate D2E/DX2 analytically  !
 ! D101  D(33,32,36,46)        173.8559         calculate D2E/DX2 analytically  !
 ! D102  D(39,32,36,35)        -62.7132         calculate D2E/DX2 analytically  !
 ! D103  D(39,32,36,41)        177.0287         calculate D2E/DX2 analytically  !
 ! D104  D(39,32,36,46)         54.5198         calculate D2E/DX2 analytically  !
 ! D105  D(45,32,36,35)        177.0476         calculate D2E/DX2 analytically  !
 ! D106  D(45,32,36,41)         56.7895         calculate D2E/DX2 analytically  !
 ! D107  D(45,32,36,46)        -65.7193         calculate D2E/DX2 analytically  !
 ! D108  D(33,32,45,67)        -90.6864         calculate D2E/DX2 analytically  !
 ! D109  D(36,32,45,67)        150.435          calculate D2E/DX2 analytically  !
 ! D110  D(39,32,45,67)         31.1398         calculate D2E/DX2 analytically  !
 ! D111  D(32,33,34,37)       -160.1955         calculate D2E/DX2 analytically  !
 ! D112  D(32,33,34,42)         35.1046         calculate D2E/DX2 analytically  !
 ! D113  D(32,33,34,53)        -71.233          calculate D2E/DX2 analytically  !
 ! D114  D(38,33,34,37)         84.0098         calculate D2E/DX2 analytically  !
 ! D115  D(38,33,34,42)        -80.6901         calculate D2E/DX2 analytically  !
 ! D116  D(38,33,34,53)        172.9723         calculate D2E/DX2 analytically  !
 ! D117  D(44,33,34,37)        -34.3335         calculate D2E/DX2 analytically  !
 ! D118  D(44,33,34,42)        160.9666         calculate D2E/DX2 analytically  !
 ! D119  D(44,33,34,53)         54.629          calculate D2E/DX2 analytically  !
 ! D120  D(32,33,44,63)       -151.663          calculate D2E/DX2 analytically  !
 ! D121  D(34,33,44,63)         81.8034         calculate D2E/DX2 analytically  !
 ! D122  D(38,33,44,63)        -32.8607         calculate D2E/DX2 analytically  !
 ! D123  D(33,34,37,19)        -86.6981         calculate D2E/DX2 analytically  !
 ! D124  D(33,34,37,52)        144.1341         calculate D2E/DX2 analytically  !
 ! D125  D(42,34,37,19)         78.8333         calculate D2E/DX2 analytically  !
 ! D126  D(42,34,37,52)        -50.3345         calculate D2E/DX2 analytically  !
 ! D127  D(33,34,42,35)        -32.1471         calculate D2E/DX2 analytically  !
 ! D128  D(37,34,42,35)        162.743          calculate D2E/DX2 analytically  !
 ! D129  D(53,34,42,35)         75.3925         calculate D2E/DX2 analytically  !
 ! D130  D(33,34,53,51)       -169.4488         calculate D2E/DX2 analytically  !
 ! D131  D(42,34,53,51)         65.651          calculate D2E/DX2 analytically  !
 ! D132  D(40,35,36,32)         62.7999         calculate D2E/DX2 analytically  !
 ! D133  D(40,35,36,41)       -176.2542         calculate D2E/DX2 analytically  !
 ! D134  D(40,35,36,46)        -57.3532         calculate D2E/DX2 analytically  !
 ! D135  D(42,35,36,32)        -53.0067         calculate D2E/DX2 analytically  !
 ! D136  D(42,35,36,41)         67.9391         calculate D2E/DX2 analytically  !
 ! D137  D(42,35,36,46)       -173.1599         calculate D2E/DX2 analytically  !
 ! D138  D(47,35,36,32)       -174.9529         calculate D2E/DX2 analytically  !
 ! D139  D(47,35,36,41)        -54.007          calculate D2E/DX2 analytically  !
 ! D140  D(47,35,36,46)         64.894          calculate D2E/DX2 analytically  !
 ! D141  D(36,35,42,34)         40.3032         calculate D2E/DX2 analytically  !
 ! D142  D(40,35,42,34)        -78.3125         calculate D2E/DX2 analytically  !
 ! D143  D(47,35,42,34)        165.5609         calculate D2E/DX2 analytically  !
 ! D144  D(36,35,47,48)        -65.7277         calculate D2E/DX2 analytically  !
 ! D145  D(36,35,47,49)        176.8853         calculate D2E/DX2 analytically  !
 ! D146  D(36,35,47,50)         54.4164         calculate D2E/DX2 analytically  !
 ! D147  D(40,35,47,48)         56.7946         calculate D2E/DX2 analytically  !
 ! D148  D(40,35,47,49)        -60.5924         calculate D2E/DX2 analytically  !
 ! D149  D(40,35,47,50)        176.9387         calculate D2E/DX2 analytically  !
 ! D150  D(42,35,47,48)        170.1664         calculate D2E/DX2 analytically  !
 ! D151  D(42,35,47,49)         52.7794         calculate D2E/DX2 analytically  !
 ! D152  D(42,35,47,50)        -69.6895         calculate D2E/DX2 analytically  !
 ! D153  D(32,36,46,71)        104.8824         calculate D2E/DX2 analytically  !
 ! D154  D(35,36,46,71)       -134.927          calculate D2E/DX2 analytically  !
 ! D155  D(41,36,46,71)        -17.238          calculate D2E/DX2 analytically  !
 ! D156  D(19,37,52,51)       -169.545          calculate D2E/DX2 analytically  !
 ! D157  D(34,37,52,51)        -44.6738         calculate D2E/DX2 analytically  !
 ! D158  D(53,37,52,51)          2.3836         calculate D2E/DX2 analytically  !
 ! D159  D(52,37,53,51)         -2.349          calculate D2E/DX2 analytically  !
 ! D160  D(33,44,63,64)        -54.5254         calculate D2E/DX2 analytically  !
 ! D161  D(33,44,63,65)         66.2984         calculate D2E/DX2 analytically  !
 ! D162  D(33,44,63,66)       -174.6848         calculate D2E/DX2 analytically  !
 ! D163  D(32,45,67,68)        -58.6025         calculate D2E/DX2 analytically  !
 ! D164  D(32,45,67,69)         63.1454         calculate D2E/DX2 analytically  !
 ! D165  D(32,45,67,70)       -177.1            calculate D2E/DX2 analytically  !
 ! D166  D(36,46,71,72)        -62.9257         calculate D2E/DX2 analytically  !
 ! D167  D(36,46,71,73)         58.8685         calculate D2E/DX2 analytically  !
 ! D168  D(36,46,71,74)        177.7576         calculate D2E/DX2 analytically  !
 ! D169  D(35,47,50,75)       -165.4547         calculate D2E/DX2 analytically  !
 ! D170  D(48,47,50,75)        -47.8932         calculate D2E/DX2 analytically  !
 ! D171  D(49,47,50,75)         72.7114         calculate D2E/DX2 analytically  !
 ! D172  D(47,50,75,76)        174.5252         calculate D2E/DX2 analytically  !
 ! D173  D(47,50,75,77)        -65.4363         calculate D2E/DX2 analytically  !
 ! D174  D(47,50,75,78)         55.714          calculate D2E/DX2 analytically  !
 ! D175  D(43,51,52,37)       -133.8067         calculate D2E/DX2 analytically  !
 ! D176  D(53,51,52,37)         -3.5871         calculate D2E/DX2 analytically  !
 ! D177  D(54,51,52,37)        109.1798         calculate D2E/DX2 analytically  !
 ! D178  D(43,51,53,34)        155.8582         calculate D2E/DX2 analytically  !
 ! D179  D(43,51,53,37)        135.099          calculate D2E/DX2 analytically  !
 ! D180  D(52,51,53,34)         24.3395         calculate D2E/DX2 analytically  !
 ! D181  D(52,51,53,37)          3.5803         calculate D2E/DX2 analytically  !
 ! D182  D(54,51,53,34)        -89.3842         calculate D2E/DX2 analytically  !
 ! D183  D(54,51,53,37)       -110.1434         calculate D2E/DX2 analytically  !
 ! D184  D(43,51,54,55)         57.8846         calculate D2E/DX2 analytically  !
 ! D185  D(43,51,54,56)       -123.5551         calculate D2E/DX2 analytically  !
 ! D186  D(52,51,54,55)       -179.5413         calculate D2E/DX2 analytically  !
 ! D187  D(52,51,54,56)         -0.981          calculate D2E/DX2 analytically  !
 ! D188  D(53,51,54,55)        -60.955          calculate D2E/DX2 analytically  !
 ! D189  D(53,51,54,56)        117.6052         calculate D2E/DX2 analytically  !
 ! D190  D(51,54,55,57)        178.3754         calculate D2E/DX2 analytically  !
 ! D191  D(51,54,55,58)         -0.9826         calculate D2E/DX2 analytically  !
 ! D192  D(56,54,55,57)         -0.1815         calculate D2E/DX2 analytically  !
 ! D193  D(56,54,55,58)       -179.5395         calculate D2E/DX2 analytically  !
 ! D194  D(51,54,56,59)       -178.9992         calculate D2E/DX2 analytically  !
 ! D195  D(51,54,56,60)         -0.3745         calculate D2E/DX2 analytically  !
 ! D196  D(55,54,56,59)         -0.4863         calculate D2E/DX2 analytically  !
 ! D197  D(55,54,56,60)        178.1383         calculate D2E/DX2 analytically  !
 ! D198  D(54,55,57,61)          0.5207         calculate D2E/DX2 analytically  !
 ! D199  D(54,55,57,93)        178.0391         calculate D2E/DX2 analytically  !
 ! D200  D(58,55,57,61)        179.8773         calculate D2E/DX2 analytically  !
 ! D201  D(58,55,57,93)         -2.6043         calculate D2E/DX2 analytically  !
 ! D202  D(54,56,59,61)          0.8319         calculate D2E/DX2 analytically  !
 ! D203  D(54,56,59,97)        177.9854         calculate D2E/DX2 analytically  !
 ! D204  D(60,56,59,61)       -177.79           calculate D2E/DX2 analytically  !
 ! D205  D(60,56,59,97)         -0.6365         calculate D2E/DX2 analytically  !
 ! D206  D(54,56,60,84)       -121.5828         calculate D2E/DX2 analytically  !
 ! D207  D(59,56,60,84)         57.0155         calculate D2E/DX2 analytically  !
 ! D208  D(55,57,61,59)         -0.1828         calculate D2E/DX2 analytically  !
 ! D209  D(55,57,61,62)        179.941          calculate D2E/DX2 analytically  !
 ! D210  D(93,57,61,59)       -177.7193         calculate D2E/DX2 analytically  !
 ! D211  D(93,57,61,62)          2.4044         calculate D2E/DX2 analytically  !
 ! D212  D(55,57,93,94)        -94.0278         calculate D2E/DX2 analytically  !
 ! D213  D(55,57,93,95)        146.6034         calculate D2E/DX2 analytically  !
 ! D214  D(55,57,93,96)         25.9488         calculate D2E/DX2 analytically  !
 ! D215  D(61,57,93,94)         83.5197         calculate D2E/DX2 analytically  !
 ! D216  D(61,57,93,95)        -35.8492         calculate D2E/DX2 analytically  !
 ! D217  D(61,57,93,96)       -156.5038         calculate D2E/DX2 analytically  !
 ! D218  D(56,59,61,57)         -0.5033         calculate D2E/DX2 analytically  !
 ! D219  D(56,59,61,62)        179.3729         calculate D2E/DX2 analytically  !
 ! D220  D(97,59,61,57)       -177.6453         calculate D2E/DX2 analytically  !
 ! D221  D(97,59,61,62)          2.2309         calculate D2E/DX2 analytically  !
 ! D222  D(56,59,97,98)        160.1135         calculate D2E/DX2 analytically  !
 ! D223  D(56,59,97,99)         39.0126         calculate D2E/DX2 analytically  !
 ! D224  D(56,59,97,100)       -80.2491         calculate D2E/DX2 analytically  !
 ! D225  D(61,59,97,98)        -22.6988         calculate D2E/DX2 analytically  !
 ! D226  D(61,59,97,99)       -143.7997         calculate D2E/DX2 analytically  !
 ! D227  D(61,59,97,100)        96.9386         calculate D2E/DX2 analytically  !
 ! D228  D(56,60,84,83)        120.6588         calculate D2E/DX2 analytically  !
 ! D229  D(56,60,84,85)          8.0566         calculate D2E/DX2 analytically  !
 ! D230  D(56,60,84,89)       -120.478          calculate D2E/DX2 analytically  !
 ! D231  D(19,83,84,60)       -111.9602         calculate D2E/DX2 analytically  !
 ! D232  D(19,83,84,85)          1.8296         calculate D2E/DX2 analytically  !
 ! D233  D(19,83,84,89)        137.3459         calculate D2E/DX2 analytically  !
 ! D234  D(60,84,85,86)        -68.5022         calculate D2E/DX2 analytically  !
 ! D235  D(60,84,85,87)         51.0143         calculate D2E/DX2 analytically  !
 ! D236  D(60,84,85,88)        170.0576         calculate D2E/DX2 analytically  !
 ! D237  D(83,84,85,86)       -161.5578         calculate D2E/DX2 analytically  !
 ! D238  D(83,84,85,87)        -42.0413         calculate D2E/DX2 analytically  !
 ! D239  D(83,84,85,88)         77.002          calculate D2E/DX2 analytically  !
 ! D240  D(89,84,85,86)         59.6799         calculate D2E/DX2 analytically  !
 ! D241  D(89,84,85,87)        179.1965         calculate D2E/DX2 analytically  !
 ! D242  D(89,84,85,88)        -61.7603         calculate D2E/DX2 analytically  !
 ! D243  D(60,84,89,90)       -168.529          calculate D2E/DX2 analytically  !
 ! D244  D(60,84,89,91)        -48.9646         calculate D2E/DX2 analytically  !
 ! D245  D(60,84,89,92)         70.067          calculate D2E/DX2 analytically  !
 ! D246  D(83,84,89,90)        -74.4047         calculate D2E/DX2 analytically  !
 ! D247  D(83,84,89,91)         45.1597         calculate D2E/DX2 analytically  !
 ! D248  D(83,84,89,92)        164.1913         calculate D2E/DX2 analytically  !
 ! D249  D(85,84,89,90)         61.6426         calculate D2E/DX2 analytically  !
 ! D250  D(85,84,89,91)       -178.793          calculate D2E/DX2 analytically  !
 ! D251  D(85,84,89,92)        -59.7614         calculate D2E/DX2 analytically  !
 ! D252  D(84,85,86,100)        58.1687         calculate D2E/DX2 analytically  !
 ! D253  D(87,85,86,100)       -59.9004         calculate D2E/DX2 analytically  !
 ! D254  D(88,85,86,100)      -179.9332         calculate D2E/DX2 analytically  !
 ! D255  D(85,86,100,97)       -56.1492         calculate D2E/DX2 analytically  !
 ! D256  D(59,97,100,86)        92.8089         calculate D2E/DX2 analytically  !
 ! D257  D(98,97,100,86)      -144.2882         calculate D2E/DX2 analytically  !
 ! D258  D(99,97,100,86)       -29.4891         calculate D2E/DX2 analytically  !
 --------------------------------------------------------------------------------
 Trust Radius=3.00D-02 FncErr=1.00D-07 GrdErr=1.00D-06 EigMax=2.50D+02 EigMin=1.00D-04
 Number of steps in this run=    573 maximum allowed number of steps=    600.
 Search for a saddle point of order  1.
 Step   0 in ReCalcFC=30 IGetFC= 4 compute analytic Hessian.
 GradGradGradGradGradGradGradGradGradGradGradGradGradGradGradGradGradGrad

 Leave Link  103 at Wed May 22 18:09:02 2019, MaxMem=  6442450944 cpu:              49.0 elap:               1.8
 (Enter /home/ekwan/sw/g16/l202.exe)
 Stoichiometry    C30H47F6NaO15S
 Framework group  C1[X(C30H47F6NaO15S)]
 Deg. of freedom   294
 Full point group                 C1      NOp   1
 Largest Abelian subgroup         C1      NOp   1
 Largest concise Abelian subgroup C1      NOp   1
                         Standard orientation:                         
 ---------------------------------------------------------------------
 Center     Atomic      Atomic             Coordinates (Angstroms)
 Number     Number       Type             X           Y           Z
 ---------------------------------------------------------------------
      1          6           0        4.156854    0.084530   -1.126996
      2          6           0        3.919127   -1.428555   -1.114792
      3          6           0        4.421899   -2.054157    0.190370
      4          6           0        3.974023   -0.050217    1.415186
      5          6           0        3.565663    0.708119    0.142093
      6          1           0        4.152465   -3.117846    0.251586
      7          1           0        2.834756   -1.596922   -1.143364
      8          1           0        5.236830    0.279562   -1.168898
      9          1           0        5.045382    0.131299    1.577938
     10          1           0        2.474289    0.666394    0.042781
     11          8           0        3.753302   -1.464532    1.280647
     12          8           0        5.818029   -1.913431    0.237947
     13          8           0        4.520050   -1.977045   -2.277696
     14          8           0        3.504624    0.677620   -2.248539
     15          8           0        3.994199    2.046094    0.398727
     16          6           0        3.193246    0.409550    2.655757
     17          1           0        3.506498    1.457622    2.836397
     18          1           0        3.618016   -0.176408    3.502042
     19          8           0        1.832045    0.265799    2.549608
     20          6           0        4.264356   -3.359014   -2.468472
     21          1           0        4.835396   -3.982353   -1.767801
     22          1           0        3.194427   -3.589302   -2.357502
     23          1           0        4.576511   -3.600696   -3.487225
     24          6           0        4.313999    0.839668   -3.402464
     25          1           0        5.204767    1.448191   -3.183654
     26          1           0        4.633411   -0.123802   -3.809954
     27          1           0        3.701378    1.367373   -4.138699
     28          6           0        3.992507    2.997560   -0.657817
     29          1           0        4.752396    2.773486   -1.414886
     30          1           0        3.017860    3.087648   -1.145065
     31          1           0        4.238577    3.953507   -0.186239
     32          6           0        0.013763    3.294176   -0.367096
     33          6           0        0.588101    2.781339    0.957276
     34          6           0        0.033971    1.439725    1.343971
     35          6           0       -0.726599    0.940499   -0.867758
     36          6           0        0.040531    2.155959   -1.388842
     37          1           0        0.095074    1.118613    2.361856
     38          1           0        1.661425    2.588533    0.797097
     39          1           0       -1.023848    3.618839   -0.212393
     40          1           0       -1.777863    1.204254   -0.725013
     41          1           0        1.075719    1.859537   -1.590629
     42          8           0       -0.254064    0.531443    0.463892
     43          8           0       -3.769686    1.231393    3.428870
     44          8           0        0.418655    3.724196    1.987214
     45          8           0        0.796717    4.348758   -0.889271
     46          8           0       -0.609906    2.541681   -2.586754
     47          6           0       -0.638244   -0.263405   -1.775985
     48          1           0       -1.155407    0.000511   -2.708716
     49          1           0       -1.158536   -1.117358   -1.326472
     50          8           0        0.719966   -0.558456   -2.015218
     51         16           0       -2.662006    0.817905    2.550591
     52          8           0       -1.680026   -0.117622    3.174917
     53          8           0       -1.990965    1.996732    1.876396
     54          6           0       -3.403278   -0.097787    1.189953
     55          6           0       -4.366172    0.550717    0.414287
     56          6           0       -3.005907   -1.398690    0.903664
     57          6           0       -4.933162   -0.119069   -0.666053
     58          1           0       -4.659772    1.567867    0.646102
     59          6           0       -3.597037   -2.061207   -0.177604
     60          1           0       -2.236009   -1.881297    1.494303
     61          6           0       -4.553428   -1.429172   -0.967045
     62          1           0       -4.997801   -1.947075   -1.808034
     63          6           0        1.428054    3.629977    2.997928
     64          1           0        1.490336    2.613752    3.402386
     65          1           0        2.408134    3.907283    2.587483
     66          1           0        1.144831    4.333496    3.782857
     67          6           0        0.394986    5.652047   -0.476934
     68          1           0       -0.646348    5.849114   -0.767480
     69          1           0        0.495902    5.777923    0.604934
     70          1           0        1.050909    6.354862   -0.995664
     71          6           0        0.286241    2.829759   -3.656921
     72          1           0        0.927753    3.682921   -3.412855
     73          1           0        0.912534    1.958006   -3.889166
     74          1           0       -0.333333    3.071696   -4.523624
     75          6           0        0.912115   -1.450549   -3.099870
     76          1           0        1.988901   -1.527125   -3.253840
     77          1           0        0.491906   -2.443707   -2.883656
     78          1           0        0.442089   -1.062279   -4.015085
     79          6           0        6.409887   -2.565066    1.356061
     80          1           0        7.491231   -2.464207    1.243642
     81          1           0        6.095417   -2.107563    2.300903
     82          1           0        6.144117   -3.632020    1.373142
     83         11           0        0.370714   -1.224064    3.123935
     84          8           0       -0.083075   -2.984977    1.698382
     85          6           0        0.706664   -2.969381    0.508516
     86          1           0        0.246838   -3.600705   -0.259633
     87          1           0        0.749788   -1.938089    0.160066
     88          1           0        1.723591   -3.322800    0.717999
     89          6           0       -0.220907   -4.298168    2.232789
     90          1           0        0.758415   -4.711261    2.511179
     91          1           0       -0.851925   -4.220390    3.120979
     92          1           0       -0.700815   -4.962254    1.505319
     93          6           0       -6.004375    0.545701   -1.487982
     94          9           0       -7.240807    0.213852   -1.051714
     95          9           0       -5.934232    0.176301   -2.785986
     96          9           0       -5.913106    1.890544   -1.439754
     97          6           0       -3.143686   -3.451596   -0.525904
     98          9           0       -4.050689   -4.112348   -1.271221
     99          9           0       -2.903164   -4.191660    0.577662
    100          9           0       -1.986896   -3.435532   -1.243105
 ---------------------------------------------------------------------
 Rotational constants (GHZ):           0.0675397           0.0403423           0.0359507
 Leave Link  202 at Wed May 22 18:09:06 2019, MaxMem=  6442450944 cpu:               5.2 elap:               0.2
 (Enter /home/ekwan/sw/g16/l301.exe)
 Standard basis: 6-31G(d) (6D, 7F)
 Ernie: Thresh=  0.10000D-02 Tol=  0.10000D-05 Strict=F.
 There are   897 symmetry adapted cartesian basis functions of A   symmetry.
 There are   897 symmetry adapted basis functions of A   symmetry.
   897 basis functions,  1720 primitive gaussians,   897 cartesian basis functions
   214 alpha electrons      214 beta electrons
       nuclear repulsion energy      9755.1168923687 Hartrees.
 IExCor=  402 DFT=T Ex+Corr=B3LYP ExCW=0 ScaHFX=  0.200000
 ScaDFX=  0.800000  0.720000  1.000000  0.810000 ScalE2=  1.000000  1.000000
 IRadAn=      5 IRanWt=     -1 IRanGd=            0 ICorTp=0 IEmpDi=141
 NAtoms=  100 NActive=  100 NUniq=  100 SFac= 1.00D+00 NAtFMM=   60 NAOKFM=T Big=T
 Integral buffers will be    131072 words long.
 Raffenetti 2 integral format.
 Two-electron integral symmetry is turned on.
 R6Disp:  Grimme-D3(BJ) Dispersion energy=       -0.2382287951 Hartrees.
 Nuclear repulsion after empirical dispersion term =     9754.8786635735 Hartrees.
 Force inversion solution in PCM.
 ------------------------------------------------------------------------------
 Polarizable Continuum Model (PCM)
 =================================
 Model                : PCM.
 Atomic radii         : UFF (Universal Force Field).
 Polarization charges : Total charges.
 Charge compensation  : None.
 Solution method      : Matrix inversion.
 Cavity type          : Scaled VdW (van der Waals Surface) (Alpha=1.100).
 Cavity algorithm     : GePol (No added spheres)
                        Default sphere list used, NSphG=  100.
                        Lebedev-Laikov grids with approx.  5.0 points / Ang**2.
                        Smoothing algorithm: York/Karplus (Gamma=1.0000).
                        Polarization charges: spherical gaussians, with
                                              point-specific exponents (IZeta= 3).
                        Self-potential: point-specific (ISelfS= 7).
                        Self-field    : sphere-specific E.n sum rule (ISelfD= 2).
 1st derivatives      : Analytical E(r).r(x)/FMM algorithm (CHGder, D1EAlg=3).
                        Cavity 1st derivative terms included.
 2nd derivatives      : Analytical E(r).r(xy)/FMM algorithm (CHGder, D2EAlg=3).
                        Cavity 2nd derivative terms included.
[...]
 34,-0.00012525,-0.00050132,0.00017372,0.00029544,0.00001789,-0.0000193
 8,-0.00001820,-0.00007685,0.00003158,-0.00003927,0.00041723,0.00009212
 ,-0.00018276,-0.00127062,0.00148009,-0.00246151,0.00077398,0.00005967,
 0.00088800,0.00087483,-0.00087004,0.00027932,-0.00055476,0.00014916,0.
 00016994,-0.00032123,-0.00077719,-0.00029121,-0.00065934,-0.00027591,-
 0.00121550,-0.00271878,-0.00104414,-0.00052978,0.00005377,-0.00003607,
 -0.00002723,-0.01495425,-0.02675046,-0.03876608,-0.00011075,-0.0018119
 5,-0.00016270,0.00270142,-0.00623964,0.00416365,0.00045842,0.00017976,
 -0.00035614,-0.00008374,0.00000839,-0.00007591,0.00000557,0.00000908,-
 0.00000483,0.00001972,-0.00000274,0.00000443,0.00000283,-0.00000929,0.
 00001272,0.00001717,0.00007360,-0.00002274,-0.00000408,-0.00000402,0.0
 0000600,-0.00000585,-0.00000382,0.00000947,0.00000472,-0.00001820,-0.0
 0000409,-0.00008780,0.00002884,0.00010712,0.00002007,-0.00001393,-0.00
 000697,0.00000678,0.00000651,-0.00000963,0.,-0.00000139,-0.00001371,-0
 .00002367,-0.00005182,0.00017203,0.00002927,-0.00000178,-0.00002504,-0
 .00007907,-0.00001644,0.00000590,-0.00001312,0.00000966,-0.00002020,-0
 .00000723,-0.00002860,-0.00001854,0.00000062,0.00000239,0.00000271,0.0
 0000072,-0.00000159,0.00000136,0.00000002,0.00001079,-0.00000047,-0.00
 015359,-0.00030618,-0.00006965,0.00004949,0.00079959,0.00033500,0.0003
 5482,0.00003106,-0.00029064,-0.00016314,-0.00017344,-0.00004272,-0.000
 10910,0.00005755,0.00001301,-0.00000975,-0.00002276,0.00006505,0.00021
 005,-0.00202342,0.00066034,-0.00035492,0.00046893,-0.00032202,0.000048
 02,0.00005860,0.00013274,-0.00001416,0.00114397,-0.00069131,0.00204853
 ,0.00062345,0.00196130,-0.00110844,-0.00002613,-0.00019721,-0.00038831
 ,-0.00013926,-0.00065720,-0.00049117,-0.00092522,-0.00044735,-0.025138
 60,-0.15507187,-0.08239152,-0.00126308,0.02114442,0.00441142,0.0286046
 1,0.16682175,-0.00002660,-0.00001444,-0.00004070,-0.00003141,0.0000204
 7,-0.00002402,0.00001583,-0.00002805,-0.00006017,-0.00000103,-0.000042
 88,-0.00000614,-0.00003535,0.00000426,-0.00001049,0.00000690,0.0000145
 7,-0.00000085,-0.00000464,-0.00001956,-0.00001896,0.00000944,-0.000001
 23,0.00000173,0.00000223,0.00000619,0.00000381,0.00001178,0.00000035,-
 0.00001113,-0.00000882,0.00003039,0.00003664,0.00000598,0.00002617,0.0
 0003984,0.00003073,0.00000588,0.00003999,0.00005573,-0.00000978,0.0000
 3167,0.00001905,0.00000407,0.00002010,-0.00000455,0.00002140,0.0000051
 0,-0.00000484,0.00000282,-0.00000367,0.00003334,0.00000509,0.00001469,
 0.00003994,0.00009069,0.00006456,-0.00003481,-0.00000749,-0.00000679,0
 .00001621,0.00000506,0.00000691,0.00000621,-0.00000850,-0.00001400,-0.
 00000507,0.00000016,0.00000201,-0.00001479,0.00001022,0.00001157,0.000
 00991,-0.00000643,0.00000170,-0.00000360,-0.00000127,-0.00000230,-0.00
 000077,0.00000606,0.00000379,-0.00001461,-0.00000281,-0.00001550,0.000
 00120,0.00000109,0.00000059,0.00000328,0.00000291,0.00000404,0.0000022
 6,-0.00000248,0.00000354,-0.00000478,0.00004335,-0.00006442,-0.0000168
 1,0.00002161,-0.00004580,-0.00018370,0.00012299,-0.00019223,-0.0000001
 7,0.00001360,-0.00042478,-0.00001257,0.00002424,0.00012115,0.00001154,
 -0.00002656,-0.00001819,-0.00000367,-0.00000069,0.00000383,0.00000233,
 0.00000094,0.00000147,-0.00001099,0.00003837,0.00001600,-0.00000245,0.
 00000086,-0.00000856,0.00014197,-0.00017079,0.00031822,-0.00000910,-0.
 00005723,0.00034283,0.00003332,-0.00003324,0.00007713,0.00002325,-0.00
 009910,0.00002580,0.00004700,-0.00007006,-0.00000942,-0.00063786,0.000
 30888,0.00047247,0.00001058,-0.00003038,-0.00001878,0.00002664,0.00023
 101,-0.00033126,0.00040584,-0.00006021,-0.00003430,-0.00047059,-0.0001
 6480,-0.00095821,0.00028870,0.00031776,0.00030414,0.00017010,-0.000103
 61,0.00023913,-0.00031596,-0.00078975,0.00108584,0.00040169,-0.0000361
 6,0.00032075,-0.00188849,0.00255631,-0.00174738,-0.00042625,0.00028723
 ,-0.00042518,0.00013714,-0.00001145,0.00005196,-0.00390143,-0.01002888
 ,-0.00498398,0.00133695,-0.00018406,0.00066450,0.00028189,-0.00208546,
 0.00146664,0.00052542,0.00045668,0.00020956,-0.00003730,-0.00000636,-0
 .00003985,0.00000520,0.00000457,0.00000035,0.00000603,0.00000130,0.000
 00386,0.00000335,-0.00000551,0.00000689,0.00001552,0.00004131,-0.00001
 672,-0.00000218,-0.00000241,0.00000151,-0.00000181,-0.00000685,0.00000
 768,0.00000055,-0.00001014,-0.00000100,-0.00003993,0.00003187,0.000050
 43,0.00001242,-0.00001400,-0.00000268,-0.00000845,0.00000262,-0.000003
 89,-0.00000027,0.00000385,-0.00000504,-0.00004939,0.00021699,0.0000936
 8,0.00003826,-0.00003912,-0.00002753,-0.00012978,-0.00012183,0.0000244
 9,-0.00000636,-0.00000958,-0.00001597,-0.00000340,-0.00001791,-0.00002
 311,-0.00000107,0.00000265,0.00000332,0.00000177,-0.00000459,0.0000050
 5,0.00000132,0.00000784,-0.00000181,0.00018329,-0.00037936,0.00010024,
 -0.00133747,0.00050108,0.00027581,0.00086725,0.00019962,-0.00132587,-0
 .00026443,-0.00036872,0.00006528,-0.00013499,0.00007697,0.00003023,-0.
 00009236,-0.00011007,0.00025472,-0.00036857,-0.00170824,0.00090366,-0.
 00053430,0.00056460,-0.00040231,0.00008960,0.00000929,0.00030389,0.000
 23772,0.00123530,-0.00093826,0.00062837,0.00021517,0.00027286,-0.00030
 089,-0.00000063,0.00001962,-0.00011403,-0.00009927,-0.00006257,-0.0001
 5813,-0.00033246,-0.00010789,-0.03005028,-0.09131455,-0.17429185,-0.03
 931745,-0.00734118,-0.05432102,0.04557804,0.13846942,0.28651120,0.0000
 2527,-0.00007920,0.00001275,0.00026601,-0.00003150,-0.00005727,0.00023
 426,-0.00005597,0.00006126,0.00004321,-0.00016450,0.00006034,0.0000790
 6,-0.00009265,0.00003110,0.00002369,0.00006341,-0.00000198,-0.00003544
 ,0.00003126,-0.00004579,-0.00002778,0.00003242,0.00000568,-0.00002756,
 0.00003107,-0.00001395,-0.00003695,-0.00001714,0.00002031,-0.00020119,
 0.00018846,-0.00008304,-0.00021979,0.00000828,-0.00009662,-0.00017476,
 0.00000341,0.00004181,-0.00011062,0.00011065,0.00005570,-0.00003334,0.
 00013961,-0.00000533,-0.00002544,0.00001874,0.00007047,-0.00000728,0.0
 0001916,-0.00001671,0.00001944,-0.00000728,-0.00001414,0.00009277,0.00
 014475,-0.00011292,0.00014533,0.00000417,-0.00000945,-0.00002104,-0.00
 001034,-0.00001289,-0.00003261,0.00001475,0.00001229,-0.00001314,-0.00
 000277,0.00001877,0.00006823,-0.00004361,-0.00009877,-0.00003254,0.000
 01776,0.00000313,0.00000182,-0.00000278,0.00000004,0.00000388,-0.00000
 072,0.00000933,0.00001115,-0.00004215,-0.00002570,0.00000154,-0.000000
 85,0.00000860,-0.00000147,-0.00000653,0.00000732,-0.00000688,0.0000182
 5,-0.00000458,-0.00009329,-0.00006359,0.00021155,0.00002160,-0.0000017
 3,0.00006827,-0.00079910,-0.00058043,0.00056024,-0.00055784,-0.0000148
 5,0.00124071,0.00009929,0.00004729,-0.00036597,0.00001399,0.00006470,-
 0.00005364,0.00001202,-0.00002115,0.00000204,0.00001659,0.00003943,0.0
 0000294,-0.00004980,0.00011586,0.00001844,0.00003863,-0.00006439,-0.00
 000387,0.00015423,0.00049440,-0.00076053,0.00011351,-0.00050890,0.0007
 0096,0.00003787,0.00003813,-0.00009492,0.00001948,0.00019446,-0.000072
 07,-0.00002776,0.00017069,-0.00000656,0.00196317,-0.00111465,-0.001675
 49,-0.00008183,0.00031945,0.00021625,-0.00107054,0.00008934,0.00114553
 ,-0.00082992,0.00029747,0.00031094,-0.00169898,0.00154325,-0.00184841,
 0.00082936,-0.00001950,0.00060122,0.00127373,-0.00099216,-0.00000969,0
 .00058682,-0.00216723,-0.00037184,-0.00005785,-0.00048971,0.00060625,-
 0.00260018,-0.00020030,-0.00168799,0.00072382,-0.00115707,-0.00077228,
 -0.00013053,0.00007686,0.00014655,-0.02216372,-0.00949597,0.02033239,-
 0.00077371,0.00017628,0.00091928,0.00114607,-0.00059902,0.00215029,-0.
 00044786,0.00070884,0.00055913,0.00000127,0.00000546,-0.00000067,-0.00
 000977,-0.00000719,0.00000840,0.00000687,-0.00000478,-0.00000225,-0.00
 000370,0.00000886,-0.00000763,-0.00006087,-0.00007127,0.00001874,0.000
 01545,0.00000870,0.00000313,0.00000232,0.00001561,-0.00001068,0.000003
 59,0.00001669,-0.00000306,0.00003409,-0.00007933,-0.00008238,-0.000015
 35,0.00002232,0.00000784,0.00002738,0.00000080,-0.00000880,0.00000392,
 0.00000586,0.00002144,0.00017403,-0.00080947,-0.00039191,-0.00008120,0
 .00010116,0.00006737,0.00032910,0.00048721,-0.00010507,0.00002473,0.00
 011096,0.00014084,0.00004248,0.00003442,0.00008252,-0.00001971,-0.0000
 0366,-0.00000708,0.00000418,-0.00000360,-0.00001490,0.00000481,-0.0000
 0442,-0.00000960,-0.00022152,-0.00030144,0.00032332,0.00055427,-0.0001
 3687,-0.00157998,-0.00131477,-0.00274695,0.00300127,-0.00105642,0.0020
 6895,-0.00238753,0.00029769,-0.00018237,-0.00004272,-0.00046636,0.0006
 0208,-0.00117275,0.00016162,0.00087847,0.00061406,-0.00005795,-0.00014
 829,-0.00003066,0.00001393,-0.00006750,-0.00024875,-0.00023994,-0.0001
 1344,0.00006389,0.00144408,0.00074260,0.00125430,-0.00060605,-0.000109
 73,-0.00014175,-0.00025788,-0.00013497,-0.00057568,-0.00037586,-0.0006
 7294,-0.00031122,-0.18564214,-0.01762025,0.07372948,-0.07316585,0.0244
 8014,0.00365420,0.00121413,0.01425539,0.02924544,0.28356030,-0.0000208
 2,-0.00002431,-0.00001724,-0.00002422,-0.00001438,0.00003194,-0.000008
 41,-0.00006306,0.00000772,0.00000853,-0.00006913,0.00000156,-0.0000661
 5,0.00000858,0.00000379,0.00000404,0.00002169,0.00000222,-0.00000612,-
 0.00002579,-0.00002419,0.00000978,0.00000203,-0.00000285,0.00001172,0.
 00001147,-0.00000060,0.00001704,-0.00000080,0.00000080,0.00000408,0.00
 007571,-0.00002933,0.00001391,0.00003458,0.00000564,0.00000880,0.00007
 815,-0.00002695,0.00006247,0.00000599,-0.00002029,0.00004919,0.0000059
 8,-0.00001258,-0.00015522,0.00005814,0.00003867,0.00002154,-0.00001417
 ,-0.00000466,0.00006866,0.00001234,0.00002096,0.00025311,0.00007081,0.
 00005869,0.00002799,-0.00006312,0.00000607,0.00000267,0.00000718,0.000
 00327,-0.00001739,-0.00000553,0.00000013,0.00000003,0.00000401,-0.0000
 0221,-0.00002168,0.00000446,0.00004092,0.00000866,-0.00000326,-0.00000
 412,0.00000566,0.00000297,-0.00000856,-0.00000134,-0.00000045,0.000000
 57,-0.00003067,0.00000965,0.00000097,0.00001089,0.00000066,-0.00000403
 ,0.00000080,0.00000134,0.00000921,0.00000295,-0.00000346,0.00000296,-0
 .00000874,0.00010347,-0.00005522,-0.00001659,0.00006455,-0.00008541,-0
 .00061359,0.00013954,-0.00016737,0.00007720,-0.00007683,-0.00061877,-0
 .00001813,0.00003015,0.00032296,0.00001357,-0.00000231,-0.00004327,-0.
 00001123,-0.00001907,0.00000980,0.00000650,0.00001165,0.00000370,-0.00
 004859,0.00008150,0.00003755,0.00000484,-0.00001915,-0.00001667,0.0002
 7461,-0.00021506,0.00025430,-0.00006100,-0.00034468,0.00061436,0.00007
 545,-0.00008905,0.00010112,0.00005531,-0.00020557,-0.00000400,0.000069
 95,-0.00011245,-0.00013822,-0.00158363,0.00042559,0.00120915,0.0000649
 3,-0.00019490,-0.00015287,0.00116786,-0.00290672,-0.00072213,0.0011146
 1,0.00025124,-0.00045113,-0.00086913,0.00101779,-0.00173258,0.00052391
 ,0.00001230,0.00059792,0.00062306,-0.00060658,0.00022904,0.00053783,-0
 .00061574,-0.00076894,-0.00050267,-0.00068988,0.00000879,-0.00146051,0
 .00012294,-0.00116007,0.00099566,-0.00151749,-0.00057799,-0.00010445,0
 .00009186,0.00008155,-0.02945085,-0.00095640,0.01756372,-0.00042272,0.
 00004259,0.00039073,0.00104093,0.00014105,0.00273117,-0.00064678,0.000
 16459,0.00020134,-0.00007635,0.00000872,-0.00006381,0.00000518,0.00000
 763,-0.00000412,0.00001763,-0.00000293,0.00000332,0.00000323,-0.000007
 90,0.00001243,0.00003352,0.00008117,-0.00002185,-0.00000794,-0.0000056
 4,0.00000553,-0.00000700,-0.00000710,0.00000987,0.00000382,-0.00002207
 ,-0.00000258,-0.00010295,0.00003750,0.00013813,0.00002239,-0.00001441,
 -0.00001106,0.00000807,0.00000713,-0.00000738,-0.00000052,-0.00000763,
 -0.00002198,-0.00004518,-0.00037058,0.00039793,0.00002354,0.00005941,-
 0.00004018,0.00011215,0.00010091,-0.00018072,-0.00003758,0.00003408,-0
 .00005246,-0.00000368,-0.00002094,-0.00000584,0.00000065,0.00000130,0.
 00000144,0.00000022,0.00000049,-0.00000118,-0.00000020,0.00000766,0.00
 000032,-0.00014345,-0.00019409,-0.00004495,0.00016860,0.00031741,-0.00
 017533,-0.00005910,-0.00027976,0.00047071,0.00009540,0.00025935,-0.000
 31730,-0.00008179,0.00009130,-0.00007452,-0.00008042,0.00009077,-0.000
 04458,0.00020327,-0.00040994,0.00021792,-0.00007197,0.00009100,-0.0000
 5275,-0.00000395,0.00001636,-0.00001165,0.00007849,0.00024774,-0.00002
 631,0.00149677,0.00047460,0.00097332,-0.00059899,-0.00005397,-0.000093
 64,-0.00026350,-0.00007116,-0.00046733,-0.00038391,-0.00047602,-0.0002
 4061,-0.01928803,-0.07455778,0.01253439,0.03364373,0.00552171,-0.00543
 175,0.02207291,0.00363970,-0.03027595,-0.00780114,0.07114879,-0.000026
 47,0.00001770,-0.00003544,-0.00008560,0.00003360,-0.00001770,-0.000031
 47,0.00001205,-0.00007528,-0.00001689,0.00003096,-0.00002162,-0.000026
 56,0.00002844,-0.00001957,0.00000136,-0.00000929,0.00000040,0.00000838
 ,-0.00002267,-0.00000698,0.00001257,-0.00001019,0.00000176,0.00000339,
 -0.00000566,0.00000783,0.00001421,0.00000550,-0.00001901,0.00002332,-0
 .00004473,0.00006204,0.00004927,0.00000552,0.00005292,0.00007149,-0.00
 002646,0.00003473,0.00006168,-0.00004491,0.00001722,0.00000502,-0.0000
 4091,0.00002333,0.00007169,-0.00001518,-0.00003059,-0.00001058,0.00000
 315,0.00000327,-0.00001454,0.00000002,0.00000508,-0.00011049,-0.000008
 04,0.00004479,-0.00008135,0.00001730,-0.00000312,0.00001878,0.00000432
 ,0.00000773,0.00002051,-0.00001062,-0.00001687,-0.00000070,-0.00000053
 ,-0.00000300,-0.00002506,0.00002112,0.00002784,0.00001559,-0.00000965,
 0.00000145,-0.00000557,-0.00000135,0.00000091,-0.00000177,0.00000530,-
 0.00000012,-0.00000339,0.00000645,-0.00000576,-0.00000370,0.00000090,-
 0.00000040,0.00000268,0.00000442,-0.00000258,0.00000317,-0.00000606,0.
 00000348,0.00005054,0.00001659,-0.00013337,-0.00002061,-0.00001274,-0.
 00002823,0.00044630,0.00025567,-0.00026472,0.00030028,-0.00000435,-0.0
 0074976,-0.00005594,-0.00003739,0.00017319,-0.00000560,-0.00004568,0.0
 0002854,-0.00000329,0.00001608,-0.00000216,-0.00000808,-0.00002082,-0.
 00000108,0.00003447,-0.00006577,-0.00000967,-0.00001963,0.00003746,0.0
 0000233,-0.00005859,-0.00020788,0.00044054,-0.00002771,0.00033874,-0.0
 0040205,-0.00002137,0.00000085,0.00004962,-0.00001350,-0.00008072,0.00
 005348,0.00001793,-0.00007690,0.00004970,-0.00087199,0.00049099,0.0009
 8803,-0.00000875,-0.00003400,-0.00006176,0.00031702,0.00024626,-0.0007
 5666,0.00039278,-0.00022392,0.00001759,0.00085572,-0.00114459,0.000921
 76,-0.00040887,0.00014826,-0.00035515,-0.00065043,0.00057390,0.0000611
 7,-0.00039408,-0.00005910,0.00034710,0.00066458,0.00028442,0.00042203,
 -0.00025670,0.00000357,0.00097170,0.00002968,0.00185631,0.00054673,0.0
 0007862,-0.00003394,-0.00004774,0.02249106,0.00606361,-0.00116803,0.00
 035440,-0.00037781,-0.00005651,-0.00048250,0.00073642,-0.00313267,0.00
 044048,-0.00020018,-0.00023945,0.00000409,-0.00001000,0.00000013,0.000
 00463,0.00000184,-0.00000008,-0.00000531,0.00000357,0.00000176,0.00000
 280,-0.00000304,0.00000292,0.00002690,0.00002783,-0.00001049,-0.000005
 52,-0.00000332,-0.00000248,0.00000010,-0.00000933,0.00000601,-0.000002
 86,-0.00000645,0.00000189,-0.00000541,0.00004168,0.00002082,0.00000686
 ,-0.00001394,-0.00000104,-0.00002074,-0.00000117,0.00000344,-0.0000013
 6,0.00000324,-0.00000500,-0.00008062,0.00057493,0.00007978,0.00005303,
 -0.00007884,-0.00003621,-0.00020784,-0.00030627,0.00004520,-0.00000942
 ,-0.00005190,-0.00004187,-0.00001086,-0.00001111,-0.00003232,0.0000045
 5,0.00000213,0.00000339,-0.00000013,-0.00000184,0.00000780,-0.00000009
 ,0.00000256,0.00000152,0.00022464,-0.00002203,0.00000799,-0.00068245,0
 .00007762,0.00062339,0.00010145,0.00012208,-0.00094025,-0.00184791,-0.
 00045946,-0.00081905,-0.00006836,0.00009520,-0.00002908,0.00001517,0.0
 0003334,0.00015642,0.00009450,-0.00043802,0.00025264,-0.00011459,0.000
 10367,-0.00009120,0.00001433,0.00002996,0.00010961,0.00025972,0.000367
 93,-0.00009960,-0.00113666,-0.00030255,-0.00101756,0.00042791,0.000046
 90,0.00011669,0.00017869,0.00004062,0.00047603,0.00032068,0.00050331,0
 .00025451,0.07452454,0.01164691,-0.11558731,-0.00862543,-0.00175781,0.
 01857186,0.04044644,-0.02379555,-0.05388387,-0.12699069,0.00516351,0.1
 5415241\\-0.00000015,0.00000042,-0.00000143,-0.00000015,0.00000047,-0.
 00000119,0.,0.00000028,-0.00000112,0.00000008,-0.00000055,-0.00000189,
 0.00000049,-0.00000008,-0.00000077,-0.00000007,0.00000012,-0.00000024,
 -0.00000125,0.00000055,-0.00000036,-0.00000051,0.00000073,-0.00000195,
 0.00000126,-0.00000003,-0.00000167,0.00000009,0.00000013,-0.00000095,0
 .00000029,-0.00000066,0.00000002,0.00000016,0.00000023,-0.00000130,-0.
 00000124,0.00000142,-0.00000079,-0.00000043,0.00000127,-0.00000088,0.0
 0000007,0.00000018,-0.00000236,0.00000133,-0.00000115,-0.00000120,0.00
 000137,-0.00000060,-0.00000164,0.00000169,-0.00000098,-0.00000097,0.00
 000119,-0.00000050,-0.00000082,-0.00000067,0.00000059,0.00000056,-0.00
 000116,0.00000077,-0.00000035,-0.00000127,0.00000097,0.00000020,-0.000
 00167,0.00000158,-0.00000061,-0.00000176,0.00000137,-0.00000159,-0.000
 00090,0.00000138,-0.00000231,-0.00000142,0.00000170,-0.00000147,-0.000
 00142,0.00000163,-0.00000173,0.00000069,0.00000065,-0.00000224,-0.0000
 0035,0.00000085,-0.00000252,-0.00000043,0.00000046,-0.00000208,0.00000
 032,0.00000008,-0.00000275,-0.00000022,-0.00000068,-0.00000089,0.00000
 054,-0.00000028,0.00000013,-0.00000095,0.00000170,-0.00000075,0.000000
 13,-0.00000009,0.00000066,-0.00000030,0.00000081,-0.00000116,0.0000019
 5,-0.00000311,-0.00000009,0.00000053,-0.00000045,-0.00000121,0.0000004
 7,-0.00000019,-0.00000053,-0.00000007,-0.00000013,0.00000105,-0.000000
 29,0.00000055,-0.00000039,0.00000128,-0.00000123,-0.00000090,0.0000016
 0,-0.00000181,0.00000159,0.00000156,-0.00000077,-0.00000163,-0.0000003
 9,0.00000048,-0.00000134,-0.00000084,0.00000066,0.00000004,-0.00000077
 ,0.00000030,0.00000036,-0.00000111,0.00000069,0.00000080,-0.00000054,0
 .00000048,0.00000136,-0.00000081,0.00000063,0.00000011,0.00000055,-0.0
 0000128,0.00000026,0.00000200,-0.00000119,0.00000163,0.00000070,-0.000
 00087,0.00000091,0.00000062,-0.00000139,0.00000195,0.00000034,-0.00000
 030,0.00000255,0.00000067,-0.00000025,0.00000238,0.00000038,-0.0000005
 9,0.00000201,0.00000051,-0.00000085,0.00000162,-0.00000025,-0.00000055
 ,0.00000286,0.00000026,-0.00000111,0.00000165,-0.00000039,-0.00000037,
 0.00000249,-0.00000084,0.00000026,0.00000290,0.00000210,-0.00000128,-0
 .00000138,0.00000156,-0.00000138,-0.00000114,0.00000113,-0.00000077,-0
 .00000191,0.00000191,-0.00000140,-0.00000156,0.00000045,0.00000017,-0.
 00000201,0.00000039,0.00000011,-0.00000149,0.00000071,-0.00000032,-0.0
 0000176,0.00000015,0.00000019,-0.00000244,-0.00000123,0.00000162,-0.00
 000138,-0.00000097,0.00000103,-0.00000126,-0.00000157,0.00000104,-0.00
 000071,-0.00000139,0.00000148,-0.00000045,-0.00000096,0.00000060,0.000
 00055,-0.00000088,0.00000119,0.00000030,-0.00000145,0.00000127,0.00000
 118,-0.00000178,0.00000133,0.00000047,-0.00000007,0.00000023,-0.000001
 39,0.00000081,-0.00000004,-0.00000187,0.00000083,-0.00000056,-0.000001
 25,0.00000041,-0.00000027,-0.00000080,0.00000090,-0.00000081,0.0000013
 8,0.00000045,-0.00000084,0.00000125,0.00000021,-0.00000014,0.00000147,
 -0.00000032,-0.00000006,0.00000153,-0.00000023,-0.00000002,0.00000071,
 -0.00000003,-0.00000029,0.00000097,0.00000059,-0.00000104,0.00000254,0
 .00000086,-0.00000095,0.00000182,0.00000117,-0.00000133,0.00000185,0.0
 0000030,-0.00000059,0.00000221,-0.00000135,0.00000041,0.00000244,0.000
 00008,-0.00000062,0.00000311,-0.00000107,0.00000034,0.00000315,-0.0000
 0031,-0.00000008,0.00000214,-0.00000041,0.00000042,0.00000230,-0.00000
 036,-0.00000028,0.00000397,-0.00000009,-0.00000074,0.00000291,-0.00000
 103,0.00000005,0.00000249\\\@


 ARTHROPOD AXIOM: A COMPUTER SYSTEM IS LIKE A SPIDER'S WEB.
 YOU CANNOT PULL ON ONE END WITHOUT MAKING THE OTHER END MOVE.
     -- GREG WETTSTEIN
 Job cpu time:       5 days  0 hours  5 minutes 23.9 seconds.
 Elapsed time:       0 days  3 hours 59 minutes  5.7 seconds.
 File lengths (MBytes):  RWF=   9721 Int=      0 D2E=      0 Chk=     85 Scr=      1
 Normal termination of Gaussian 16 at Thu May 23 02:29:51 2019.
