 Entering Gaussian System, Link 0=g16
 Input=clay_new-glu_gluC6-bisCF3-sm-b3lyp_d3bj-631gd-pcm_thf.gjf
 Output=clay_new-glu_gluC6-bisCF3-sm-b3lyp_d3bj-631gd-pcm_thf.out
 Initial command:
 /home/ekwan/sw/g16/l1.exe "/scratch/users/ekwan/clay_new-glu_gluC6-bisCF3-sm-b3lyp_d3bj-631gd-pcm_thf/Gau-9677.inp" -scrdir="/scratch/users/ekwan/clay_new-glu_gluC6-bisCF3-sm-b3lyp_d3bj-631gd-pcm_thf/"
 Entering Link 1 = /home/ekwan/sw/g16/l1.exe PID=      9678.
  
 Copyright (c) 1988,1990,1992,1993,1995,1998,2003,2009,2016,
            Gaussian, Inc.  All Rights Reserved.
  
 This is part of the Gaussian(R) 16 program.  It is based on
 the Gaussian(R) 09 system (copyright 2009, Gaussian, Inc.),
 the Gaussian(R) 03 system (copyright 2003, Gaussian, Inc.),
 the Gaussian(R) 98 system (copyright 1998, Gaussian, Inc.),
 the Gaussian(R) 94 system (copyright 1995, Gaussian, Inc.),
 the Gaussian 92(TM) system (copyright 1992, Gaussian, Inc.),
 the Gaussian 90(TM) system (copyright 1990, Gaussian, Inc.),
 the Gaussian 88(TM) system (copyright 1988, Gaussian, Inc.),
 the Gaussian 86(TM) system (copyright 1986, Carnegie Mellon
 University), and the Gaussian 82(TM) system (copyright 1983,
 Carnegie Mellon University). Gaussian is a federally registered
 trademark of Gaussian, Inc.
  
 This software contains proprietary and confidential information,
 including trade secrets, belonging to Gaussian, Inc.
  
 This software is provided under written license and may be
 used, copied, transmitted, or stored only in accord with that
 written license.
  
 The following legend is applicable only to US Government
 contracts under FAR:
  
                    RESTRICTED RIGHTS LEGEND
  
 Use, reproduction and disclosure by the US Government is
 subject to restrictions as set forth in subparagraphs (a)
 and (c) of the Commercial Computer Software - Restricted
 Rights clause in FAR 52.227-19.
  
 Gaussian, Inc.
 340 Quinnipiac St., Bldg. 40, Wallingford CT 06492
  
  
 ---------------------------------------------------------------
 Warning -- This program may not be used in any manner that
 competes with the business of Gaussian, Inc. or will provide
 assistance to any competitor of Gaussian, Inc.  The licensee
 of this program is prohibited from giving any competitor of
 Gaussian, Inc. access to this program.  By using this program,
 the user acknowledges that Gaussian, Inc. is engaged in the
 business of creating and licensing software in the field of
 computational chemistry and represents and warrants to the
 licensee that it is not a competitor of Gaussian, Inc. and that
 it will not use this program in any manner prohibited above.
 ---------------------------------------------------------------
  

 Cite this work as:
 Gaussian 16, Revision A.03,
 M. J. Frisch, G. W. Trucks, H. B. Schlegel, G. E. Scuseria, 
 M. A. Robb, J. R. Cheeseman, G. Scalmani, V. Barone, 
 G. A. Petersson, H. Nakatsuji, X. Li, M. Caricato, A. V. Marenich, 
 J. Bloino, B. G. Janesko, R. Gomperts, B. Mennucci, H. P. Hratchian, 
 J. V. Ortiz, A. F. Izmaylov, J. L. Sonnenberg, D. Williams-Young, 
 F. Ding, F. Lipparini, F. Egidi, J. Goings, B. Peng, A. Petrone, 
 T. Henderson, D. Ranasinghe, V. G. Zakrzewski, J. Gao, N. Rega, 
 G. Zheng, W. Liang, M. Hada, M. Ehara, K. Toyota, R. Fukuda, 
 J. Hasegawa, M. Ishida, T. Nakajima, Y. Honda, O. Kitao, H. Nakai, 
 T. Vreven, K. Throssell, J. A. Montgomery, Jr., J. E. Peralta, 
 F. Ogliaro, M. J. Bearpark, J. J. Heyd, E. N. Brothers, K. N. Kudin, 
 V. N. Staroverov, T. A. Keith, R. Kobayashi, J. Normand, 
 K. Raghavachari, A. P. Rendell, J. C. Burant, S. S. Iyengar, 
 J. Tomasi, M. Cossi, J. M. Millam, M. Klene, C. Adamo, R. Cammi, 
 J. W. Ochterski, R. L. Martin, K. Morokuma, O. Farkas, 
 J. B. Foresman, and D. J. Fox, Gaussian, Inc., Wallingford CT, 2016.
 
 ******************************************
 Gaussian 16:  AS64L-G16RevA.03 25-Dec-2016
                 5-May-2019 
 ******************************************
 %nprocshared=16
 Will use up to   16 processors via shared memory.
 %mem=24GB
 ----------------------------------------------------------------------
 #p opt=(calcfc,maxstep=1) freq=noraman b3lyp/6-31g(d) scrf=(solvent=te
 trahydrofuran,pcm) pop=none empiricaldispersion=gd3bj
 ----------------------------------------------------------------------
 1/8=1,10=4,18=20,19=15,26=3,38=1/1,3;
 2/9=110,12=2,17=6,18=5,40=1/2;
 3/5=1,6=6,7=1,11=2,25=1,30=1,70=2201,71=2,72=20,74=-5,124=41,140=1/1,2,3;
 4//1;
 5/5=2,38=5,53=20/2;
 8/6=4,10=90,11=11/1;
 11/6=1,8=1,9=11,15=111,16=1/1,2,10;
 10/6=1,13=1/2;
 7/10=1,18=20,25=1/1,2,3,16;
 1/8=1,10=4,18=20,19=15,26=3/3(2);
 2/9=110/2;
 99//99;
 2/9=110/2;
 3/5=1,6=6,7=1,11=2,25=1,30=1,70=2205,71=1,72=20,74=-5,124=41/1,2,3;
 4/5=5,16=3,69=1/1;
 5/5=2,38=5,53=20/2;
 7//1,2,3,16;
 1/8=1,18=20,19=15,26=3/3(-5);
 2/9=110/2;
 99/9=1/99;
 Leave Link    1 at Sun May  5 09:55:08 2019, MaxMem=  3221225472 cpu:               2.5 elap:               0.2
 (Enter /home/ekwan/sw/g16/l101.exe)
 -----
 title
 -----
 Symbolic Z-matrix:
 Charge =  0 Multiplicity = 1
 C                     3.39397   0.39486   0.58062 
 C                     3.30729  -0.51003  -0.65157 
 C                     1.84558  -0.8413   -0.99551 
 C                     1.02073   1.12668   0.08653 
 C                     2.43782   1.57978   0.44457 
 H                     1.75502  -1.36124  -1.94834 
 H                     3.70313   0.04725  -1.51563 
 H                     3.11129  -0.18375   1.47019 
 H                     0.60559   0.55092   0.92361 
 H                     2.80225   2.23752  -0.35303 
 O                     1.04106   0.28647  -1.08986 
 O                     1.38295  -1.73992   0.05893 
 O                     4.08068  -1.66365  -0.4129 
 O                     4.70373   0.92001   0.72754 
 O                     2.35546   2.28404   1.67414 
 C                     0.0848    2.30141  -0.18086 
 H                    -0.10281   2.79089   0.77795 
 H                    -0.86729   1.92291  -0.5741 
 O                     0.6154    3.29966  -1.03353 
 S                     0.09456  -2.69224  -0.25779 
 O                     0.08249  -3.65831   0.83216 
 O                     0.15268  -3.11598  -1.65624 
 C                    -1.28387  -1.57579  -0.05736 
 C                    -1.74427  -1.30201   1.22701 
 C                    -1.82712  -0.96582  -1.1846 
 C                    -2.78347  -0.38389   1.37958 
 H                    -1.30304  -1.79239   2.08642 
 C                    -2.8632   -0.05247  -1.00917 
 H                    -1.44568  -1.19576  -2.17078 
 C                    -3.34357   0.24297   0.26781 
 H                    -4.14585   0.9601    0.39529 
 C                     4.29719  -2.47742  -1.55893 
 H                     3.38326  -3.00134  -1.86861 
 H                     4.67401  -1.88305  -2.40318 
 H                     5.04745  -3.21885  -1.27737 
 C                     5.53966   0.18998   1.61798 
 H                     6.4865    0.73339   1.66988 
 H                     5.09823   0.14442   2.62371 
 H                     5.71876  -0.82801   1.25766 
 C                     3.03831   3.53291   1.67176 
 H                     2.88468   3.97453   2.65967 
 H                     4.11095   3.39595   1.49512 
 H                     2.62455   4.20409   0.9073 
 C                     0.57039   2.97813  -2.41997 
 H                     0.8065    3.89767  -2.96157 
 H                    -0.43147   2.63413  -2.70987 
 H                     1.2972    2.20255  -2.68577 
 C                    -3.33791  -0.10901   2.75334 
 F                    -2.39233  -0.24656   3.70508 
 F                    -4.33934  -0.96287   3.05897 
 F                    -3.8378    1.1405    2.84476 
 C                    -3.41904   0.69142  -2.19389 
 F                    -2.86538   1.92728  -2.29392 
 F                    -4.75081   0.87036  -2.08894 
 F                    -3.17452   0.05162  -3.35261 
 
 ITRead=  0  0  0  0  0  0  0  0  0  0  0  0  0  0  0  0  0  0  0  0
 ITRead=  0  0  0  0  0  0  0  0  0  0  0  0  0  0  0  0  0  0  0  0
 ITRead=  0  0  0  0  0  0  0  0  0  0  0  0  0  0  0
 MicOpt= -1 -1 -1 -1 -1 -1 -1 -1 -1 -1 -1 -1 -1 -1 -1 -1 -1 -1 -1 -1
 MicOpt= -1 -1 -1 -1 -1 -1 -1 -1 -1 -1 -1 -1 -1 -1 -1 -1 -1 -1 -1 -1
 MicOpt= -1 -1 -1 -1 -1 -1 -1 -1 -1 -1 -1 -1 -1 -1 -1
 NAtoms=     55 NQM=       55 NQMF=       0 NMMI=      0 NMMIF=      0
                NMic=       0 NMicF=      0.
                    Isotopes and Nuclear Properties:
 (Nuclear quadrupole moments (NQMom) in fm**2, nuclear magnetic moments (NMagM)
  in nuclear magnetons)

  Atom         1           2           3           4           5           6           7           8           9          10
 IAtWgt=          12          12          12          12          12           1           1           1           1           1
 AtmWgt=  12.0000000  12.0000000  12.0000000  12.0000000  12.0000000   1.0078250   1.0078250   1.0078250   1.0078250   1.0078250
 NucSpn=           0           0           0           0           0           1           1           1           1           1
 AtZEff=   0.0000000   0.0000000   0.0000000   0.0000000   0.0000000   0.0000000   0.0000000   0.0000000   0.0000000   0.0000000
 NQMom=    0.0000000   0.0000000   0.0000000   0.0000000   0.0000000   0.0000000   0.0000000   0.0000000   0.0000000   0.0000000
 NMagM=    0.0000000   0.0000000   0.0000000   0.0000000   0.0000000   2.7928460   2.7928460   2.7928460   2.7928460   2.7928460
 AtZNuc=   6.0000000   6.0000000   6.0000000   6.0000000   6.0000000   1.0000000   1.0000000   1.0000000   1.0000000   1.0000000

  Atom        11          12          13          14          15          16          17          18          19          20
 IAtWgt=          16          16          16          16          16          12           1           1          16          32
 AtmWgt=  15.9949146  15.9949146  15.9949146  15.9949146  15.9949146  12.0000000   1.0078250   1.0078250  15.9949146  31.9720718
 NucSpn=           0           0           0           0           0           0           1           1           0           0
 AtZEff=   0.0000000   0.0000000   0.0000000   0.0000000   0.0000000   0.0000000   0.0000000   0.0000000   0.0000000   0.0000000
 NQMom=    0.0000000   0.0000000   0.0000000   0.0000000   0.0000000   0.0000000   0.0000000   0.0000000   0.0000000   0.0000000
 NMagM=    0.0000000   0.0000000   0.0000000   0.0000000   0.0000000   0.0000000   2.7928460   2.7928460   0.0000000   0.0000000
 AtZNuc=   8.0000000   8.0000000   8.0000000   8.0000000   8.0000000   6.0000000   1.0000000   1.0000000   8.0000000  16.0000000

  Atom        21          22          23          24          25          26          27          28          29          30
 IAtWgt=          16          16          12          12          12          12           1          12           1          12
 AtmWgt=  15.9949146  15.9949146  12.0000000  12.0000000  12.0000000  12.0000000   1.0078250  12.0000000   1.0078250  12.0000000
 NucSpn=           0           0           0           0           0           0           1           0           1           0
 AtZEff=   0.0000000   0.0000000   0.0000000   0.0000000   0.0000000   0.0000000   0.0000000   0.0000000   0.0000000   0.0000000
 NQMom=    0.0000000   0.0000000   0.0000000   0.0000000   0.0000000   0.0000000   0.0000000   0.0000000   0.0000000   0.0000000
 NMagM=    0.0000000   0.0000000   0.0000000   0.0000000   0.0000000   0.0000000   2.7928460   0.0000000   2.7928460   0.0000000
 AtZNuc=   8.0000000   8.0000000   6.0000000   6.0000000   6.0000000   6.0000000   1.0000000   6.0000000   1.0000000   6.0000000

  Atom        31          32          33          34          35          36          37          38          39          40
 IAtWgt=           1          12           1           1           1          12           1           1           1          12
 AtmWgt=   1.0078250  12.0000000   1.0078250   1.0078250   1.0078250  12.0000000   1.0078250   1.0078250   1.0078250  12.0000000
 NucSpn=           1           0           1           1           1           0           1           1           1           0
 AtZEff=   0.0000000   0.0000000   0.0000000   0.0000000   0.0000000   0.0000000   0.0000000   0.0000000   0.0000000   0.0000000
 NQMom=    0.0000000   0.0000000   0.0000000   0.0000000   0.0000000   0.0000000   0.0000000   0.0000000   0.0000000   0.0000000
 NMagM=    2.7928460   0.0000000   2.7928460   2.7928460   2.7928460   0.0000000   2.7928460   2.7928460   2.7928460   0.0000000
 AtZNuc=   1.0000000   6.0000000   1.0000000   1.0000000   1.0000000   6.0000000   1.0000000   1.0000000   1.0000000   6.0000000

  Atom        41          42          43          44          45          46          47          48          49          50
 IAtWgt=           1           1           1          12           1           1           1          12          19          19
 AtmWgt=   1.0078250   1.0078250   1.0078250  12.0000000   1.0078250   1.0078250   1.0078250  12.0000000  18.9984033  18.9984033
 NucSpn=           1           1           1           0           1           1           1           0           1           1
 AtZEff=   0.0000000   0.0000000   0.0000000   0.0000000   0.0000000   0.0000000   0.0000000   0.0000000   0.0000000   0.0000000
 NQMom=    0.0000000   0.0000000   0.0000000   0.0000000   0.0000000   0.0000000   0.0000000   0.0000000   0.0000000   0.0000000
 NMagM=    2.7928460   2.7928460   2.7928460   0.0000000   2.7928460   2.7928460   2.7928460   0.0000000   2.6288670   2.6288670
 AtZNuc=   1.0000000   1.0000000   1.0000000   6.0000000   1.0000000   1.0000000   1.0000000   6.0000000   9.0000000   9.0000000

  Atom        51          52          53          54          55
 IAtWgt=          19          12          19          19          19
 AtmWgt=  18.9984033  12.0000000  18.9984033  18.9984033  18.9984033
 NucSpn=           1           0           1           1           1
 AtZEff=   0.0000000   0.0000000   0.0000000   0.0000000   0.0000000
 NQMom=    0.0000000   0.0000000   0.0000000   0.0000000   0.0000000
 NMagM=    2.6288670   0.0000000   2.6288670   2.6288670   2.6288670
 AtZNuc=   9.0000000   6.0000000   9.0000000   9.0000000   9.0000000
 Leave Link  101 at Sun May  5 09:55:09 2019, MaxMem=  3221225472 cpu:               8.4 elap:               0.6
 (Enter /home/ekwan/sw/g16/l103.exe)

 GradGradGradGradGradGradGradGradGradGradGradGradGradGradGradGradGradGrad
 Berny optimization.
 Initialization pass.
                           ----------------------------
                           !    Initial Parameters    !
                           ! (Angstroms and Degrees)  !
 --------------------------                            --------------------------
 ! Name  Definition              Value          Derivative Info.                !
 --------------------------------------------------------------------------------
 ! R1    R(1,2)                  1.5312         calculate D2E/DX2 analytically  !
 ! R2    R(1,5)                  1.5287         calculate D2E/DX2 analytically  !
 ! R3    R(1,8)                  1.0982         calculate D2E/DX2 analytically  !
 ! R4    R(1,14)                 1.4187         calculate D2E/DX2 analytically  !
 ! R5    R(2,3)                  1.5377         calculate D2E/DX2 analytically  !
 ! R6    R(2,7)                  1.1018         calculate D2E/DX2 analytically  !
 ! R7    R(2,13)                 1.4092         calculate D2E/DX2 analytically  !
 ! R8    R(3,6)                  1.0892         calculate D2E/DX2 analytically  !
 ! R9    R(3,11)                 1.3885         calculate D2E/DX2 analytically  !
 ! R10   R(3,12)                 1.4606         calculate D2E/DX2 analytically  !
 ! R11   R(4,5)                  1.5302         calculate D2E/DX2 analytically  !
 ! R12   R(4,9)                  1.0975         calculate D2E/DX2 analytically  !
 ! R13   R(4,11)                 1.4458         calculate D2E/DX2 analytically  !
 ! R14   R(4,16)                 1.5256         calculate D2E/DX2 analytically  !
 ! R15   R(5,10)                 1.0962         calculate D2E/DX2 analytically  !
 ! R16   R(5,15)                 1.4194         calculate D2E/DX2 analytically  !
 ! R17   R(12,20)                1.6332         calculate D2E/DX2 analytically  !
 ! R18   R(13,32)                1.4221         calculate D2E/DX2 analytically  !
 ! R19   R(14,36)                1.4229         calculate D2E/DX2 analytically  !
 ! R20   R(15,40)                1.4234         calculate D2E/DX2 analytically  !
 ! R21   R(16,17)                1.0928         calculate D2E/DX2 analytically  !
 ! R22   R(16,18)                1.0974         calculate D2E/DX2 analytically  !
 ! R23   R(16,19)                1.416          calculate D2E/DX2 analytically  !
 ! R24   R(19,44)                1.424          calculate D2E/DX2 analytically  !
 ! R25   R(20,21)                1.4565         calculate D2E/DX2 analytically  !
 ! R26   R(20,22)                1.4624         calculate D2E/DX2 analytically  !
 ! R27   R(20,23)                1.7851         calculate D2E/DX2 analytically  !
 ! R28   R(23,24)                1.3916         calculate D2E/DX2 analytically  !
 ! R29   R(23,25)                1.3921         calculate D2E/DX2 analytically  !
 ! R30   R(24,26)                1.395          calculate D2E/DX2 analytically  !
 ! R31   R(24,27)                1.0834         calculate D2E/DX2 analytically  !
 ! R32   R(25,28)                1.3923         calculate D2E/DX2 analytically  !
 ! R33   R(25,29)                1.0821         calculate D2E/DX2 analytically  !
 ! R34   R(26,30)                1.3938         calculate D2E/DX2 analytically  !
 ! R35   R(26,48)                1.5067         calculate D2E/DX2 analytically  !
 ! R36   R(28,30)                1.396          calculate D2E/DX2 analytically  !
 ! R37   R(28,52)                1.5053         calculate D2E/DX2 analytically  !
 ! R38   R(30,31)                1.0836         calculate D2E/DX2 analytically  !
 ! R39   R(32,33)                1.098          calculate D2E/DX2 analytically  !
 ! R40   R(32,34)                1.0991         calculate D2E/DX2 analytically  !
 ! R41   R(32,35)                1.0917         calculate D2E/DX2 analytically  !
 ! R42   R(36,37)                1.0929         calculate D2E/DX2 analytically  !
 ! R43   R(36,38)                1.0993         calculate D2E/DX2 analytically  !
 ! R44   R(36,39)                1.0946         calculate D2E/DX2 analytically  !
 ! R45   R(40,41)                1.093          calculate D2E/DX2 analytically  !
 ! R46   R(40,42)                1.0957         calculate D2E/DX2 analytically  !
 ! R47   R(40,43)                1.0982         calculate D2E/DX2 analytically  !
 ! R48   R(44,45)                1.093          calculate D2E/DX2 analytically  !
 ! R49   R(44,46)                1.0982         calculate D2E/DX2 analytically  !
 ! R50   R(44,47)                1.0956         calculate D2E/DX2 analytically  !
 ! R51   R(48,49)                1.3486         calculate D2E/DX2 analytically  !
 ! R52   R(48,50)                1.3511         calculate D2E/DX2 analytically  !
 ! R53   R(48,51)                1.3489         calculate D2E/DX2 analytically  !
 ! R54   R(52,53)                1.3579         calculate D2E/DX2 analytically  !
 ! R55   R(52,54)                1.3478         calculate D2E/DX2 analytically  !
 ! R56   R(52,55)                1.346          calculate D2E/DX2 analytically  !
 ! A1    A(2,1,5)              110.5516         calculate D2E/DX2 analytically  !
 ! A2    A(2,1,8)              109.0205         calculate D2E/DX2 analytically  !
 ! A3    A(2,1,14)             110.7528         calculate D2E/DX2 analytically  !
 ! A4    A(5,1,8)              108.6321         calculate D2E/DX2 analytically  !
 ! A5    A(5,1,14)             107.4419         calculate D2E/DX2 analytically  !
 ! A6    A(8,1,14)             110.4121         calculate D2E/DX2 analytically  !
 ! A7    A(1,2,3)              111.1683         calculate D2E/DX2 analytically  !
 ! A8    A(1,2,7)              108.1708         calculate D2E/DX2 analytically  !
 ! A9    A(1,2,13)             108.4465         calculate D2E/DX2 analytically  !
 ! A10   A(3,2,7)              105.9657         calculate D2E/DX2 analytically  !
 ! A11   A(3,2,13)             112.5321         calculate D2E/DX2 analytically  !
 ! A12   A(7,2,13)             110.47           calculate D2E/DX2 analytically  !
 ! A13   A(2,3,6)              112.1802         calculate D2E/DX2 analytically  !
 ! A14   A(2,3,11)             113.0159         calculate D2E/DX2 analytically  !
 ! A15   A(2,3,12)             105.7917         calculate D2E/DX2 analytically  !
 ! A16   A(6,3,11)             106.266          calculate D2E/DX2 analytically  !
 ! A17   A(6,3,12)             108.1496         calculate D2E/DX2 analytically  !
 ! A18   A(11,3,12)            111.4219         calculate D2E/DX2 analytically  !
 ! A19   A(5,4,9)              109.0961         calculate D2E/DX2 analytically  !
 ! A20   A(5,4,11)             110.4528         calculate D2E/DX2 analytically  !
 ! A21   A(5,4,16)             112.4035         calculate D2E/DX2 analytically  !
 ! A22   A(9,4,11)             108.7261         calculate D2E/DX2 analytically  !
 ! A23   A(9,4,16)             107.793          calculate D2E/DX2 analytically  !
 ! A24   A(11,4,16)            108.2711         calculate D2E/DX2 analytically  !
 ! A25   A(1,5,4)              111.7491         calculate D2E/DX2 analytically  !
 ! A26   A(1,5,10)             108.7792         calculate D2E/DX2 analytically  !
 ! A27   A(1,5,15)             110.1086         calculate D2E/DX2 analytically  !
 ! A28   A(4,5,10)             108.3787         calculate D2E/DX2 analytically  !
 ! A29   A(4,5,15)             107.2097         calculate D2E/DX2 analytically  !
 ! A30   A(10,5,15)            110.6034         calculate D2E/DX2 analytically  !
 ! A31   A(3,11,4)             115.1428         calculate D2E/DX2 analytically  !
 ! A32   A(3,12,20)            117.9453         calculate D2E/DX2 analytically  !
 ! A33   A(2,13,32)            114.5508         calculate D2E/DX2 analytically  !
 ! A34   A(1,14,36)            114.6614         calculate D2E/DX2 analytically  !
 ! A35   A(5,15,40)            113.9579         calculate D2E/DX2 analytically  !
 ! A36   A(4,16,17)            107.2451         calculate D2E/DX2 analytically  !
 ! A37   A(4,16,18)            109.2361         calculate D2E/DX2 analytically  !
 ! A38   A(4,16,19)            114.7399         calculate D2E/DX2 analytically  !
 ! A39   A(17,16,18)           108.6601         calculate D2E/DX2 analytically  !
 ! A40   A(17,16,19)           106.075          calculate D2E/DX2 analytically  !
 ! A41   A(18,16,19)           110.6375         calculate D2E/DX2 analytically  !
 ! A42   A(16,19,44)           114.5362         calculate D2E/DX2 analytically  !
 ! A43   A(12,20,21)           104.3701         calculate D2E/DX2 analytically  !
 ! A44   A(12,20,22)           108.8479         calculate D2E/DX2 analytically  !
 ! A45   A(12,20,23)           102.8677         calculate D2E/DX2 analytically  !
 ! A46   A(21,20,22)           121.5839         calculate D2E/DX2 analytically  !
 ! A47   A(21,20,23)           108.9296         calculate D2E/DX2 analytically  !
 ! A48   A(22,20,23)           108.6192         calculate D2E/DX2 analytically  !
 ! A49   A(20,23,24)           118.8252         calculate D2E/DX2 analytically  !
 ! A50   A(20,23,25)           118.977          calculate D2E/DX2 analytically  !
 ! A51   A(24,23,25)           122.1442         calculate D2E/DX2 analytically  !
 ! A52   A(23,24,26)           118.4816         calculate D2E/DX2 analytically  !
 ! A53   A(23,24,27)           120.554          calculate D2E/DX2 analytically  !
 ! A54   A(26,24,27)           120.9645         calculate D2E/DX2 analytically  !
 ! A55   A(23,25,28)           118.4125         calculate D2E/DX2 analytically  !
 ! A56   A(23,25,29)           120.4852         calculate D2E/DX2 analytically  !
 ! A57   A(28,25,29)           121.1014         calculate D2E/DX2 analytically  !
 ! A58   A(24,26,30)           120.5372         calculate D2E/DX2 analytically  !
 ! A59   A(24,26,48)           119.5974         calculate D2E/DX2 analytically  !
 ! A60   A(30,26,48)           119.8243         calculate D2E/DX2 analytically  !
 ! A61   A(25,28,30)           120.6757         calculate D2E/DX2 analytically  !
 ! A62   A(25,28,52)           119.9872         calculate D2E/DX2 analytically  !
 ! A63   A(30,28,52)           119.2288         calculate D2E/DX2 analytically  !
 ! A64   A(26,30,28)           119.7486         calculate D2E/DX2 analytically  !
 ! A65   A(26,30,31)           120.0879         calculate D2E/DX2 analytically  !
 ! A66   A(28,30,31)           120.163          calculate D2E/DX2 analytically  !
 ! A67   A(13,32,33)           111.9372         calculate D2E/DX2 analytically  !
 ! A68   A(13,32,34)           111.2072         calculate D2E/DX2 analytically  !
 ! A69   A(13,32,35)           106.5829         calculate D2E/DX2 analytically  !
 ! A70   A(33,32,34)           109.0718         calculate D2E/DX2 analytically  !
 ! A71   A(33,32,35)           108.7048         calculate D2E/DX2 analytically  !
 ! A72   A(34,32,35)           109.2541         calculate D2E/DX2 analytically  !
 ! A73   A(14,36,37)           106.4737         calculate D2E/DX2 analytically  !
 ! A74   A(14,36,38)           110.9705         calculate D2E/DX2 analytically  !
 ! A75   A(14,36,39)           111.5468         calculate D2E/DX2 analytically  !
 ! A76   A(37,36,38)           108.9686         calculate D2E/DX2 analytically  !
 ! A77   A(37,36,39)           109.6508         calculate D2E/DX2 analytically  !
 ! A78   A(38,36,39)           109.167          calculate D2E/DX2 analytically  !
 ! A79   A(15,40,41)           106.5933         calculate D2E/DX2 analytically  !
 ! A80   A(15,40,42)           111.115          calculate D2E/DX2 analytically  !
 ! A81   A(15,40,43)           110.8945         calculate D2E/DX2 analytically  !
 ! A82   A(41,40,42)           109.5015         calculate D2E/DX2 analytically  !
 ! A83   A(41,40,43)           109.2254         calculate D2E/DX2 analytically  !
 ! A84   A(42,40,43)           109.4516         calculate D2E/DX2 analytically  !
 ! A85   A(19,44,45)           106.5991         calculate D2E/DX2 analytically  !
 ! A86   A(19,44,46)           110.8905         calculate D2E/DX2 analytically  !
 ! A87   A(19,44,47)           112.0296         calculate D2E/DX2 analytically  !
 ! A88   A(45,44,46)           109.2549         calculate D2E/DX2 analytically  !
 ! A89   A(45,44,47)           109.3922         calculate D2E/DX2 analytically  !
 ! A90   A(46,44,47)           108.6261         calculate D2E/DX2 analytically  !
 ! A91   A(26,48,49)           111.5193         calculate D2E/DX2 analytically  !
 ! A92   A(26,48,50)           111.3285         calculate D2E/DX2 analytically  !
 ! A93   A(26,48,51)           111.5406         calculate D2E/DX2 analytically  !
 ! A94   A(49,48,50)           107.1931         calculate D2E/DX2 analytically  !
 ! A95   A(49,48,51)           107.8475         calculate D2E/DX2 analytically  !
 ! A96   A(50,48,51)           107.1819         calculate D2E/DX2 analytically  !
 ! A97   A(28,52,53)           110.9271         calculate D2E/DX2 analytically  !
 ! A98   A(28,52,54)           111.6656         calculate D2E/DX2 analytically  !
 ! A99   A(28,52,55)           112.058          calculate D2E/DX2 analytically  !
 ! A100  A(53,52,54)           106.725          calculate D2E/DX2 analytically  !
 ! A101  A(53,52,55)           107.165          calculate D2E/DX2 analytically  !
 ! A102  A(54,52,55)           108.0373         calculate D2E/DX2 analytically  !
 ! D1    D(5,1,2,3)            -48.8783         calculate D2E/DX2 analytically  !
 ! D2    D(5,1,2,7)             67.0691         calculate D2E/DX2 analytically  !
 ! D3    D(5,1,2,13)          -173.0969         calculate D2E/DX2 analytically  !
 ! D4    D(8,1,2,3)             70.4724         calculate D2E/DX2 analytically  !
 ! D5    D(8,1,2,7)           -173.5802         calculate D2E/DX2 analytically  !
 ! D6    D(8,1,2,13)           -53.7462         calculate D2E/DX2 analytically  !
 ! D7    D(14,1,2,3)          -167.8504         calculate D2E/DX2 analytically  !
 ! D8    D(14,1,2,7)           -51.903          calculate D2E/DX2 analytically  !
 ! D9    D(14,1,2,13)           67.931          calculate D2E/DX2 analytically  !
 ! D10   D(2,1,5,4)             51.1314         calculate D2E/DX2 analytically  !
 ! D11   D(2,1,5,10)           -68.4853         calculate D2E/DX2 analytically  !
 ! D12   D(2,1,5,15)           170.1624         calculate D2E/DX2 analytically  !
 ! D13   D(8,1,5,4)            -68.4536         calculate D2E/DX2 analytically  !
 ! D14   D(8,1,5,10)           171.9297         calculate D2E/DX2 analytically  !
 ! D15   D(8,1,5,15)            50.5774         calculate D2E/DX2 analytically  !
 ! D16   D(14,1,5,4)           172.0921         calculate D2E/DX2 analytically  !
 ! D17   D(14,1,5,10)           52.4754         calculate D2E/DX2 analytically  !
 ! D18   D(14,1,5,15)          -68.8769         calculate D2E/DX2 analytically  !
 ! D19   D(2,1,14,36)          -95.7942         calculate D2E/DX2 analytically  !
 ! D20   D(5,1,14,36)          143.3719         calculate D2E/DX2 analytically  !
 ! D21   D(8,1,14,36)           25.0617         calculate D2E/DX2 analytically  !
 ! D22   D(1,2,3,6)            171.6726         calculate D2E/DX2 analytically  !
 ! D23   D(1,2,3,11)            51.5516         calculate D2E/DX2 analytically  !
 ! D24   D(1,2,3,12)           -70.6246         calculate D2E/DX2 analytically  !
 ! D25   D(7,2,3,6)             54.3744         calculate D2E/DX2 analytically  !
 ! D26   D(7,2,3,11)           -65.7465         calculate D2E/DX2 analytically  !
 ! D27   D(7,2,3,12)           172.0772         calculate D2E/DX2 analytically  !
 ! D28   D(13,2,3,6)           -66.4563         calculate D2E/DX2 analytically  !
 ! D29   D(13,2,3,11)          173.4227         calculate D2E/DX2 analytically  !
 ! D30   D(13,2,3,12)           51.2465         calculate D2E/DX2 analytically  !
 ! D31   D(1,2,13,32)         -168.8401         calculate D2E/DX2 analytically  !
 ! D32   D(3,2,13,32)           67.7579         calculate D2E/DX2 analytically  !
 ! D33   D(7,2,13,32)          -50.4539         calculate D2E/DX2 analytically  !
 ! D34   D(2,3,11,4)           -56.4941         calculate D2E/DX2 analytically  !
 ! D35   D(6,3,11,4)          -179.9449         calculate D2E/DX2 analytically  !
 ! D36   D(12,3,11,4)           62.4715         calculate D2E/DX2 analytically  !
 ! D37   D(2,3,12,20)         -158.5836         calculate D2E/DX2 analytically  !
 ! D38   D(6,3,12,20)          -38.2138         calculate D2E/DX2 analytically  !
 ! D39   D(11,3,12,20)          78.2253         calculate D2E/DX2 analytically  !
 ! D40   D(9,4,5,1)             65.8452         calculate D2E/DX2 analytically  !
 ! D41   D(9,4,5,10)          -174.3024         calculate D2E/DX2 analytically  !
 ! D42   D(9,4,5,15)           -54.8896         calculate D2E/DX2 analytically  !
 ! D43   D(11,4,5,1)           -53.608          calculate D2E/DX2 analytically  !
 ! D44   D(11,4,5,10)           66.2444         calculate D2E/DX2 analytically  !
 ! D45   D(11,4,5,15)         -174.3428         calculate D2E/DX2 analytically  !
 ! D46   D(16,4,5,1)          -174.6501         calculate D2E/DX2 analytically  !
 ! D47   D(16,4,5,10)          -54.7977         calculate D2E/DX2 analytically  !
 ! D48   D(16,4,5,15)           64.6151         calculate D2E/DX2 analytically  !
 ! D49   D(5,4,11,3)            57.1226         calculate D2E/DX2 analytically  !
 ! D50   D(9,4,11,3)           -62.5541         calculate D2E/DX2 analytically  !
 ! D51   D(16,4,11,3)         -179.4076         calculate D2E/DX2 analytically  !
 ! D52   D(5,4,16,17)          -70.6929         calculate D2E/DX2 analytically  !
 ! D53   D(5,4,16,18)          171.7171         calculate D2E/DX2 analytically  !
 ! D54   D(5,4,16,19)           46.8405         calculate D2E/DX2 analytically  !
 ! D55   D(9,4,16,17)           49.5681         calculate D2E/DX2 analytically  !
 ! D56   D(9,4,16,18)          -68.0219         calculate D2E/DX2 analytically  !
 ! D57   D(9,4,16,19)          167.1015         calculate D2E/DX2 analytically  !
 ! D58   D(11,4,16,17)         167.0218         calculate D2E/DX2 analytically  !
 ! D59   D(11,4,16,18)          49.4318         calculate D2E/DX2 analytically  !
 ! D60   D(11,4,16,19)         -75.4448         calculate D2E/DX2 analytically  !
 ! D61   D(1,5,15,40)          106.2816         calculate D2E/DX2 analytically  !
 ! D62   D(4,5,15,40)         -131.9497         calculate D2E/DX2 analytically  !
 ! D63   D(10,5,15,40)         -13.9757         calculate D2E/DX2 analytically  !
 ! D64   D(3,12,20,21)         167.2394         calculate D2E/DX2 analytically  !
 ! D65   D(3,12,20,22)          36.0346         calculate D2E/DX2 analytically  !
 ! D66   D(3,12,20,23)         -79.0551         calculate D2E/DX2 analytically  !
 ! D67   D(2,13,32,33)         -71.3953         calculate D2E/DX2 analytically  !
 ! D68   D(2,13,32,34)          50.889          calculate D2E/DX2 analytically  !
 ! D69   D(2,13,32,35)         169.876          calculate D2E/DX2 analytically  !
 ! D70   D(1,14,36,37)        -177.1642         calculate D2E/DX2 analytically  !
 ! D71   D(1,14,36,38)         -58.717          calculate D2E/DX2 analytically  !
 ! D72   D(1,14,36,39)          63.2456         calculate D2E/DX2 analytically  !
 ! D73   D(5,15,40,41)         179.1062         calculate D2E/DX2 analytically  !
 ! D74   D(5,15,40,42)         -61.653          calculate D2E/DX2 analytically  !
 ! D75   D(5,15,40,43)          60.3204         calculate D2E/DX2 analytically  !
 ! D76   D(4,16,19,44)          79.0017         calculate D2E/DX2 analytically  !
 ! D77   D(17,16,19,44)       -162.8026         calculate D2E/DX2 analytically  !
 ! D78   D(18,16,19,44)        -45.1355         calculate D2E/DX2 analytically  !
 ! D79   D(16,19,44,45)        168.3396         calculate D2E/DX2 analytically  !
 ! D80   D(16,19,44,46)         49.517          calculate D2E/DX2 analytically  !
 ! D81   D(16,19,44,47)        -72.0318         calculate D2E/DX2 analytically  !
 ! D82   D(12,20,23,24)        -80.5602         calculate D2E/DX2 analytically  !
 ! D83   D(12,20,23,25)         96.8352         calculate D2E/DX2 analytically  !
 ! D84   D(21,20,23,24)         29.7728         calculate D2E/DX2 analytically  !
 ! D85   D(21,20,23,25)       -152.8317         calculate D2E/DX2 analytically  !
 ! D86   D(22,20,23,24)        164.1851         calculate D2E/DX2 analytically  !
 ! D87   D(22,20,23,25)        -18.4195         calculate D2E/DX2 analytically  !
 ! D88   D(20,23,24,26)        177.2412         calculate D2E/DX2 analytically  !
 ! D89   D(20,23,24,27)         -2.7393         calculate D2E/DX2 analytically  !
 ! D90   D(25,23,24,26)         -0.0677         calculate D2E/DX2 analytically  !
 ! D91   D(25,23,24,27)        179.9517         calculate D2E/DX2 analytically  !
 ! D92   D(20,23,25,28)       -177.2192         calculate D2E/DX2 analytically  !
 ! D93   D(20,23,25,29)          2.4512         calculate D2E/DX2 analytically  !
 ! D94   D(24,23,25,28)          0.0858         calculate D2E/DX2 analytically  !
 ! D95   D(24,23,25,29)        179.7561         calculate D2E/DX2 analytically  !
 ! D96   D(23,24,26,30)         -0.0546         calculate D2E/DX2 analytically  !
 ! D97   D(23,24,26,48)        177.6097         calculate D2E/DX2 analytically  !
 ! D98   D(27,24,26,30)        179.9258         calculate D2E/DX2 analytically  !
 ! D99   D(27,24,26,48)         -2.4099         calculate D2E/DX2 analytically  !
 ! D100  D(23,25,28,30)          0.018          calculate D2E/DX2 analytically  !
 ! D101  D(23,25,28,52)        176.2068         calculate D2E/DX2 analytically  !
 ! D102  D(29,25,28,30)       -179.6502         calculate D2E/DX2 analytically  !
 ! D103  D(29,25,28,52)         -3.4614         calculate D2E/DX2 analytically  !
 ! D104  D(24,26,30,28)          0.1556         calculate D2E/DX2 analytically  !
 ! D105  D(24,26,30,31)       -179.5747         calculate D2E/DX2 analytically  !
 ! D106  D(48,26,30,28)       -177.5034         calculate D2E/DX2 analytically  !
 ! D107  D(48,26,30,31)          2.7663         calculate D2E/DX2 analytically  !
 ! D108  D(24,26,48,49)         30.9953         calculate D2E/DX2 analytically  !
 ! D109  D(24,26,48,50)        -88.6785         calculate D2E/DX2 analytically  !
 ! D110  D(24,26,48,51)        151.6477         calculate D2E/DX2 analytically  !
 ! D111  D(30,26,48,49)       -151.3236         calculate D2E/DX2 analytically  !
 ! D112  D(30,26,48,50)         89.0026         calculate D2E/DX2 analytically  !
 ! D113  D(30,26,48,51)        -30.6712         calculate D2E/DX2 analytically  !
 ! D114  D(25,28,30,26)         -0.1371         calculate D2E/DX2 analytically  !
 ! D115  D(25,28,30,31)        179.593          calculate D2E/DX2 analytically  !
 ! D116  D(52,28,30,26)       -176.3544         calculate D2E/DX2 analytically  !
 ! D117  D(52,28,30,31)          3.3756         calculate D2E/DX2 analytically  !
 ! D118  D(25,28,52,53)        -97.5168         calculate D2E/DX2 analytically  !
 ! D119  D(25,28,52,54)        143.5733         calculate D2E/DX2 analytically  !
 ! D120  D(25,28,52,55)         22.2106         calculate D2E/DX2 analytically  !
 ! D121  D(30,28,52,53)         78.7271         calculate D2E/DX2 analytically  !
 ! D122  D(30,28,52,54)        -40.1828         calculate D2E/DX2 analytically  !
 ! D123  D(30,28,52,55)       -161.5456         calculate D2E/DX2 analytically  !
 --------------------------------------------------------------------------------
 Trust Radius=1.00D-02 FncErr=1.00D-07 GrdErr=1.00D-06 EigMax=2.50D+02 EigMin=1.00D-04
 Number of steps in this run=    291 maximum allowed number of steps=    330.
 GradGradGradGradGradGradGradGradGradGradGradGradGradGradGradGradGradGrad

 Leave Link  103 at Sun May  5 09:55:09 2019, MaxMem=  3221225472 cpu:               1.1 elap:               0.1
 (Enter /home/ekwan/sw/g16/l202.exe)
 Stoichiometry    C18H22F6O8S
 Framework group  C1[X(C18H22F6O8S)]
 Deg. of freedom   159
 Full point group                 C1      NOp   1
 Largest Abelian subgroup         C1      NOp   1
 Largest concise Abelian subgroup C1      NOp   1
                         Standard orientation:                         
 ---------------------------------------------------------------------
 Center     Atomic      Atomic             Coordinates (Angstroms)
 Number     Number       Type             X           Y           Z
 ---------------------------------------------------------------------
      1          6           0        3.393973    0.394862    0.580623
      2          6           0        3.307292   -0.510033   -0.651565
      3          6           0        1.845578   -0.841301   -0.995512
      4          6           0        1.020725    1.126679    0.086526
      5          6           0        2.437820    1.579784    0.444569
      6          1           0        1.755023   -1.361243   -1.948338
      7          1           0        3.703126    0.047247   -1.515631
      8          1           0        3.111292   -0.183745    1.470194
      9          1           0        0.605593    0.550920    0.923613
     10          1           0        2.802248    2.237518   -0.353026
     11          8           0        1.041059    0.286469   -1.089859
     12          8           0        1.382953   -1.739920    0.058927
     13          8           0        4.080679   -1.663646   -0.412898
     14          8           0        4.703731    0.920008    0.727541
     15          8           0        2.355457    2.284035    1.674135
     16          6           0        0.084799    2.301407   -0.180859
     17          1           0       -0.102807    2.790894    0.777952
     18          1           0       -0.867290    1.922910   -0.574103
     19          8           0        0.615399    3.299663   -1.033525
     20         16           0        0.094560   -2.692241   -0.257786
     21          8           0        0.082493   -3.658312    0.832163
     22          8           0        0.152683   -3.115982   -1.656241
     23          6           0       -1.283870   -1.575790   -0.057357
     24          6           0       -1.744265   -1.302006    1.227005
     25          6           0       -1.827116   -0.965821   -1.184601
     26          6           0       -2.783467   -0.383888    1.379581
     27          1           0       -1.303042   -1.792387    2.086422
     28          6           0       -2.863195   -0.052469   -1.009167
     29          1           0       -1.445676   -1.195762   -2.170783
     30          6           0       -3.343566    0.242974    0.267811
     31          1           0       -4.145847    0.960099    0.395291
     32          6           0        4.297190   -2.477423   -1.558929
     33          1           0        3.383261   -3.001341   -1.868608
     34          1           0        4.674006   -1.883045   -2.403184
     35          1           0        5.047446   -3.218848   -1.277368
     36          6           0        5.539662    0.189980    1.617982
     37          1           0        6.486495    0.733394    1.669879
     38          1           0        5.098228    0.144422    2.623709
     39          1           0        5.718758   -0.828008    1.257655
     40          6           0        3.038307    3.532914    1.671761
     41          1           0        2.884677    3.974530    2.659668
     42          1           0        4.110947    3.395948    1.495122
     43          1           0        2.624548    4.204095    0.907299
     44          6           0        0.570394    2.978127   -2.419968
     45          1           0        0.806496    3.897668   -2.961572
     46          1           0       -0.431472    2.634133   -2.709874
     47          1           0        1.297201    2.202549   -2.685768
     48          6           0       -3.337910   -0.109010    2.753339
     49          9           0       -2.392330   -0.246562    3.705075
     50          9           0       -4.339342   -0.962872    3.058973
     51          9           0       -3.837804    1.140502    2.844760
     52          6           0       -3.419043    0.691416   -2.193893
     53          9           0       -2.865379    1.927283   -2.293920
     54          9           0       -4.750807    0.870359   -2.088944
     55          9           0       -3.174522    0.051621   -3.352607
 ---------------------------------------------------------------------
 Rotational constants (GHZ):           0.1504527           0.0850344           0.0833161
 Leave Link  202 at Sun May  5 09:55:10 2019, MaxMem=  3221225472 cpu:               2.9 elap:               0.2
 (Enter /home/ekwan/sw/g16/l301.exe)
 Standard basis: 6-31G(d) (6D, 7F)
 Ernie: Thresh=  0.10000D-02 Tol=  0.10000D-05 Strict=F.
 There are   543 symmetry adapted cartesian basis functions of A   symmetry.
 There are   543 symmetry adapted basis functions of A   symmetry.
   543 basis functions,  1036 primitive gaussians,   543 cartesian basis functions
   132 alpha electrons      132 beta electrons
       nuclear repulsion energy      4344.3135380619 Hartrees.
 IExCor=  402 DFT=T Ex+Corr=B3LYP ExCW=0 ScaHFX=  0.200000
 ScaDFX=  0.800000  0.720000  1.000000  0.810000 ScalE2=  1.000000  1.000000
 IRadAn=      5 IRanWt=     -1 IRanGd=            0 ICorTp=0 IEmpDi=141
 NAtoms=   55 NActive=   55 NUniq=   55 SFac= 1.00D+00 NAtFMM=   60 NAOKFM=F Big=F
 Integral buffers will be    131072 words long.
 Raffenetti 2 integral format.
 Two-electron integral symmetry is turned on.
 R6Disp:  Grimme-D3(BJ) Dispersion energy=       -0.1215416414 Hartrees.
 Nuclear repulsion after empirical dispersion term =     4344.1919964205 Hartrees.
 Force inversion solution in PCM.
 ------------------------------------------------------------------------------
 Polarizable Continuum Model (PCM)
 =================================
 Model                : PCM.
 Atomic radii         : UFF (Universal Force Field).
 Polarization charges : Total charges.
 Charge compensation  : None.
 Solution method      : Matrix inversion.
 Cavity type          : Scaled VdW (van der Waals Surface) (Alpha=1.100).
 Cavity algorithm     : GePol (No added spheres)
                        Default sphere list used, NSphG=   55.
                        Lebedev-Laikov grids with approx.  5.0 points / Ang**2.
                        Smoothing algorithm: York/Karplus (Gamma=1.0000).
                        Polarization charges: spherical gaussians, with
                                              point-specific exponents (IZeta= 3).
                        Self-potential: point-specific (ISelfS= 7).
                        Self-field    : sphere-specific E.n sum rule (ISelfD= 2).
 1st derivatives      : Analytical E(r).r(x)/FMM algorithm (CHGder, D1EAlg=3).
                        Cavity 1st derivative terms included.
 2nd derivatives      : Analytical E(r).r(xy)/FMM algorithm (CHGder, D2EAlg=3).
                        Cavity 2nd derivative terms included.
 Solvent              : TetraHydroFuran, Eps=   7.425700 Eps(inf)=   1.974025
 ------------------------------------------------------------------------------
 GePol: Number of generator spheres                  =      55
 GePol: Total number of spheres                      =      55
 GePol: Number of exposed spheres                    =      55 (100.00%)
 GePol: Number of points                             =    3901
 GePol: Average weight of points                     =       0.13
 GePol: Minimum weight of points                     =   0.14D-11
 GePol: Maximum weight of points                     =    0.20577
 GePol: Number of points with low weight             =     231
 GePol: Fraction of low-weight points (<1% of avg)   =       5.92%
 GePol: Cavity surface area                          =    494.131 Ang**2
 GePol: Cavity volume                                =    576.469 Ang**3
 Leave Link  301 at Sun May  5 09:55:10 2019, MaxMem=  3221225472 cpu:               3.7 elap:               0.3
 (Enter /home/ekwan/sw/g16/l302.exe)
 NPDir=0 NMtPBC=     1 NCelOv=     1 NCel=       1 NClECP=     1 NCelD=      1
         NCelK=      1 NCelE2=     1 NClLst=     1 CellRange=     0.0.
 One-electron integrals computed using PRISM.
 One-electron integral symmetry used in STVInt
 NBasis=   543 RedAO= T EigKep=  4.14D-04  NBF=   543
 NBsUse=   543 1.00D-06 EigRej= -1.00D+00 NBFU=   543
 Precomputing XC quadrature grid using
 IXCGrd= 4 IRadAn=           5 IRanWt=          -1 IRanGd=           0 AccXCQ= 0.00D+00.
 Generated NRdTot=       0 NPtTot=           0 NUsed=           0 NTot=          32
 NSgBfM=   533   532   532   532   533 MxSgAt=    55 MxSgA2=    55.
 Leave Link  302 at Sun May  5 09:55:21 2019, MaxMem=  3221225472 cpu:             162.7 elap:              11.1
 (Enter /home/ekwan/sw/g16/l303.exe)
 DipDrv:  MaxL=1.
 Leave Link  303 at Sun May  5 09:55:21 2019, MaxMem=  3221225472 cpu:               4.4 elap:               0.4
 (Enter /home/ekwan/sw/g16/l401.exe)
 ExpMin= 1.17D-01 ExpMax= 2.19D+04 ExpMxC= 3.30D+03 IAcc=3 IRadAn=         5 AccDes= 0.00D+00
 Harris functional with IExCor=  402 and IRadAn=       5 diagonalized for initial guess.
 HarFok:  IExCor=  402 AccDes= 0.00D+00 IRadAn=         5 IDoV= 1 UseB2=F ITyADJ=14
 ICtDFT=  3500011 ScaDFX=  1.000000  1.000000  1.000000  1.000000
 FoFCou: FMM=F IPFlag=           0 FMFlag=      100000 FMFlg1=           0
         NFxFlg=           0 DoJE=T BraDBF=F KetDBF=T FulRan=T
         wScrn=  0.000000 ICntrl=       500 IOpCl=  0 I1Cent=   200000004 NGrid=           0
         NMat0=    1 NMatS0=      1 NMatT0=    0 NMatD0=    1 NMtDS0=    0 NMtDT0=    0
 Petite list used in FoFCou.
 Harris En= -2298.13255930279    
 JPrj=0 DoOrth=F DoCkMO=F.
 Leave Link  401 at Sun May  5 09:55:35 2019, MaxMem=  3221225472 cpu:             191.4 elap:              13.8
 (Enter /home/ekwan/sw/g16/l502.exe)
 Integral symmetry usage will be decided dynamically.
 Closed shell SCF:
 Using DIIS extrapolation, IDIIS=  1040.
 NGot=  3221225472 LenX=  3220621231 LenY=  3220325839
 Requested convergence on RMS density matrix=1.00D-08 within 128 cycles.
 Requested convergence on MAX density matrix=1.00D-06.
 Requested convergence on             energy=1.00D-06.
 No special actions if energy rises.
 Fock matrices will be formed incrementally for  20 cycles.

 Cycle   1  Pass 1  IDiag  1:
 FoFJK:  IHMeth= 1 ICntrl=       0 DoSepK=F KAlg= 0 I1Cent=           0 FoldK=F
 IRaf= 700000000 NMat=       1 IRICut=       1 DoRegI=T DoRafI=F ISym2E= 0 IDoP0=0 IntGTp=1.
 FoFCou: FMM=F IPFlag=           0 FMFlag=      100000 FMFlg1=           0
         NFxFlg=           0 DoJE=F BraDBF=F KetDBF=F FulRan=T
         wScrn=  0.000000 ICntrl=         0 IOpCl=  0 I1Cent=           0 NGrid=           0
         NMat0=    1 NMatS0=      1 NMatT0=    0 NMatD0=    1 NMtDS0=    0 NMtDT0=    0
 Symmetry not used in FoFCou.
 Inv3:  Mode=1 IEnd=    45653403.
 Iteration    1 A*A^-1 deviation from unit magnitude is 1.94D-14 for   3895.
 Iteration    1 A*A^-1 deviation from orthogonality  is 1.38D-14 for   3895   2610.
 Iteration    1 A^-1*A deviation from unit magnitude is 1.94D-14 for   3895.
 Iteration    1 A^-1*A deviation from orthogonality  is 4.96D-15 for   3885   2693.
 E= -2297.46402153793    
 DIIS: error= 2.78D-02 at cycle   1 NSaved=   1.
 NSaved= 1 IEnMin= 1 EnMin= -2297.46402153793     IErMin= 1 ErrMin= 2.78D-02
 ErrMax= 2.78D-02  0.00D+00 EMaxC= 1.00D-01 BMatC= 9.08D-01 BMatP= 9.08D-01
 IDIUse=3 WtCom= 7.22D-01 WtEn= 2.78D-01
 Coeff-Com:  0.100D+01
 Coeff-En:   0.100D+01
 Coeff:      0.100D+01
 Gap=     0.163 Goal=   None    Shift=    0.000
 GapD=    0.163 DampG=1.000 DampE=0.500 DampFc=0.5000 IDamp=-1.
 Damping current iteration by 5.00D-01
 RMSDP=3.99D-03 MaxDP=5.88D-01              OVMax= 2.06D-01

 Cycle   2  Pass 1  IDiag  1:
 RMSU=  2.00D-03    CP:  9.97D-01
 E= -2297.67133260807     Delta-E=       -0.207311070142 Rises=F Damp=T
 DIIS: error= 1.34D-02 at cycle   2 NSaved=   2.
 NSaved= 2 IEnMin= 2 EnMin= -2297.67133260807     IErMin= 2 ErrMin= 1.34D-02
 ErrMax= 1.34D-02  0.00D+00 EMaxC= 1.00D-01 BMatC= 1.17D-01 BMatP= 9.08D-01
 IDIUse=3 WtCom= 8.66D-01 WtEn= 1.34D-01
 Coeff-Com:  0.202D+00 0.798D+00
 Coeff-En:   0.336D+00 0.664D+00
 Coeff:      0.220D+00 0.780D+00
 Gap=     0.202 Goal=   None    Shift=    0.000
 RMSDP=1.16D-03 MaxDP=1.47D-01 DE=-2.07D-01 OVMax= 1.73D-01

 Cycle   3  Pass 1  IDiag  1:
 RMSU=  9.78D-04    CP:  9.90D-01  6.95D-01
 E= -2298.13758440463     Delta-E=       -0.466251796555 Rises=F Damp=F
 DIIS: error= 8.32D-03 at cycle   3 NSaved=   3.
 NSaved= 3 IEnMin= 3 EnMin= -2298.13758440463     IErMin= 3 ErrMin= 8.32D-03
 ErrMax= 8.32D-03  0.00D+00 EMaxC= 1.00D-01 BMatC= 6.68D-02 BMatP= 1.17D-01
 IDIUse=3 WtCom= 9.17D-01 WtEn= 8.32D-02
 Coeff-Com:  0.586D-01 0.430D+00 0.512D+00
 Coeff-En:   0.000D+00 0.000D+00 0.100D+01
 Coeff:      0.538D-01 0.394D+00 0.552D+00
 Gap=     0.174 Goal=   None    Shift=    0.000
 RMSDP=6.86D-04 MaxDP=4.81D-02 DE=-4.66D-01 OVMax= 6.05D-02

 Cycle   4  Pass 1  IDiag  1:
 RMSU=  4.24D-04    CP:  9.94D-01  7.88D-01  4.86D-01
 E= -2298.18140654145     Delta-E=       -0.043822136821 Rises=F Damp=F
 DIIS: error= 3.47D-03 at cycle   4 NSaved=   4.
 NSaved= 4 IEnMin= 4 EnMin= -2298.18140654145     IErMin= 4 ErrMin= 3.47D-03
 ErrMax= 3.47D-03  0.00D+00 EMaxC= 1.00D-01 BMatC= 1.63D-02 BMatP= 6.68D-02
 IDIUse=3 WtCom= 9.65D-01 WtEn= 3.47D-02
 Coeff-Com:  0.603D-03 0.108D+00 0.342D+00 0.549D+00
 Coeff-En:   0.000D+00 0.000D+00 0.212D+00 0.788D+00
 Coeff:      0.582D-03 0.105D+00 0.337D+00 0.557D+00
 Gap=     0.174 Goal=   None    Shift=    0.000
 RMSDP=2.57D-04 MaxDP=1.90D-02 DE=-4.38D-02 OVMax= 2.65D-02

 Cycle   5  Pass 1  IDiag  1:
 RMSU=  1.11D-04    CP:  9.93D-01  7.67D-01  6.27D-01  5.76D-01
 E= -2298.19381141623     Delta-E=       -0.012404874785 Rises=F Damp=F
 DIIS: error= 1.36D-03 at cycle   5 NSaved=   5.
 NSaved= 5 IEnMin= 5 EnMin= -2298.19381141623     IErMin= 5 ErrMin= 1.36D-03
 ErrMax= 1.36D-03  0.00D+00 EMaxC= 1.00D-01 BMatC= 1.14D-03 BMatP= 1.63D-02
 IDIUse=3 WtCom= 9.86D-01 WtEn= 1.36D-02
 Coeff-Com: -0.346D-02 0.256D-01 0.137D+00 0.306D+00 0.535D+00
 Coeff-En:   0.000D+00 0.000D+00 0.000D+00 0.000D+00 0.100D+01
 Coeff:     -0.342D-02 0.253D-01 0.135D+00 0.301D+00 0.542D+00
 Gap=     0.174 Goal=   None    Shift=    0.000
 RMSDP=6.73D-05 MaxDP=4.79D-03 DE=-1.24D-02 OVMax= 7.50D-03

 Cycle   6  Pass 1  IDiag  1:
 RMSU=  3.78D-05    CP:  9.93D-01  7.73D-01  6.28D-01  6.30D-01  5.60D-01
 E= -2298.19473317780     Delta-E=       -0.000921761565 Rises=F Damp=F
 DIIS: error= 3.98D-04 at cycle   6 NSaved=   6.
 NSaved= 6 IEnMin= 6 EnMin= -2298.19473317780     IErMin= 6 ErrMin= 3.98D-04
 ErrMax= 3.98D-04  0.00D+00 EMaxC= 1.00D-01 BMatC= 7.53D-05 BMatP= 1.14D-03
 IDIUse=3 WtCom= 9.96D-01 WtEn= 3.98D-03
 Coeff-Com: -0.185D-02 0.338D-02 0.363D-01 0.983D-01 0.272D+00 0.592D+00
 Coeff-En:   0.000D+00 0.000D+00 0.000D+00 0.000D+00 0.000D+00 0.100D+01
 Coeff:     -0.185D-02 0.337D-02 0.362D-01 0.979D-01 0.271D+00 0.593D+00
 Gap=     0.175 Goal=   None    Shift=    0.000
 RMSDP=1.89D-05 MaxDP=1.06D-03 DE=-9.22D-04 OVMax= 1.97D-03

 Cycle   7  Pass 1  IDiag  1:
 RMSU=  9.58D-06    CP:  9.93D-01  7.72D-01  6.29D-01  6.34D-01  6.20D-01
                    CP:  6.13D-01
 E= -2298.19479585524     Delta-E=       -0.000062677442 Rises=F Damp=F
 DIIS: error= 5.52D-05 at cycle   7 NSaved=   7.
 NSaved= 7 IEnMin= 7 EnMin= -2298.19479585524     IErMin= 7 ErrMin= 5.52D-05
 ErrMax= 5.52D-05  0.00D+00 EMaxC= 1.00D-01 BMatC= 4.13D-06 BMatP= 7.53D-05
 IDIUse=1 WtCom= 1.00D+00 WtEn= 0.00D+00
 Coeff-Com: -0.788D-03 0.203D-03 0.105D-01 0.324D-01 0.107D+00 0.294D+00
 Coeff-Com:  0.556D+00
 Coeff:     -0.788D-03 0.203D-03 0.105D-01 0.324D-01 0.107D+00 0.294D+00
 Coeff:      0.556D+00
 Gap=     0.175 Goal=   None    Shift=    0.000
 RMSDP=4.62D-06 MaxDP=2.70D-04 DE=-6.27D-05 OVMax= 5.55D-04

 Cycle   8  Pass 1  IDiag  1:
 RMSU=  2.86D-06    CP:  9.93D-01  7.72D-01  6.29D-01  6.35D-01  6.20D-01
                    CP:  6.59D-01  6.73D-01
 E= -2298.19479904166     Delta-E=       -0.000003186418 Rises=F Damp=F
 DIIS: error= 1.81D-05 at cycle   8 NSaved=   8.
 NSaved= 8 IEnMin= 8 EnMin= -2298.19479904166     IErMin= 8 ErrMin= 1.81D-05
 ErrMax= 1.81D-05  0.00D+00 EMaxC= 1.00D-01 BMatC= 5.02D-07 BMatP= 4.13D-06
 IDIUse=1 WtCom= 1.00D+00 WtEn= 0.00D+00
 Coeff-Com: -0.211D-03-0.257D-03 0.139D-02 0.580D-02 0.269D-01 0.912D-01
 Coeff-Com:  0.298D+00 0.577D+00
 Coeff:     -0.211D-03-0.257D-03 0.139D-02 0.580D-02 0.269D-01 0.912D-01
 Coeff:      0.298D+00 0.577D+00
 Gap=     0.175 Goal=   None    Shift=    0.000
 RMSDP=1.55D-06 MaxDP=1.02D-04 DE=-3.19D-06 OVMax= 1.44D-04

 Cycle   9  Pass 1  IDiag  1:
 RMSU=  1.02D-06    CP:  9.93D-01  7.72D-01  6.29D-01  6.34D-01  6.22D-01
                    CP:  6.61D-01  7.09D-01  6.27D-01
 E= -2298.19479937380     Delta-E=       -0.000000332137 Rises=F Damp=F
 DIIS: error= 1.11D-05 at cycle   9 NSaved=   9.
 NSaved= 9 IEnMin= 9 EnMin= -2298.19479937380     IErMin= 9 ErrMin= 1.11D-05
 ErrMax= 1.11D-05  0.00D+00 EMaxC= 1.00D-01 BMatC= 8.06D-08 BMatP= 5.02D-07
 IDIUse=1 WtCom= 1.00D+00 WtEn= 0.00D+00
 Coeff-Com: -0.351D-04-0.126D-03-0.297D-03-0.271D-03 0.348D-02 0.194D-01
 Coeff-Com:  0.110D+00 0.341D+00 0.528D+00
 Coeff:     -0.351D-04-0.126D-03-0.297D-03-0.271D-03 0.348D-02 0.194D-01
 Coeff:      0.110D+00 0.341D+00 0.528D+00
 Gap=     0.175 Goal=   None    Shift=    0.000
 RMSDP=6.50D-07 MaxDP=5.41D-05 DE=-3.32D-07 OVMax= 7.10D-05

 Cycle  10  Pass 1  IDiag  1:
 RMSU=  3.40D-07    CP:  9.93D-01  7.72D-01  6.29D-01  6.34D-01  6.23D-01
                    CP:  6.60D-01  7.21D-01  7.05D-01  5.25D-01
 E= -2298.19479943232     Delta-E=       -0.000000058522 Rises=F Damp=F
 DIIS: error= 3.36D-06 at cycle  10 NSaved=  10.
 NSaved=10 IEnMin=10 EnMin= -2298.19479943232     IErMin=10 ErrMin= 3.36D-06
 ErrMax= 3.36D-06  0.00D+00 EMaxC= 1.00D-01 BMatC= 9.31D-09 BMatP= 8.06D-08
 IDIUse=1 WtCom= 1.00D+00 WtEn= 0.00D+00
 Coeff-Com: -0.135D-05-0.417D-04-0.306D-03-0.738D-03-0.751D-03 0.211D-02
 Coeff-Com:  0.332D-01 0.139D+00 0.315D+00 0.512D+00
 Coeff:     -0.135D-05-0.417D-04-0.306D-03-0.738D-03-0.751D-03 0.211D-02
 Coeff:      0.332D-01 0.139D+00 0.315D+00 0.512D+00
 Gap=     0.175 Goal=   None    Shift=    0.000
 RMSDP=1.99D-07 MaxDP=1.42D-05 DE=-5.85D-08 OVMax= 2.18D-05

 Cycle  11  Pass 1  IDiag  1:
 RMSU=  1.21D-07    CP:  9.93D-01  7.72D-01  6.29D-01  6.34D-01  6.23D-01
                    CP:  6.61D-01  7.26D-01  7.08D-01  6.05D-01  6.31D-01
 E= -2298.19479943937     Delta-E=       -0.000000007052 Rises=F Damp=F
 DIIS: error= 6.77D-07 at cycle  11 NSaved=  11.
 NSaved=11 IEnMin=11 EnMin= -2298.19479943937     IErMin=11 ErrMin= 6.77D-07
 ErrMax= 6.77D-07  0.00D+00 EMaxC= 1.00D-01 BMatC= 6.68D-10 BMatP= 9.31D-09
 IDIUse=1 WtCom= 1.00D+00 WtEn= 0.00D+00
 Coeff-Com:  0.292D-05-0.859D-05-0.140D-03-0.378D-03-0.891D-03-0.130D-02
 Coeff-Com:  0.389D-02 0.312D-01 0.103D+00 0.267D+00 0.597D+00
 Coeff:      0.292D-05-0.859D-05-0.140D-03-0.378D-03-0.891D-03-0.130D-02
 Coeff:      0.389D-02 0.312D-01 0.103D+00 0.267D+00 0.597D+00
 Gap=     0.175 Goal=   None    Shift=    0.000
 RMSDP=5.62D-08 MaxDP=5.22D-06 DE=-7.05D-09 OVMax= 3.98D-06

 Cycle  12  Pass 1  IDiag  1:
 RMSU=  3.18D-08    CP:  9.93D-01  7.72D-01  6.29D-01  6.34D-01  6.23D-01
                    CP:  6.61D-01  7.25D-01  7.12D-01  6.15D-01  6.85D-01
                    CP:  6.94D-01
 E= -2298.19479943985     Delta-E=       -0.000000000484 Rises=F Damp=F
 DIIS: error= 1.68D-07 at cycle  12 NSaved=  12.
 NSaved=12 IEnMin=12 EnMin= -2298.19479943985     IErMin=12 ErrMin= 1.68D-07
 ErrMax= 1.68D-07  0.00D+00 EMaxC= 1.00D-01 BMatC= 4.46D-11 BMatP= 6.68D-10
 IDIUse=1 WtCom= 1.00D+00 WtEn= 0.00D+00
 Coeff-Com:  0.121D-05 0.595D-06-0.352D-04-0.989D-04-0.344D-03-0.793D-03
 Coeff-Com: -0.134D-02 0.641D-03 0.164D-01 0.694D-01 0.260D+00 0.656D+00
 Coeff:      0.121D-05 0.595D-06-0.352D-04-0.989D-04-0.344D-03-0.793D-03
 Coeff:     -0.134D-02 0.641D-03 0.164D-01 0.694D-01 0.260D+00 0.656D+00
 Gap=     0.175 Goal=   None    Shift=    0.000
 RMSDP=1.58D-08 MaxDP=1.02D-06 DE=-4.84D-10 OVMax= 1.72D-06

 Cycle  13  Pass 1  IDiag  1:
 RMSU=  1.14D-08    CP:  9.93D-01  7.72D-01  6.29D-01  6.34D-01  6.23D-01
                    CP:  6.61D-01  7.25D-01  7.12D-01  6.17D-01  6.92D-01
                    CP:  7.32D-01  7.35D-01
 E= -2298.19479943997     Delta-E=       -0.000000000114 Rises=F Damp=F
 DIIS: error= 5.94D-08 at cycle  13 NSaved=  13.
 NSaved=13 IEnMin=13 EnMin= -2298.19479943997     IErMin=13 ErrMin= 5.94D-08
 ErrMax= 5.94D-08  0.00D+00 EMaxC= 1.00D-01 BMatC= 6.57D-12 BMatP= 4.46D-11
 IDIUse=1 WtCom= 1.00D+00 WtEn= 0.00D+00
 Coeff-Com:  0.377D-06 0.996D-06-0.481D-05-0.142D-04-0.915D-04-0.266D-03
 Coeff-Com: -0.950D-03-0.255D-02-0.134D-02 0.858D-02 0.671D-01 0.330D+00
 Coeff-Com:  0.599D+00
 Coeff:      0.377D-06 0.996D-06-0.481D-05-0.142D-04-0.915D-04-0.266D-03
 Coeff:     -0.950D-03-0.255D-02-0.134D-02 0.858D-02 0.671D-01 0.330D+00
 Coeff:      0.599D+00
 Gap=     0.175 Goal=   None    Shift=    0.000
 RMSDP=5.87D-09 MaxDP=4.17D-07 DE=-1.14D-10 OVMax= 9.74D-07

 Error on total polarization charges =  0.00923
 SCF Done:  E(RB3LYP) =  -2298.19479944     A.U. after   13 cycles
            NFock= 13  Conv=0.59D-08     -V/T= 2.0075
 KE= 2.281183274575D+03 PE=-1.409576038576D+04 EE= 5.172190315326D+03
 Leave Link  502 at Sun May  5 10:02:06 2019, MaxMem=  3221225472 cpu:            5771.0 elap:             390.4
 (Enter /home/ekwan/sw/g16/l801.exe)
 DoSCS=F DFT=T ScalE2(SS,OS)=  1.000000  1.000000
 Range of M.O.s used for correlation:     1   543
 NBasis=   543 NAE=   132 NBE=   132 NFC=     0 NFV=     0
 NROrb=    543 NOA=   132 NOB=   132 NVA=   411 NVB=   411

 **** Warning!!: The largest alpha MO coefficient is  0.10317841D+02

 Leave Link  801 at Sun May  5 10:02:06 2019, MaxMem=  3221225472 cpu:               2.8 elap:               0.2
 (Enter /home/ekwan/sw/g16/l1101.exe)
 Using compressed storage, NAtomX=    55.
 Will process     56 centers per pass.
 R6Disp: Adding Grimme-D3(BJ) dispersion energy 1st derivatives to the gradient.
 Leave Link 1101 at Sun May  5 10:02:09 2019, MaxMem=  3221225472 cpu:              39.8 elap:               2.6
 (Enter /home/ekwan/sw/g16/l1102.exe)
 Symmetrizing basis deriv contribution to polar:
 IMax=3 JMax=2 DiffMx= 0.00D+00
 Leave Link 1102 at Sun May  5 10:02:09 2019, MaxMem=  3221225472 cpu:               3.9 elap:               0.4
 (Enter /home/ekwan/sw/g16/l1110.exe)
 Forming Gx(P) for the SCF density, NAtomX=    55.
 Integral derivatives from FoFJK, PRISM(SPDF).
 Do as many integral derivatives as possible in FoFJK.
 G2DrvN: MDV=    3221221376.
 G2DrvN: will do    56 centers at a time, making    1 passes.
 Calling FoFCou, ICntrl=  3107 FMM=F I1Cent=   0 AccDes= 0.00D+00.
 FoFJK:  IHMeth= 1 ICntrl=    3107 DoSepK=F KAlg= 0 I1Cent=           0 FoldK=F
 IRaf=         0 NMat=       1 IRICut=       1 DoRegI=T DoRafI=F ISym2E= 0 IDoP0=0 IntGTp=1.
 FoFCou: FMM=F IPFlag=           0 FMFlag=      100000 FMFlg1=           0
         NFxFlg=           0 DoJE=F BraDBF=F KetDBF=F FulRan=T
         wScrn=  0.000000 ICntrl=      3107 IOpCl=  0 I1Cent=           0 NGrid=           0
         NMat0=    1 NMatS0=      1 NMatT0=    0 NMatD0=    1 NMtDS0=    0 NMtDT0=    0
 Symmetry not used in FoFCou.
 NEqPCM:  Using equilibrium solvation (IEInf=0, Eps=   7.4257, EpsInf=   1.9740)
 G2PCM: DoFxE=T DoFxN=T DoGrad=T DoDP/DQ/DG/TGxP=FFFF NFrqRd=   0 IEInf=0 SqF1=F DoCFld=F IF1Alg=4.
 GePol: Maximum number of non-zero 1st derivatives   =     220
 End of G2Drv F.D. properties file   721 does not exist.
 End of G2Drv F.D. properties file   722 does not exist.
 End of G2Drv F.D. properties file   788 does not exist.
 Leave Link 1110 at Sun May  5 10:20:20 2019, MaxMem=  3221225472 cpu:           17448.0 elap:            1091.2
 (Enter /home/ekwan/sw/g16/l1002.exe)
 Minotr:  Closed shell wavefunction.
          IDoAtm=11111111111111111111111111111111111111111111111111
          IDoAtm=11111
 NEqPCM:  Using equilibrium solvation (IEInf=0, Eps=   7.4257, EpsInf=   1.9740)
          Direct CPHF calculation.
          Differentiating once with respect to nuclear coordinates.
          Requested convergence is 1.0D-08 RMS, and 1.0D-07 maximum.
          Secondary convergence is 1.0D-12 RMS, and 1.0D-12 maximum.
          NewPWx=T KeepS1=F KeepF1=F KeepIn=T MapXYZ=F SortEE=F KeepMc=T.
        16650 words used for storage of precomputed grid.
 Two-electron integrals replicated using symmetry.
          MDV=    3221225472 using IRadAn=       1.
          Solving linear equations simultaneously, MaxMat=     384.
 FoF2E skips out because all densities are zero.
 CalDSu exits because no D1Ps are significant.
 FoFJK:  IHMeth= 1 ICntrl=       0 DoSepK=F KAlg= 0 I1Cent=           0 FoldK=F
 IRaf= 670000000 NMat=     165 IRICut=     412 DoRegI=T DoRafI=T ISym2E= 2 IDoP0=0 IntGTp=1.
          There are   168 degrees of freedom in the 1st order CPHF.  IDoFFX=6 NUNeed=     0.
    162 vectors produced by pass  0 Test12= 5.43D-14 1.00D-09 XBig12= 2.69D-01 2.02D-01.
 AX will form   162 AO Fock derivatives at one time.
    162 vectors produced by pass  1 Test12= 5.43D-14 1.00D-09 XBig12= 2.46D-02 1.92D-02.
    162 vectors produced by pass  2 Test12= 5.43D-14 1.00D-09 XBig12= 2.74D-04 1.63D-03.
    162 vectors produced by pass  3 Test12= 5.43D-14 1.00D-09 XBig12= 1.49D-06 9.96D-05.
    162 vectors produced by pass  4 Test12= 5.43D-14 1.00D-09 XBig12= 2.36D-09 4.11D-06.
    127 vectors produced by pass  5 Test12= 5.43D-14 1.00D-09 XBig12= 2.21D-12 1.17D-07.
     23 vectors produced by pass  6 Test12= 5.43D-14 1.00D-09 XBig12= 2.11D-15 3.73D-09.
 InvSVY:  IOpt=1 It=  1 EMax= 7.77D-16
 Solved reduced A of dimension   960 with   168 vectors.
 End of Minotr F.D. properties file   721 does not exist.
 End of Minotr F.D. properties file   722 does not exist.
 End of Minotr F.D. properties file   788 does not exist.
 Leave Link 1002 at Sun May  5 11:02:05 2019, MaxMem=  3221225472 cpu:           32647.0 elap:            2504.4
 (Enter /home/ekwan/sw/g16/l701.exe)
 ... and contract with generalized density number  0.
 Compute integral second derivatives.
 R6Disp: Adding Grimme-D3(BJ) dispersion energy 2nd derivatives to the Hessian.
 D2PCM: PCM CHGder 2nd derivatives, FixD1E=F FixD2E=F DoIter=F DoCFld=F I1PDM=0
 GePol: Maximum number of non-zero 2nd derivatives   =     220
 Leave Link  701 at Sun May  5 11:03:34 2019, MaxMem=  3221225472 cpu:            1151.7 elap:              88.8
 (Enter /home/ekwan/sw/g16/l702.exe)
 L702 exits ... SP integral derivatives will be done elsewhere.
 Leave Link  702 at Sun May  5 11:03:34 2019, MaxMem=  3221225472 cpu:               1.2 elap:               0.1
 (Enter /home/ekwan/sw/g16/l703.exe)
 Integral derivatives from FoFJK, PRISM(SPDF).
 Compute integral second derivatives, UseDBF=F ICtDFT=           0.
 Calling FoFJK, ICntrl=    100147 FMM=F ISym2X=0 I1Cent= 0 IOpClX= 0 NMat=1 NMatS=1 NMatT=0.
 FoFJK:  IHMeth= 1 ICntrl=  100147 DoSepK=F KAlg= 0 I1Cent=           0 FoldK=F
 IRaf=         0 NMat=       1 IRICut=       1 DoRegI=T DoRafI=F ISym2E= 0 IDoP0=0 IntGTp=1.
 FoFCou: FMM=F IPFlag=           0 FMFlag=      100000 FMFlg1=         800
         NFxFlg=           0 DoJE=F BraDBF=F KetDBF=F FulRan=T
         wScrn=  0.000000 ICntrl=    100147 IOpCl=  0 I1Cent=           0 NGrid=           0
         NMat0=    1 NMatS0=      1 NMatT0=    0 NMatD0=    1 NMtDS0=    0 NMtDT0=    0
 Symmetry not used in FoFCou.
 Leave Link  703 at Sun May  5 11:17:37 2019, MaxMem=  3221225472 cpu:           11746.7 elap:             843.3
 (Enter /home/ekwan/sw/g16/l716.exe)
 Dipole        = 2.37658790D-01 9.60983325D-01-7.30458205D-01
 Polarizability= 0.00000000D+00 0.00000000D+00 0.00000000D+00
                 0.00000000D+00 0.00000000D+00 0.00000000D+00
 ***** Axes restored to original set *****
 -------------------------------------------------------------------
 Center     Atomic                   Forces (Hartrees/Bohr)
 Number     Number              X              Y              Z
 -------------------------------------------------------------------
      1        6          -0.000000341   -0.000002141   -0.000001835
      2        6          -0.000000679   -0.000000552    0.000001527
      3        6          -0.000000285    0.000000178   -0.000000533
      4        6           0.000000313    0.000000381   -0.000000431
      5        6           0.000000400    0.000000212    0.000000242
      6        1          -0.000000624    0.000000127    0.000001488
      7        1           0.000000314    0.000000740   -0.000000689
      8        1           0.000000102   -0.000000462    0.000000844
      9        1          -0.000001606   -0.000002182   -0.000000660
     10        1           0.000000236   -0.000001313   -0.000000281
     11        8           0.000000829   -0.000000355    0.000001395
     12        8          -0.000000790   -0.000001113   -0.000000809
     13        8          -0.000001444   -0.000000892    0.000000923
     14        8          -0.000000129    0.000000018    0.000000867
     15        8           0.000001827   -0.000001409    0.000000055
     16        6           0.000002101    0.000001986   -0.000002479
     17        1           0.000000426    0.000000540   -0.000000762
     18        1           0.000000217    0.000003025   -0.000001596
     19        8           0.000002108   -0.000000693   -0.000000277
     20       16          -0.000000772    0.000002067   -0.000000123
     21        8          -0.000002030   -0.000001377    0.000001885
     22        8          -0.000000352   -0.000001684    0.000001098
     23        6          -0.000000190    0.000000153   -0.000000532
     24        6          -0.000001682    0.000004090    0.000002099
     25        6          -0.000000433   -0.000000410    0.000000981
     26        6          -0.000000695   -0.000001609    0.000002101
     27        1          -0.000000141    0.000002032    0.000000934
     28        6           0.000000968    0.000005074    0.000000801
     29        1           0.000001316    0.000001488   -0.000000084
     30        6          -0.000000804   -0.000000071    0.000000694
     31        1           0.000000681    0.000001724   -0.000002381
     32        6          -0.000000421   -0.000001240    0.000000353
     33        1          -0.000000027   -0.000001374    0.000000397
     34        1          -0.000000633   -0.000002954    0.000001716
     35        1          -0.000000931   -0.000001347    0.000001586
     36        6           0.000000313   -0.000001027    0.000000645
     37        1          -0.000000027   -0.000001089    0.000000560
     38        1          -0.000000465   -0.000000384    0.000001001
     39        1          -0.000000439   -0.000000327    0.000001012
     40        6          -0.000000054   -0.000000124   -0.000001244
     41        1           0.000000587    0.000000176   -0.000000888
     42        1           0.000000008   -0.000000224    0.000000174
     43        1           0.000000241    0.000000400   -0.000001397
     44        6           0.000001556    0.000000021   -0.000000420
     45        1           0.000001026   -0.000000957   -0.000000858
     46        1          -0.000001305   -0.000001186   -0.000000897
     47        1           0.000001164   -0.000001237   -0.000000533
     48        6          -0.000001455    0.000001950   -0.000001593
     49        9           0.000000414    0.000000720   -0.000000730
     50        9          -0.000000561    0.000002245   -0.000001160
     51        9           0.000000080    0.000001869   -0.000000604
     52        6          -0.000001257    0.000003742    0.000000756
     53        9           0.000001860   -0.000005019    0.000000518
     54        9           0.000000015    0.000001284   -0.000000925
     55        9           0.000001471   -0.000001490   -0.000001936
 -------------------------------------------------------------------
 Cartesian Forces:  Max     0.000005074 RMS     0.000001331
 FormGI is forming the generalized inverse of G from B-inverse, IUseBI=4.
 GSVD:  received Info=                   1 from GESDD.
 Leave Link  716 at Sun May  5 11:17:38 2019, MaxMem=  3221225472 cpu:              11.7 elap:               0.9
 (Enter /home/ekwan/sw/g16/l103.exe)

 GradGradGradGradGradGradGradGradGradGradGradGradGradGradGradGradGradGrad
 Berny optimization.
 Red2BG is reusing G-inverse.
 Internal  Forces:  Max     0.000005504 RMS     0.000001543
 Search for a local minimum.
 Step number   1 out of a maximum of  291
 All quantities printed in internal units (Hartrees-Bohrs-Radians)
 RMS Force = .15434D-05 SwitMx=.10000D-02 MixMth= 2
 Mixed Optimization -- En-DIIS/RFO-DIIS
 Second derivative matrix not updated -- analytic derivatives used.
 ITU=  0
     Eigenvalues ---    0.00079   0.00099   0.00285   0.00344   0.00378
     Eigenvalues ---    0.00463   0.00481   0.00510   0.00548   0.00556
     Eigenvalues ---    0.00607   0.00615   0.00681   0.00805   0.00979
     Eigenvalues ---    0.01351   0.01515   0.01681   0.01863   0.01924
     Eigenvalues ---    0.01959   0.02079   0.02312   0.02496   0.02661
     Eigenvalues ---    0.02721   0.03194   0.04118   0.04426   0.04551
     Eigenvalues ---    0.04937   0.05042   0.05076   0.05470   0.05622
     Eigenvalues ---    0.06179   0.06452   0.06547   0.06848   0.07016
     Eigenvalues ---    0.07279   0.08014   0.08975   0.08988   0.09007
     Eigenvalues ---    0.09031   0.09086   0.09100   0.09122   0.09181
     Eigenvalues ---    0.10019   0.10609   0.10836   0.11082   0.11685
     Eigenvalues ---    0.12216   0.12312   0.12442   0.12593   0.12606
     Eigenvalues ---    0.13177   0.13293   0.13334   0.13370   0.13420
     Eigenvalues ---    0.13528   0.13601   0.14915   0.15459   0.16237
     Eigenvalues ---    0.16877   0.17891   0.18048   0.18424   0.18555
     Eigenvalues ---    0.18606   0.18656   0.18934   0.18980   0.19029
     Eigenvalues ---    0.19156   0.19171   0.19230   0.19285   0.19446
     Eigenvalues ---    0.20053   0.20410   0.20707   0.20762   0.21540
     Eigenvalues ---    0.22226   0.22316   0.22972   0.23195   0.23318
     Eigenvalues ---    0.23470   0.23948   0.24506   0.24934   0.25148
     Eigenvalues ---    0.25595   0.25860   0.25889   0.25918   0.26416
     Eigenvalues ---    0.27048   0.27878   0.28898   0.29549   0.30264
     Eigenvalues ---    0.30978   0.31802   0.32496   0.32710   0.32761
     Eigenvalues ---    0.32836   0.32996   0.33137   0.33195   0.33279
     Eigenvalues ---    0.33337   0.33865   0.34030   0.34061   0.34148
     Eigenvalues ---    0.34437   0.34457   0.34528   0.34695   0.34996
     Eigenvalues ---    0.35366   0.35559   0.36124   0.37051   0.37114
     Eigenvalues ---    0.37172   0.37329   0.37438   0.37467   0.37561
     Eigenvalues ---    0.37671   0.37845   0.38756   0.39746   0.41042
     Eigenvalues ---    0.42536   0.42807   0.43234   0.43893   0.45149
     Eigenvalues ---    0.46064   0.48159   0.48250   0.52193   0.52346
     Eigenvalues ---    0.52760   0.60690   0.62837   1.12810
 RFO step:  Lambda=-1.73795783D-08 EMin= 7.90923163D-04
 Linear search not attempted -- first point.
 Iteration  1 RMS(Cart)=  0.00052809 RMS(Int)=  0.00000006
 Iteration  2 RMS(Cart)=  0.00000008 RMS(Int)=  0.00000000
 ITry= 1 IFail=0 DXMaxC= 2.32D-03 DCOld= 1.00D+10 DXMaxT= 1.00D-02 DXLimC= 3.00D+00 Rises=F
 Variable       Old X    -DE/DX   Delta X   Delta X   Delta X     New X
                                 (Linear)    (Quad)   (Total)
    R1        2.89359   0.00000   0.00000  -0.00001  -0.00001   2.89358
    R2        2.88874   0.00000   0.00000  -0.00001  -0.00001   2.88872
    R3        2.07529   0.00000   0.00000   0.00000   0.00000   2.07529
    R4        2.68103   0.00000   0.00000   0.00000   0.00000   2.68104
    R5        2.90591   0.00000   0.00000   0.00000   0.00000   2.90590
    R6        2.08201   0.00000   0.00000   0.00000   0.00000   2.08201
    R7        2.66305   0.00000   0.00000   0.00000   0.00000   2.66305
    R8        2.05834   0.00000   0.00000   0.00000   0.00000   2.05834
    R9        2.62394   0.00000   0.00000   0.00000   0.00000   2.62394
   R10        2.76015   0.00000   0.00000   0.00001   0.00001   2.76016
   R11        2.89175   0.00000   0.00000   0.00001   0.00001   2.89176
   R12        2.07401   0.00000   0.00000   0.00000   0.00000   2.07401
   R13        2.73211   0.00000   0.00000   0.00000   0.00000   2.73211
   R14        2.88296   0.00000   0.00000   0.00000   0.00000   2.88296
   R15        2.07145   0.00000   0.00000   0.00000   0.00000   2.07145
   R16        2.68220   0.00000   0.00000   0.00000   0.00000   2.68221
   R17        3.08621   0.00000   0.00000  -0.00001  -0.00001   3.08619
   R18        2.68747   0.00000   0.00000   0.00000   0.00000   2.68747
   R19        2.68887   0.00000   0.00000   0.00000   0.00000   2.68886
   R20        2.68978   0.00000   0.00000   0.00000   0.00000   2.68978
   R21        2.06501   0.00000   0.00000   0.00000   0.00000   2.06501
   R22        2.07386   0.00000   0.00000  -0.00001  -0.00001   2.07385
   R23        2.67588   0.00000   0.00000   0.00000   0.00000   2.67588
   R24        2.69088   0.00000   0.00000   0.00000   0.00000   2.69088
   R25        2.75241   0.00000   0.00000   0.00000   0.00000   2.75241
   R26        2.76353   0.00000   0.00000   0.00000   0.00000   2.76353
   R27        3.37341   0.00000   0.00000   0.00000   0.00000   3.37341
   R28        2.62971   0.00000   0.00000   0.00001   0.00001   2.62973
   R29        2.63063   0.00000   0.00000  -0.00001  -0.00001   2.63062
   R30        2.63626   0.00000   0.00000  -0.00001  -0.00001   2.63625
   R31        2.04732   0.00000   0.00000   0.00000   0.00000   2.04732
   R32        2.63103   0.00000   0.00000   0.00001   0.00001   2.63104
   R33        2.04486   0.00000   0.00000   0.00000   0.00000   2.04486
   R34        2.63391   0.00000   0.00000   0.00001   0.00001   2.63393
   R35        2.84727   0.00000   0.00000  -0.00001  -0.00001   2.84726
   R36        2.63799   0.00000   0.00000  -0.00001  -0.00001   2.63798
   R37        2.84459   0.00000   0.00000   0.00000   0.00000   2.84459
   R38        2.04769   0.00000   0.00000   0.00000   0.00000   2.04769
   R39        2.07497   0.00000   0.00000   0.00000   0.00000   2.07497
   R40        2.07702   0.00000   0.00000   0.00000   0.00000   2.07701
   R41        2.06307   0.00000   0.00000   0.00000   0.00000   2.06307
   R42        2.06533   0.00000   0.00000   0.00000   0.00000   2.06533
   R43        2.07735   0.00000   0.00000   0.00000   0.00000   2.07735
   R44        2.06855   0.00000   0.00000   0.00000   0.00000   2.06855
   R45        2.06542   0.00000   0.00000   0.00000   0.00000   2.06542
   R46        2.07054   0.00000   0.00000   0.00000   0.00000   2.07054
   R47        2.07533   0.00000   0.00000   0.00000   0.00000   2.07533
   R48        2.06546   0.00000   0.00000   0.00000   0.00000   2.06546
   R49        2.07536   0.00000   0.00000   0.00001   0.00001   2.07536
   R50        2.07045   0.00000   0.00000   0.00000   0.00000   2.07045
   R51        2.54857   0.00000   0.00000   0.00000   0.00000   2.54857
   R52        2.55313   0.00000   0.00000   0.00000   0.00000   2.55313
   R53        2.54905   0.00000   0.00000   0.00000   0.00000   2.54906
   R54        2.56608   0.00000   0.00000  -0.00001  -0.00001   2.56607
   R55        2.54702   0.00000   0.00000  -0.00001  -0.00001   2.54701
   R56        2.54359   0.00000   0.00000   0.00001   0.00001   2.54361
    A1        1.92949   0.00000   0.00000  -0.00002  -0.00002   1.92947
    A2        1.90277   0.00000   0.00000   0.00000   0.00000   1.90277
    A3        1.93300   0.00000   0.00000   0.00002   0.00002   1.93302
    A4        1.89599   0.00000   0.00000   0.00002   0.00002   1.89601
    A5        1.87521   0.00000   0.00000  -0.00003  -0.00003   1.87519
    A6        1.92705   0.00000   0.00000   0.00000   0.00000   1.92705
    A7        1.94025   0.00000   0.00000  -0.00004  -0.00004   1.94022
    A8        1.88794   0.00000   0.00000   0.00001   0.00001   1.88795
    A9        1.89275   0.00000   0.00000   0.00001   0.00001   1.89275
   A10        1.84945   0.00000   0.00000   0.00002   0.00002   1.84947
   A11        1.96406   0.00000   0.00000  -0.00001  -0.00001   1.96405
   A12        1.92807   0.00000   0.00000   0.00001   0.00001   1.92808
   A13        1.95791   0.00000   0.00000   0.00002   0.00002   1.95794
   A14        1.97250   0.00000   0.00000   0.00000   0.00000   1.97250
   A15        1.84641   0.00000   0.00000  -0.00003  -0.00003   1.84638
   A16        1.85469   0.00000   0.00000   0.00000   0.00000   1.85469
   A17        1.88757   0.00000   0.00000   0.00000   0.00000   1.88756
   A18        1.94468   0.00000   0.00000   0.00001   0.00001   1.94469
   A19        1.90409   0.00000   0.00000   0.00002   0.00002   1.90410
   A20        1.92776   0.00000   0.00000   0.00003   0.00003   1.92780
   A21        1.96181   0.00000   0.00000  -0.00005  -0.00005   1.96177
   A22        1.89763   0.00000   0.00000  -0.00001  -0.00001   1.89761
   A23        1.88134   0.00000   0.00000   0.00002   0.00002   1.88136
   A24        1.88969   0.00000   0.00000   0.00000   0.00000   1.88968
   A25        1.95039   0.00000   0.00000   0.00006   0.00006   1.95045
[...]
 1103,-0.00000310,-0.00002985,0.00001155,-0.00015290,-0.00029847,0.0000
 2457,0.00000541,0.00003467,0.00001793,0.00005184,0.00002804,-0.0000093
 8,-0.00000023,0.00003426,-0.00001964,0.00025378,0.00020938,0.00085052,
 -0.00001638,0.00003604,-0.00010184,-0.00021173,0.00011894,-0.00002918,
 0.00001384,-0.00007367,-0.00001753,0.00205715,-0.00035599,-0.00555983,
 0.00012160,0.00005171,0.00181326,-0.00138910,-0.00053966,0.00151924,-0
 .00070245,0.00079100,0.00144509,0.01556080,-0.02008237,0.57832687,0.00
 007462,-0.00013043,0.00001251,0.00007431,-0.00004021,-0.00004115,0.000
 14621,-0.00051076,0.00018128,-0.00014129,-0.00061987,-0.00014552,0.000
 06257,0.00026254,0.00011410,-0.00001531,0.00002802,-0.00000837,0.00001
 029,0.00000616,-0.00000245,-0.00001016,0.00001148,-0.00001039,-0.00000
 767,0.00004911,-0.00003439,0.00004904,-0.00001041,0.00000422,-0.000228
 33,0.00042901,0.00000249,0.00023687,0.00033071,-0.00012591,-0.00009402
 ,0.00011177,0.00001805,-0.00018171,0.00005935,-0.00007960,-0.00013809,
 -0.00006251,-0.00009553,0.00174140,0.00113278,0.00024003,-0.00022251,-
 0.00004007,-0.00017223,-0.00117419,-0.00061871,-0.00052250,-0.00079201
 ,-0.00066059,-0.00061658,-0.00031935,-0.00024207,0.00010214,0.00007735
 ,0.00001049,-0.00001231,0.00006881,0.00006123,-0.00000364,0.00046195,-
 0.00061765,0.00028084,0.00016294,-0.00013825,-0.00041138,-0.00021557,-
 0.00060190,0.00105839,-0.00051948,-0.00003725,-0.00021764,0.00003000,0
 .00000291,0.00001887,0.01041863,0.00073281,-0.00259110,-0.00005438,0.0
 0002641,-0.00000246,0.00004163,0.00100803,0.00042669,0.00000877,0.0000
 2823,-0.00034176,0.00000976,-0.00003488,-0.00005009,0.00000391,-0.0000
 0004,0.00001137,0.00000428,0.00000215,0.00000948,-0.00000923,0.0000101
 1,0.00000318,0.00004127,-0.00005049,0.00007567,-0.00001656,0.00000313,
 -0.00001011,0.00000019,0.00000628,-0.00001381,-0.00000689,0.00001510,-
 0.00000640,0.00008411,0.00010022,0.00003801,-0.00000627,-0.00001636,-0
 .00002233,-0.00002637,-0.00001355,-0.00000025,0.00000824,0.00001899,0.
 00000518,0.00170914,0.00048393,0.00130092,-0.00038447,-0.00017135,-0.0
 0004406,-0.00250682,-0.00022405,-0.00008220,-0.00040490,-0.00009559,-0
 .00003213,-0.00024666,-0.00007775,0.00006391,0.00006691,0.00001670,-0.
 00002702,0.00006234,0.00003218,-0.00001279,0.00004584,-0.00000310,-0.0
 0000559,-0.08840960,-0.05091209,0.00929502,0.12653075,-0.00001717,-0.0
 0019972,-0.00005752,-0.00011610,0.00001225,-0.00008540,-0.00023039,-0.
 00088712,0.00066279,-0.00022711,-0.00092683,-0.00020755,-0.00000166,0.
 00019092,0.00002203,-0.00004675,0.00005531,-0.00002639,0.00007631,0.00
 002520,-0.00000031,-0.00001930,0.00001762,-0.00002819,-0.00007621,0.00
 005981,-0.00011986,0.00009567,0.00000901,0.00000877,0.00015782,0.00087
 460,-0.00001354,0.00140330,0.00064703,-0.00036049,0.00005900,0.0000660
 8,-0.00001028,-0.00003635,0.00010830,-0.00001488,-0.00007327,0.0001220
 4,-0.00000415,0.00131028,0.00069420,0.00059938,-0.00013527,0.00000310,
 -0.00015444,0.00000123,-0.00073971,0.00072557,-0.00064204,-0.00011064,
 -0.00089785,-0.00300131,0.00154863,0.00048476,0.00072995,-0.00081488,0
 .00026004,0.00077576,-0.00052883,-0.00041694,0.00160929,0.00055912,0.0
 0082747,0.00005515,-0.00046254,0.00078825,-0.00185567,0.00020813,0.002
 48051,0.00171734,0.00057923,0.00154482,-0.00019797,-0.00012353,-0.0000
 4075,-0.01178241,-0.03604346,0.01417036,-0.00096151,-0.00052672,-0.000
 30011,0.00192619,-0.00211723,-0.00149706,-0.00102736,-0.00073797,0.000
 07375,-0.00005936,-0.00001528,0.00001980,0.00000014,0.00001396,0.00001
 454,0.00001087,0.00001092,-0.00001132,0.00000569,0.00000116,0.00000282
 ,0.00000014,-0.00002111,0.00003466,0.00000046,0.00000527,-0.00000344,0
 .00000240,-0.00000215,-0.00000650,-0.00001200,0.00000834,-0.00000333,0
 .00003965,-0.00003373,0.00005871,0.00000161,-0.00000115,-0.00001023,-0
 .00001659,0.00000063,-0.00000610,0.00001161,0.00003900,-0.00001537,0.0
 0180691,0.00088631,0.00150309,-0.00034792,-0.00016393,-0.00004481,-0.0
 0000300,-0.00037833,-0.00085344,-0.00058814,-0.00013284,-0.00004443,0.
 00117289,-0.00081586,-0.00211888,0.00005416,0.00011667,0.00095618,-0.0
 0053209,-0.00012007,0.00058590,-0.00033887,0.00057416,0.00050842,-0.05
 427212,-0.21911551,0.03056060,0.11167291,0.31703035,0.00005572,-0.0000
 1001,0.00002457,0.00011973,-0.00004159,0.00001440,0.00023802,0.0002649
 6,-0.00037534,-0.00001911,-0.00011816,-0.00012803,0.00004408,0.0001296
 2,0.00005359,-0.00000200,0.00000772,0.00001642,-0.00005007,-0.00001433
 ,0.00000254,0.00000693,-0.00000226,0.00001510,0.00004450,-0.00000287,0
 .00007026,-0.00003075,-0.00001967,0.00000024,-0.00023203,-0.00019079,0
 .00013975,-0.00085773,-0.00017876,0.00024183,-0.00009947,0.00004739,0.
 00005152,-0.00011794,-0.00000641,-0.00003717,-0.00006756,-0.00009032,-
 0.00003264,0.00059538,0.00085165,-0.00023874,-0.00006303,-0.00004434,0
 .00000028,-0.00109368,-0.00011619,-0.00063285,-0.00016179,-0.00032680,
 0.00066573,0.00173449,-0.00137711,-0.00064719,-0.00042854,0.00058064,-
 0.00012080,-0.00042425,0.00038994,0.00041909,-0.00150496,-0.00014614,-
 0.00129313,-0.00075108,0.00083853,-0.00007588,0.00252351,-0.00005081,-
 0.00220556,-0.00048602,-0.00072294,0.00041642,0.00008936,0.00005711,0.
 00006294,0.00571615,0.03187876,0.00026387,0.00018904,0.00061781,0.0000
 1205,-0.00075557,0.00037761,0.00066794,0.00028219,0.00025384,0.0000553
 3,0.00004282,-0.00002439,-0.00007156,0.00000763,-0.00000388,-0.0000039
 9,-0.00001015,-0.00000879,0.00001512,-0.00000809,0.00000589,0.00000404
 ,0.00002783,-0.00002507,0.00002826,-0.00001252,-0.00000076,-0.00000621
 ,-0.00000254,0.00000516,-0.00000281,0.00000043,0.00000777,-0.00000359,
 0.00004276,0.00008848,-0.00000770,-0.00000171,-0.00000988,-0.00000454,
 -0.00001388,-0.00000814,0.00000279,0.00000046,-0.00001180,0.00000606,-
 0.00037032,-0.00017768,-0.00053513,0.00007672,0.00003023,0.00005481,0.
 00027000,-0.00006562,0.00013149,0.00009107,0.00004175,0.00002804,-0.00
 060311,0.00022027,0.00132702,-0.00001386,-0.00003292,-0.00047602,0.000
 34022,0.00013415,-0.00036697,0.00018700,-0.00023015,-0.00032464,0.0100
 6320,0.03132862,-0.07777204,-0.01016436,-0.01723101,0.07194236,0.00013
 232,-0.00001075,0.00007989,0.00022461,-0.00009207,0.00003016,0.0003964
 1,0.00000425,-0.00030607,0.00004827,0.00002214,0.00006827,0.00009857,0
 .00018111,0.00016838,0.00002163,-0.00000866,0.00000948,-0.00005219,-0.
 00001327,-0.00000799,-0.00000002,0.00000360,0.00000485,0.00004312,0.00
 002507,0.00004109,-0.00000148,-0.00001859,-0.00000497,-0.00047715,-0.0
 0007371,-0.00004249,-0.00089037,-0.00007398,0.00010761,-0.00020165,0.0
 0013082,0.00003057,-0.00024708,0.00000017,-0.00011934,-0.00014396,-0.0
 0018080,-0.00015120,0.00072817,0.00047164,0.00015977,-0.00009280,-0.00
 005142,-0.00009065,-0.00002936,-0.00008098,0.00014974,-0.00041509,-0.0
 0035135,-0.00018064,0.00223128,-0.00160922,-0.00050837,-0.00068456,0.0
 0102988,-0.00041928,-0.00056544,0.00060051,0.00040271,-0.00063577,0.00
 177657,0.00055617,-0.00021823,-0.00003924,-0.00053081,-0.00058044,0.00
 014125,-0.00639490,0.00023303,0.00074771,-0.00103690,0.00003928,-0.000
 13808,-0.00004092,-0.03650016,0.01104324,-0.00132228,0.00028540,-0.000
 85421,0.00019170,-0.00084873,0.00158030,0.00324963,-0.00018669,-0.0011
 7762,-0.00174967,0.00006562,-0.00004723,-0.00009337,0.00000686,-0.0000
 1352,0.00000749,-0.00000018,-0.00000363,0.00002411,-0.00002210,0.00001
 587,0.00000156,0.00006985,-0.00006597,0.00009358,-0.00002517,0.0000002
 1,-0.00001253,-0.00000155,0.00001137,-0.00001838,-0.00000072,0.0000173
 7,-0.00000589,0.00009249,0.00015569,0.00001642,-0.00000753,-0.00002355
 ,-0.00002391,-0.00002755,-0.00001815,0.00000474,-0.00000087,-0.0000008
 0,0.00001158,0.00071692,0.00029116,0.00046034,-0.00016130,-0.00011137,
 0.00000580,0.00002048,0.00001975,-0.00031581,-0.00014095,-0.00002786,-
 0.00002022,-0.00125649,0.00045746,0.00160114,0.00006103,-0.00005427,-0
 .00060843,0.00060455,0.00019148,-0.00049495,0.00036299,-0.00040852,-0.
 00039076,-0.25986851,0.03841459,-0.01176035,-0.05767132,-0.03624173,0.
 00713843,0.38658883,-0.00003806,-0.00005007,-0.00003539,-0.00008890,0.
 00002141,-0.00002909,-0.00016397,-0.00024307,0.00026258,-0.00007156,-0
 .00025344,-0.00006320,-0.00002570,0.00000189,-0.00003985,-0.00001800,0
 .00001510,-0.00000993,0.00003387,0.00001095,0.00000095,-0.00000550,0.0
 0000392,-0.00000951,-0.00003514,0.00001218,-0.00004802,0.00002874,0.00
 000774,0.00000401,0.00016206,0.00025767,0.00000673,0.00056555,0.000193
 85,-0.00011026,0.00006690,-0.00001260,-0.00001044,0.00005229,0.0000303
 7,0.00002497,0.00001563,0.00008304,0.00003743,0.00017089,0.00002203,0.
 00010122,-0.00001451,0.00001646,-0.00001854,0.00002593,-0.00020802,0.0
 0016094,-0.00009267,0.00006579,-0.00021557,-0.00151435,0.00067846,0.00
 025440,0.00046210,-0.00047933,0.00019431,0.00035873,-0.00027430,-0.000
 22786,-0.00026741,-0.00137273,0.00045883,0.00051758,-0.00029368,0.0001
 2211,0.00010460,0.00083840,0.00240089,-0.00030583,-0.00029308,0.000180
 84,0.00000448,0.00007778,0.00000105,0.02506392,0.00347351,0.00284348,0
 .00001998,0.00065094,-0.00015908,0.00055882,-0.00091636,-0.00052935,0.
 00016119,0.00016248,0.00050485,-0.00003382,0.00000604,0.00002858,-0.00
 000144,0.00000700,0.00000277,0.00000354,0.00000443,-0.00000927,0.00000
 664,-0.00000352,0.00000025,-0.00001680,0.00000985,-0.00001323,0.000006
 60,0.00000146,0.00000221,0.00000106,-0.00000354,0.00000254,-0.00000329
 ,-0.00000187,0.00000074,-0.00001260,-0.00005179,0.00001287,0.00000273,
 0.00000582,0.00000342,0.00000216,0.00000501,-0.00000292,0.00000330,0.0
 0001163,-0.00000810,0.00035324,0.00013335,0.00030824,-0.00005417,-0.00
 001505,-0.00001537,0.00007940,-0.00000170,-0.00018814,-0.00011792,-0.0
 0002569,-0.00000608,0.00053817,-0.00037266,-0.00097356,0.00000216,0.00
 005260,0.00035141,-0.00025542,-0.00004495,0.00027082,-0.00017793,0.000
 26343,0.00023533,0.03640240,-0.07781675,0.00375213,-0.05222781,-0.0037
 3364,0.00320440,-0.03897308,0.08027175,0.00004510,0.00002520,0.0000249
 7,0.00009468,-0.00003121,0.00002649,0.00017996,0.00022596,-0.00032172,
 0.00007514,0.00013304,0.00000668,0.00003221,0.00002402,0.00004271,0.00
 000436,0.00000032,0.00001373,-0.00003997,-0.00001302,0.00000041,0.0000
 0510,-0.00000241,0.00001141,0.00003336,-0.00000312,0.00005202,-0.00002
 208,-0.00001106,-0.00000211,-0.00017264,-0.00018298,0.00005853,-0.0006
 6839,-0.00016783,0.00017194,-0.00007708,0.00003532,0.00003492,-0.00007
 111,-0.00001576,-0.00002392,-0.00003622,-0.00006670,-0.00002808,0.0000
 1333,0.00008877,-0.00007456,0.00000979,-0.00001387,0.00001559,0.000025
 26,0.00007844,-0.00005617,-0.00001959,-0.00007790,0.00020379,0.0016481
 7,-0.00089421,-0.00060277,-0.00050700,0.00059730,-0.00017760,-0.000370
 80,0.00032365,0.00040003,-0.00070485,0.00174480,-0.00009698,-0.0005852
 2,0.00047211,-0.00014908,-0.00033712,-0.00048859,-0.00424349,-0.000312
 64,0.00003458,0.00081656,-0.00003861,0.00003401,0.00004314,-0.02696573
 ,0.00852596,0.00685532,-0.00037938,0.00002474,-0.00000351,-0.00083845,
 -0.00035487,-0.00167717,-0.00121193,0.00081771,-0.00036643,0.00003362,
 -0.00001959,-0.00005328,0.00000624,-0.00000372,-0.00000357,-0.00000746
 ,-0.00000663,0.00001141,-0.00000660,0.00000436,0.00000243,0.00002075,-
 0.00001605,0.00001592,-0.00000793,-0.00000121,-0.00000363,-0.00000205,
 0.00000363,-0.00000167,0.00000139,0.00000473,-0.00000172,0.00002364,0.
 00005163,-0.00000744,-0.00000080,-0.00000570,-0.00000235,-0.00000791,-
 0.00000454,0.00000198,-0.00000064,-0.00000795,0.00000393,-0.00011721,-
 0.00006451,-0.00018151,0.00001471,-0.00000181,0.00001597,0.00003103,0.
 00001191,0.00002777,0.00002320,0.00001668,0.00000250,-0.00042918,0.000
 07293,0.00123178,-0.00005304,-0.00001265,-0.00041138,0.00028413,0.0001
 1756,-0.00031774,0.00014525,-0.00017273,-0.00030240,-0.00492856,0.0024
 6032,-0.07800869,0.00996633,0.00294158,0.01211015,-0.02445349,0.003945
 97,0.07811871,0.00003083,0.00000860,0.00002636,0.00005636,-0.00002524,
 0.00000659,0.00011432,-0.00000431,-0.00003117,0.00001432,0.00006168,0.
 00007312,0.00002384,0.00003415,0.00003479,0.00001821,-0.00001239,-0.00
 000062,-0.00000884,-0.00000125,-0.00000337,-0.00000024,0.00000037,-0.0
 0000069,0.00000759,0.00000458,-0.00000107,0.00000054,-0.00000231,-0.00
 000156,-0.00009389,-0.00004557,-0.00004824,-0.00018390,-0.00000327,-0.
 00001440,-0.00004900,0.00002909,-0.00000215,-0.00005685,-0.00000468,-0
 .00003272,-0.00003052,-0.00004910,-0.00004226,0.00008644,0.00005927,0.
 00003098,-0.00001569,-0.00001235,-0.00001907,0.00001495,0.00000325,0.0
 0006058,-0.00005415,-0.00006599,-0.00006622,0.00049754,-0.00046520,0.0
 0022582,-0.00008893,0.00017385,-0.00012081,-0.00015062,0.00017056,0.00
 000274,0.00063049,-0.00053921,-0.00022545,0.00000439,0.00005339,-0.000
 29104,-0.00228907,0.00086721,-0.00085783,0.00022286,-0.00033294,-0.000
 80453,0.00005341,-0.00002973,-0.00007614,0.01034455,-0.00146867,-0.007
 75993,0.00042522,-0.00034172,-0.00189001,-0.00087576,0.00155991,-0.000
 72103,0.00010268,-0.00004861,-0.00040693,0.00001596,-0.00000878,-0.000
 01455,0.00000033,-0.00000531,0.00000324,0.00000251,0.00000058,0.000005
 36,-0.00000644,0.00000402,-0.00000103,0.00001758,-0.00001590,0.0000241
 6,-0.00000586,0.00000002,-0.00000274,-0.00000006,0.00000279,-0.0000054
 2,0.00000037,0.00000370,-0.00000091,0.00001949,0.00003653,0.00000287,-
 0.00000209,-0.00000589,-0.00000617,-0.00000525,-0.00000445,0.00000158,
 -0.00000126,-0.00000084,0.00000346,0.00012606,0.00005418,0.00008403,-0
 .00002630,-0.00002512,-0.00000163,-0.00003110,0.00006158,0.00001313,0.
 00001534,0.00000212,-0.00000233,-0.00044626,0.00012821,0.00038491,0.00
 000901,-0.00001966,-0.00024341,0.00016625,0.00005476,-0.00013005,0.000
 10347,-0.00011263,-0.00008730,-0.07691231,0.01284379,0.02221664,0.0115
 7101,-0.01183707,-0.01158156,-0.03111629,0.02874118,0.05065694,0.08775
 478,0.00000693,-0.00006190,-0.00001831,-0.00001492,-0.00000174,-0.0000
 2079,-0.00002795,-0.00025252,0.00010038,-0.00004167,-0.00027125,-0.000
 09506,0.00001133,0.00006027,0.00001567,-0.00002430,0.00002302,-0.00000
 048,0.00001152,0.00000438,0.00000094,-0.00000419,0.00000443,-0.0000044
 8,-0.00001361,0.00001467,-0.00001307,0.00002005,-0.00000171,0.00000239
 ,-0.00003285,0.00025363,0.00004603,0.00022450,0.00017729,-0.00001178,-
 0.00000410,0.00003841,0.00001731,-0.00002945,0.00003423,-0.00000522,-0
 .00003661,0.00002973,0.00000095,0.00045004,0.00024660,0.00013315,-0.00
 004097,-0.00000331,-0.00003460,0.00007218,-0.00026262,0.00016619,-0.00
 023890,-0.00004393,-0.00011467,-0.00055304,0.00013501,-0.00036448,0.00
 009362,-0.00006370,0.00009596,0.00017428,-0.00006449,0.00010108,-0.000
 63249,0.00078385,-0.00007337,-0.00022882,0.00018944,0.00060619,0.00273
 548,-0.00183683,0.00103197,0.00002514,-0.00070412,0.00070410,-0.000073
 39,0.00002919,0.00007871,0.00066652,0.00894854,0.00548617,-0.00075649,
 0.00041891,0.00158735,0.00097178,0.00036918,-0.00008788,-0.00002634,0.
 00018454,0.00027475,-0.00001245,-0.00001724,-0.00001905,0.00000424,0.0
 0000571,0.00000284,-0.00000047,0.00000073,-0.00000014,0.00000084,0.000
 00153,0.00000286,0.00000517,-0.00001099,0.00001182,-0.00000167,0.00000
 129,-0.00000208,-0.00000024,-0.00000001,-0.00000108,-0.00000409,0.0000
 0446,-0.00000168,0.00001951,0.00000002,0.00001604,0.00000140,-0.000001
 21,-0.00000214,-0.00000860,-0.00000054,-0.00000164,0.00000394,0.000009
 96,-0.00000571,0.00046565,0.00014376,0.00023841,-0.00007353,-0.0000355
 8,-0.00000316,0.00010461,0.00001469,-0.00017457,-0.00014743,-0.0000192
 6,-0.00000636,0.00016679,-0.00037827,-0.00033341,-0.00000517,0.0000401
 0,0.00007271,-0.00011889,0.00002884,0.00013312,-0.00008615,0.00015137,
 0.00005864,0.01153900,-0.10229525,-0.07101136,-0.00849500,-0.05571458,
 -0.05007270,0.02343041,-0.00092853,-0.02017660,-0.02947115,0.15062178,
 0.00009196,-0.00001477,0.00002367,0.00016345,-0.00005051,0.00001393,0.
 00035755,0.00019000,-0.00051139,0.00010071,-0.00002292,-0.00012481,0.0
 0007362,0.00010769,0.00009838,-0.00001462,0.00002693,0.00002251,-0.000
 06436,-0.00002068,0.00000473,0.00000666,-0.00000100,0.00001990,0.00006
 197,0.00000525,0.00009999,-0.00002797,-0.00002505,-0.00000111,-0.00040
 380,-0.00012165,0.00020624,-0.00105302,-0.00010054,0.00028004,-0.00014
 938,0.00009780,0.00008926,-0.00016296,0.00000186,-0.00004451,-0.000106
 69,-0.00010311,-0.00004705,0.00052132,0.00043997,-0.00003807,-0.000026
 68,-0.00002935,-0.00000247,0.00001333,-0.00001994,-0.00002440,-0.00029
 592,-0.00023369,0.00035605,0.00242518,-0.00189689,-0.00083702,-0.00062
 547,0.00077268,-0.00014658,-0.00058062,0.00059722,0.00072358,-0.000002
 26,0.00102045,-0.00016486,-0.00023165,0.00004335,-0.00066025,0.0023396
 5,-0.00150984,-0.00109633,0.00169951,-0.00016503,-0.00242937,-0.000077
 05,-0.00001535,0.00007733,0.00808626,-0.02214853,-0.04567021,-0.002005
 02,0.00093587,-0.00112666,-0.00678542,0.00533419,-0.00318536,-0.000119
 68,-0.00028648,0.00077039,0.00005366,-0.00005142,-0.00012269,0.0000160
 9,-0.00000065,-0.00000526,-0.00001677,-0.00001337,0.00002207,-0.000010
 55,0.00000917,0.00000824,0.00004286,-0.00003886,0.00003749,-0.00001690
 ,-0.00000127,-0.00000881,-0.00000448,0.00000688,-0.00000263,-0.0000011
 9,0.00001307,-0.00000523,0.00006514,0.00010555,-0.00000113,-0.00000048
 ,-0.00001176,-0.00000619,-0.00002377,-0.00000984,0.00000217,0.00000302
 ,-0.00000738,0.00000356,0.00018400,0.00000247,-0.00016284,-0.00004383,
 -0.00003499,0.00003252,0.00013568,-0.00002848,-0.00013536,-0.00010875,
 0.00001287,-0.00000027,-0.00153393,0.00086638,0.00227035,-0.00018323,-
 0.00010462,-0.00122445,0.00081313,0.00027214,-0.00071428,0.00031161,-0
 .00038223,-0.00055875,0.01630637,-0.06287295,-0.24265636,-0.00732264,-
 0.03525024,-0.00348149,0.03648934,-0.01695854,-0.01320182,-0.04836297,
 0.13167013,0.31323561\\0.00000020,-0.00000063,-0.00000112,-0.00000008,
 0.00000124,0.,0.00000025,0.00000072,-0.00000066,0.00000007,0.00000035,
 0.00000005,-0.00000028,0.00000074,0.00000038,0.00000012,0.00000125,-0.
 00000034,0.00000009,0.00000178,-0.00000115,0.00000030,0.00000019,-0.00
 000012,-0.00000040,-0.00000105,-0.00000072,-0.00000060,0.00000057,0.00
 000013,0.00000011,0.00000060,0.00000039,0.00000056,-0.00000065,-0.0000
 0073,0.00000006,0.00000144,-0.00000098,-0.00000009,0.00000075,0.000000
 44,0.00000017,-0.00000060,0.00000026,-0.00000071,-0.00000036,0.0000001
 1,-0.00000048,-0.00000033,0.00000081,-0.00000046,0.00000088,0.00000038
 ,-0.00000020,0.00000005,0.00000131,0.00000085,0.00000150,-0.00000210,0
 .00000071,-0.00000143,-0.00000061,0.00000077,-0.00000037,-0.00000012,0
 .00000052,-0.00000079,-0.00000059,-0.00000002,-0.00000019,0.00000124,-
 0.00000005,-0.00000053,0.00000059,0.00000076,-0.00000180,0.00000106,0.
 00000114,-0.00000096,-0.00000032,0.00000038,0.00000030,0.00000065,0.00
 000047,0.00000039,-0.00000014,-0.00000027,-0.00000096,0.00000080,0.000
 00012,-0.00000151,0.00000015,0.00000080,0.00000123,-0.00000147,0.00000
 079,0.00000110,-0.00000160,-0.00000001,0.00000102,-0.00000072,0.000000
 77,0.00000143,-0.00000137,0.00000036,0.00000078,-0.00000079,0.00000014
 ,0.00000101,-0.00000052,0.00000037,0.00000035,-0.00000025,0.00000056,0
 .00000096,-0.00000068,-0.00000090,0.00000012,0.00000021,-0.00000068,-0
 .00000018,0.00000071,-0.00000080,0.00000094,0.00000053,-0.00000122,0.0
 0000044,0.00000031,-0.00000099,0.00000046,0.00000052,-0.00000130,0.000
 00079,0.00000097,-0.00000123,0.00000032,0.00000086,-0.00000068,0.00000
 083,0.00000037,-0.00000010,-0.00000187,0.00000004,0.00000070,-0.000002
 59,0.00000019,0.00000094,-0.00000213,0.,0.00000014,-0.00000208,0.00000
 067,-0.00000096,-0.00000012,0.00000116,-0.00000029,-0.00000211,0.00000
 063,-0.00000023,-0.00000057,0.00000121,-0.00000015,-0.00000071,-0.0000
 0005\\\@


 ALL THINGS ARE POSSIBLE EXCEPT SKIING THROUGH A REVOLVING DOOR.
 Job cpu time:       0 days 19 hours  5 minutes  2.8 seconds.
 Elapsed time:       0 days  1 hours 19 minutes 51.5 seconds.
 File lengths (MBytes):  RWF=   2249 Int=      0 D2E=      0 Chk=     48 Scr=      1
 Normal termination of Gaussian 16 at Sun May  5 12:48:53 2019.
