 Entering Gaussian System, Link 0=g16
 Input=clay_new-glu_gluC6-EDDR-Na2_1Me2O-bisCF3-ts-b3lyp_d3bj-631gd-pcm_thf.gjf
 Output=clay_new-glu_gluC6-EDDR-Na2_1Me2O-bisCF3-ts-b3lyp_d3bj-631gd-pcm_thf.out
 Initial command:
 /home/ekwan/sw/g16/l1.exe "/scratch/users/ekwan/clay_new-glu_gluC6-EDDR-Na2_1Me2O-bisCF3-ts-b3lyp_d3bj-631gd-pcm_thf/Gau-2019.inp" -scrdir="/scratch/users/ekwan/clay_new-glu_gluC6-EDDR-Na2_1Me2O-bisCF3-ts-b3lyp_d3bj-631gd-pcm_thf/"
 Entering Link 1 = /home/ekwan/sw/g16/l1.exe PID=      2020.
  
 Copyright (c) 1988,1990,1992,1993,1995,1998,2003,2009,2016,
            Gaussian, Inc.  All Rights Reserved.
  
 This is part of the Gaussian(R) 16 program.  It is based on
 the Gaussian(R) 09 system (copyright 2009, Gaussian, Inc.),
 the Gaussian(R) 03 system (copyright 2003, Gaussian, Inc.),
 the Gaussian(R) 98 system (copyright 1998, Gaussian, Inc.),
 the Gaussian(R) 94 system (copyright 1995, Gaussian, Inc.),
 the Gaussian 92(TM) system (copyright 1992, Gaussian, Inc.),
 the Gaussian 90(TM) system (copyright 1990, Gaussian, Inc.),
 the Gaussian 88(TM) system (copyright 1988, Gaussian, Inc.),
 the Gaussian 86(TM) system (copyright 1986, Carnegie Mellon
 University), and the Gaussian 82(TM) system (copyright 1983,
 Carnegie Mellon University). Gaussian is a federally registered
 trademark of Gaussian, Inc.
  
 This software contains proprietary and confidential information,
 including trade secrets, belonging to Gaussian, Inc.
  
 This software is provided under written license and may be
 used, copied, transmitted, or stored only in accord with that
 written license.
  
 The following legend is applicable only to US Government
 contracts under FAR:
  
                    RESTRICTED RIGHTS LEGEND
  
 Use, reproduction and disclosure by the US Government is
 subject to restrictions as set forth in subparagraphs (a)
 and (c) of the Commercial Computer Software - Restricted
 Rights clause in FAR 52.227-19.
  
 Gaussian, Inc.
 340 Quinnipiac St., Bldg. 40, Wallingford CT 06492
  
  
 ---------------------------------------------------------------
 Warning -- This program may not be used in any manner that
 competes with the business of Gaussian, Inc. or will provide
 assistance to any competitor of Gaussian, Inc.  The licensee
 of this program is prohibited from giving any competitor of
 Gaussian, Inc. access to this program.  By using this program,
 the user acknowledges that Gaussian, Inc. is engaged in the
 business of creating and licensing software in the field of
 computational chemistry and represents and warrants to the
 licensee that it is not a competitor of Gaussian, Inc. and that
 it will not use this program in any manner prohibited above.
 ---------------------------------------------------------------
  

 Cite this work as:
 Gaussian 16, Revision A.03,
 M. J. Frisch, G. W. Trucks, H. B. Schlegel, G. E. Scuseria, 
 M. A. Robb, J. R. Cheeseman, G. Scalmani, V. Barone, 
 G. A. Petersson, H. Nakatsuji, X. Li, M. Caricato, A. V. Marenich, 
 J. Bloino, B. G. Janesko, R. Gomperts, B. Mennucci, H. P. Hratchian, 
 J. V. Ortiz, A. F. Izmaylov, J. L. Sonnenberg, D. Williams-Young, 
 F. Ding, F. Lipparini, F. Egidi, J. Goings, B. Peng, A. Petrone, 
 T. Henderson, D. Ranasinghe, V. G. Zakrzewski, J. Gao, N. Rega, 
 G. Zheng, W. Liang, M. Hada, M. Ehara, K. Toyota, R. Fukuda, 
 J. Hasegawa, M. Ishida, T. Nakajima, Y. Honda, O. Kitao, H. Nakai, 
 T. Vreven, K. Throssell, J. A. Montgomery, Jr., J. E. Peralta, 
 F. Ogliaro, M. J. Bearpark, J. J. Heyd, E. N. Brothers, K. N. Kudin, 
 V. N. Staroverov, T. A. Keith, R. Kobayashi, J. Normand, 
 K. Raghavachari, A. P. Rendell, J. C. Burant, S. S. Iyengar, 
 J. Tomasi, M. Cossi, J. M. Millam, M. Klene, C. Adamo, R. Cammi, 
 J. W. Ochterski, R. L. Martin, K. Morokuma, O. Farkas, 
 J. B. Foresman, and D. J. Fox, Gaussian, Inc., Wallingford CT, 2016.
 
 ******************************************
 Gaussian 16:  AS64L-G16RevA.03 25-Dec-2016
                 3-Jun-2019 
 ******************************************
 %mem=48GB
 %nprocshared=32
 Will use up to   32 processors via shared memory.
 ----------------------------------------------------------------------
 #p opt=(ts,noeigentest,calcfc,maxstep=10) freq=noraman b3lyp 6-31g* po
 p=none scrf=(solvent=tetrahydrofuran,pcm) empiricaldispersion=gd3bj
 ----------------------------------------------------------------------
 1/5=1,8=10,10=4,11=1,18=20,26=3,38=1/1,3;
 2/9=110,12=2,17=6,18=5,40=1/2;
 3/5=1,6=6,7=1,11=2,25=1,30=1,70=2201,71=2,72=20,74=-5,124=41,140=1/1,2,3;
 4//1;
 5/5=2,38=5,53=20/2;
 8/6=4,10=90,11=11/1;
 11/6=1,8=1,9=11,15=111,16=1/1,2,10;
 10/6=1,13=1/2;
 7/10=1,18=20,25=1/1,2,3,16;
 1/5=1,8=10,10=4,11=1,18=20,26=3/3(2);
 2/9=110/2;
 99//99;
 2/9=110/2;
 3/5=1,6=6,7=1,11=2,25=1,30=1,70=2205,71=1,72=20,74=-5,124=41/1,2,3;
 4/5=5,16=3,69=1/1;
 5/5=2,38=5,53=20/2;
 7//1,2,3,16;
 1/5=1,8=10,11=1,18=20,26=3/3(-5);
 2/9=110/2;
 99/9=1/99;
 Leave Link    1 at Mon Jun  3 07:14:30 2019, MaxMem=  6442450944 cpu:              30.7 elap:               1.2
 (Enter /home/ekwan/sw/g16/l101.exe)
 -----
 title
 -----
 Symbolic Z-matrix:
 Charge =  0 Multiplicity = 1
 C                    -5.79157  -1.92478  -0.51152 
 C                    -5.56888  -0.96339   0.65774 
 C                    -4.07826  -0.89195   1.01757 
 C                    -3.39907  -1.44719  -1.21999 
 C                    -4.85038  -1.61016  -1.68005 
 H                    -3.879    -0.09007   1.73495 
 H                    -5.86221   0.04995   0.33881 
 H                    -5.57988  -2.94656  -0.17158 
 H                    -3.0174   -2.42287  -0.89027 
 H                    -5.18016  -0.66957  -2.14656 
 O                    -3.34309  -0.51878  -0.12801 
 O                    -3.69075  -2.13312   1.54928 
 O                    -6.39067  -1.37806   1.73531 
 O                    -7.12917  -1.83918  -0.99829 
 O                    -4.89011  -2.67081  -2.63187 
 C                    -2.45951  -0.88468  -2.29635 
 H                    -2.88184   0.11603  -2.56667 
 H                    -2.6125   -1.51867  -3.19626 
 O                    -1.15731  -0.81208  -1.88755 
 C                    -6.37206  -0.49373   2.84505 
 H                    -5.43705  -0.57502   3.41525 
 H                    -6.49598   0.55159   2.52856 
 H                    -7.20588  -0.77928   3.49131 
 C                    -8.01521  -2.80943  -0.45887 
 H                    -7.66283  -3.82945  -0.67233 
 H                    -8.13181  -2.69131   0.62328 
 H                    -8.98074  -2.65972  -0.95026 
 C                    -5.73018  -2.42668  -3.74917 
 H                    -6.77     -2.26963  -3.44345 
 H                    -5.38865  -1.55052  -4.3209 
 H                    -5.66652  -3.31075  -4.39002 
 C                     0.00028   3.14111  -0.43418 
 C                    -0.20343   1.70232  -0.9228 
 C                    -0.80322   0.86548   0.16386 
 C                    -1.99034   2.77162   1.09755 
 C                    -1.35675   3.6711    0.02713 
 H                    -0.73126  -0.20792   0.15674 
 H                    -0.96749   1.69451  -1.71307 
 H                     0.70167   3.14142   0.40683 
 H                    -1.5723    3.04879   2.06678 
 H                    -2.01576   3.72243  -0.85273 
 O                    -1.6688    1.34415   0.97243 
 O                     0.96468  -1.51599   0.93443 
 O                     0.98252   1.11292  -1.41101 
 O                     0.4742    3.9618   -1.48726 
 O                    -1.25959   4.94319   0.63943 
 C                    -3.51366   2.86506   1.08327 
 H                    -3.87958   2.38326   0.1718 
 H                    -3.77976   3.93206   1.05804 
 O                    -4.14301   2.2059    2.1591 
 S                     1.5851   -0.44192   1.7765 
 O                     1.64135  -0.76336   3.21407 
 O                     0.99191   0.91124   1.47334 
 C                     3.28831  -0.34659   1.20471 
 C                     3.59872   0.4344    0.09698 
 C                     4.25382  -1.1405    1.81993 
 C                     4.8992    0.40688  -0.40859 
 H                     2.82489   1.03092  -0.37174 
 C                     5.54582  -1.16074   1.2973 
 H                     3.99468  -1.73287   2.68931 
 C                     5.87693  -0.39001   0.18117 
 H                     6.88354  -0.40924  -0.21736 
 C                     1.09667   1.17389  -2.84377 
 H                     0.32718   0.53232  -3.2853 
 H                     0.99213   2.20409  -3.19271 
 H                     2.0975    0.80814  -3.07805 
 C                     1.83773   4.35484  -1.35172 
 H                     1.99507   4.90967  -0.41782 
 H                     2.51239   3.49288  -1.37776 
 H                     2.05604   5.00832  -2.19912 
 C                    -1.52013   6.04186  -0.23277 
 H                    -0.79958   6.07768  -1.05447 
 H                    -2.53721   5.98193  -0.64452 
 H                    -1.43349   6.94337   0.37743 
 C                    -4.07657   2.90464   3.39509 
 H                    -4.66249   2.32493   4.11092 
 H                    -3.04778   2.99162   3.76868 
 H                    -4.50606   3.91205   3.30208 
 C                    -2.34168  -2.14245   2.00717 
 H                    -2.20353  -3.07098   2.56585 
 H                    -1.62989  -2.11064   1.17622 
 H                    -2.14438  -1.28763   2.66929 
 Na                    0.77056  -1.5433   -1.35597 
 O                     2.8888   -2.33562  -1.74363 
 C                     3.61306  -2.27114  -2.96409 
 H                     3.60717  -3.24334  -3.47581 
 H                     3.12203  -1.52571  -3.59239 
 H                     4.65077  -1.96358  -2.78431 
 C                     3.41762  -3.30433  -0.84337 
 H                     4.46655  -3.08829  -0.60676 
 H                     2.82197  -3.24602   0.0687 
 H                     3.34668  -4.31342  -1.27242 
 C                     5.20945   1.22785  -1.6277 
 F                     4.57492   0.74112  -2.72767 
 F                     6.52467   1.25671  -1.91286 
 F                     4.79458   2.50874  -1.48689 
 C                     6.5671   -2.10162   1.87096 
 F                     6.54187  -3.29487   1.22342 
 F                     6.34702  -2.35816   3.17601 
 F                     7.823    -1.62081   1.7518 
 
 Add virtual bond connecting atoms O19        and H37        Dist= 4.11D+00.
 Add virtual bond connecting atoms O53        and C34        Dist= 4.20D+00.
 Add virtual bond connecting atoms H58        and O44        Dist= 4.00D+00.
 ITRead=  0  0  0  0  0  0  0  0  0  0  0  0  0  0  0  0  0  0  0  0
 ITRead=  0  0  0  0  0  0  0  0  0  0  0  0  0  0  0  0  0  0  0  0
 ITRead=  0  0  0  0  0  0  0  0  0  0  0  0  0  0  0  0  0  0  0  0
 ITRead=  0  0  0  0  0  0  0  0  0  0  0  0  0  0  0  0  0  0  0  0
 ITRead=  0  0  0  0  0  0  0  0  0  0  0  0  0  0  0  0  0  0  0  0
 MicOpt= -1 -1 -1 -1 -1 -1 -1 -1 -1 -1 -1 -1 -1 -1 -1 -1 -1 -1 -1 -1
 MicOpt= -1 -1 -1 -1 -1 -1 -1 -1 -1 -1 -1 -1 -1 -1 -1 -1 -1 -1 -1 -1
 MicOpt= -1 -1 -1 -1 -1 -1 -1 -1 -1 -1 -1 -1 -1 -1 -1 -1 -1 -1 -1 -1
 MicOpt= -1 -1 -1 -1 -1 -1 -1 -1 -1 -1 -1 -1 -1 -1 -1 -1 -1 -1 -1 -1
 MicOpt= -1 -1 -1 -1 -1 -1 -1 -1 -1 -1 -1 -1 -1 -1 -1 -1 -1 -1 -1 -1
 NAtoms=    100 NQM=      100 NQMF=       0 NMMI=      0 NMMIF=      0
                NMic=       0 NMicF=      0.
                    Isotopes and Nuclear Properties:
 (Nuclear quadrupole moments (NQMom) in fm**2, nuclear magnetic moments (NMagM)
  in nuclear magnetons)

  Atom         1           2           3           4           5           6           7           8           9          10
 IAtWgt=          12          12          12          12          12           1           1           1           1           1
 AtmWgt=  12.0000000  12.0000000  12.0000000  12.0000000  12.0000000   1.0078250   1.0078250   1.0078250   1.0078250   1.0078250
 NucSpn=           0           0           0           0           0           1           1           1           1           1
 AtZEff=   0.0000000   0.0000000   0.0000000   0.0000000   0.0000000   0.0000000   0.0000000   0.0000000   0.0000000   0.0000000
 NQMom=    0.0000000   0.0000000   0.0000000   0.0000000   0.0000000   0.0000000   0.0000000   0.0000000   0.0000000   0.0000000
 NMagM=    0.0000000   0.0000000   0.0000000   0.0000000   0.0000000   2.7928460   2.7928460   2.7928460   2.7928460   2.7928460
 AtZNuc=   6.0000000   6.0000000   6.0000000   6.0000000   6.0000000   1.0000000   1.0000000   1.0000000   1.0000000   1.0000000

  Atom        11          12          13          14          15          16          17          18          19          20
 IAtWgt=          16          16          16          16          16          12           1           1          16          12
 AtmWgt=  15.9949146  15.9949146  15.9949146  15.9949146  15.9949146  12.0000000   1.0078250   1.0078250  15.9949146  12.0000000
 NucSpn=           0           0           0           0           0           0           1           1           0           0
 AtZEff=   0.0000000   0.0000000   0.0000000   0.0000000   0.0000000   0.0000000   0.0000000   0.0000000   0.0000000   0.0000000
 NQMom=    0.0000000   0.0000000   0.0000000   0.0000000   0.0000000   0.0000000   0.0000000   0.0000000   0.0000000   0.0000000
 NMagM=    0.0000000   0.0000000   0.0000000   0.0000000   0.0000000   0.0000000   2.7928460   2.7928460   0.0000000   0.0000000
 AtZNuc=   8.0000000   8.0000000   8.0000000   8.0000000   8.0000000   6.0000000   1.0000000   1.0000000   8.0000000   6.0000000

  Atom        21          22          23          24          25          26          27          28          29          30
 IAtWgt=           1           1           1          12           1           1           1          12           1           1
 AtmWgt=   1.0078250   1.0078250   1.0078250  12.0000000   1.0078250   1.0078250   1.0078250  12.0000000   1.0078250   1.0078250
 NucSpn=           1           1           1           0           1           1           1           0           1           1
 AtZEff=   0.0000000   0.0000000   0.0000000   0.0000000   0.0000000   0.0000000   0.0000000   0.0000000   0.0000000   0.0000000
 NQMom=    0.0000000   0.0000000   0.0000000   0.0000000   0.0000000   0.0000000   0.0000000   0.0000000   0.0000000   0.0000000
 NMagM=    2.7928460   2.7928460   2.7928460   0.0000000   2.7928460   2.7928460   2.7928460   0.0000000   2.7928460   2.7928460
 AtZNuc=   1.0000000   1.0000000   1.0000000   6.0000000   1.0000000   1.0000000   1.0000000   6.0000000   1.0000000   1.0000000

  Atom        31          32          33          34          35          36          37          38          39          40
 IAtWgt=           1          12          12          12          12          12           1           1           1           1
 AtmWgt=   1.0078250  12.0000000  12.0000000  12.0000000  12.0000000  12.0000000   1.0078250   1.0078250   1.0078250   1.0078250
 NucSpn=           1           0           0           0           0           0           1           1           1           1
 AtZEff=   0.0000000   0.0000000   0.0000000   0.0000000   0.0000000   0.0000000   0.0000000   0.0000000   0.0000000   0.0000000
 NQMom=    0.0000000   0.0000000   0.0000000   0.0000000   0.0000000   0.0000000   0.0000000   0.0000000   0.0000000   0.0000000
 NMagM=    2.7928460   0.0000000   0.0000000   0.0000000   0.0000000   0.0000000   2.7928460   2.7928460   2.7928460   2.7928460
 AtZNuc=   1.0000000   6.0000000   6.0000000   6.0000000   6.0000000   6.0000000   1.0000000   1.0000000   1.0000000   1.0000000

  Atom        41          42          43          44          45          46          47          48          49          50
 IAtWgt=           1          16          16          16          16          16          12           1           1          16
 AtmWgt=   1.0078250  15.9949146  15.9949146  15.9949146  15.9949146  15.9949146  12.0000000   1.0078250   1.0078250  15.9949146
 NucSpn=           1           0           0           0           0           0           0           1           1           0
 AtZEff=   0.0000000   0.0000000   0.0000000   0.0000000   0.0000000   0.0000000   0.0000000   0.0000000   0.0000000   0.0000000
 NQMom=    0.0000000   0.0000000   0.0000000   0.0000000   0.0000000   0.0000000   0.0000000   0.0000000   0.0000000   0.0000000
 NMagM=    2.7928460   0.0000000   0.0000000   0.0000000   0.0000000   0.0000000   0.0000000   2.7928460   2.7928460   0.0000000
 AtZNuc=   1.0000000   8.0000000   8.0000000   8.0000000   8.0000000   8.0000000   6.0000000   1.0000000   1.0000000   8.0000000

  Atom        51          52          53          54          55          56          57          58          59          60
 IAtWgt=          32          16          16          12          12          12          12           1          12           1
 AtmWgt=  31.9720718  15.9949146  15.9949146  12.0000000  12.0000000  12.0000000  12.0000000   1.0078250  12.0000000   1.0078250
 NucSpn=           0           0           0           0           0           0           0           1           0           1
 AtZEff=   0.0000000   0.0000000   0.0000000   0.0000000   0.0000000   0.0000000   0.0000000   0.0000000   0.0000000   0.0000000
 NQMom=    0.0000000   0.0000000   0.0000000   0.0000000   0.0000000   0.0000000   0.0000000   0.0000000   0.0000000   0.0000000
 NMagM=    0.0000000   0.0000000   0.0000000   0.0000000   0.0000000   0.0000000   0.0000000   2.7928460   0.0000000   2.7928460
 AtZNuc=  16.0000000   8.0000000   8.0000000   6.0000000   6.0000000   6.0000000   6.0000000   1.0000000   6.0000000   1.0000000

  Atom        61          62          63          64          65          66          67          68          69          70
 IAtWgt=          12           1          12           1           1           1          12           1           1           1
 AtmWgt=  12.0000000   1.0078250  12.0000000   1.0078250   1.0078250   1.0078250  12.0000000   1.0078250   1.0078250   1.0078250
 NucSpn=           0           1           0           1           1           1           0           1           1           1
 AtZEff=   0.0000000   0.0000000   0.0000000   0.0000000   0.0000000   0.0000000   0.0000000   0.0000000   0.0000000   0.0000000
 NQMom=    0.0000000   0.0000000   0.0000000   0.0000000   0.0000000   0.0000000   0.0000000   0.0000000   0.0000000   0.0000000
 NMagM=    0.0000000   2.7928460   0.0000000   2.7928460   2.7928460   2.7928460   0.0000000   2.7928460   2.7928460   2.7928460
 AtZNuc=   6.0000000   1.0000000   6.0000000   1.0000000   1.0000000   1.0000000   6.0000000   1.0000000   1.0000000   1.0000000

  Atom        71          72          73          74          75          76          77          78          79          80
 IAtWgt=          12           1           1           1          12           1           1           1          12           1
 AtmWgt=  12.0000000   1.0078250   1.0078250   1.0078250  12.0000000   1.0078250   1.0078250   1.0078250  12.0000000   1.0078250
 NucSpn=           0           1           1           1           0           1           1           1           0           1
 AtZEff=   0.0000000   0.0000000   0.0000000   0.0000000   0.0000000   0.0000000   0.0000000   0.0000000   0.0000000   0.0000000
 NQMom=    0.0000000   0.0000000   0.0000000   0.0000000   0.0000000   0.0000000   0.0000000   0.0000000   0.0000000   0.0000000
 NMagM=    0.0000000   2.7928460   2.7928460   2.7928460   0.0000000   2.7928460   2.7928460   2.7928460   0.0000000   2.7928460
 AtZNuc=   6.0000000   1.0000000   1.0000000   1.0000000   6.0000000   1.0000000   1.0000000   1.0000000   6.0000000   1.0000000

  Atom        81          82          83          84          85          86          87          88          89          90
 IAtWgt=           1           1          23          16          12           1           1           1          12           1
 AtmWgt=   1.0078250   1.0078250  22.9897697  15.9949146  12.0000000   1.0078250   1.0078250   1.0078250  12.0000000   1.0078250
 NucSpn=           1           1           3           0           0           1           1           1           0           1
 AtZEff=   0.0000000   0.0000000   0.0000000   0.0000000   0.0000000   0.0000000   0.0000000   0.0000000   0.0000000   0.0000000
 NQMom=    0.0000000   0.0000000  10.4000000   0.0000000   0.0000000   0.0000000   0.0000000   0.0000000   0.0000000   0.0000000
 NMagM=    2.7928460   2.7928460   2.2175200   0.0000000   0.0000000   2.7928460   2.7928460   2.7928460   0.0000000   2.7928460
 AtZNuc=   1.0000000   1.0000000  11.0000000   8.0000000   6.0000000   1.0000000   1.0000000   1.0000000   6.0000000   1.0000000

  Atom        91          92          93          94          95          96          97          98          99         100
 IAtWgt=           1           1          12          19          19          19          12          19          19          19
 AtmWgt=   1.0078250   1.0078250  12.0000000  18.9984033  18.9984033  18.9984033  12.0000000  18.9984033  18.9984033  18.9984033
 NucSpn=           1           1           0           1           1           1           0           1           1           1
 AtZEff=   0.0000000   0.0000000   0.0000000   0.0000000   0.0000000   0.0000000   0.0000000   0.0000000   0.0000000   0.0000000
 NQMom=    0.0000000   0.0000000   0.0000000   0.0000000   0.0000000   0.0000000   0.0000000   0.0000000   0.0000000   0.0000000
 NMagM=    2.7928460   2.7928460   0.0000000   2.6288670   2.6288670   2.6288670   0.0000000   2.6288670   2.6288670   2.6288670
 AtZNuc=   1.0000000   1.0000000   6.0000000   9.0000000   9.0000000   9.0000000   6.0000000   9.0000000   9.0000000   9.0000000
 Leave Link  101 at Mon Jun  3 07:14:31 2019, MaxMem=  6442450944 cpu:              17.8 elap:               1.5
 (Enter /home/ekwan/sw/g16/l103.exe)

 GradGradGradGradGradGradGradGradGradGradGradGradGradGradGradGradGradGrad
 Berny optimization.
 Initialization pass.
                           ----------------------------
                           !    Initial Parameters    !
                           ! (Angstroms and Degrees)  !
 --------------------------                            --------------------------
 ! Name  Definition              Value          Derivative Info.                !
 --------------------------------------------------------------------------------
 ! R1    R(1,2)                  1.53           calculate D2E/DX2 analytically  !
 ! R2    R(1,5)                  1.5331         calculate D2E/DX2 analytically  !
 ! R3    R(1,8)                  1.0975         calculate D2E/DX2 analytically  !
 ! R4    R(1,14)                 1.426          calculate D2E/DX2 analytically  !
 ! R5    R(2,3)                  1.5351         calculate D2E/DX2 analytically  !
 ! R6    R(2,7)                  1.1021         calculate D2E/DX2 analytically  !
 ! R7    R(2,13)                 1.4172         calculate D2E/DX2 analytically  !
 ! R8    R(3,6)                  1.0942         calculate D2E/DX2 analytically  !
 ! R9    R(3,11)                 1.4114         calculate D2E/DX2 analytically  !
 ! R10   R(3,12)                 1.4048         calculate D2E/DX2 analytically  !
 ! R11   R(4,5)                  1.5312         calculate D2E/DX2 analytically  !
 ! R12   R(4,9)                  1.0983         calculate D2E/DX2 analytically  !
 ! R13   R(4,11)                 1.4344         calculate D2E/DX2 analytically  !
 ! R14   R(4,16)                 1.5355         calculate D2E/DX2 analytically  !
 ! R15   R(5,10)                 1.1005         calculate D2E/DX2 analytically  !
 ! R16   R(5,15)                 1.4257         calculate D2E/DX2 analytically  !
 ! R17   R(12,79)                1.4247         calculate D2E/DX2 analytically  !
 ! R18   R(13,20)                1.4191         calculate D2E/DX2 analytically  !
 ! R19   R(14,24)                1.4204         calculate D2E/DX2 analytically  !
 ! R20   R(15,28)                1.419          calculate D2E/DX2 analytically  !
 ! R21   R(16,17)                1.1193         calculate D2E/DX2 analytically  !
 ! R22   R(16,18)                1.1114         calculate D2E/DX2 analytically  !
 ! R23   R(16,19)                1.3668         calculate D2E/DX2 analytically  !
 ! R24   R(19,37)                2.1739         calculate D2E/DX2 analytically  !
 ! R25   R(19,83)                2.1293         calculate D2E/DX2 analytically  !
 ! R26   R(20,21)                1.0982         calculate D2E/DX2 analytically  !
 ! R27   R(20,22)                1.0992         calculate D2E/DX2 analytically  !
 ! R28   R(20,23)                1.0929         calculate D2E/DX2 analytically  !
 ! R29   R(24,25)                1.1001         calculate D2E/DX2 analytically  !
 ! R30   R(24,26)                1.0948         calculate D2E/DX2 analytically  !
 ! R31   R(24,27)                1.0937         calculate D2E/DX2 analytically  !
 ! R32   R(28,29)                1.0952         calculate D2E/DX2 analytically  !
 ! R33   R(28,30)                1.1005         calculate D2E/DX2 analytically  !
 ! R34   R(28,31)                1.0938         calculate D2E/DX2 analytically  !
 ! R35   R(32,33)                1.5331         calculate D2E/DX2 analytically  !
 ! R36   R(32,36)                1.5281         calculate D2E/DX2 analytically  !
 ! R37   R(32,39)                1.0951         calculate D2E/DX2 analytically  !
 ! R38   R(32,45)                1.4167         calculate D2E/DX2 analytically  !
 ! R39   R(33,34)                1.497          calculate D2E/DX2 analytically  !
 ! R40   R(33,38)                1.0993         calculate D2E/DX2 analytically  !
 ! R41   R(33,44)                1.4115         calculate D2E/DX2 analytically  !
 ! R42   R(34,37)                1.0758         calculate D2E/DX2 analytically  !
 ! R43   R(34,42)                1.2776         calculate D2E/DX2 analytically  !
 ! R44   R(34,53)                2.2225         calculate D2E/DX2 analytically  !
 ! R45   R(35,36)                1.535          calculate D2E/DX2 analytically  !
 ! R46   R(35,40)                1.0913         calculate D2E/DX2 analytically  !
 ! R47   R(35,42)                1.4686         calculate D2E/DX2 analytically  !
 ! R48   R(35,47)                1.5263         calculate D2E/DX2 analytically  !
 ! R49   R(36,41)                1.1005         calculate D2E/DX2 analytically  !
 ! R50   R(36,46)                1.4151         calculate D2E/DX2 analytically  !
 ! R51   R(43,51)                1.4992         calculate D2E/DX2 analytically  !
 ! R52   R(43,83)                2.2988         calculate D2E/DX2 analytically  !
 ! R53   R(44,58)                2.1169         calculate D2E/DX2 analytically  !
 ! R54   R(44,63)                1.4386         calculate D2E/DX2 analytically  !
 ! R55   R(45,67)                1.4255         calculate D2E/DX2 analytically  !
 ! R56   R(46,71)                1.4268         calculate D2E/DX2 analytically  !
 ! R57   R(47,48)                1.094          calculate D2E/DX2 analytically  !
 ! R58   R(47,49)                1.1            calculate D2E/DX2 analytically  !
 ! R59   R(47,50)                1.41           calculate D2E/DX2 analytically  !
 ! R60   R(50,75)                1.4214         calculate D2E/DX2 analytically  !
 ! R61   R(51,52)                1.4741         calculate D2E/DX2 analytically  !
 ! R62   R(51,53)                1.5082         calculate D2E/DX2 analytically  !
 ! R63   R(51,54)                1.7992         calculate D2E/DX2 analytically  !
 ! R64   R(54,55)                1.3905         calculate D2E/DX2 analytically  !
 ! R65   R(54,56)                1.3932         calculate D2E/DX2 analytically  !
 ! R66   R(55,57)                1.3956         calculate D2E/DX2 analytically  !
 ! R67   R(55,58)                1.0837         calculate D2E/DX2 analytically  !
 ! R68   R(56,59)                1.3938         calculate D2E/DX2 analytically  !
 ! R69   R(56,60)                1.0835         calculate D2E/DX2 analytically  !
 ! R70   R(57,61)                1.3924         calculate D2E/DX2 analytically  !
 ! R71   R(57,93)                1.5022         calculate D2E/DX2 analytically  !
 ! R72   R(59,61)                1.3962         calculate D2E/DX2 analytically  !
 ! R73   R(59,97)                1.5024         calculate D2E/DX2 analytically  !
 ! R74   R(61,62)                1.0828         calculate D2E/DX2 analytically  !
 ! R75   R(63,64)                1.0948         calculate D2E/DX2 analytically  !
 ! R76   R(63,65)                1.0927         calculate D2E/DX2 analytically  !
 ! R77   R(63,66)                1.091          calculate D2E/DX2 analytically  !
 ! R78   R(67,68)                1.0976         calculate D2E/DX2 analytically  !
 ! R79   R(67,69)                1.0949         calculate D2E/DX2 analytically  !
 ! R80   R(67,70)                1.0922         calculate D2E/DX2 analytically  !
 ! R81   R(71,72)                1.0935         calculate D2E/DX2 analytically  !
 ! R82   R(71,73)                1.0989         calculate D2E/DX2 analytically  !
 ! R83   R(71,74)                1.092          calculate D2E/DX2 analytically  !
 ! R84   R(75,76)                1.0917         calculate D2E/DX2 analytically  !
 ! R85   R(75,77)                1.098          calculate D2E/DX2 analytically  !
 ! R86   R(75,78)                1.0991         calculate D2E/DX2 analytically  !
 ! R87   R(79,80)                1.0924         calculate D2E/DX2 analytically  !
 ! R88   R(79,81)                1.0946         calculate D2E/DX2 analytically  !
 ! R89   R(79,82)                1.0991         calculate D2E/DX2 analytically  !
 ! R90   R(83,84)                2.2946         calculate D2E/DX2 analytically  !
 ! R91   R(84,85)                1.4206         calculate D2E/DX2 analytically  !
 ! R92   R(84,89)                1.4243         calculate D2E/DX2 analytically  !
 ! R93   R(85,86)                1.0987         calculate D2E/DX2 analytically  !
 ! R94   R(85,87)                1.0916         calculate D2E/DX2 analytically  !
 ! R95   R(85,88)                1.0972         calculate D2E/DX2 analytically  !
 ! R96   R(89,90)                1.0968         calculate D2E/DX2 analytically  !
 ! R97   R(89,91)                1.0909         calculate D2E/DX2 analytically  !
 ! R98   R(89,92)                1.0988         calculate D2E/DX2 analytically  !
 ! R99   R(93,94)                1.36           calculate D2E/DX2 analytically  !
 ! R100  R(93,95)                1.3461         calculate D2E/DX2 analytically  !
 ! R101  R(93,96)                1.3537         calculate D2E/DX2 analytically  !
 ! R102  R(97,98)                1.3579         calculate D2E/DX2 analytically  !
 ! R103  R(97,99)                1.3481         calculate D2E/DX2 analytically  !
 ! R104  R(97,100)               1.3501         calculate D2E/DX2 analytically  !
 ! A1    A(2,1,5)              111.3576         calculate D2E/DX2 analytically  !
 ! A2    A(2,1,8)              108.6769         calculate D2E/DX2 analytically  !
 ! A3    A(2,1,14)             111.08           calculate D2E/DX2 analytically  !
 ! A4    A(5,1,8)              107.9834         calculate D2E/DX2 analytically  !
 ! A5    A(5,1,14)             107.6596         calculate D2E/DX2 analytically  !
 ! A6    A(8,1,14)             110.0332         calculate D2E/DX2 analytically  !
 ! A7    A(1,2,3)              110.4691         calculate D2E/DX2 analytically  !
 ! A8    A(1,2,7)              108.5332         calculate D2E/DX2 analytically  !
 ! A9    A(1,2,13)             108.2291         calculate D2E/DX2 analytically  !
 ! A10   A(3,2,7)              106.4681         calculate D2E/DX2 analytically  !
 ! A11   A(3,2,13)             113.4813         calculate D2E/DX2 analytically  !
 ! A12   A(7,2,13)             109.5567         calculate D2E/DX2 analytically  !
 ! A13   A(2,3,6)              111.3832         calculate D2E/DX2 analytically  !
 ! A14   A(2,3,11)             109.1369         calculate D2E/DX2 analytically  !
 ! A15   A(2,3,12)             108.3888         calculate D2E/DX2 analytically  !
 ! A16   A(6,3,11)             104.094          calculate D2E/DX2 analytically  !
 ! A17   A(6,3,12)             110.4326         calculate D2E/DX2 analytically  !
 ! A18   A(11,3,12)            113.3989         calculate D2E/DX2 analytically  !
 ! A19   A(5,4,9)              108.9667         calculate D2E/DX2 analytically  !
 ! A20   A(5,4,11)             109.5492         calculate D2E/DX2 analytically  !
 ! A21   A(5,4,16)             114.1013         calculate D2E/DX2 analytically  !
 ! A22   A(9,4,11)             109.4431         calculate D2E/DX2 analytically  !
 ! A23   A(9,4,16)             108.8582         calculate D2E/DX2 analytically  !
 ! A24   A(11,4,16)            105.8225         calculate D2E/DX2 analytically  !
 ! A25   A(1,5,4)              112.0074         calculate D2E/DX2 analytically  !
 ! A26   A(1,5,10)             108.3332         calculate D2E/DX2 analytically  !
 ! A27   A(1,5,15)             109.8219         calculate D2E/DX2 analytically  !
 ! A28   A(4,5,10)             108.6887         calculate D2E/DX2 analytically  !
 ! A29   A(4,5,15)             107.8301         calculate D2E/DX2 analytically  !
 ! A30   A(10,5,15)            110.1514         calculate D2E/DX2 analytically  !
 ! A31   A(3,11,4)             115.2422         calculate D2E/DX2 analytically  !
 ! A32   A(3,12,79)            112.8702         calculate D2E/DX2 analytically  !
 ! A33   A(2,13,20)            113.8693         calculate D2E/DX2 analytically  !
 ! A34   A(1,14,24)            114.4877         calculate D2E/DX2 analytically  !
 ! A35   A(5,15,28)            114.4674         calculate D2E/DX2 analytically  !
 ! A36   A(4,16,17)            105.4228         calculate D2E/DX2 analytically  !
 ! A37   A(4,16,18)            105.9259         calculate D2E/DX2 analytically  !
 ! A38   A(4,16,19)            113.1277         calculate D2E/DX2 analytically  !
 ! A39   A(17,16,18)           105.2187         calculate D2E/DX2 analytically  !
 ! A40   A(17,16,19)           112.5961         calculate D2E/DX2 analytically  !
 ! A41   A(18,16,19)           113.8051         calculate D2E/DX2 analytically  !
 ! A42   A(16,19,37)           118.8654         calculate D2E/DX2 analytically  !
 ! A43   A(16,19,83)           156.7861         calculate D2E/DX2 analytically  !
 ! A44   A(37,19,83)            71.5319         calculate D2E/DX2 analytically  !
 ! A45   A(13,20,21)           111.7814         calculate D2E/DX2 analytically  !
 ! A46   A(13,20,22)           111.468          calculate D2E/DX2 analytically  !
 ! A47   A(13,20,23)           106.8336         calculate D2E/DX2 analytically  !
 ! A48   A(21,20,22)           108.4135         calculate D2E/DX2 analytically  !
 ! A49   A(21,20,23)           108.8575         calculate D2E/DX2 analytically  !
 ! A50   A(22,20,23)           109.434          calculate D2E/DX2 analytically  !
 ! A51   A(14,24,25)           111.0921         calculate D2E/DX2 analytically  !
 ! A52   A(14,24,26)           111.5997         calculate D2E/DX2 analytically  !
 ! A53   A(14,24,27)           106.653          calculate D2E/DX2 analytically  !
 ! A54   A(25,24,26)           109.0238         calculate D2E/DX2 analytically  !
 ! A55   A(25,24,27)           108.8165         calculate D2E/DX2 analytically  !
 ! A56   A(26,24,27)           109.5916         calculate D2E/DX2 analytically  !
 ! A57   A(15,28,29)           111.5279         calculate D2E/DX2 analytically  !
 ! A58   A(15,28,30)           111.2407         calculate D2E/DX2 analytically  !
 ! A59   A(15,28,31)           106.7275         calculate D2E/DX2 analytically  !
 ! A60   A(29,28,30)           108.9959         calculate D2E/DX2 analytically  !
 ! A61   A(29,28,31)           109.5566         calculate D2E/DX2 analytically  !
 ! A62   A(30,28,31)           108.7265         calculate D2E/DX2 analytically  !
 ! A63   A(33,32,36)           107.6806         calculate D2E/DX2 analytically  !
 ! A64   A(33,32,39)           109.2768         calculate D2E/DX2 analytically  !
 ! A65   A(33,32,45)           110.5605         calculate D2E/DX2 analytically  !
 ! A66   A(36,32,39)           109.6836         calculate D2E/DX2 analytically  !
 ! A67   A(36,32,45)           108.6958         calculate D2E/DX2 analytically  !
 ! A68   A(39,32,45)           110.8813         calculate D2E/DX2 analytically  !
 ! A69   A(32,33,34)           110.2745         calculate D2E/DX2 analytically  !
 ! A70   A(32,33,38)           109.1563         calculate D2E/DX2 analytically  !
 ! A71   A(32,33,44)           112.9851         calculate D2E/DX2 analytically  !
 ! A72   A(34,33,38)           103.8509         calculate D2E/DX2 analytically  !
 ! A73   A(34,33,44)           110.751          calculate D2E/DX2 analytically  !
 ! A74   A(38,33,44)           109.4142         calculate D2E/DX2 analytically  !
 ! A75   A(33,34,37)           121.746          calculate D2E/DX2 analytically  !
 ! A76   A(33,34,42)           121.4296         calculate D2E/DX2 analytically  !
 ! A77   A(33,34,53)            95.3114         calculate D2E/DX2 analytically  !
 ! A78   A(37,34,42)           115.0457         calculate D2E/DX2 analytically  !
 ! A79   A(37,34,53)            88.3041         calculate D2E/DX2 analytically  !
 ! A80   A(42,34,53)            99.5919         calculate D2E/DX2 analytically  !
 ! A81   A(36,35,40)           108.2028         calculate D2E/DX2 analytically  !
 ! A82   A(36,35,42)           114.8214         calculate D2E/DX2 analytically  !
 ! A83   A(36,35,47)           111.6887         calculate D2E/DX2 analytically  !
 ! A84   A(40,35,42)           103.808          calculate D2E/DX2 analytically  !
 ! A85   A(40,35,47)           112.0291         calculate D2E/DX2 analytically  !
 ! A86   A(42,35,47)           106.0955         calculate D2E/DX2 analytically  !
 ! A87   A(32,36,35)           111.9511         calculate D2E/DX2 analytically  !
 ! A88   A(32,36,41)           107.854          calculate D2E/DX2 analytically  !
 ! A89   A(32,36,46)           112.4215         calculate D2E/DX2 analytically  !
 ! A90   A(35,36,41)           109.7358         calculate D2E/DX2 analytically  !
 ! A91   A(35,36,46)           104.6768         calculate D2E/DX2 analytically  !
 ! A92   A(41,36,46)           110.1896         calculate D2E/DX2 analytically  !
 ! A93   A(19,37,34)           105.6882         calculate D2E/DX2 analytically  !
 ! A94   A(34,42,35)           124.5034         calculate D2E/DX2 analytically  !
 ! A95   A(51,43,83)           127.0913         calculate D2E/DX2 analytically  !
 ! A96   A(33,44,58)           125.2848         calculate D2E/DX2 analytically  !
 ! A97   A(33,44,63)           113.1695         calculate D2E/DX2 analytically  !
 ! A98   A(58,44,63)           114.9319         calculate D2E/DX2 analytically  !
 ! A99   A(32,45,67)           114.1432         calculate D2E/DX2 analytically  !
 ! A100  A(36,46,71)           114.5297         calculate D2E/DX2 analytically  !
 ! A101  A(35,47,48)           108.3409         calculate D2E/DX2 analytically  !
 ! A102  A(35,47,49)           107.5207         calculate D2E/DX2 analytically  !
 ! A103  A(35,47,50)           114.1885         calculate D2E/DX2 analytically  !
 ! A104  A(48,47,49)           109.0979         calculate D2E/DX2 analytically  !
 ! A105  A(48,47,50)           106.2919         calculate D2E/DX2 analytically  !
 ! A106  A(49,47,50)           111.2854         calculate D2E/DX2 analytically  !
 ! A107  A(47,50,75)           114.3822         calculate D2E/DX2 analytically  !
 ! A108  A(43,51,52)           114.0362         calculate D2E/DX2 analytically  !
 ! A109  A(43,51,53)           111.5368         calculate D2E/DX2 analytically  !
 ! A110  A(43,51,54)           104.5497         calculate D2E/DX2 analytically  !
 ! A111  A(52,51,53)           113.9947         calculate D2E/DX2 analytically  !
 ! A112  A(52,51,54)           106.58           calculate D2E/DX2 analytically  !
 ! A113  A(53,51,54)           105.124          calculate D2E/DX2 analytically  !
 ! A114  A(34,53,51)           114.6854         calculate D2E/DX2 analytically  !
 ! A115  A(51,54,55)           119.6228         calculate D2E/DX2 analytically  !
 ! A116  A(51,54,56)           119.0471         calculate D2E/DX2 analytically  !
 ! A117  A(55,54,56)           121.1417         calculate D2E/DX2 analytically  !
 ! A118  A(54,55,57)           119.0491         calculate D2E/DX2 analytically  !
 ! A119  A(54,55,58)           119.6267         calculate D2E/DX2 analytically  !
 ! A120  A(57,55,58)           121.3054         calculate D2E/DX2 analytically  !
 ! A121  A(54,56,59)           119.0176         calculate D2E/DX2 analytically  !
 ! A122  A(54,56,60)           120.0089         calculate D2E/DX2 analytically  !
 ! A123  A(59,56,60)           120.9731         calculate D2E/DX2 analytically  !
 ! A124  A(55,57,61)           120.8098         calculate D2E/DX2 analytically  !
 ! A125  A(55,57,93)           118.404          calculate D2E/DX2 analytically  !
 ! A126  A(61,57,93)           120.7642         calculate D2E/DX2 analytically  !
 ! A127  A(44,58,55)           148.7771         calculate D2E/DX2 analytically  !
 ! A128  A(56,59,61)           120.7667         calculate D2E/DX2 analytically  !
 ! A129  A(56,59,97)           119.7356         calculate D2E/DX2 analytically  !
 ! A130  A(61,59,97)           119.322          calculate D2E/DX2 analytically  !
 ! A131  A(57,61,59)           119.2088         calculate D2E/DX2 analytically  !
 ! A132  A(57,61,62)           120.467          calculate D2E/DX2 analytically  !
 ! A133  A(59,61,62)           120.3236         calculate D2E/DX2 analytically  !
 ! A134  A(44,63,64)           108.7258         calculate D2E/DX2 analytically  !
 ! A135  A(44,63,65)           110.5123         calculate D2E/DX2 analytically  !
 ! A136  A(44,63,66)           105.8093         calculate D2E/DX2 analytically  !
 ! A137  A(64,63,65)           110.8829         calculate D2E/DX2 analytically  !
 ! A138  A(64,63,66)           111.204          calculate D2E/DX2 analytically  !
 ! A139  A(65,63,66)           109.588          calculate D2E/DX2 analytically  !
 ! A140  A(45,67,68)           110.9403         calculate D2E/DX2 analytically  !
 ! A141  A(45,67,69)           111.7206         calculate D2E/DX2 analytically  !
 ! A142  A(45,67,70)           106.4034         calculate D2E/DX2 analytically  !
 ! A143  A(68,67,69)           109.2595         calculate D2E/DX2 analytically  !
 ! A144  A(68,67,70)           109.2114         calculate D2E/DX2 analytically  !
 ! A145  A(69,67,70)           109.2335         calculate D2E/DX2 analytically  !
 ! A146  A(46,71,72)           111.3627         calculate D2E/DX2 analytically  !
 ! A147  A(46,71,73)           110.8595         calculate D2E/DX2 analytically  !
 ! A148  A(46,71,74)           106.2372         calculate D2E/DX2 analytically  !
 ! A149  A(72,71,73)           109.2755         calculate D2E/DX2 analytically  !
 ! A150  A(72,71,74)           109.9111         calculate D2E/DX2 analytically  !
 ! A151  A(73,71,74)           109.1366         calculate D2E/DX2 analytically  !
 ! A152  A(50,75,76)           106.5025         calculate D2E/DX2 analytically  !
 ! A153  A(50,75,77)           112.2476         calculate D2E/DX2 analytically  !
 ! A154  A(50,75,78)           111.0222         calculate D2E/DX2 analytically  !
 ! A155  A(76,75,77)           108.7752         calculate D2E/DX2 analytically  !
 ! A156  A(76,75,78)           109.4203         calculate D2E/DX2 analytically  !
 ! A157  A(77,75,78)           108.8037         calculate D2E/DX2 analytically  !
 ! A158  A(12,79,80)           106.8391         calculate D2E/DX2 analytically  !
 ! A159  A(12,79,81)           111.8135         calculate D2E/DX2 analytically  !
 ! A160  A(12,79,82)           111.0084         calculate D2E/DX2 analytically  !
 ! A161  A(80,79,81)           109.3112         calculate D2E/DX2 analytically  !
 ! A162  A(80,79,82)           109.2856         calculate D2E/DX2 analytically  !
 ! A163  A(81,79,82)           108.5407         calculate D2E/DX2 analytically  !
 ! A164  A(19,83,43)           108.7304         calculate D2E/DX2 analytically  !
 ! A165  A(19,83,84)           155.8151         calculate D2E/DX2 analytically  !
 ! A166  A(43,83,84)            95.4214         calculate D2E/DX2 analytically  !
 ! A167  A(83,84,85)           126.8775         calculate D2E/DX2 analytically  !
 ! A168  A(83,84,89)           118.0885         calculate D2E/DX2 analytically  !
 ! A169  A(85,84,89)           112.619          calculate D2E/DX2 analytically  !
 ! A170  A(84,85,86)           110.9309         calculate D2E/DX2 analytically  !
 ! A171  A(84,85,87)           107.2265         calculate D2E/DX2 analytically  !
 ! A172  A(84,85,88)           110.7412         calculate D2E/DX2 analytically  !
 ! A173  A(86,85,87)           109.4983         calculate D2E/DX2 analytically  !
 ! A174  A(86,85,88)           109.235          calculate D2E/DX2 analytically  !
 ! A175  A(87,85,88)           109.1683         calculate D2E/DX2 analytically  !
 ! A176  A(84,89,90)           110.9462         calculate D2E/DX2 analytically  !
 ! A177  A(84,89,91)           106.8208         calculate D2E/DX2 analytically  !
 ! A178  A(84,89,92)           110.7218         calculate D2E/DX2 analytically  !
 ! A179  A(90,89,91)           109.3482         calculate D2E/DX2 analytically  !
 ! A180  A(90,89,92)           109.0789         calculate D2E/DX2 analytically  !
 ! A181  A(91,89,92)           109.8946         calculate D2E/DX2 analytically  !
 ! A182  A(57,93,94)           111.3744         calculate D2E/DX2 analytically  !
 ! A183  A(57,93,95)           112.6714         calculate D2E/DX2 analytically  !
 ! A184  A(57,93,96)           111.6792         calculate D2E/DX2 analytically  !
 ! A185  A(94,93,95)           106.99           calculate D2E/DX2 analytically  !
 ! A186  A(94,93,96)           106.2473         calculate D2E/DX2 analytically  !
 ! A187  A(95,93,96)           107.528          calculate D2E/DX2 analytically  !
 ! A188  A(59,97,98)           110.8303         calculate D2E/DX2 analytically  !
 ! A189  A(59,97,99)           112.199          calculate D2E/DX2 analytically  !
 ! A190  A(59,97,100)          112.062          calculate D2E/DX2 analytically  !
 ! A191  A(98,97,99)           106.9411         calculate D2E/DX2 analytically  !
 ! A192  A(98,97,100)          106.7474         calculate D2E/DX2 analytically  !
 ! A193  A(99,97,100)          107.7632         calculate D2E/DX2 analytically  !
 ! D1    D(5,1,2,3)            -50.5526         calculate D2E/DX2 analytically  !
 ! D2    D(5,1,2,7)             65.8242         calculate D2E/DX2 analytically  !
 ! D3    D(5,1,2,13)          -175.3523         calculate D2E/DX2 analytically  !
 ! D4    D(8,1,2,3)             68.2714         calculate D2E/DX2 analytically  !
 ! D5    D(8,1,2,7)           -175.3518         calculate D2E/DX2 analytically  !
 ! D6    D(8,1,2,13)           -56.5283         calculate D2E/DX2 analytically  !
 ! D7    D(14,1,2,3)          -170.541          calculate D2E/DX2 analytically  !
 ! D8    D(14,1,2,7)           -54.1642         calculate D2E/DX2 analytically  !
 ! D9    D(14,1,2,13)           64.6593         calculate D2E/DX2 analytically  !
 ! D10   D(2,1,5,4)             48.6092         calculate D2E/DX2 analytically  !
 ! D11   D(2,1,5,10)           -71.2598         calculate D2E/DX2 analytically  !
 ! D12   D(2,1,5,15)           168.3943         calculate D2E/DX2 analytically  !
 ! D13   D(8,1,5,4)            -70.6287         calculate D2E/DX2 analytically  !
 ! D14   D(8,1,5,10)           169.5023         calculate D2E/DX2 analytically  !
 ! D15   D(8,1,5,15)            49.1563         calculate D2E/DX2 analytically  !
 ! D16   D(14,1,5,4)           170.6001         calculate D2E/DX2 analytically  !
 ! D17   D(14,1,5,10)           50.7311         calculate D2E/DX2 analytically  !
 ! D18   D(14,1,5,15)          -69.6148         calculate D2E/DX2 analytically  !
 ! D19   D(2,1,14,24)          -95.4538         calculate D2E/DX2 analytically  !
 ! D20   D(5,1,14,24)          142.3833         calculate D2E/DX2 analytically  !
 ! D21   D(8,1,14,24)           24.9341         calculate D2E/DX2 analytically  !
 ! D22   D(1,2,3,6)            170.5268         calculate D2E/DX2 analytically  !
 ! D23   D(1,2,3,11)            56.1532         calculate D2E/DX2 analytically  !
 ! D24   D(1,2,3,12)           -67.7876         calculate D2E/DX2 analytically  !
 ! D25   D(7,2,3,6)             52.8728         calculate D2E/DX2 analytically  !
 ! D26   D(7,2,3,11)           -61.5007         calculate D2E/DX2 analytically  !
 ! D27   D(7,2,3,12)           174.5584         calculate D2E/DX2 analytically  !
 ! D28   D(13,2,3,6)           -67.7239         calculate D2E/DX2 analytically  !
 ! D29   D(13,2,3,11)          177.9025         calculate D2E/DX2 analytically  !
 ! D30   D(13,2,3,12)           53.9617         calculate D2E/DX2 analytically  !
 ! D31   D(1,2,13,20)         -174.4312         calculate D2E/DX2 analytically  !
 ! D32   D(3,2,13,20)           62.5785         calculate D2E/DX2 analytically  !
 ! D33   D(7,2,13,20)          -56.2585         calculate D2E/DX2 analytically  !
 ! D34   D(2,3,11,4)           -63.1265         calculate D2E/DX2 analytically  !
 ! D35   D(6,3,11,4)           177.8589         calculate D2E/DX2 analytically  !
 ! D36   D(12,3,11,4)           57.8035         calculate D2E/DX2 analytically  !
 ! D37   D(2,3,12,79)         -175.7306         calculate D2E/DX2 analytically  !
 ! D38   D(6,3,12,79)          -53.4633         calculate D2E/DX2 analytically  !
 ! D39   D(11,3,12,79)          62.9187         calculate D2E/DX2 analytically  !
 ! D40   D(9,4,5,1)             68.6246         calculate D2E/DX2 analytically  !
 ! D41   D(9,4,5,10)          -171.7145         calculate D2E/DX2 analytically  !
 ! D42   D(9,4,5,15)           -52.3196         calculate D2E/DX2 analytically  !
 ! D43   D(11,4,5,1)           -51.0811         calculate D2E/DX2 analytically  !
 ! D44   D(11,4,5,10)           68.5797         calculate D2E/DX2 analytically  !
 ! D45   D(11,4,5,15)         -172.0253         calculate D2E/DX2 analytically  !
 ! D46   D(16,4,5,1)          -169.4936         calculate D2E/DX2 analytically  !
 ! D47   D(16,4,5,10)          -49.8327         calculate D2E/DX2 analytically  !
 ! D48   D(16,4,5,15)           69.5622         calculate D2E/DX2 analytically  !
 ! D49   D(5,4,11,3)            60.4273         calculate D2E/DX2 analytically  !
 ! D50   D(9,4,11,3)           -58.9859         calculate D2E/DX2 analytically  !
 ! D51   D(16,4,11,3)         -176.1353         calculate D2E/DX2 analytically  !
 ! D52   D(5,4,16,17)           59.7245         calculate D2E/DX2 analytically  !
 ! D53   D(5,4,16,18)          -51.4924         calculate D2E/DX2 analytically  !
 ! D54   D(5,4,16,19)         -176.8229         calculate D2E/DX2 analytically  !
 ! D55   D(9,4,16,17)         -178.334          calculate D2E/DX2 analytically  !
 ! D56   D(9,4,16,18)           70.4491         calculate D2E/DX2 analytically  !
 ! D57   D(9,4,16,19)          -54.8815         calculate D2E/DX2 analytically  !
 ! D58   D(11,4,16,17)         -60.7919         calculate D2E/DX2 analytically  !
 ! D59   D(11,4,16,18)        -172.0088         calculate D2E/DX2 analytically  !
 ! D60   D(11,4,16,19)          62.6607         calculate D2E/DX2 analytically  !
 ! D61   D(1,5,15,28)           98.8385         calculate D2E/DX2 analytically  !
 ! D62   D(4,5,15,28)         -138.8608         calculate D2E/DX2 analytically  !
 ! D63   D(10,5,15,28)         -20.3989         calculate D2E/DX2 analytically  !
 ! D64   D(3,12,79,80)         169.4101         calculate D2E/DX2 analytically  !
 ! D65   D(3,12,79,81)         -71.032          calculate D2E/DX2 analytically  !
 ! D66   D(3,12,79,82)          50.3402         calculate D2E/DX2 analytically  !
 ! D67   D(2,13,20,21)         -74.4663         calculate D2E/DX2 analytically  !
 ! D68   D(2,13,20,22)          47.0448         calculate D2E/DX2 analytically  !
 ! D69   D(2,13,20,23)         166.5509         calculate D2E/DX2 analytically  !
 ! D70   D(1,14,24,25)         -58.8621         calculate D2E/DX2 analytically  !
 ! D71   D(1,14,24,26)          63.0397         calculate D2E/DX2 analytically  !
 ! D72   D(1,14,24,27)        -177.3002         calculate D2E/DX2 analytically  !
 ! D73   D(5,15,28,29)         -60.3708         calculate D2E/DX2 analytically  !
 ! D74   D(5,15,28,30)          61.5497         calculate D2E/DX2 analytically  !
 ! D75   D(5,15,28,31)        -179.994          calculate D2E/DX2 analytically  !
 ! D76   D(4,16,19,37)         -38.8652         calculate D2E/DX2 analytically  !
 ! D77   D(4,16,19,83)          72.7026         calculate D2E/DX2 analytically  !
 ! D78   D(17,16,19,37)         80.5398         calculate D2E/DX2 analytically  !
 ! D79   D(17,16,19,83)       -167.8925         calculate D2E/DX2 analytically  !
 ! D80   D(18,16,19,37)       -159.8319         calculate D2E/DX2 analytically  !
 ! D81   D(18,16,19,83)        -48.2642         calculate D2E/DX2 analytically  !
 ! D82   D(16,19,37,34)        -80.4903         calculate D2E/DX2 analytically  !
 ! D83   D(83,19,37,34)        122.2446         calculate D2E/DX2 analytically  !
 ! D84   D(16,19,83,43)       -102.9993         calculate D2E/DX2 analytically  !
 ! D85   D(16,19,83,84)         80.1185         calculate D2E/DX2 analytically  !
 ! D86   D(37,19,83,43)         17.8343         calculate D2E/DX2 analytically  !
 ! D87   D(37,19,83,84)       -159.0479         calculate D2E/DX2 analytically  !
 ! D88   D(36,32,33,34)        -57.0349         calculate D2E/DX2 analytically  !
 ! D89   D(36,32,33,38)         56.4491         calculate D2E/DX2 analytically  !
 ! D90   D(36,32,33,44)        178.4257         calculate D2E/DX2 analytically  !
 ! D91   D(39,32,33,34)         62.0437         calculate D2E/DX2 analytically  !
 ! D92   D(39,32,33,38)        175.5277         calculate D2E/DX2 analytically  !
 ! D93   D(39,32,33,44)        -62.4956         calculate D2E/DX2 analytically  !
 ! D94   D(45,32,33,34)       -175.6478         calculate D2E/DX2 analytically  !
 ! D95   D(45,32,33,38)        -62.1638         calculate D2E/DX2 analytically  !
 ! D96   D(45,32,33,44)         59.8129         calculate D2E/DX2 analytically  !
 ! D97   D(33,32,36,35)         55.8511         calculate D2E/DX2 analytically  !
 ! D98   D(33,32,36,41)        -64.9673         calculate D2E/DX2 analytically  !
 ! D99   D(33,32,36,46)        173.3547         calculate D2E/DX2 analytically  !
 ! D100  D(39,32,36,35)        -62.9674         calculate D2E/DX2 analytically  !
 ! D101  D(39,32,36,41)        176.2142         calculate D2E/DX2 analytically  !
 ! D102  D(39,32,36,46)         54.5362         calculate D2E/DX2 analytically  !
 ! D103  D(45,32,36,35)        175.6536         calculate D2E/DX2 analytically  !
 ! D104  D(45,32,36,41)         54.8353         calculate D2E/DX2 analytically  !
 ! D105  D(45,32,36,46)        -66.8428         calculate D2E/DX2 analytically  !
 ! D106  D(33,32,45,67)       -108.5996         calculate D2E/DX2 analytically  !
 ! D107  D(36,32,45,67)        133.4069         calculate D2E/DX2 analytically  !
 ! D108  D(39,32,45,67)         12.7643         calculate D2E/DX2 analytically  !
 ! D109  D(32,33,34,37)       -159.5166         calculate D2E/DX2 analytically  !
 ! D110  D(32,33,34,42)         36.428          calculate D2E/DX2 analytically  !
 ! D111  D(32,33,34,53)        -68.2234         calculate D2E/DX2 analytically  !
 ! D112  D(38,33,34,37)         83.6511         calculate D2E/DX2 analytically  !
 ! D113  D(38,33,34,42)        -80.4042         calculate D2E/DX2 analytically  !
 ! D114  D(38,33,34,53)        174.9444         calculate D2E/DX2 analytically  !
 ! D115  D(44,33,34,37)        -33.7049         calculate D2E/DX2 analytically  !
 ! D116  D(44,33,34,42)        162.2397         calculate D2E/DX2 analytically  !
 ! D117  D(44,33,34,53)         57.5883         calculate D2E/DX2 analytically  !
 ! D118  D(32,33,44,58)         52.1288         calculate D2E/DX2 analytically  !
 ! D119  D(32,33,44,63)        -97.7043         calculate D2E/DX2 analytically  !
 ! D120  D(34,33,44,58)        -72.1502         calculate D2E/DX2 analytically  !
 ! D121  D(34,33,44,63)        138.0166         calculate D2E/DX2 analytically  !
 ! D122  D(38,33,44,58)        173.9606         calculate D2E/DX2 analytically  !
 ! D123  D(38,33,44,63)         24.1275         calculate D2E/DX2 analytically  !
 ! D124  D(33,34,37,19)        -43.7883         calculate D2E/DX2 analytically  !
 ! D125  D(42,34,37,19)        121.2169         calculate D2E/DX2 analytically  !
 ! D126  D(53,34,37,19)       -138.9855         calculate D2E/DX2 analytically  !
 ! D127  D(33,34,42,35)        -11.452          calculate D2E/DX2 analytically  !
 ! D128  D(37,34,42,35)       -176.5092         calculate D2E/DX2 analytically  !
 ! D129  D(53,34,42,35)         90.8636         calculate D2E/DX2 analytically  !
 ! D130  D(33,34,53,51)       -119.9156         calculate D2E/DX2 analytically  !
 ! D131  D(37,34,53,51)          1.8135         calculate D2E/DX2 analytically  !
 ! D132  D(42,34,53,51)        116.9342         calculate D2E/DX2 analytically  !
 ! D133  D(40,35,36,32)         83.4345         calculate D2E/DX2 analytically  !
 ! D134  D(40,35,36,41)       -156.8446         calculate D2E/DX2 analytically  !
 ! D135  D(40,35,36,46)        -38.6156         calculate D2E/DX2 analytically  !
 ! D136  D(42,35,36,32)        -31.9637         calculate D2E/DX2 analytically  !
 ! D137  D(42,35,36,41)         87.7572         calculate D2E/DX2 analytically  !
 ! D138  D(42,35,36,46)       -154.0138         calculate D2E/DX2 analytically  !
 ! D139  D(47,35,36,32)       -152.8064         calculate D2E/DX2 analytically  !
 ! D140  D(47,35,36,41)        -33.0854         calculate D2E/DX2 analytically  !
 ! D141  D(47,35,36,46)         85.1436         calculate D2E/DX2 analytically  !
 ! D142  D(36,35,42,34)          8.7599         calculate D2E/DX2 analytically  !
 ! D143  D(40,35,42,34)       -109.1506         calculate D2E/DX2 analytically  !
 ! D144  D(47,35,42,34)        132.6258         calculate D2E/DX2 analytically  !
 ! D145  D(36,35,47,48)         70.0352         calculate D2E/DX2 analytically  !
 ! D146  D(36,35,47,49)        -47.7475         calculate D2E/DX2 analytically  !
 ! D147  D(36,35,47,50)       -171.7422         calculate D2E/DX2 analytically  !
 ! D148  D(40,35,47,48)       -168.392          calculate D2E/DX2 analytically  !
 ! D149  D(40,35,47,49)         73.8253         calculate D2E/DX2 analytically  !
 ! D150  D(40,35,47,50)        -50.1694         calculate D2E/DX2 analytically  !
 ! D151  D(42,35,47,48)        -55.7655         calculate D2E/DX2 analytically  !
 ! D152  D(42,35,47,49)       -173.5482         calculate D2E/DX2 analytically  !
 ! D153  D(42,35,47,50)         62.4571         calculate D2E/DX2 analytically  !
 ! D154  D(32,36,46,71)         95.8926         calculate D2E/DX2 analytically  !
 ! D155  D(35,36,46,71)       -142.3656         calculate D2E/DX2 analytically  !
 ! D156  D(41,36,46,71)        -24.4456         calculate D2E/DX2 analytically  !
 ! D157  D(83,43,51,52)       -175.8793         calculate D2E/DX2 analytically  !
 ! D158  D(83,43,51,53)         53.2245         calculate D2E/DX2 analytically  !
 ! D159  D(83,43,51,54)        -59.8679         calculate D2E/DX2 analytically  !
 ! D160  D(51,43,83,19)        -95.7143         calculate D2E/DX2 analytically  !
 ! D161  D(51,43,83,84)         83.0032         calculate D2E/DX2 analytically  !
 ! D162  D(33,44,58,55)        116.1185         calculate D2E/DX2 analytically  !
 ! D163  D(63,44,58,55)        -94.5098         calculate D2E/DX2 analytically  !
 ! D164  D(33,44,63,64)        -67.5376         calculate D2E/DX2 analytically  !
 ! D165  D(33,44,63,65)         54.379          calculate D2E/DX2 analytically  !
 ! D166  D(33,44,63,66)        172.9309         calculate D2E/DX2 analytically  !
 ! D167  D(58,44,63,64)        139.3574         calculate D2E/DX2 analytically  !
 ! D168  D(58,44,63,65)        -98.7259         calculate D2E/DX2 analytically  !
 ! D169  D(58,44,63,66)         19.826          calculate D2E/DX2 analytically  !
 ! D170  D(32,45,67,68)        -59.086          calculate D2E/DX2 analytically  !
 ! D171  D(32,45,67,69)         63.0958         calculate D2E/DX2 analytically  !
 ! D172  D(32,45,67,70)       -177.7664         calculate D2E/DX2 analytically  !
 ! D173  D(36,46,71,72)        -61.6987         calculate D2E/DX2 analytically  !
 ! D174  D(36,46,71,73)         60.197          calculate D2E/DX2 analytically  !
 ! D175  D(36,46,71,74)        178.6452         calculate D2E/DX2 analytically  !
 ! D176  D(35,47,50,75)         76.5085         calculate D2E/DX2 analytically  !
 ! D177  D(48,47,50,75)       -164.107          calculate D2E/DX2 analytically  !
 ! D178  D(49,47,50,75)        -45.4417         calculate D2E/DX2 analytically  !
 ! D179  D(47,50,75,76)        175.7379         calculate D2E/DX2 analytically  !
 ! D180  D(47,50,75,77)        -65.3235         calculate D2E/DX2 analytically  !
 ! D181  D(47,50,75,78)         56.7016         calculate D2E/DX2 analytically  !
 ! D182  D(43,51,53,34)          9.6306         calculate D2E/DX2 analytically  !
 ! D183  D(52,51,53,34)       -121.2869         calculate D2E/DX2 analytically  !
 ! D184  D(54,51,53,34)        122.3631         calculate D2E/DX2 analytically  !
 ! D185  D(43,51,54,55)         84.759          calculate D2E/DX2 analytically  !
 ! D186  D(43,51,54,56)        -90.3111         calculate D2E/DX2 analytically  !
 ! D187  D(52,51,54,55)       -154.1541         calculate D2E/DX2 analytically  !
 ! D188  D(52,51,54,56)         30.7758         calculate D2E/DX2 analytically  !
 ! D189  D(53,51,54,55)        -32.8229         calculate D2E/DX2 analytically  !
 ! D190  D(53,51,54,56)        152.107          calculate D2E/DX2 analytically  !
 ! D191  D(51,54,55,57)       -174.3509         calculate D2E/DX2 analytically  !
 ! D192  D(51,54,55,58)          4.0904         calculate D2E/DX2 analytically  !
 ! D193  D(56,54,55,57)          0.6134         calculate D2E/DX2 analytically  !
 ! D194  D(56,54,55,58)        179.0546         calculate D2E/DX2 analytically  !
 ! D195  D(51,54,56,59)        174.0588         calculate D2E/DX2 analytically  !
 ! D196  D(51,54,56,60)         -5.7343         calculate D2E/DX2 analytically  !
 ! D197  D(55,54,56,59)         -0.9339         calculate D2E/DX2 analytically  !
 ! D198  D(55,54,56,60)        179.2731         calculate D2E/DX2 analytically  !
 ! D199  D(54,55,57,61)          0.0863         calculate D2E/DX2 analytically  !
 ! D200  D(54,55,57,93)        178.3938         calculate D2E/DX2 analytically  !
 ! D201  D(58,55,57,61)       -178.3279         calculate D2E/DX2 analytically  !
 ! D202  D(58,55,57,93)         -0.0203         calculate D2E/DX2 analytically  !
 ! D203  D(54,55,58,44)        -63.0582         calculate D2E/DX2 analytically  !
 ! D204  D(57,55,58,44)        115.3469         calculate D2E/DX2 analytically  !
 ! D205  D(54,56,59,61)          0.5626         calculate D2E/DX2 analytically  !
 ! D206  D(54,56,59,97)       -174.5879         calculate D2E/DX2 analytically  !
 ! D207  D(60,56,59,61)       -179.6464         calculate D2E/DX2 analytically  !
 ! D208  D(60,56,59,97)          5.2031         calculate D2E/DX2 analytically  !
 ! D209  D(55,57,61,59)         -0.445          calculate D2E/DX2 analytically  !
 ! D210  D(55,57,61,62)        179.8284         calculate D2E/DX2 analytically  !
 ! D211  D(93,57,61,59)       -178.7125         calculate D2E/DX2 analytically  !
 ! D212  D(93,57,61,62)          1.5609         calculate D2E/DX2 analytically  !
 ! D213  D(55,57,93,94)        -67.9061         calculate D2E/DX2 analytically  !
 ! D214  D(55,57,93,95)        171.8586         calculate D2E/DX2 analytically  !
 ! D215  D(55,57,93,96)         50.7078         calculate D2E/DX2 analytically  !
 ! D216  D(61,57,93,94)        110.4023         calculate D2E/DX2 analytically  !
 ! D217  D(61,57,93,95)         -9.8331         calculate D2E/DX2 analytically  !
 ! D218  D(61,57,93,96)       -130.9839         calculate D2E/DX2 analytically  !
 ! D219  D(56,59,61,57)          0.1158         calculate D2E/DX2 analytically  !
 ! D220  D(56,59,61,62)        179.8428         calculate D2E/DX2 analytically  !
 ! D221  D(97,59,61,57)        175.2861         calculate D2E/DX2 analytically  !
 ! D222  D(97,59,61,62)         -4.9869         calculate D2E/DX2 analytically  !
 ! D223  D(56,59,97,98)         89.8568         calculate D2E/DX2 analytically  !
 ! D224  D(56,59,97,99)        -29.6143         calculate D2E/DX2 analytically  !
 ! D225  D(56,59,97,100)      -151.0088         calculate D2E/DX2 analytically  !
 ! D226  D(61,59,97,98)        -85.3641         calculate D2E/DX2 analytically  !
 ! D227  D(61,59,97,99)        155.1649         calculate D2E/DX2 analytically  !
 ! D228  D(61,59,97,100)        33.7704         calculate D2E/DX2 analytically  !
 ! D229  D(19,83,84,85)         15.4253         calculate D2E/DX2 analytically  !
 ! D230  D(19,83,84,89)       -145.5477         calculate D2E/DX2 analytically  !
 ! D231  D(43,83,84,85)       -161.609          calculate D2E/DX2 analytically  !
 ! D232  D(43,83,84,89)         37.4181         calculate D2E/DX2 analytically  !
 ! D233  D(83,84,85,86)       -102.7524         calculate D2E/DX2 analytically  !
 ! D234  D(83,84,85,87)         16.7681         calculate D2E/DX2 analytically  !
 ! D235  D(83,84,85,88)        135.7808         calculate D2E/DX2 analytically  !
 ! D236  D(89,84,85,86)         59.0929         calculate D2E/DX2 analytically  !
 ! D237  D(89,84,85,87)        178.6135         calculate D2E/DX2 analytically  !
 ! D238  D(89,84,85,88)        -62.3738         calculate D2E/DX2 analytically  !
 ! D239  D(83,84,89,90)       -137.7733         calculate D2E/DX2 analytically  !
 ! D240  D(83,84,89,91)        -18.6736         calculate D2E/DX2 analytically  !
 ! D241  D(83,84,89,92)        100.9603         calculate D2E/DX2 analytically  !
 ! D242  D(85,84,89,90)         58.6371         calculate D2E/DX2 analytically  !
 ! D243  D(85,84,89,91)        177.7368         calculate D2E/DX2 analytically  !
 ! D244  D(85,84,89,92)        -62.6293         calculate D2E/DX2 analytically  !
 --------------------------------------------------------------------------------
 Trust Radius=1.00D-01 FncErr=1.00D-07 GrdErr=1.00D-06 EigMax=2.50D+02 EigMin=1.00D-04
 Number of steps in this run=    551 maximum allowed number of steps=    600.
 Search for a saddle point of order  1.
 GradGradGradGradGradGradGradGradGradGradGradGradGradGradGradGradGradGrad

 Leave Link  103 at Mon Jun  3 07:14:31 2019, MaxMem=  6442450944 cpu:               4.7 elap:               0.2
 (Enter /home/ekwan/sw/g16/l202.exe)
 Stoichiometry    C30H47F6NaO15S
 Framework group  C1[X(C30H47F6NaO15S)]
 Deg. of freedom   294
 Full point group                 C1      NOp   1
 Largest Abelian subgroup         C1      NOp   1
 Largest concise Abelian subgroup C1      NOp   1
                         Standard orientation:                         
 ---------------------------------------------------------------------
 Center     Atomic      Atomic             Coordinates (Angstroms)
 Number     Number       Type             X           Y           Z
 ---------------------------------------------------------------------
      1          6           0        5.791572   -1.924778    0.511516
      2          6           0        5.568884   -0.963394   -0.657736
      3          6           0        4.078261   -0.891954   -1.017574
      4          6           0        3.399069   -1.447185    1.219988
      5          6           0        4.850384   -1.610162    1.680050
      6          1           0        3.879000   -0.090073   -1.734948
      7          1           0        5.862205    0.049945   -0.338805
      8          1           0        5.579877   -2.946560    0.171581
      9          1           0        3.017397   -2.422865    0.890272
     10          1           0        5.180162   -0.669571    2.146562
     11          8           0        3.343092   -0.518784    0.128013
     12          8           0        3.690753   -2.133122   -1.549276
     13          8           0        6.390673   -1.378063   -1.735314
     14          8           0        7.129170   -1.839177    0.998290
     15          8           0        4.890111   -2.670813    2.631868
     16          6           0        2.459508   -0.884675    2.296345
     17          1           0        2.881840    0.116028    2.566673
     18          1           0        2.612495   -1.518668    3.196262
     19          8           0        1.157309   -0.812076    1.887553
     20          6           0        6.372064   -0.493733   -2.845045
     21          1           0        5.437045   -0.575017   -3.415245
     22          1           0        6.495977    0.551590   -2.528555
     23          1           0        7.205881   -0.779278   -3.491309
     24          6           0        8.015213   -2.809434    0.458867
     25          1           0        7.662829   -3.829446    0.672330
     26          1           0        8.131812   -2.691308   -0.623278
     27          1           0        8.980740   -2.659720    0.950255
     28          6           0        5.730177   -2.426683    3.749172
     29          1           0        6.769995   -2.269626    3.443447
     30          1           0        5.388651   -1.550521    4.320897
     31          1           0        5.666524   -3.310745    4.390019
     32          6           0       -0.000275    3.141106    0.434181
     33          6           0        0.203430    1.702316    0.922801
     34          6           0        0.803224    0.865483   -0.163856
     35          6           0        1.990337    2.771617   -1.097546
     36          6           0        1.356747    3.671101   -0.027131
     37          1           0        0.731256   -0.207915   -0.156739
     38          1           0        0.967492    1.694510    1.713066
     39          1           0       -0.701666    3.141415   -0.406833
     40          1           0        1.572299    3.048790   -2.066778
     41          1           0        2.015756    3.722425    0.852734
     42          8           0        1.668803    1.344153   -0.972426
     43          8           0       -0.964678   -1.515992   -0.934425
     44          8           0       -0.982523    1.112918    1.411005
     45          8           0       -0.474201    3.961800    1.487263
     46          8           0        1.259587    4.943194   -0.639430
     47          6           0        3.513662    2.865063   -1.083269
     48          1           0        3.879582    2.383263   -0.171797
     49          1           0        3.779756    3.932063   -1.058042
     50          8           0        4.143006    2.205903   -2.159095
     51         16           0       -1.585100   -0.441919   -1.776498
     52          8           0       -1.641352   -0.763362   -3.214067
     53          8           0       -0.991906    0.911236   -1.473343
     54          6           0       -3.288310   -0.346587   -1.204712
     55          6           0       -3.598720    0.434404   -0.096975
     56          6           0       -4.253825   -1.140499   -1.819929
     57          6           0       -4.899203    0.406882    0.408586
     58          1           0       -2.824889    1.030920    0.371740
     59          6           0       -5.545823   -1.160737   -1.297297
     60          1           0       -3.994682   -1.732868   -2.689307
     61          6           0       -5.876928   -0.390012   -0.181173
     62          1           0       -6.883536   -0.409238    0.217360
     63          6           0       -1.096668    1.173894    2.843772
     64          1           0       -0.327179    0.532321    3.285296
     65          1           0       -0.992130    2.204085    3.192705
     66          1           0       -2.097501    0.808142    3.078047
     67          6           0       -1.837725    4.354835    1.351719
     68          1           0       -1.995071    4.909672    0.417819
     69          1           0       -2.512391    3.492884    1.377761
     70          1           0       -2.056036    5.008324    2.199124
     71          6           0        1.520132    6.041857    0.232768
     72          1           0        0.799580    6.077681    1.054469
     73          1           0        2.537210    5.981929    0.644524
     74          1           0        1.433487    6.943365   -0.377427
     75          6           0        4.076571    2.904636   -3.395091
     76          1           0        4.662486    2.324927   -4.110915
     77          1           0        3.047777    2.991618   -3.768676
     78          1           0        4.506058    3.912050   -3.302077
     79          6           0        2.341681   -2.142451   -2.007173
     80          1           0        2.203530   -3.070982   -2.565853
     81          1           0        1.629886   -2.110641   -1.176223
     82          1           0        2.144379   -1.287629   -2.669289
     83         11           0       -0.770562   -1.543303    1.355972
     84          8           0       -2.888796   -2.335624    1.743633
     85          6           0       -3.613057   -2.271140    2.964087
     86          1           0       -3.607173   -3.243338    3.475813
     87          1           0       -3.122026   -1.525712    3.592392
     88          1           0       -4.650767   -1.963577    2.784311
     89          6           0       -3.417622   -3.304330    0.843370
     90          1           0       -4.466553   -3.088294    0.606763
     91          1           0       -2.821967   -3.246020   -0.068699
     92          1           0       -3.346683   -4.313424    1.272419
     93          6           0       -5.209446    1.227847    1.627695
     94          9           0       -4.574922    0.741115    2.727670
     95          9           0       -6.524668    1.256714    1.912860
     96          9           0       -4.794583    2.508741    1.486892
     97          6           0       -6.567100   -2.101616   -1.870963
     98          9           0       -6.541873   -3.294872   -1.223419
     99          9           0       -6.347017   -2.358157   -3.176008
    100          9           0       -7.823004   -1.620811   -1.751800
 ---------------------------------------------------------------------
 Rotational constants (GHZ):           0.0742718           0.0293653           0.0269843
 Leave Link  202 at Mon Jun  3 07:14:32 2019, MaxMem=  6442450944 cpu:               4.9 elap:               0.2
 (Enter /home/ekwan/sw/g16/l301.exe)
 Standard basis: 6-31G(d) (6D, 7F)
 Ernie: Thresh=  0.10000D-02 Tol=  0.10000D-05 Strict=F.
 There are   897 symmetry adapted cartesian basis functions of A   symmetry.
 There are   897 symmetry adapted basis functions of A   symmetry.
   897 basis functions,  1720 primitive gaussians,   897 cartesian basis functions
   214 alpha electrons      214 beta electrons
       nuclear repulsion energy      9333.3431613387 Hartrees.
 IExCor=  402 DFT=T Ex+Corr=B3LYP ExCW=0 ScaHFX=  0.200000
 ScaDFX=  0.800000  0.720000  1.000000  0.810000 ScalE2=  1.000000  1.000000
 IRadAn=      5 IRanWt=     -1 IRanGd=            0 ICorTp=0 IEmpDi=141
 NAtoms=  100 NActive=  100 NUniq=  100 SFac= 1.00D+00 NAtFMM=   60 NAOKFM=T Big=T
 Integral buffers will be    131072 words long.
 Raffenetti 2 integral format.
 Two-electron integral symmetry is turned on.
 R6Disp:  Grimme-D3(BJ) Dispersion energy=       -0.2290101254 Hartrees.
 Nuclear repulsion after empirical dispersion term =     9333.1141512133 Hartrees.
 Force inversion solution in PCM.
 ------------------------------------------------------------------------------
 Polarizable Continuum Model (PCM)
 =================================
 Model                : PCM.
 Atomic radii         : UFF (Universal Force Field).
 Polarization charges : Total charges.
 Charge compensation  : None.
 Solution method      : Matrix inversion.
 Cavity type          : Scaled VdW (van der Waals Surface) (Alpha=1.100).
 Cavity algorithm     : GePol (No added spheres)
                        Default sphere list used, NSphG=  100.
                        Lebedev-Laikov grids with approx.  5.0 points / Ang**2.
                        Smoothing algorithm: York/Karplus (Gamma=1.0000).
                        Polarization charges: spherical gaussians, with
                                              point-specific exponents (IZeta= 3).
                        Self-potential: point-specific (ISelfS= 7).
                        Self-field    : sphere-specific E.n sum rule (ISelfD= 2).
 1st derivatives      : Analytical E(r).r(x)/FMM algorithm (CHGder, D1EAlg=3).
                        Cavity 1st derivative terms included.
 2nd derivatives      : Analytical E(r).r(xy)/FMM algorithm (CHGder, D2EAlg=3).
                        Cavity 2nd derivative terms included.
 Solvent              : TetraHydroFuran, Eps=   7.425700 Eps(inf)=   1.974025
 ------------------------------------------------------------------------------
 GePol: Number of generator spheres                  =     100
 GePol: Total number of spheres                      =     100
 GePol: Number of exposed spheres                    =     100 (100.00%)
 GePol: Number of points                             =    6224
 GePol: Average weight of points                     =       0.12
 GePol: Minimum weight of points                     =   0.88D-11
 GePol: Maximum weight of points                     =    0.21371
 GePol: Number of points with low weight             =     463
 GePol: Fraction of low-weight points (<1% of avg)   =       7.44%
 GePol: Cavity surface area                          =    771.011 Ang**2
 GePol: Cavity volume                                =    978.661 Ang**3
 Leave Link  301 at Mon Jun  3 07:14:32 2019, MaxMem=  6442450944 cpu:               7.8 elap:               0.3
 (Enter /home/ekwan/sw/g16/l302.exe)
 NPDir=0 NMtPBC=     1 NCelOv=     1 NCel=       1 NClECP=     1 NCelD=      1
         NCelK=      1 NCelE2=     1 NClLst=     1 CellRange=     0.0.
 One-electron integrals computed using PRISM.
 One-electron integral symmetry used in STVInt
 NBasis=   897 RedAO= T EigKep=  3.84D-04  NBF=   897
 NBsUse=   897 1.00D-06 EigRej= -1.00D+00 NBFU=   897
 Precomputing XC quadrature grid using
 IXCGrd= 4 IRadAn=           5 IRanWt=          -1 IRanGd=           0 AccXCQ= 0.00D+00.
 Generated NRdTot=       0 NPtTot=           0 NUsed=           0 NTot=          32
 NSgBfM=   820   813   813   820   820 MxSgAt=   100 MxSgA2=   100.
 Leave Link  302 at Mon Jun  3 07:14:49 2019, MaxMem=  6442450944 cpu:             481.2 elap:              17.2
 (Enter /home/ekwan/sw/g16/l303.exe)
 DipDrv:  MaxL=1.
 Leave Link  303 at Mon Jun  3 07:14:50 2019, MaxMem=  6442450944 cpu:              14.4 elap:               0.6
 (Enter /home/ekwan/sw/g16/l401.exe)
 ExpMin= 2.60D-02 ExpMax= 2.19D+04 ExpMxC= 3.30D+03 IAcc=3 IRadAn=         5 AccDes= 0.00D+00
 Harris functional with IExCor=  402 and IRadAn=       5 diagonalized for initial guess.
 HarFok:  IExCor=  402 AccDes= 0.00D+00 IRadAn=         5 IDoV= 1 UseB2=F ITyADJ=14
[...]
 ,0.00009831,-0.00044080,0.00068420,-0.00031508,0.00002793,-0.00013046,
 -0.00031809,-0.00019342,0.00007702,-0.00033266,0.00057989,-0.00025912,
 -0.00070193,0.00065190,-0.00003025,-0.00167190,0.00055461,-0.00013244,
 0.00009241,-0.00004966,-0.00096820,-0.00060884,0.03100207,0.00089411,-
 0.00029843,0.00042225,0.00439940,0.00016925,0.00039538,-0.00013222,0.0
 0054031,-0.00009293,0.00000653,0.00000968,-0.00010880,0.00001347,-0.00
 000147,0.00002161,0.00000190,-0.00000955,0.00001841,-0.00001969,-0.000
 01363,-0.00003240,-0.00004634,0.00004572,0.00000324,0.00000094,-0.0000
 0306,-0.00000372,-0.00000572,-0.00000364,-0.00001396,0.00000566,-0.000
 01359,0.00000676,-0.00001409,0.00002585,-0.00001983,-0.00000064,0.0000
 0195,0.00000157,0.00000648,-0.00000154,0.00000479,0.00000011,-0.000005
 48,0.00000018,-0.00000786,0.00000939,0.00001372,0.00000268,0.00000041,
 -0.00000301,0.00000110,-0.00000148,0.00000075,0.00000046,-0.00000341,-
 0.00000094,-0.00001443,-0.00001074,0.00002146,0.00000584,0.00000832,-0
 .00000842,-0.00000427,-0.00001491,-0.00001628,-0.00000503,0.00000207,0
 .00000732,-0.00012075,-0.00013366,-0.00012784,-0.00004057,0.00022192,0
 .00001688,-0.00003140,-0.00000809,-0.00009037,0.00001431,0.00003384,0.
 00002744,-0.00000997,-0.00000468,-0.00000905,0.00003348,-0.00003459,-0
 .00001821,0.00011381,-0.00002068,0.00007470,0.00011794,-0.00018864,0.0
 0007528,-0.00003136,-0.00007367,0.00001298,0.00001875,0.00004969,0.000
 05853,0.00054312,0.00059020,-0.00148766,0.00008792,-0.00005540,0.00056
 629,-0.00024953,-0.00018220,0.00031650,0.00002064,-0.00068982,0.000413
 23,0.00140329,-0.08615315,0.04886316,0.00418679,0.00248410,-0.04806541
 ,0.00903815,0.08599290,0.00000946,0.00000534,-0.00000784,0.00001660,0.
 00000070,-0.00001665,0.00002828,0.00002282,-0.00005279,-0.00000935,0.0
 0000388,-0.00000945,0.00000924,0.00000247,0.00001200,0.00000145,0.0000
 0089,-0.00000088,-0.00000033,-0.00000198,0.00000140,-0.00000089,-0.000
 00133,-0.00000042,0.00000309,-0.00000011,-0.00000172,0.00000043,0.0000
 0039,0.00000014,-0.00004379,-0.00001265,0.00003594,-0.00002110,-0.0000
 2220,0.00003288,-0.00001668,0.00000105,0.00002980,-0.00002268,-0.00000
 963,0.00000742,-0.00001716,-0.00000638,0.00000032,0.00013551,-0.000007
 94,0.00002327,-0.00002604,0.00001624,-0.00000315,-0.00002533,-0.000008
 85,-0.00001770,-0.00014474,-0.00005168,-0.00006878,-0.00000361,-0.0000
 0794,-0.00001702,0.00000395,0.00000256,0.00000125,0.00000278,-0.000000
 20,0.00000198,-0.00000310,0.00000017,0.00000227,0.00000782,0.00001049,
 -0.00000760,-0.00000020,-0.00000181,-0.00000015,-0.00000150,-0.0000006
 5,0.00000287,-0.00000169,-0.00000130,0.00000019,0.00000850,0.00000107,
 0.00000443,-0.00000365,0.00000065,-0.00000041,0.00000035,-0.00000202,0
 .00000062,0.00000086,-0.00000013,-0.00000143,-0.00000722,-0.00004034,0
 .00000614,0.00012334,-0.00009610,-0.00009075,0.00044520,-0.00005085,0.
 00010511,0.00003803,-0.00010634,-0.00002998,0.00002974,-0.00003588,-0.
 00001557,0.00001332,0.00001008,-0.00001257,-0.00003472,0.00001959,-0.0
 0000359,-0.00000065,-0.00002743,-0.00000767,0.00000262,0.00001674,-0.0
 0000064,-0.00000553,0.00000346,0.00000202,-0.00023966,0.00013097,0.000
 11843,-0.00079810,-0.00032756,0.00008507,-0.00026982,0.00009425,-0.000
 11855,-0.00004383,0.00005207,0.00000162,-0.00002089,0.00007955,0.00001
 421,0.00004723,0.00002444,-0.00002829,0.00000185,-0.00000164,0.0000046
 5,-0.00001274,0.00000180,0.00000389,-0.00002769,-0.00000168,0.00005434
 ,0.00209895,0.00002363,-0.00141623,-0.00044157,-0.00014131,0.00083016,
 -0.00088627,0.00044621,0.00007666,-0.00073626,0.00099775,0.00037207,-0
 .00050765,0.00006624,-0.00008552,0.00370649,0.00037369,-0.00098736,0.0
 0107762,0.00137159,-0.00133901,0.00011213,-0.00017129,0.00012651,0.004
 64547,0.01273814,-0.03526691,-0.00211024,-0.00042706,0.00009476,-0.007
 00055,0.00187638,-0.00008643,0.00011298,-0.00065435,0.00042431,0.00000
 544,-0.00002281,0.00011237,-0.00001302,0.00000221,-0.00002593,-0.00000
 448,0.00001383,-0.00002291,0.00001922,0.00001422,0.00004529,0.00005004
 ,-0.00007218,-0.00001788,-0.00000392,0.00001432,0.00001166,0.00000818,
 0.00000267,0.00001166,-0.00000531,0.00001449,-0.00000539,0.00001406,-0
 .00002721,0.00001685,-0.00000061,-0.00000379,-0.00000174,-0.00000470,0
 .00000223,-0.00000485,-0.00000112,0.00000930,0.00000023,-0.00000089,-0
 .00001745,-0.00003471,-0.00000524,-0.00000065,0.00000437,0.00000463,0.
 00000444,0.00000052,0.00000072,0.00000397,0.00000349,0.00001618,0.0000
 0285,-0.00004624,-0.00000646,-0.00001263,0.00000672,0.00000581,0.00001
 550,0.00002417,0.00000350,0.00000684,-0.00000428,0.00026906,0.00009377
 ,0.00013837,-0.00026163,-0.00006515,-0.00033078,0.00004310,0.00004282,
 0.00025262,-0.00000463,-0.00005808,-0.00004270,-0.00000609,0.00002188,
 -0.00002116,-0.00004229,-0.00000564,0.00002952,0.00058452,0.00010529,0
 .00011672,-0.00003387,-0.00005104,0.00028072,0.00001221,0.00007427,-0.
 00001496,-0.00011239,-0.00009919,-0.00010656,-0.00077227,-0.00107339,0
 .00170819,-0.00010972,0.00009612,-0.00082999,0.00025851,0.00029014,-0.
 00040173,-0.00004974,0.00100503,-0.00043770,0.00562120,0.05288205,-0.2
 5272468,0.00706910,-0.03191832,-0.06211432,-0.05044172,-0.05614328,0.3
 7322912,0.00002909,0.00000765,0.00000255,0.00003289,-0.00000778,-0.000
 01457,0.00005636,-0.00002737,-0.00001138,-0.00000606,0.00001463,0.0000
 1830,0.00001685,0.00000676,0.00003923,0.00000454,0.00000190,-0.0000048
 5,-0.00000624,0.00000311,-0.00000139,0.00000142,0.00000347,0.00000067,
 0.00000347,0.00000320,-0.00000291,-0.00000176,0.00000364,-0.00000418,-
 0.00006798,-0.00001129,-0.00000984,-0.00010636,0.00001222,-0.00001264,
 -0.00003557,0.00000512,0.00001833,-0.00005034,-0.00001292,-0.00000553,
 -0.00003721,-0.00001536,-0.00003511,0.00022663,-0.00002379,0.00004748,
 -0.00004830,0.00003665,-0.00000820,-0.00005074,-0.00001907,-0.00003894
 ,-0.00019884,-0.00007809,-0.00018397,0.00001231,-0.00001311,-0.0000063
 3,-0.00000312,0.00000080,-0.00000421,0.00000233,0.00000333,-0.00000033
 ,-0.00000435,-0.00000111,0.00000320,0.00001472,0.00001546,-0.00000748,
 -0.00000026,-0.00000267,0.00000193,0.00000093,-0.00000235,0.00000303,-
 0.00000617,-0.00000145,-0.00000118,0.00002270,-0.00000650,0.00003101,-
 0.00000652,0.00000225,-0.00000152,0.00000027,0.00000307,-0.00000293,-0
 .00000057,-0.00000275,-0.00000437,-0.00001942,-0.00010481,0.00006268,0
 .00009820,-0.00010128,-0.00010308,0.00086798,-0.00010555,0.00039275,0.
 00008634,-0.00020937,-0.00002350,0.00003904,-0.00006971,-0.00000764,0.
 00001117,0.00002109,-0.00002328,-0.00003413,0.00002604,-0.00001460,-0.
 00001057,-0.00005249,-0.00001234,0.00000351,0.00002451,-0.00000607,-0.
 00001257,0.00000857,-0.00000288,-0.00042812,0.00024936,0.00013533,-0.0
 0118048,-0.00054227,-0.00019333,-0.00028728,0.00012135,-0.00024326,0.0
 0000758,0.00011593,-0.00005821,-0.00002898,0.00014927,-0.00000686,0.00
 006901,0.00002540,-0.00002144,0.00000232,-0.00000584,0.00000411,-0.000
 02242,0.00000944,0.00000677,-0.00004708,0.00001414,0.00004365,0.003482
 77,0.00007500,-0.00134038,-0.00083426,-0.00003767,0.00081508,-0.001815
 13,0.00109750,-0.00017512,-0.00193522,0.00094901,0.00157307,-0.0006123
 2,0.00022282,-0.00029401,-0.00182568,0.00441492,-0.00673478,-0.0002749
 7,0.00129061,-0.00016691,0.00031041,-0.00012644,-0.00004392,-0.0468925
 9,-0.01319776,0.00328652,0.00069957,-0.00061094,-0.00025609,-0.0011941
 3,-0.00128782,0.00318138,-0.00044376,0.00063162,-0.00221196,-0.0000274
 8,-0.00001539,0.00022709,-0.00002004,-0.00000320,-0.00003558,-0.000006
 47,0.00002415,-0.00003932,0.00002392,0.00000848,0.00004691,0.00000517,
 -0.00009146,-0.00001590,0.00000091,0.00001108,0.00001426,0.00000329,-0
 .00000420,0.00002484,-0.00000578,0.00002743,-0.00001439,0.00002332,-0.
 00006276,0.00004893,0.00000129,-0.00000242,-0.00000859,-0.00000959,0.0
 0000520,-0.00000986,-0.00000278,0.00001448,0.00000010,0.00001790,-0.00
 002670,-0.00003000,-0.00000112,-0.00000028,0.00000481,-0.00000325,-0.0
 0000079,-0.00000038,-0.00000422,0.00001162,-0.00000016,0.00007535,-0.0
 0000364,-0.00002862,-0.00000357,-0.00000307,0.00000387,0.00000846,0.00
 001898,0.00004227,0.00000554,-0.00000454,-0.00001311,0.00028334,0.0001
 3402,0.00030663,-0.00010511,-0.00009896,-0.00052947,-0.00013617,0.0000
 0712,0.00039234,0.00000650,-0.00006796,-0.00006491,0.00001527,0.000024
 81,-0.00003342,-0.00000281,0.00002775,0.00003366,0.00039314,0.00003427
 ,0.00016069,-0.00012490,0.00004759,0.00026671,0.00013107,0.00011482,-0
 .00000987,-0.00011402,-0.00010653,-0.00013802,-0.00098836,-0.00136990,
 0.00192760,-0.00001928,0.00019411,-0.00083801,0.00064351,0.00031698,-0
 .00051309,0.00003079,0.00075467,-0.00044521,-0.25235615,-0.04016178,0.
 00042874,-0.01492910,-0.03930166,-0.01292912,-0.02493822,-0.01876955,0
 .03869658,0.34455671,-0.00000134,-0.00000602,0.00000210,-0.00000418,-0
 .00000128,0.00000295,-0.00000647,-0.00001844,0.00001311,0.00000737,-0.
 00001657,-0.00000169,-0.00000152,-0.00000480,-0.00000844,-0.00000076,-
 0.00000025,0.00000189,-0.00000083,0.00000174,-0.00000039,0.00000116,0.
 00000214,-0.00000032,-0.00000066,0.00000374,-0.00000095,-0.00000135,0.
 00000155,-0.00000064,0.00001330,0.00001615,-0.00000222,0.00000399,0.00
 001840,-0.00000734,0.00000390,0.00000503,-0.00000303,0.00000632,0.0000
 0714,-0.00000085,0.00000376,0.00000883,0.00000330,-0.00004803,0.000000
 64,-0.00000599,0.00000647,-0.00000184,-0.00000090,0.00001483,0.0000042
 1,0.00001053,0.00003559,0.00005105,0.00004230,0.00000015,-0.00000221,0
 .00000021,-0.00000035,-0.00000099,0.00000029,-0.00000136,0.00000126,-0
 .00000093,0.00000111,-0.00000005,-0.00000034,-0.00000171,-0.00000657,0
 .00000150,-0.00000032,0.00000201,0.00000042,0.00000032,-0.00000005,-0.
 00000040,0.00000018,0.00000050,-0.00000040,-0.00000138,-0.00000239,-0.
 00000098,0.00000021,-0.00000021,0.00000031,0.00000037,0.00000095,-0.00
 000069,0.00000062,0.00000087,0.00000158,-0.00000803,0.00001037,-0.0000
 1248,-0.00003029,0.00002473,0.00002726,-0.00021653,0.00000452,-0.00010
 486,-0.00001756,0.00003411,0.00000323,-0.00001371,0.00001113,0.0000016
 8,0.00000314,-0.00001195,0.00000585,0.00001279,-0.00000703,0.00000278,
 0.00000183,0.00001341,0.00000368,-0.00000208,-0.00000543,0.00000230,0.
 00000488,-0.00000215,0.00000171,0.00009927,-0.00004306,-0.00002791,0.0
 0031391,0.00023424,0.00006891,0.00009089,-0.00001486,0.00006887,0.0000
 3166,-0.00000931,0.00001074,0.00001334,-0.00002765,0.00000303,-0.00002
 166,-0.00000818,0.00000884,0.00000069,0.00000051,-0.00000042,0.0000042
 1,-0.00000057,-0.00000168,0.00001494,0.00000497,-0.00001271,-0.0009793
 4,-0.00032357,0.00035565,0.00020293,0.00010958,-0.00026360,0.00048878,
 -0.00015310,0.00003386,0.00067577,-0.00111963,-0.00020989,0.00075314,-
 0.00002687,-0.00024146,0.00014108,-0.00018971,0.00188455,-0.00001453,0
 .00054349,-0.00061535,-0.00001910,0.00005118,-0.00007460,0.01430186,0.
 01029831,0.00048619,0.00021553,0.00022425,0.00000834,0.00080813,-0.000
 96540,0.00215488,0.00138815,-0.00044926,-0.00041309,0.00000741,0.00000
 090,-0.00006135,0.00000794,-0.00000084,0.00001210,-0.00000043,-0.00000
 360,0.00000972,-0.00001271,-0.00000916,-0.00001492,-0.00003111,0.00001
 646,-0.00000238,-0.00000067,0.00000199,0.00000076,-0.00000225,-0.00000
 319,-0.00000833,0.00000302,-0.00000667,0.00000351,-0.00000892,0.000013
 11,-0.00001082,-0.00000054,0.00000073,0.00000016,0.00000450,-0.0000004
 4,0.00000271,-0.00000052,-0.00000215,0.00000040,-0.00000539,0.00000362
 ,0.00000527,0.00000181,0.00000032,-0.00000176,0.00000124,-0.00000103,0
 .00000078,-0.00000005,-0.00000137,-0.00000052,-0.00000276,-0.00000991,
 0.00001021,0.00000419,0.00000574,-0.00000658,-0.00000245,-0.00001017,-
 0.00000751,-0.00000370,0.00000240,0.00000520,-0.00002386,-0.00010414,-
 0.00006959,-0.00014170,0.00020001,-0.00013922,-0.00003943,0.00000548,0
 .00002639,0.00001364,0.00001118,0.00000962,-0.00000955,0.00000369,-0.0
 0001871,0.00002283,-0.00003384,-0.00000219,0.00035353,0.00001566,0.000
 10586,0.00004566,-0.00022344,0.00023077,-0.00002566,-0.00005208,0.0000
 0436,-0.00002949,0.00000951,0.00001899,-0.00009451,0.00038012,-0.00066
 146,0.00007942,-0.00000990,0.00027060,-0.00002238,-0.00009043,0.000160
 52,0.00003213,-0.00018731,0.00011994,-0.04690419,-0.08553291,0.0040619
 6,-0.05416419,-0.04126396,-0.01522298,-0.02274932,0.00120861,0.0186759
 1,0.10542500,0.11739537,0.00000306,0.00000164,-0.00000223,0.00000542,0
 .00000008,-0.00000514,0.00000921,0.00000565,-0.00001540,-0.00000253,0.
 00000155,-0.00000220,0.00000300,0.00000060,0.00000375,0.00000057,0.000
 00027,-0.00000037,-0.00000025,-0.00000051,0.00000037,-0.00000022,-0.00
 000032,-0.00000011,0.00000099,0.,-0.00000061,0.00000008,0.00000019,-0.
 00000002,-0.00001384,-0.00000374,0.00001013,-0.00000867,-0.00000600,0.
 00000938,-0.00000541,0.00000057,0.00000919,-0.00000715,-0.00000288,0.0
 0000214,-0.00000543,-0.00000191,-0.00000012,0.00004211,-0.00000325,0.0
 0000615,-0.00000828,0.00000520,-0.00000100,-0.00000819,-0.00000270,-0.
 00000563,-0.00004150,-0.00001547,-0.00002443,-0.00000092,-0.00000269,-
 0.00000525,0.00000116,0.00000074,0.00000032,0.00000081,0.00000003,0.00
 000056,-0.00000097,0.00000004,0.00000071,0.00000242,0.00000317,-0.0000
 0235,-0.00000008,-0.00000053,-0.00000003,-0.00000043,-0.00000022,0.000
 00089,-0.00000055,-0.00000041,0.00000004,0.00000268,0.00000018,0.00000
 153,-0.00000114,0.00000020,-0.00000013,0.00000013,-0.00000057,0.000000
 14,0.00000026,-0.00000003,-0.00000044,-0.00000324,-0.00001502,0.000002
 59,0.00002738,-0.00002546,-0.00001971,0.00015942,-0.00001942,0.0000548
 9,0.00001371,-0.00003873,-0.00000893,0.00000732,-0.00001195,-0.0000035
 2,0.00000353,0.00000357,-0.00000490,-0.00000669,0.00000505,-0.00000265
 ,-0.00000101,-0.00000906,-0.00000197,0.00000104,0.00000554,-0.00000021
 ,-0.00000140,0.00000114,0.00000057,-0.00008547,0.00004702,0.00003457,-
 0.00029305,-0.00014817,0.00000352,-0.00006202,0.00002405,-0.00003350,-
 0.00000659,0.00001791,-0.00000121,-0.00000500,0.00002462,0.00000395,0.
 00001454,0.00000816,-0.00000872,0.00000068,-0.00000058,0.00000151,-0.0
 0000444,0.00000076,0.00000128,-0.00000824,0.00000017,0.00001670,0.0007
 2816,0.00006299,-0.00051695,-0.00014432,-0.00005118,0.00026797,-0.0003
 5936,0.00021547,0.00001572,-0.00096825,-0.00007522,0.00046778,-0.00032
 933,0.00010225,-0.00000246,-0.00064611,0.00164770,-0.00168644,-0.00021
 257,-0.00052925,0.00057233,-0.00001656,-0.00000891,0.00008088,-0.01071
 515,-0.00116314,0.01046630,-0.00040377,0.00010153,0.00011994,-0.000540
 04,0.00045668,-0.00195519,-0.00169018,0.00005184,0.00046456,0.00000057
 ,-0.00000569,0.00002839,-0.00000327,0.00000039,-0.00000639,-0.00000081
 ,0.00000358,-0.00000640,0.00000505,0.00000348,0.00000931,0.00000782,-0
 .00001944,-0.00000589,-0.00000093,0.00000447,0.00000385,0.00000237,0.0
 0000034,0.00000230,-0.00000060,0.00000334,-0.00000123,0.00000385,-0.00
 000809,0.00000496,-0.00000027,-0.00000094,-0.00000075,-0.00000111,0.00
 000075,-0.00000140,-0.00000045,0.00000296,0.00000005,-0.00000031,-0.00
 000567,-0.00001101,-0.00000151,-0.00000017,0.00000132,0.00000147,0.000
 00123,0.00000021,0.00000010,0.00000136,0.00000103,0.00000629,0.0000006
 1,-0.00001481,-0.00000203,-0.00000378,0.00000219,0.00000194,0.00000518
 ,0.00000851,0.00000124,0.00000190,-0.00000153,0.00006703,0.00002193,0.
 00004793,-0.00006454,-0.00001686,-0.00005761,0.00002973,0.00001364,0.0
 0005020,-0.00000266,-0.00001338,-0.00000897,-0.00000389,0.00000531,-0.
 00000475,-0.00001260,-0.00000342,0.00000868,0.00013302,0.00004588,0.00
 003120,0.00001796,-0.00002852,0.00006405,-0.00000087,0.00002023,-0.000
 00431,-0.00002233,-0.00002230,-0.00002231,0.00007325,-0.00044463,0.000
 44436,-0.00004817,0.00003642,-0.00019993,0.00002698,0.00010602,-0.0001
 1995,-0.00004071,0.00021222,-0.00007100,0.00572465,0.00559281,-0.07414
 992,-0.01911471,-0.01744006,0.00782153,0.05309369,0.02197540,-0.021585
 76,-0.02429456,-0.01070571,0.07943532\\0.00000048,-0.00000121,0.000000
 74,0.00000017,-0.00000048,0.00000034,0.00000016,-0.00000006,0.00000042
 ,0.00000036,-0.00000110,0.00000062,0.00000049,-0.00000161,0.00000061,-
 0.00000007,0.00000032,-0.00000009,0.00000004,-0.00000076,-0.00000021,0
 .00000064,-0.00000099,0.00000126,0.00000062,-0.00000084,0.00000124,0.0
 0000027,-0.00000191,0.00000019,0.00000011,-0.00000050,0.00000017,0.000
 00050,0.00000025,0.00000101,0.00000006,0.,0.00000046,0.00000040,-0.000
 00176,0.00000061,0.00000070,-0.00000201,0.00000129,0.00000022,-0.00000
 150,0.00000038,0.00000016,-0.00000165,-0.00000007,0.00000048,-0.000001
 98,0.00000074,0.00000027,-0.00000112,0.00000045,-0.00000002,0.00000039
 ,0.,-0.00000009,0.00000090,0.00000012,-0.00000022,0.00000022,-0.000000
 53,-0.00000002,0.00000058,0.00000011,0.00000062,-0.00000166,0.00000115
 ,0.00000083,-0.00000164,0.00000165,0.00000054,-0.00000110,0.00000107,0
 .00000062,-0.00000206,0.00000098,0.00000078,-0.00000284,0.00000104,0.0
 0000066,-0.00000288,0.00000089,0.00000056,-0.00000305,0.00000060,0.000
 00094,-0.00000315,0.00000149,-0.00000051,0.00000005,-0.00000143,-0.000
 00028,-0.00000033,-0.00000070,-0.00000048,0.00000044,0.,-0.00000054,0.
 00000017,-0.00000144,-0.00000085,0.00000002,-0.00000176,0.00000004,0.0
 0000019,0.00000016,0.,-0.00000080,-0.00000088,-0.00000068,0.00000054,-
 0.00000146,-0.00000072,0.00000102,-0.00000158,-0.00000078,-0.00000072,
 -0.00000190,-0.00000001,0.00000029,-0.00000092,0.00000050,0.00000089,0
 .00000088,0.00000017,-0.00000038,-0.00000056,-0.00000071,-0.00000039,-
 0.00000193,-0.00000100,0.00000032,-0.00000247,-0.00000066,0.00000007,-
 0.00000145,-0.00000053,-0.00000040,-0.00000131,-0.00000080,0.00000003,
 -0.00000214,-0.00000049,0.00000054,-0.00000133,-0.00000031,0.00000202,
 0.00000040,-0.00000004,0.00000218,0.00000060,-0.00000008,0.00000089,-0
 .00000019,-0.00000020,0.00000149,0.00000046,-0.00000004,0.00000131,0.0
 0000011,0.00000018,0.00000190,0.00000101,0.,0.00000100,0.00000017,-0.0
 0000016,0.00000055,-0.00000022,0.00000032,0.00000205,0.00000096,0.0000
 0023,0.00000237,0.00000127,0.00000006,0.00000160,0.00000063,0.00000011
 ,0.00000149,0.00000074,0.00000006,-0.00000108,-0.00000066,0.00000009,-
 0.00000135,-0.00000016,-0.00000025,-0.00000120,-0.00000095,0.,-0.00000
 099,-0.00000015,-0.00000079,-0.00000008,-0.00000201,-0.00000094,0.0000
 0043,-0.00000228,-0.00000059,0.00000005,-0.00000154,-0.00000087,-0.000
 00047,-0.00000233,-0.00000120,-0.00000020,-0.00000307,-0.00000115,-0.0
 0000045,-0.00000305,-0.00000124,-0.00000050,-0.00000307,-0.00000141,0.
 00000015,-0.00000352,-0.00000075,0.00000114,-0.00000164,-0.00000068,0.
 00000141,-0.00000133,-0.00000081,0.00000157,-0.00000155,-0.00000096,0.
 00000103,-0.00000212,0.00000026,0.00000082,0.00000103,0.00000050,0.000
 00112,0.00000157,0.00000034,0.00000048,0.00000110,0.00000013,0.0000011
 8,0.00000064,0.00000002,-0.00000042,0.00000103,0.00000041,0.00000020,0
 .00000176,0.00000066,-0.00000058,0.00000147,0.00000088,-0.00000081,0.0
 0000198,0.00000058,-0.00000079,0.00000104,0.00000062,-0.00000024,0.000
 00131,0.00000095,0.00000051,0.00000193,0.00000070,0.00000082,0.0000019
 6,0.00000062,0.00000090,0.00000202,0.00000097,0.00000026,0.00000252,-0
 .00000013,0.00000043,-0.00000019,0.00000003,-0.00000027,0.00000001,-0.
 00000017,0.00000060,-0.00000014,-0.00000046,0.00000049,-0.00000090,0.0
 0000043,0.00000253,0.00000154,0.00000057,0.00000222,0.00000219,0.00000
 031,0.00000315,0.00000172,0.00000024,0.00000274,0.00000138\\\@


 ... I FELL INTO A REVERIE ... THE ATOMS WERE GAMBOLING BEFORE MY EYES
 ... I SAW HOW TWO SMALL ONES UNITED TO FORM A PAIR;
 HOW THE LARGER ONES SEIZED TWO OF THE SMALLER ONES;
 HOW STILL LARGER ONES KEPT HOLD OF THREE OR FOUR
 SMALLER ONES ... I SAW HOW THE LARGER ONES FORMED A CHAIN ...
 THIS WAS THE ORIGIN OF THE STRUCTURE THEORY.

                                   -- C.F.KEKULE VON STRADONITZ
 Job cpu time:       4 days  6 hours 51 minutes 36.6 seconds.
 Elapsed time:       0 days  3 hours 18 minutes  0.2 seconds.
 File lengths (MBytes):  RWF=   9770 Int=      0 D2E=      0 Chk=    108 Scr=      1
 Normal termination of Gaussian 16 at Mon Jun  3 14:07:14 2019.
