 Entering Gaussian System, Link 0=g16
 Input=clay_new-glu_gluC6-DAUR-Na2_1Me2O-bisCF3-ts-b3lyp_d3bj-631gd-pcm_thf.gjf
 Output=clay_new-glu_gluC6-DAUR-Na2_1Me2O-bisCF3-ts-b3lyp_d3bj-631gd-pcm_thf.out
 Initial command:
 /home/ekwan/sw/g16/l1.exe "/scratch/users/ekwan/clay_new-glu_gluC6-DAUR-Na2_1Me2O-bisCF3-ts-b3lyp_d3bj-631gd-pcm_thf/Gau-57635.inp" -scrdir="/scratch/users/ekwan/clay_new-glu_gluC6-DAUR-Na2_1Me2O-bisCF3-ts-b3lyp_d3bj-631gd-pcm_thf/"
 Entering Link 1 = /home/ekwan/sw/g16/l1.exe PID=     57636.
  
 Copyright (c) 1988,1990,1992,1993,1995,1998,2003,2009,2016,
            Gaussian, Inc.  All Rights Reserved.
  
 This is part of the Gaussian(R) 16 program.  It is based on
 the Gaussian(R) 09 system (copyright 2009, Gaussian, Inc.),
 the Gaussian(R) 03 system (copyright 2003, Gaussian, Inc.),
 the Gaussian(R) 98 system (copyright 1998, Gaussian, Inc.),
 the Gaussian(R) 94 system (copyright 1995, Gaussian, Inc.),
 the Gaussian 92(TM) system (copyright 1992, Gaussian, Inc.),
 the Gaussian 90(TM) system (copyright 1990, Gaussian, Inc.),
 the Gaussian 88(TM) system (copyright 1988, Gaussian, Inc.),
 the Gaussian 86(TM) system (copyright 1986, Carnegie Mellon
 University), and the Gaussian 82(TM) system (copyright 1983,
 Carnegie Mellon University). Gaussian is a federally registered
 trademark of Gaussian, Inc.
  
 This software contains proprietary and confidential information,
 including trade secrets, belonging to Gaussian, Inc.
  
 This software is provided under written license and may be
 used, copied, transmitted, or stored only in accord with that
 written license.
  
 The following legend is applicable only to US Government
 contracts under FAR:
  
                    RESTRICTED RIGHTS LEGEND
  
 Use, reproduction and disclosure by the US Government is
 subject to restrictions as set forth in subparagraphs (a)
 and (c) of the Commercial Computer Software - Restricted
 Rights clause in FAR 52.227-19.
  
 Gaussian, Inc.
 340 Quinnipiac St., Bldg. 40, Wallingford CT 06492
  
  
 ---------------------------------------------------------------
 Warning -- This program may not be used in any manner that
 competes with the business of Gaussian, Inc. or will provide
 assistance to any competitor of Gaussian, Inc.  The licensee
 of this program is prohibited from giving any competitor of
 Gaussian, Inc. access to this program.  By using this program,
 the user acknowledges that Gaussian, Inc. is engaged in the
 business of creating and licensing software in the field of
 computational chemistry and represents and warrants to the
 licensee that it is not a competitor of Gaussian, Inc. and that
 it will not use this program in any manner prohibited above.
 ---------------------------------------------------------------
  

 Cite this work as:
 Gaussian 16, Revision A.03,
 M. J. Frisch, G. W. Trucks, H. B. Schlegel, G. E. Scuseria, 
 M. A. Robb, J. R. Cheeseman, G. Scalmani, V. Barone, 
 G. A. Petersson, H. Nakatsuji, X. Li, M. Caricato, A. V. Marenich, 
 J. Bloino, B. G. Janesko, R. Gomperts, B. Mennucci, H. P. Hratchian, 
 J. V. Ortiz, A. F. Izmaylov, J. L. Sonnenberg, D. Williams-Young, 
 F. Ding, F. Lipparini, F. Egidi, J. Goings, B. Peng, A. Petrone, 
 T. Henderson, D. Ranasinghe, V. G. Zakrzewski, J. Gao, N. Rega, 
 G. Zheng, W. Liang, M. Hada, M. Ehara, K. Toyota, R. Fukuda, 
 J. Hasegawa, M. Ishida, T. Nakajima, Y. Honda, O. Kitao, H. Nakai, 
 T. Vreven, K. Throssell, J. A. Montgomery, Jr., J. E. Peralta, 
 F. Ogliaro, M. J. Bearpark, J. J. Heyd, E. N. Brothers, K. N. Kudin, 
 V. N. Staroverov, T. A. Keith, R. Kobayashi, J. Normand, 
 K. Raghavachari, A. P. Rendell, J. C. Burant, S. S. Iyengar, 
 J. Tomasi, M. Cossi, J. M. Millam, M. Klene, C. Adamo, R. Cammi, 
 J. W. Ochterski, R. L. Martin, K. Morokuma, O. Farkas, 
 J. B. Foresman, and D. J. Fox, Gaussian, Inc., Wallingford CT, 2016.
 
 ******************************************
 Gaussian 16:  AS64L-G16RevA.03 25-Dec-2016
                28-May-2019 
 ******************************************
 %mem=48GB
 %nprocshared=32
 Will use up to   32 processors via shared memory.
 ----------------------------------------------------------------------
 #p opt=(ts,noeigentest,calcfc,maxstep=5,modredundant,recalc=30) freq=n
 oraman b3lyp 6-31g* pop=none scrf=(solvent=tetrahydrofuran,pcm) empiri
 caldispersion=gd3bj
 ----------------------------------------------------------------------
 1/5=1,8=5,10=4,11=1,18=120,26=3,38=1,71=30/1,3;
 2/9=110,12=2,17=6,18=5,40=1/2;
 3/5=1,6=6,7=1,11=2,25=1,30=1,70=2201,71=2,72=20,74=-5,124=41,140=1/1,2,3;
 4//1;
 5/5=2,38=5,53=20/2;
 8/6=4,10=90,11=11/1;
 11/6=1,8=1,9=11,15=111,16=1/1,2,10;
 10/6=1,13=1/2;
 7/10=1,18=20,25=1/1,2,3,16;
 1/5=1,8=5,10=4,11=1,18=20,26=3,71=30/3(2);
 2/9=110/2;
 99//99;
 2/9=110/2;
 3/5=1,6=6,7=1,11=2,25=1,30=1,70=2205,71=1,72=20,74=-5,124=41/1,2,3;
 4/5=5,16=3,69=1/1;
 5/5=2,38=5,53=20/2;
 7//1,2,3,16;
 1/5=1,8=5,11=1,18=20,26=3,71=30/3(-5);
 2/9=110/2;
 99/9=1/99;
 Leave Link    1 at Tue May 28 23:59:06 2019, MaxMem=  6442450944 cpu:               6.7 elap:               0.2
 (Enter /home/ekwan/sw/g16/l101.exe)
 -----
 title
 -----
 Symbolic Z-matrix:
 Charge =  0 Multiplicity = 1
 C                    -1.66502   3.66743  -1.03802 
 C                    -2.47759   3.16602   0.15915 
 C                    -3.41983   2.01745  -0.23382 
 C                    -2.08191   1.39905  -2.1254 
 C                    -1.0769    2.51533  -1.85195 
 H                    -3.84042   1.53686   0.65984 
 H                    -1.77779   2.75266   0.90165 
 H                    -2.32292   4.25928  -1.68832 
 H                    -2.87804   1.7738   -2.78076 
 H                    -0.25136   2.07469  -1.28839 
 O                    -2.68122   0.98776  -0.86991 
 O                    -4.45405   2.52713  -1.02429 
 O                    -3.15675   4.26811   0.73249 
 O                    -0.56329   4.4577   -0.59929 
 O                    -0.59712   3.034    -3.08787 
 C                    -1.43139   0.16771  -2.78046 
 H                    -1.29922   0.45544  -3.84686 
 H                    -2.23217  -0.61046  -2.78595 
 O                    -0.25853  -0.25393  -2.19989 
 C                    -3.76118   3.97733   1.9846 
 H                    -4.68156   3.38966   1.86581 
 H                    -3.07329   3.4256    2.64152 
 H                    -4.01344   4.93488   2.44616 
 C                    -0.81505   5.85379  -0.53212 
 H                    -1.13406   6.24353  -1.50986 
 H                    -1.58052   6.09298   0.21332 
 H                     0.12981   6.32852  -0.2536 
 C                     0.75956   2.68915  -3.34753 
 H                     1.43544   3.20069  -2.64809 
 H                     0.9107    1.60738  -3.26083 
 H                     0.98274   3.02264  -4.36532 
 C                    -1.29828  -0.37235   2.40234 
 C                    -0.43063   0.06442   1.22425 
 C                    -0.27856  -1.02585   0.21494 
 C                    -2.37205  -2.08052   0.80495 
 C                    -2.58684  -1.01799   1.89011 
 H                     0.51806  -0.97548  -0.50071 
 H                    -0.98495   0.83926   0.67694 
 H                    -0.74369  -1.09838   3.00828 
 H                    -2.1492   -3.03229   1.29106 
 H                    -3.21875  -0.22287   1.48311 
 O                    -1.22315  -1.84767  -0.07355 
 O                     1.48289  -3.26226  -0.84679 
 O                     0.81293   0.54662   1.67276 
 O                    -1.68407   0.7508    3.17655 
 O                    -3.25309  -1.67678   2.95507 
 C                    -3.54954  -2.17298  -0.18002 
 H                    -3.35715  -2.99189  -0.88664 
 H                    -3.58154  -1.2319   -0.73428 
 O                    -4.80092  -2.31697   0.45202 
 S                     1.97336  -2.97781   0.53657 
 O                     2.70416  -4.08402   1.17705 
 O                     0.88338  -2.41235   1.42012 
 C                     3.11848  -1.60301   0.34689 
 C                     3.41803  -1.11363  -0.91861 
 C                     3.65529  -1.01279   1.49116 
 C                     4.2661   -0.01056  -1.04113 
 H                     2.99346  -1.58307  -1.79606 
 C                     4.51489   0.07265   1.3516 
 H                     3.39721  -1.38813   2.47379 
 C                     4.82337   0.58217   0.08755 
 H                     5.48678   1.43316  -0.01168 
 C                     1.36491   1.59682   0.87824 
 H                     1.5986    1.25531  -0.1375 
 H                     0.68431   2.45483   0.81908 
 H                     2.285     1.89808   1.37773 
 C                    -0.83704   1.02099   4.29145 
 H                    -0.82172   0.16899   4.98467 
 H                     0.18451   1.24484   3.97069 
 H                    -1.26441   1.88894   4.79849 
 C                    -4.39563  -0.97979   3.44479 
 H                    -4.11814   0.00523   3.83447 
 H                    -5.14787  -0.87106   2.65401 
 H                    -4.80578  -1.59066   4.25233 
 C                    -5.01274  -3.59969   1.02968 
 H                    -6.06046  -3.63595   1.3366 
 H                    -4.82512  -4.39722   0.29596 
 H                    -4.37773  -3.75541   1.90903 
 C                    -5.45153   1.55617  -1.32899 
 H                    -6.27875   2.09161  -1.79857 
 H                    -5.07177   0.79219  -2.0171 
 H                    -5.80705   1.06064  -0.4145 
 Na                    0.09293  -2.43087  -2.52981 
 O                    -1.48444  -4.10051  -2.35993 
 C                    -1.33909  -5.06499  -1.32062 
 H                    -1.00731  -6.02908  -1.7287 
 H                    -0.58633  -4.67758  -0.63418 
 H                    -2.29138  -5.21022  -0.79239 
 C                    -2.44232  -4.48642  -3.33715 
 H                    -3.43479  -4.60907  -2.88246 
 H                    -2.4833   -3.68884  -4.08202 
 H                    -2.15261  -5.4283   -3.82219 
 C                     5.04723   0.77435   2.57039 
 F                     4.29465   1.86246   2.87709 
 F                     6.30814   1.21774   2.38114 
 F                     5.04878  -0.02218   3.65682 
 C                     4.49992   0.59445  -2.3972 
 F                     3.58129   1.55542  -2.66534 
 F                     4.4057   -0.32307  -3.38321 
 F                     5.71368   1.17538  -2.49042 
 
 Add virtual bond connecting atoms H37        and O19        Dist= 3.78D+00.
 Add virtual bond connecting atoms H38        and H7         Dist= 3.94D+00.
 Add virtual bond connecting atoms H41        and H6         Dist= 3.85D+00.
 Add virtual bond connecting atoms O53        and C34        Dist= 4.11D+00.
 The following ModRedundant input section has been read:
 
 ITRead=  0  0  0  0  0  0  0  0  0  0  0  0  0  0  0  0  0  0  0  0
 ITRead=  0  0  0  0  0  0  0  0  0  0  0  0  0  0  0  0  0  0  0  0
 ITRead=  0  0  0  0  0  0  0  0  0  0  0  0  0  0  0  0  0  0  0  0
 ITRead=  0  0  0  0  0  0  0  0  0  0  0  0  0  0  0  0  0  0  0  0
 ITRead=  0  0  0  0  0  0  0  0  0  0  0  0  0  0  0  0  0  0  0  0
 MicOpt= -1 -1 -1 -1 -1 -1 -1 -1 -1 -1 -1 -1 -1 -1 -1 -1 -1 -1 -1 -1
 MicOpt= -1 -1 -1 -1 -1 -1 -1 -1 -1 -1 -1 -1 -1 -1 -1 -1 -1 -1 -1 -1
 MicOpt= -1 -1 -1 -1 -1 -1 -1 -1 -1 -1 -1 -1 -1 -1 -1 -1 -1 -1 -1 -1
 MicOpt= -1 -1 -1 -1 -1 -1 -1 -1 -1 -1 -1 -1 -1 -1 -1 -1 -1 -1 -1 -1
 MicOpt= -1 -1 -1 -1 -1 -1 -1 -1 -1 -1 -1 -1 -1 -1 -1 -1 -1 -1 -1 -1
 NAtoms=    100 NQM=      100 NQMF=       0 NMMI=      0 NMMIF=      0
                NMic=       0 NMicF=      0.
                    Isotopes and Nuclear Properties:
 (Nuclear quadrupole moments (NQMom) in fm**2, nuclear magnetic moments (NMagM)
  in nuclear magnetons)

  Atom         1           2           3           4           5           6           7           8           9          10
 IAtWgt=          12          12          12          12          12           1           1           1           1           1
 AtmWgt=  12.0000000  12.0000000  12.0000000  12.0000000  12.0000000   1.0078250   1.0078250   1.0078250   1.0078250   1.0078250
 NucSpn=           0           0           0           0           0           1           1           1           1           1
 AtZEff=   0.0000000   0.0000000   0.0000000   0.0000000   0.0000000   0.0000000   0.0000000   0.0000000   0.0000000   0.0000000
 NQMom=    0.0000000   0.0000000   0.0000000   0.0000000   0.0000000   0.0000000   0.0000000   0.0000000   0.0000000   0.0000000
 NMagM=    0.0000000   0.0000000   0.0000000   0.0000000   0.0000000   2.7928460   2.7928460   2.7928460   2.7928460   2.7928460
 AtZNuc=   6.0000000   6.0000000   6.0000000   6.0000000   6.0000000   1.0000000   1.0000000   1.0000000   1.0000000   1.0000000

  Atom        11          12          13          14          15          16          17          18          19          20
 IAtWgt=          16          16          16          16          16          12           1           1          16          12
 AtmWgt=  15.9949146  15.9949146  15.9949146  15.9949146  15.9949146  12.0000000   1.0078250   1.0078250  15.9949146  12.0000000
 NucSpn=           0           0           0           0           0           0           1           1           0           0
 AtZEff=   0.0000000   0.0000000   0.0000000   0.0000000   0.0000000   0.0000000   0.0000000   0.0000000   0.0000000   0.0000000
 NQMom=    0.0000000   0.0000000   0.0000000   0.0000000   0.0000000   0.0000000   0.0000000   0.0000000   0.0000000   0.0000000
 NMagM=    0.0000000   0.0000000   0.0000000   0.0000000   0.0000000   0.0000000   2.7928460   2.7928460   0.0000000   0.0000000
 AtZNuc=   8.0000000   8.0000000   8.0000000   8.0000000   8.0000000   6.0000000   1.0000000   1.0000000   8.0000000   6.0000000

  Atom        21          22          23          24          25          26          27          28          29          30
 IAtWgt=           1           1           1          12           1           1           1          12           1           1
 AtmWgt=   1.0078250   1.0078250   1.0078250  12.0000000   1.0078250   1.0078250   1.0078250  12.0000000   1.0078250   1.0078250
 NucSpn=           1           1           1           0           1           1           1           0           1           1
 AtZEff=   0.0000000   0.0000000   0.0000000   0.0000000   0.0000000   0.0000000   0.0000000   0.0000000   0.0000000   0.0000000
 NQMom=    0.0000000   0.0000000   0.0000000   0.0000000   0.0000000   0.0000000   0.0000000   0.0000000   0.0000000   0.0000000
 NMagM=    2.7928460   2.7928460   2.7928460   0.0000000   2.7928460   2.7928460   2.7928460   0.0000000   2.7928460   2.7928460
 AtZNuc=   1.0000000   1.0000000   1.0000000   6.0000000   1.0000000   1.0000000   1.0000000   6.0000000   1.0000000   1.0000000

  Atom        31          32          33          34          35          36          37          38          39          40
 IAtWgt=           1          12          12          12          12          12           1           1           1           1
 AtmWgt=   1.0078250  12.0000000  12.0000000  12.0000000  12.0000000  12.0000000   1.0078250   1.0078250   1.0078250   1.0078250
 NucSpn=           1           0           0           0           0           0           1           1           1           1
 AtZEff=   0.0000000   0.0000000   0.0000000   0.0000000   0.0000000   0.0000000   0.0000000   0.0000000   0.0000000   0.0000000
 NQMom=    0.0000000   0.0000000   0.0000000   0.0000000   0.0000000   0.0000000   0.0000000   0.0000000   0.0000000   0.0000000
 NMagM=    2.7928460   0.0000000   0.0000000   0.0000000   0.0000000   0.0000000   2.7928460   2.7928460   2.7928460   2.7928460
 AtZNuc=   1.0000000   6.0000000   6.0000000   6.0000000   6.0000000   6.0000000   1.0000000   1.0000000   1.0000000   1.0000000

  Atom        41          42          43          44          45          46          47          48          49          50
 IAtWgt=           1          16          16          16          16          16          12           1           1          16
 AtmWgt=   1.0078250  15.9949146  15.9949146  15.9949146  15.9949146  15.9949146  12.0000000   1.0078250   1.0078250  15.9949146
 NucSpn=           1           0           0           0           0           0           0           1           1           0
 AtZEff=   0.0000000   0.0000000   0.0000000   0.0000000   0.0000000   0.0000000   0.0000000   0.0000000   0.0000000   0.0000000
 NQMom=    0.0000000   0.0000000   0.0000000   0.0000000   0.0000000   0.0000000   0.0000000   0.0000000   0.0000000   0.0000000
 NMagM=    2.7928460   0.0000000   0.0000000   0.0000000   0.0000000   0.0000000   0.0000000   2.7928460   2.7928460   0.0000000
 AtZNuc=   1.0000000   8.0000000   8.0000000   8.0000000   8.0000000   8.0000000   6.0000000   1.0000000   1.0000000   8.0000000

  Atom        51          52          53          54          55          56          57          58          59          60
 IAtWgt=          32          16          16          12          12          12          12           1          12           1
 AtmWgt=  31.9720718  15.9949146  15.9949146  12.0000000  12.0000000  12.0000000  12.0000000   1.0078250  12.0000000   1.0078250
 NucSpn=           0           0           0           0           0           0           0           1           0           1
 AtZEff=   0.0000000   0.0000000   0.0000000   0.0000000   0.0000000   0.0000000   0.0000000   0.0000000   0.0000000   0.0000000
 NQMom=    0.0000000   0.0000000   0.0000000   0.0000000   0.0000000   0.0000000   0.0000000   0.0000000   0.0000000   0.0000000
 NMagM=    0.0000000   0.0000000   0.0000000   0.0000000   0.0000000   0.0000000   0.0000000   2.7928460   0.0000000   2.7928460
 AtZNuc=  16.0000000   8.0000000   8.0000000   6.0000000   6.0000000   6.0000000   6.0000000   1.0000000   6.0000000   1.0000000

  Atom        61          62          63          64          65          66          67          68          69          70
 IAtWgt=          12           1          12           1           1           1          12           1           1           1
 AtmWgt=  12.0000000   1.0078250  12.0000000   1.0078250   1.0078250   1.0078250  12.0000000   1.0078250   1.0078250   1.0078250
 NucSpn=           0           1           0           1           1           1           0           1           1           1
 AtZEff=   0.0000000   0.0000000   0.0000000   0.0000000   0.0000000   0.0000000   0.0000000   0.0000000   0.0000000   0.0000000
 NQMom=    0.0000000   0.0000000   0.0000000   0.0000000   0.0000000   0.0000000   0.0000000   0.0000000   0.0000000   0.0000000
 NMagM=    0.0000000   2.7928460   0.0000000   2.7928460   2.7928460   2.7928460   0.0000000   2.7928460   2.7928460   2.7928460
 AtZNuc=   6.0000000   1.0000000   6.0000000   1.0000000   1.0000000   1.0000000   6.0000000   1.0000000   1.0000000   1.0000000

  Atom        71          72          73          74          75          76          77          78          79          80
 IAtWgt=          12           1           1           1          12           1           1           1          12           1
 AtmWgt=  12.0000000   1.0078250   1.0078250   1.0078250  12.0000000   1.0078250   1.0078250   1.0078250  12.0000000   1.0078250
 NucSpn=           0           1           1           1           0           1           1           1           0           1
 AtZEff=   0.0000000   0.0000000   0.0000000   0.0000000   0.0000000   0.0000000   0.0000000   0.0000000   0.0000000   0.0000000
 NQMom=    0.0000000   0.0000000   0.0000000   0.0000000   0.0000000   0.0000000   0.0000000   0.0000000   0.0000000   0.0000000
 NMagM=    0.0000000   2.7928460   2.7928460   2.7928460   0.0000000   2.7928460   2.7928460   2.7928460   0.0000000   2.7928460
 AtZNuc=   6.0000000   1.0000000   1.0000000   1.0000000   6.0000000   1.0000000   1.0000000   1.0000000   6.0000000   1.0000000

  Atom        81          82          83          84          85          86          87          88          89          90
 IAtWgt=           1           1          23          16          12           1           1           1          12           1
 AtmWgt=   1.0078250   1.0078250  22.9897697  15.9949146  12.0000000   1.0078250   1.0078250   1.0078250  12.0000000   1.0078250
 NucSpn=           1           1           3           0           0           1           1           1           0           1
 AtZEff=   0.0000000   0.0000000   0.0000000   0.0000000   0.0000000   0.0000000   0.0000000   0.0000000   0.0000000   0.0000000
 NQMom=    0.0000000   0.0000000  10.4000000   0.0000000   0.0000000   0.0000000   0.0000000   0.0000000   0.0000000   0.0000000
 NMagM=    2.7928460   2.7928460   2.2175200   0.0000000   0.0000000   2.7928460   2.7928460   2.7928460   0.0000000   2.7928460
 AtZNuc=   1.0000000   1.0000000  11.0000000   8.0000000   6.0000000   1.0000000   1.0000000   1.0000000   6.0000000   1.0000000

  Atom        91          92          93          94          95          96          97          98          99         100
 IAtWgt=           1           1          12          19          19          19          12          19          19          19
 AtmWgt=   1.0078250   1.0078250  12.0000000  18.9984033  18.9984033  18.9984033  12.0000000  18.9984033  18.9984033  18.9984033
 NucSpn=           1           1           0           1           1           1           0           1           1           1
 AtZEff=   0.0000000   0.0000000   0.0000000   0.0000000   0.0000000   0.0000000   0.0000000   0.0000000   0.0000000   0.0000000
 NQMom=    0.0000000   0.0000000   0.0000000   0.0000000   0.0000000   0.0000000   0.0000000   0.0000000   0.0000000   0.0000000
 NMagM=    2.7928460   2.7928460   0.0000000   2.6288670   2.6288670   2.6288670   0.0000000   2.6288670   2.6288670   2.6288670
 AtZNuc=   1.0000000   1.0000000   6.0000000   9.0000000   9.0000000   9.0000000   6.0000000   9.0000000   9.0000000   9.0000000
 Leave Link  101 at Tue May 28 23:59:07 2019, MaxMem=  6442450944 cpu:              17.7 elap:               0.7
 (Enter /home/ekwan/sw/g16/l103.exe)

 GradGradGradGradGradGradGradGradGradGradGradGradGradGradGradGradGradGrad
 Berny optimization.
 Initialization pass.
                           ----------------------------
                           !    Initial Parameters    !
                           ! (Angstroms and Degrees)  !
 --------------------------                            --------------------------
 ! Name  Definition              Value          Derivative Info.                !
 --------------------------------------------------------------------------------
 ! R1    R(1,2)                  1.5313         calculate D2E/DX2 analytically  !
 ! R2    R(1,5)                  1.5283         calculate D2E/DX2 analytically  !
 ! R3    R(1,8)                  1.0982         calculate D2E/DX2 analytically  !
 ! R4    R(1,14)                 1.4251         calculate D2E/DX2 analytically  !
 ! R5    R(2,3)                  1.5367         calculate D2E/DX2 analytically  !
 ! R6    R(2,7)                  1.1009         calculate D2E/DX2 analytically  !
 ! R7    R(2,13)                 1.4158         calculate D2E/DX2 analytically  !
 ! R8    R(3,6)                  1.0984         calculate D2E/DX2 analytically  !
 ! R9    R(3,11)                 1.4179         calculate D2E/DX2 analytically  !
 ! R10   R(3,12)                 1.3979         calculate D2E/DX2 analytically  !
 ! R11   R(4,5)                  1.5267         calculate D2E/DX2 analytically  !
 ! R12   R(4,9)                  1.0972         calculate D2E/DX2 analytically  !
 ! R13   R(4,11)                 1.4507         calculate D2E/DX2 analytically  !
 ! R14   R(4,16)                 1.539          calculate D2E/DX2 analytically  !
 ! R15   R(5,10)                 1.0924         calculate D2E/DX2 analytically  !
 ! R16   R(5,15)                 1.4236         calculate D2E/DX2 analytically  !
 ! R17   R(6,41)                 2.0398         calculate D2E/DX2 analytically  !
 ! R18   R(7,38)                 2.0833         calculate D2E/DX2 analytically  !
 ! R19   R(12,79)                1.425          calculate D2E/DX2 analytically  !
 ! R20   R(13,20)                1.4204         calculate D2E/DX2 analytically  !
 ! R21   R(14,24)                1.4202         calculate D2E/DX2 analytically  !
 ! R22   R(15,28)                1.4237         calculate D2E/DX2 analytically  !
 ! R23   R(16,17)                1.1124         calculate D2E/DX2 analytically  !
 ! R24   R(16,18)                1.1166         calculate D2E/DX2 analytically  !
 ! R25   R(16,19)                1.3749         calculate D2E/DX2 analytically  !
 ! R26   R(19,37)                2.0027         calculate D2E/DX2 analytically  !
 ! R27   R(19,83)                2.2297         calculate D2E/DX2 analytically  !
 ! R28   R(20,21)                1.0984         calculate D2E/DX2 analytically  !
 ! R29   R(20,22)                1.0996         calculate D2E/DX2 analytically  !
 ! R30   R(20,23)                1.0925         calculate D2E/DX2 analytically  !
 ! R31   R(24,25)                1.0998         calculate D2E/DX2 analytically  !
 ! R32   R(24,26)                1.0949         calculate D2E/DX2 analytically  !
 ! R33   R(24,27)                1.0935         calculate D2E/DX2 analytically  !
 ! R34   R(28,29)                1.099          calculate D2E/DX2 analytically  !
 ! R35   R(28,30)                1.0957         calculate D2E/DX2 analytically  !
 ! R36   R(28,31)                1.094          calculate D2E/DX2 analytically  !
 ! R37   R(32,33)                1.5269         calculate D2E/DX2 analytically  !
 ! R38   R(32,36)                1.5296         calculate D2E/DX2 analytically  !
 ! R39   R(32,39)                1.0963         calculate D2E/DX2 analytically  !
 ! R40   R(32,45)                1.4176         calculate D2E/DX2 analytically  !
 ! R41   R(33,34)                1.4935         calculate D2E/DX2 analytically  !
 ! R42   R(33,38)                1.0987         calculate D2E/DX2 analytically  !
 ! R43   R(33,44)                1.4072         calculate D2E/DX2 analytically  !
 ! R44   R(34,37)                1.0721         calculate D2E/DX2 analytically  !
 ! R45   R(34,42)                1.2849         calculate D2E/DX2 analytically  !
 ! R46   R(34,53)                2.1737         calculate D2E/DX2 analytically  !
 ! R47   R(35,36)                1.5338         calculate D2E/DX2 analytically  !
 ! R48   R(35,40)                1.0917         calculate D2E/DX2 analytically  !
 ! R49   R(35,42)                1.4649         calculate D2E/DX2 analytically  !
 ! R50   R(35,47)                1.5379         calculate D2E/DX2 analytically  !
 ! R51   R(36,41)                1.0942         calculate D2E/DX2 analytically  !
 ! R52   R(36,46)                1.4185         calculate D2E/DX2 analytically  !
 ! R53   R(43,51)                1.495          calculate D2E/DX2 analytically  !
 ! R54   R(44,63)                1.4279         calculate D2E/DX2 analytically  !
 ! R55   R(45,67)                1.426          calculate D2E/DX2 analytically  !
 ! R56   R(46,71)                1.4251         calculate D2E/DX2 analytically  !
 ! R57   R(47,48)                1.0986         calculate D2E/DX2 analytically  !
 ! R58   R(47,49)                1.0926         calculate D2E/DX2 analytically  !
 ! R59   R(47,50)                1.4093         calculate D2E/DX2 analytically  !
 ! R60   R(50,75)                1.4226         calculate D2E/DX2 analytically  !
 ! R61   R(51,52)                1.4724         calculate D2E/DX2 analytically  !
 ! R62   R(51,53)                1.5128         calculate D2E/DX2 analytically  !
 ! R63   R(51,54)                1.7993         calculate D2E/DX2 analytically  !
 ! R64   R(54,55)                1.3895         calculate D2E/DX2 analytically  !
 ! R65   R(54,56)                1.395          calculate D2E/DX2 analytically  !
 ! R66   R(55,57)                1.3968         calculate D2E/DX2 analytically  !
 ! R67   R(55,58)                1.0819         calculate D2E/DX2 analytically  !
 ! R68   R(56,59)                1.3916         calculate D2E/DX2 analytically  !
 ! R69   R(56,60)                1.0831         calculate D2E/DX2 analytically  !
 ! R70   R(57,61)                1.3913         calculate D2E/DX2 analytically  !
 ! R71   R(57,97)                1.5032         calculate D2E/DX2 analytically  !
 ! R72   R(59,61)                1.3974         calculate D2E/DX2 analytically  !
 ! R73   R(59,93)                1.5037         calculate D2E/DX2 analytically  !
 ! R74   R(61,62)                1.0836         calculate D2E/DX2 analytically  !
 ! R75   R(63,64)                1.0968         calculate D2E/DX2 analytically  !
 ! R76   R(63,65)                1.0968         calculate D2E/DX2 analytically  !
 ! R77   R(63,66)                1.0894         calculate D2E/DX2 analytically  !
 ! R78   R(67,68)                1.0985         calculate D2E/DX2 analytically  !
 ! R79   R(67,69)                1.0939         calculate D2E/DX2 analytically  !
 ! R80   R(67,70)                1.0923         calculate D2E/DX2 analytically  !
 ! R81   R(71,72)                1.095          calculate D2E/DX2 analytically  !
 ! R82   R(71,73)                1.0968         calculate D2E/DX2 analytically  !
 ! R83   R(71,74)                1.0925         calculate D2E/DX2 analytically  !
 ! R84   R(75,76)                1.0923         calculate D2E/DX2 analytically  !
 ! R85   R(75,77)                1.0998         calculate D2E/DX2 analytically  !
 ! R86   R(75,78)                1.0958         calculate D2E/DX2 analytically  !
 ! R87   R(79,80)                1.0916         calculate D2E/DX2 analytically  !
 ! R88   R(79,81)                1.0961         calculate D2E/DX2 analytically  !
 ! R89   R(79,82)                1.0992         calculate D2E/DX2 analytically  !
 ! R90   R(83,84)                2.3032         calculate D2E/DX2 analytically  !
 ! R91   R(84,85)                1.4253         calculate D2E/DX2 analytically  !
 ! R92   R(84,89)                1.4218         calculate D2E/DX2 analytically  !
 ! R93   R(85,86)                1.0982         calculate D2E/DX2 analytically  !
 ! R94   R(85,87)                1.0899         calculate D2E/DX2 analytically  !
 ! R95   R(85,88)                1.0986         calculate D2E/DX2 analytically  !
 ! R96   R(89,90)                1.0985         calculate D2E/DX2 analytically  !
 ! R97   R(89,91)                1.0921         calculate D2E/DX2 analytically  !
 ! R98   R(89,92)                1.0983         calculate D2E/DX2 analytically  !
 ! R99   R(93,94)                1.3581         calculate D2E/DX2 analytically  !
 ! R100  R(93,95)                1.3499         calculate D2E/DX2 analytically  !
 ! R101  R(93,96)                1.3471         calculate D2E/DX2 analytically  !
 ! R102  R(97,98)                1.3562         calculate D2E/DX2 analytically  !
 ! R103  R(97,99)                1.3502         calculate D2E/DX2 analytically  !
 ! R104  R(97,100)               1.3488         calculate D2E/DX2 analytically  !
 ! A1    A(2,1,5)              111.9453         calculate D2E/DX2 analytically  !
 ! A2    A(2,1,8)              108.7545         calculate D2E/DX2 analytically  !
 ! A3    A(2,1,14)             110.5567         calculate D2E/DX2 analytically  !
 ! A4    A(5,1,8)              108.7506         calculate D2E/DX2 analytically  !
 ! A5    A(5,1,14)             106.5292         calculate D2E/DX2 analytically  !
 ! A6    A(8,1,14)             110.279          calculate D2E/DX2 analytically  !
 ! A7    A(1,2,3)              111.7269         calculate D2E/DX2 analytically  !
 ! A8    A(1,2,7)              108.2359         calculate D2E/DX2 analytically  !
 ! A9    A(1,2,13)             108.4364         calculate D2E/DX2 analytically  !
 ! A10   A(3,2,7)              106.3559         calculate D2E/DX2 analytically  !
 ! A11   A(3,2,13)             113.0311         calculate D2E/DX2 analytically  !
 ! A12   A(7,2,13)             108.9097         calculate D2E/DX2 analytically  !
 ! A13   A(2,3,6)              110.7172         calculate D2E/DX2 analytically  !
 ! A14   A(2,3,11)             109.7613         calculate D2E/DX2 analytically  !
 ! A15   A(2,3,12)             109.0092         calculate D2E/DX2 analytically  !
 ! A16   A(6,3,11)             104.283          calculate D2E/DX2 analytically  !
 ! A17   A(6,3,12)             109.6512         calculate D2E/DX2 analytically  !
 ! A18   A(11,3,12)            113.3589         calculate D2E/DX2 analytically  !
 ! A19   A(5,4,9)              109.5677         calculate D2E/DX2 analytically  !
 ! A20   A(5,4,11)             108.9188         calculate D2E/DX2 analytically  !
 ! A21   A(5,4,16)             112.5189         calculate D2E/DX2 analytically  !
 ! A22   A(9,4,11)             108.301          calculate D2E/DX2 analytically  !
 ! A23   A(9,4,16)             109.0112         calculate D2E/DX2 analytically  !
 ! A24   A(11,4,16)            108.4297         calculate D2E/DX2 analytically  !
 ! A25   A(1,5,4)              113.1572         calculate D2E/DX2 analytically  !
 ! A26   A(1,5,10)             108.6717         calculate D2E/DX2 analytically  !
 ! A27   A(1,5,15)             108.5052         calculate D2E/DX2 analytically  !
 ! A28   A(4,5,10)             107.1545         calculate D2E/DX2 analytically  !
 ! A29   A(4,5,15)             109.4351         calculate D2E/DX2 analytically  !
 ! A30   A(10,5,15)            109.8861         calculate D2E/DX2 analytically  !
 ! A31   A(3,6,41)             126.095          calculate D2E/DX2 analytically  !
 ! A32   A(2,7,38)             120.9328         calculate D2E/DX2 analytically  !
 ! A33   A(3,11,4)             113.4251         calculate D2E/DX2 analytically  !
 ! A34   A(3,12,79)            112.9764         calculate D2E/DX2 analytically  !
 ! A35   A(2,13,20)            113.6867         calculate D2E/DX2 analytically  !
 ! A36   A(1,14,24)            115.0017         calculate D2E/DX2 analytically  !
 ! A37   A(5,15,28)            113.0318         calculate D2E/DX2 analytically  !
 ! A38   A(4,16,17)            104.555          calculate D2E/DX2 analytically  !
 ! A39   A(4,16,18)            104.8655         calculate D2E/DX2 analytically  !
 ! A40   A(4,16,19)            115.2268         calculate D2E/DX2 analytically  !
 ! A41   A(17,16,18)           105.1144         calculate D2E/DX2 analytically  !
 ! A42   A(17,16,19)           112.5044         calculate D2E/DX2 analytically  !
 ! A43   A(18,16,19)           113.5852         calculate D2E/DX2 analytically  !
 ! A44   A(16,19,37)           143.0837         calculate D2E/DX2 analytically  !
 ! A45   A(16,19,83)           111.8015         calculate D2E/DX2 analytically  !
 ! A46   A(37,19,83)            73.3012         calculate D2E/DX2 analytically  !
 ! A47   A(13,20,21)           111.7613         calculate D2E/DX2 analytically  !
 ! A48   A(13,20,22)           111.2929         calculate D2E/DX2 analytically  !
 ! A49   A(13,20,23)           106.9326         calculate D2E/DX2 analytically  !
 ! A50   A(21,20,22)           108.683          calculate D2E/DX2 analytically  !
 ! A51   A(21,20,23)           108.7312         calculate D2E/DX2 analytically  !
 ! A52   A(22,20,23)           109.379          calculate D2E/DX2 analytically  !
 ! A53   A(14,24,25)           110.9604         calculate D2E/DX2 analytically  !
 ! A54   A(14,24,26)           111.7695         calculate D2E/DX2 analytically  !
 ! A55   A(14,24,27)           106.5975         calculate D2E/DX2 analytically  !
 ! A56   A(25,24,26)           108.9689         calculate D2E/DX2 analytically  !
 ! A57   A(25,24,27)           108.8577         calculate D2E/DX2 analytically  !
 ! A58   A(26,24,27)           109.6233         calculate D2E/DX2 analytically  !
 ! A59   A(15,28,29)           110.9308         calculate D2E/DX2 analytically  !
 ! A60   A(15,28,30)           110.8644         calculate D2E/DX2 analytically  !
 ! A61   A(15,28,31)           106.872          calculate D2E/DX2 analytically  !
 ! A62   A(29,28,30)           108.9266         calculate D2E/DX2 analytically  !
 ! A63   A(29,28,31)           108.9501         calculate D2E/DX2 analytically  !
 ! A64   A(30,28,31)           110.2683         calculate D2E/DX2 analytically  !
 ! A65   A(33,32,36)           109.9418         calculate D2E/DX2 analytically  !
 ! A66   A(33,32,39)           109.1731         calculate D2E/DX2 analytically  !
 ! A67   A(33,32,45)           110.4496         calculate D2E/DX2 analytically  !
 ! A68   A(36,32,39)           109.373          calculate D2E/DX2 analytically  !
 ! A69   A(36,32,45)           106.7413         calculate D2E/DX2 analytically  !
 ! A70   A(39,32,45)           111.1306         calculate D2E/DX2 analytically  !
 ! A71   A(32,33,34)           111.7438         calculate D2E/DX2 analytically  !
 ! A72   A(32,33,38)           107.4195         calculate D2E/DX2 analytically  !
 ! A73   A(32,33,44)           110.7485         calculate D2E/DX2 analytically  !
 ! A74   A(34,33,38)           103.2708         calculate D2E/DX2 analytically  !
 ! A75   A(34,33,44)           112.0604         calculate D2E/DX2 analytically  !
 ! A76   A(38,33,44)           111.2825         calculate D2E/DX2 analytically  !
 ! A77   A(33,34,37)           119.5044         calculate D2E/DX2 analytically  !
 ! A78   A(33,34,42)           122.9436         calculate D2E/DX2 analytically  !
 ! A79   A(33,34,53)            98.3591         calculate D2E/DX2 analytically  !
 ! A80   A(37,34,42)           115.2432         calculate D2E/DX2 analytically  !
 ! A81   A(37,34,53)            90.165          calculate D2E/DX2 analytically  !
 ! A82   A(42,34,53)            96.2858         calculate D2E/DX2 analytically  !
 ! A83   A(36,35,40)           108.5114         calculate D2E/DX2 analytically  !
 ! A84   A(36,35,42)           115.0869         calculate D2E/DX2 analytically  !
 ! A85   A(36,35,47)           112.8016         calculate D2E/DX2 analytically  !
 ! A86   A(40,35,42)           104.212          calculate D2E/DX2 analytically  !
 ! A87   A(40,35,47)           112.8953         calculate D2E/DX2 analytically  !
 ! A88   A(42,35,47)           103.0587         calculate D2E/DX2 analytically  !
 ! A89   A(32,36,35)           114.2897         calculate D2E/DX2 analytically  !
 ! A90   A(32,36,41)           107.719          calculate D2E/DX2 analytically  !
 ! A91   A(32,36,46)           109.8956         calculate D2E/DX2 analytically  !
 ! A92   A(35,36,41)           108.7299         calculate D2E/DX2 analytically  !
 ! A93   A(35,36,46)           105.9744         calculate D2E/DX2 analytically  !
 ! A94   A(41,36,46)           110.214          calculate D2E/DX2 analytically  !
 ! A95   A(19,37,34)           107.1672         calculate D2E/DX2 analytically  !
 ! A96   A(7,38,33)            141.8111         calculate D2E/DX2 analytically  !
 ! A97   A(6,41,36)            162.3745         calculate D2E/DX2 analytically  !
 ! A98   A(34,42,35)           122.9289         calculate D2E/DX2 analytically  !
 ! A99   A(33,44,63)           114.6015         calculate D2E/DX2 analytically  !
 ! A100  A(32,45,67)           114.5477         calculate D2E/DX2 analytically  !
 ! A101  A(36,46,71)           114.0416         calculate D2E/DX2 analytically  !
 ! A102  A(35,47,48)           108.8249         calculate D2E/DX2 analytically  !
 ! A103  A(35,47,49)           107.1889         calculate D2E/DX2 analytically  !
 ! A104  A(35,47,50)           113.5003         calculate D2E/DX2 analytically  !
 ! A105  A(48,47,49)           108.7156         calculate D2E/DX2 analytically  !
 ! A106  A(48,47,50)           111.5797         calculate D2E/DX2 analytically  !
 ! A107  A(49,47,50)           106.8271         calculate D2E/DX2 analytically  !
 ! A108  A(47,50,75)           113.9807         calculate D2E/DX2 analytically  !
 ! A109  A(43,51,52)           114.9851         calculate D2E/DX2 analytically  !
 ! A110  A(43,51,53)           112.0351         calculate D2E/DX2 analytically  !
 ! A111  A(43,51,54)           104.8698         calculate D2E/DX2 analytically  !
 ! A112  A(52,51,53)           112.6055         calculate D2E/DX2 analytically  !
 ! A113  A(52,51,54)           107.6994         calculate D2E/DX2 analytically  !
 ! A114  A(53,51,54)           103.5638         calculate D2E/DX2 analytically  !
 ! A115  A(34,53,51)           107.4425         calculate D2E/DX2 analytically  !
 ! A116  A(51,54,55)           120.1541         calculate D2E/DX2 analytically  !
 ! A117  A(51,54,56)           118.799          calculate D2E/DX2 analytically  !
 ! A118  A(55,54,56)           121.0048         calculate D2E/DX2 analytically  !
 ! A119  A(54,55,57)           119.2696         calculate D2E/DX2 analytically  !
 ! A120  A(54,55,58)           120.0809         calculate D2E/DX2 analytically  !
 ! A121  A(57,55,58)           120.6491         calculate D2E/DX2 analytically  !
 ! A122  A(54,56,59)           119.043          calculate D2E/DX2 analytically  !
 ! A123  A(54,56,60)           120.3906         calculate D2E/DX2 analytically  !
 ! A124  A(59,56,60)           120.5629         calculate D2E/DX2 analytically  !
 ! A125  A(55,57,61)           120.5619         calculate D2E/DX2 analytically  !
 ! A126  A(55,57,97)           119.4341         calculate D2E/DX2 analytically  !
 ! A127  A(61,57,97)           119.8708         calculate D2E/DX2 analytically  !
 ! A128  A(56,59,61)           120.7635         calculate D2E/DX2 analytically  !
 ! A129  A(56,59,93)           120.0904         calculate D2E/DX2 analytically  !
 ! A130  A(61,59,93)           119.0048         calculate D2E/DX2 analytically  !
 ! A131  A(57,61,59)           119.3452         calculate D2E/DX2 analytically  !
 ! A132  A(57,61,62)           120.3652         calculate D2E/DX2 analytically  !
 ! A133  A(59,61,62)           120.2891         calculate D2E/DX2 analytically  !
 ! A134  A(44,63,64)           111.6328         calculate D2E/DX2 analytically  !
 ! A135  A(44,63,65)           111.4386         calculate D2E/DX2 analytically  !
 ! A136  A(44,63,66)           105.9476         calculate D2E/DX2 analytically  !
 ! A137  A(64,63,65)           109.017          calculate D2E/DX2 analytically  !
 ! A138  A(64,63,66)           109.3152         calculate D2E/DX2 analytically  !
 ! A139  A(65,63,66)           109.4212         calculate D2E/DX2 analytically  !
 ! A140  A(45,67,68)           110.7761         calculate D2E/DX2 analytically  !
 ! A141  A(45,67,69)           111.3604         calculate D2E/DX2 analytically  !
 ! A142  A(45,67,70)           106.3245         calculate D2E/DX2 analytically  !
 ! A143  A(68,67,69)           109.3146         calculate D2E/DX2 analytically  !
 ! A144  A(68,67,70)           109.1976         calculate D2E/DX2 analytically  !
 ! A145  A(69,67,70)           109.81           calculate D2E/DX2 analytically  !
 ! A146  A(46,71,72)           111.0425         calculate D2E/DX2 analytically  !
 ! A147  A(46,71,73)           110.5221         calculate D2E/DX2 analytically  !
 ! A148  A(46,71,74)           106.3505         calculate D2E/DX2 analytically  !
 ! A149  A(72,71,73)           109.95           calculate D2E/DX2 analytically  !
 ! A150  A(72,71,74)           109.5768         calculate D2E/DX2 analytically  !
 ! A151  A(73,71,74)           109.3219         calculate D2E/DX2 analytically  !
 ! A152  A(50,75,76)           106.6681         calculate D2E/DX2 analytically  !
 ! A153  A(50,75,77)           110.9491         calculate D2E/DX2 analytically  !
 ! A154  A(50,75,78)           111.5736         calculate D2E/DX2 analytically  !
 ! A155  A(76,75,77)           109.0863         calculate D2E/DX2 analytically  !
 ! A156  A(76,75,78)           109.0042         calculate D2E/DX2 analytically  !
 ! A157  A(77,75,78)           109.4781         calculate D2E/DX2 analytically  !
 ! A158  A(12,79,80)           106.7522         calculate D2E/DX2 analytically  !
 ! A159  A(12,79,81)           111.5093         calculate D2E/DX2 analytically  !
 ! A160  A(12,79,82)           110.8353         calculate D2E/DX2 analytically  !
 ! A161  A(80,79,81)           109.5367         calculate D2E/DX2 analytically  !
 ! A162  A(80,79,82)           109.5066         calculate D2E/DX2 analytically  !
 ! A163  A(81,79,82)           108.6711         calculate D2E/DX2 analytically  !
 ! A164  A(19,83,84)           126.0801         calculate D2E/DX2 analytically  !
 ! A165  A(83,84,85)           118.3262         calculate D2E/DX2 analytically  !
 ! A166  A(83,84,89)           127.4077         calculate D2E/DX2 analytically  !
 ! A167  A(85,84,89)           112.7193         calculate D2E/DX2 analytically  !
 ! A168  A(84,85,86)           110.7256         calculate D2E/DX2 analytically  !
 ! A169  A(84,85,87)           106.8065         calculate D2E/DX2 analytically  !
 ! A170  A(84,85,88)           110.5887         calculate D2E/DX2 analytically  !
 ! A171  A(86,85,87)           109.7193         calculate D2E/DX2 analytically  !
 ! A172  A(86,85,88)           108.9347         calculate D2E/DX2 analytically  !
 ! A173  A(87,85,88)           110.0491         calculate D2E/DX2 analytically  !
 ! A174  A(84,89,90)           110.7623         calculate D2E/DX2 analytically  !
 ! A175  A(84,89,91)           107.2085         calculate D2E/DX2 analytically  !
 ! A176  A(84,89,92)           111.0136         calculate D2E/DX2 analytically  !
 ! A177  A(90,89,91)           109.2656         calculate D2E/DX2 analytically  !
 ! A178  A(90,89,92)           108.9865         calculate D2E/DX2 analytically  !
 ! A179  A(91,89,92)           109.5719         calculate D2E/DX2 analytically  !
 ! A180  A(59,93,94)           111.145          calculate D2E/DX2 analytically  !
 ! A181  A(59,93,95)           111.7351         calculate D2E/DX2 analytically  !
 ! A182  A(59,93,96)           112.2191         calculate D2E/DX2 analytically  !
 ! A183  A(94,93,95)           106.6247         calculate D2E/DX2 analytically  !
 ! A184  A(94,93,96)           106.9921         calculate D2E/DX2 analytically  !
 ! A185  A(95,93,96)           107.83           calculate D2E/DX2 analytically  !
 ! A186  A(57,97,98)           110.989          calculate D2E/DX2 analytically  !
 ! A187  A(57,97,99)           111.9899         calculate D2E/DX2 analytically  !
 ! A188  A(57,97,100)          112.0653         calculate D2E/DX2 analytically  !
 ! A189  A(98,97,99)           106.8496         calculate D2E/DX2 analytically  !
 ! A190  A(98,97,100)          106.8992         calculate D2E/DX2 analytically  !
 ! A191  A(99,97,100)          107.7584         calculate D2E/DX2 analytically  !
 ! D1    D(5,1,2,3)            -45.6779         calculate D2E/DX2 analytically  !
 ! D2    D(5,1,2,7)             71.0955         calculate D2E/DX2 analytically  !
 ! D3    D(5,1,2,13)          -170.902          calculate D2E/DX2 analytically  !
 ! D4    D(8,1,2,3)             74.5075         calculate D2E/DX2 analytically  !
 ! D5    D(8,1,2,7)           -168.7191         calculate D2E/DX2 analytically  !
 ! D6    D(8,1,2,13)           -50.7166         calculate D2E/DX2 analytically  !
 ! D7    D(14,1,2,3)          -164.2776         calculate D2E/DX2 analytically  !
 ! D8    D(14,1,2,7)           -47.5042         calculate D2E/DX2 analytically  !
 ! D9    D(14,1,2,13)           70.4983         calculate D2E/DX2 analytically  !
 ! D10   D(2,1,5,4)             45.6958         calculate D2E/DX2 analytically  !
 ! D11   D(2,1,5,10)           -73.196          calculate D2E/DX2 analytically  !
 ! D12   D(2,1,5,15)           167.3496         calculate D2E/DX2 analytically  !
 ! D13   D(8,1,5,4)            -74.4919         calculate D2E/DX2 analytically  !
 ! D14   D(8,1,5,10)           166.6163         calculate D2E/DX2 analytically  !
 ! D15   D(8,1,5,15)            47.1619         calculate D2E/DX2 analytically  !
 ! D16   D(14,1,5,4)           166.6569         calculate D2E/DX2 analytically  !
 ! D17   D(14,1,5,10)           47.7651         calculate D2E/DX2 analytically  !
 ! D18   D(14,1,5,15)          -71.6893         calculate D2E/DX2 analytically  !
 ! D19   D(2,1,14,24)          -92.8664         calculate D2E/DX2 analytically  !
 ! D20   D(5,1,14,24)          145.2879         calculate D2E/DX2 analytically  !
 ! D21   D(8,1,14,24)           27.4406         calculate D2E/DX2 analytically  !
 ! D22   D(1,2,3,6)            168.5395         calculate D2E/DX2 analytically  !
 ! D23   D(1,2,3,11)            53.9479         calculate D2E/DX2 analytically  !
 ! D24   D(1,2,3,12)           -70.7582         calculate D2E/DX2 analytically  !
 ! D25   D(7,2,3,6)             50.6338         calculate D2E/DX2 analytically  !
 ! D26   D(7,2,3,11)           -63.9579         calculate D2E/DX2 analytically  !
 ! D27   D(7,2,3,12)           171.336          calculate D2E/DX2 analytically  !
 ! D28   D(13,2,3,6)           -68.8227         calculate D2E/DX2 analytically  !
 ! D29   D(13,2,3,11)          176.5857         calculate D2E/DX2 analytically  !
 ! D30   D(13,2,3,12)           51.8796         calculate D2E/DX2 analytically  !
 ! D31   D(1,2,7,38)           -79.6481         calculate D2E/DX2 analytically  !
 ! D32   D(3,2,7,38)            40.5434         calculate D2E/DX2 analytically  !
 ! D33   D(13,2,7,38)          162.6522         calculate D2E/DX2 analytically  !
 ! D34   D(1,2,13,20)         -169.7626         calculate D2E/DX2 analytically  !
 ! D35   D(3,2,13,20)           65.7848         calculate D2E/DX2 analytically  !
 ! D36   D(7,2,13,20)          -52.1898         calculate D2E/DX2 analytically  !
 ! D37   D(2,3,6,41)          -101.1618         calculate D2E/DX2 analytically  !
 ! D38   D(11,3,6,41)           16.8265         calculate D2E/DX2 analytically  !
 ! D39   D(12,3,6,41)          138.5181         calculate D2E/DX2 analytically  !
 ! D40   D(2,3,11,4)           -64.0177         calculate D2E/DX2 analytically  !
 ! D41   D(6,3,11,4)           177.3398         calculate D2E/DX2 analytically  !
 ! D42   D(12,3,11,4)           58.1338         calculate D2E/DX2 analytically  !
 ! D43   D(2,3,12,79)         -174.2156         calculate D2E/DX2 analytically  !
 ! D44   D(6,3,12,79)          -52.8619         calculate D2E/DX2 analytically  !
 ! D45   D(11,3,12,79)          63.2152         calculate D2E/DX2 analytically  !
 ! D46   D(9,4,5,1)             66.1491         calculate D2E/DX2 analytically  !
 ! D47   D(9,4,5,10)          -174.0862         calculate D2E/DX2 analytically  !
 ! D48   D(9,4,5,15)           -54.9809         calculate D2E/DX2 analytically  !
 ! D49   D(11,4,5,1)           -52.1526         calculate D2E/DX2 analytically  !
 ! D50   D(11,4,5,10)           67.6122         calculate D2E/DX2 analytically  !
 ! D51   D(11,4,5,15)         -173.2825         calculate D2E/DX2 analytically  !
 ! D52   D(16,4,5,1)          -172.4096         calculate D2E/DX2 analytically  !
 ! D53   D(16,4,5,10)          -52.6448         calculate D2E/DX2 analytically  !
 ! D54   D(16,4,5,15)           66.4605         calculate D2E/DX2 analytically  !
 ! D55   D(5,4,11,3)            62.7593         calculate D2E/DX2 analytically  !
 ! D56   D(9,4,11,3)           -56.3361         calculate D2E/DX2 analytically  !
 ! D57   D(16,4,11,3)         -174.4917         calculate D2E/DX2 analytically  !
 ! D58   D(5,4,16,17)          -77.6081         calculate D2E/DX2 analytically  !
 ! D59   D(5,4,16,18)          172.049          calculate D2E/DX2 analytically  !
 ! D60   D(5,4,16,19)           46.4106         calculate D2E/DX2 analytically  !
 ! D61   D(9,4,16,17)           44.1499         calculate D2E/DX2 analytically  !
 ! D62   D(9,4,16,18)          -66.1931         calculate D2E/DX2 analytically  !
 ! D63   D(9,4,16,19)          168.1685         calculate D2E/DX2 analytically  !
 ! D64   D(11,4,16,17)         161.8532         calculate D2E/DX2 analytically  !
 ! D65   D(11,4,16,18)          51.5102         calculate D2E/DX2 analytically  !
 ! D66   D(11,4,16,19)         -74.1282         calculate D2E/DX2 analytically  !
 ! D67   D(1,5,15,28)          126.7579         calculate D2E/DX2 analytically  !
 ! D68   D(4,5,15,28)         -109.3348         calculate D2E/DX2 analytically  !
 ! D69   D(10,5,15,28)           8.0676         calculate D2E/DX2 analytically  !
 ! D70   D(3,6,41,36)           48.5368         calculate D2E/DX2 analytically  !
 ! D71   D(2,7,38,33)         -167.3594         calculate D2E/DX2 analytically  !
 ! D72   D(3,12,79,80)         170.7977         calculate D2E/DX2 analytically  !
 ! D73   D(3,12,79,81)         -69.5985         calculate D2E/DX2 analytically  !
 ! D74   D(3,12,79,82)          51.6102         calculate D2E/DX2 analytically  !
 ! D75   D(2,13,20,21)         -75.8959         calculate D2E/DX2 analytically  !
 ! D76   D(2,13,20,22)          45.8237         calculate D2E/DX2 analytically  !
 ! D77   D(2,13,20,23)         165.2246         calculate D2E/DX2 analytically  !
 ! D78   D(1,14,24,25)         -57.67           calculate D2E/DX2 analytically  !
 ! D79   D(1,14,24,26)          64.1869         calculate D2E/DX2 analytically  !
 ! D80   D(1,14,24,27)        -176.0522         calculate D2E/DX2 analytically  !
 ! D81   D(5,15,28,29)         -68.4704         calculate D2E/DX2 analytically  !
 ! D82   D(5,15,28,30)          52.6892         calculate D2E/DX2 analytically  !
 ! D83   D(5,15,28,31)         172.8881         calculate D2E/DX2 analytically  !
 ! D84   D(4,16,19,37)          62.6405         calculate D2E/DX2 analytically  !
 ! D85   D(4,16,19,83)         153.626          calculate D2E/DX2 analytically  !
 ! D86   D(17,16,19,37)       -177.6307         calculate D2E/DX2 analytically  !
 ! D87   D(17,16,19,83)        -86.6452         calculate D2E/DX2 analytically  !
 ! D88   D(18,16,19,37)        -58.3662         calculate D2E/DX2 analytically  !
 ! D89   D(18,16,19,83)         32.6193         calculate D2E/DX2 analytically  !
 ! D90   D(16,19,37,34)         -1.9144         calculate D2E/DX2 analytically  !
 ! D91   D(83,19,37,34)       -106.1688         calculate D2E/DX2 analytically  !
 ! D92   D(16,19,83,84)        -42.9245         calculate D2E/DX2 analytically  !
 ! D93   D(37,19,83,84)         98.2463         calculate D2E/DX2 analytically  !
 ! D94   D(36,32,33,34)        -48.8094         calculate D2E/DX2 analytically  !
 ! D95   D(36,32,33,38)         63.7818         calculate D2E/DX2 analytically  !
 ! D96   D(36,32,33,44)       -174.5057         calculate D2E/DX2 analytically  !
 ! D97   D(39,32,33,34)         71.1745         calculate D2E/DX2 analytically  !
 ! D98   D(39,32,33,38)       -176.2344         calculate D2E/DX2 analytically  !
 ! D99   D(39,32,33,44)        -54.5219         calculate D2E/DX2 analytically  !
 ! D100  D(45,32,33,34)       -166.3465         calculate D2E/DX2 analytically  !
 ! D101  D(45,32,33,38)        -53.7553         calculate D2E/DX2 analytically  !
 ! D102  D(45,32,33,44)         67.9572         calculate D2E/DX2 analytically  !
 ! D103  D(33,32,36,35)         48.5155         calculate D2E/DX2 analytically  !
 ! D104  D(33,32,36,41)        -72.4172         calculate D2E/DX2 analytically  !
 ! D105  D(33,32,36,46)        167.4907         calculate D2E/DX2 analytically  !
 ! D106  D(39,32,36,35)        -71.3469         calculate D2E/DX2 analytically  !
 ! D107  D(39,32,36,41)        167.7204         calculate D2E/DX2 analytically  !
 ! D108  D(39,32,36,46)         47.6283         calculate D2E/DX2 analytically  !
 ! D109  D(45,32,36,35)        168.334          calculate D2E/DX2 analytically  !
 ! D110  D(45,32,36,41)         47.4013         calculate D2E/DX2 analytically  !
 ! D111  D(45,32,36,46)        -72.6908         calculate D2E/DX2 analytically  !
 ! D112  D(33,32,45,67)        -94.4646         calculate D2E/DX2 analytically  !
 ! D113  D(36,32,45,67)        146.0449         calculate D2E/DX2 analytically  !
 ! D114  D(39,32,45,67)         26.8605         calculate D2E/DX2 analytically  !
 ! D115  D(32,33,34,37)       -161.8765         calculate D2E/DX2 analytically  !
 ! D116  D(32,33,34,42)         36.2108         calculate D2E/DX2 analytically  !
 ! D117  D(32,33,34,53)        -66.9146         calculate D2E/DX2 analytically  !
 ! D118  D(38,33,34,37)         82.9598         calculate D2E/DX2 analytically  !
 ! D119  D(38,33,34,42)        -78.9528         calculate D2E/DX2 analytically  !
 ! D120  D(38,33,34,53)        177.9217         calculate D2E/DX2 analytically  !
 ! D121  D(44,33,34,37)        -36.9055         calculate D2E/DX2 analytically  !
 ! D122  D(44,33,34,42)        161.1818         calculate D2E/DX2 analytically  !
 ! D123  D(44,33,34,53)         58.0564         calculate D2E/DX2 analytically  !
 ! D124  D(32,33,38,7)          62.5362         calculate D2E/DX2 analytically  !
 ! D125  D(34,33,38,7)        -179.2401         calculate D2E/DX2 analytically  !
 ! D126  D(44,33,38,7)         -58.8422         calculate D2E/DX2 analytically  !
 ! D127  D(32,33,44,63)       -146.8506         calculate D2E/DX2 analytically  !
 ! D128  D(34,33,44,63)         87.6308         calculate D2E/DX2 analytically  !
 ! D129  D(38,33,44,63)        -27.436          calculate D2E/DX2 analytically  !
 ! D130  D(33,34,37,19)        -98.6817         calculate D2E/DX2 analytically  !
 ! D131  D(42,34,37,19)         64.5769         calculate D2E/DX2 analytically  !
 ! D132  D(53,34,37,19)        161.6078         calculate D2E/DX2 analytically  !
 ! D133  D(33,34,42,35)        -19.3209         calculate D2E/DX2 analytically  !
 ! D134  D(37,34,42,35)        178.0605         calculate D2E/DX2 analytically  !
 ! D135  D(53,34,42,35)         84.8998         calculate D2E/DX2 analytically  !
 ! D136  D(33,34,53,51)       -137.632          calculate D2E/DX2 analytically  !
 ! D137  D(37,34,53,51)        -17.7508         calculate D2E/DX2 analytically  !
 ! D138  D(42,34,53,51)         97.6762         calculate D2E/DX2 analytically  !
 ! D139  D(40,35,36,32)         84.4443         calculate D2E/DX2 analytically  !
 ! D140  D(40,35,36,41)       -155.1847         calculate D2E/DX2 analytically  !
 ! D141  D(40,35,36,46)        -36.7234         calculate D2E/DX2 analytically  !
 ! D142  D(42,35,36,32)        -31.8269         calculate D2E/DX2 analytically  !
 ! D143  D(42,35,36,41)         88.5442         calculate D2E/DX2 analytically  !
 ! D144  D(42,35,36,46)       -152.9946         calculate D2E/DX2 analytically  !
 ! D145  D(47,35,36,32)       -149.6955         calculate D2E/DX2 analytically  !
 ! D146  D(47,35,36,41)        -29.3244         calculate D2E/DX2 analytically  !
 ! D147  D(47,35,36,46)         89.1368         calculate D2E/DX2 analytically  !
 ! D148  D(36,35,42,34)         16.3413         calculate D2E/DX2 analytically  !
 ! D149  D(40,35,42,34)       -102.357          calculate D2E/DX2 analytically  !
 ! D150  D(47,35,42,34)        139.5614         calculate D2E/DX2 analytically  !
 ! D151  D(36,35,47,48)       -176.4636         calculate D2E/DX2 analytically  !
 ! D152  D(36,35,47,49)         66.1293         calculate D2E/DX2 analytically  !
 ! D153  D(36,35,47,50)        -51.5765         calculate D2E/DX2 analytically  !
 ! D154  D(40,35,47,48)        -53.0003         calculate D2E/DX2 analytically  !
 ! D155  D(40,35,47,49)       -170.4075         calculate D2E/DX2 analytically  !
 ! D156  D(40,35,47,50)         71.8868         calculate D2E/DX2 analytically  !
 ! D157  D(42,35,47,48)         58.8102         calculate D2E/DX2 analytically  !
 ! D158  D(42,35,47,49)        -58.597          calculate D2E/DX2 analytically  !
 ! D159  D(42,35,47,50)       -176.3027         calculate D2E/DX2 analytically  !
 ! D160  D(32,36,41,6)          24.5748         calculate D2E/DX2 analytically  !
 ! D161  D(35,36,41,6)         -99.7801         calculate D2E/DX2 analytically  !
 ! D162  D(46,36,41,6)         144.4655         calculate D2E/DX2 analytically  !
 ! D163  D(32,36,46,71)        104.5146         calculate D2E/DX2 analytically  !
 ! D164  D(35,36,46,71)       -131.5241         calculate D2E/DX2 analytically  !
 ! D165  D(41,36,46,71)        -14.0512         calculate D2E/DX2 analytically  !
 ! D166  D(33,44,63,64)        -64.259          calculate D2E/DX2 analytically  !
 ! D167  D(33,44,63,65)         57.9038         calculate D2E/DX2 analytically  !
 ! D168  D(33,44,63,66)        176.8334         calculate D2E/DX2 analytically  !
 ! D169  D(32,45,67,68)        -60.3287         calculate D2E/DX2 analytically  !
 ! D170  D(32,45,67,69)         61.5572         calculate D2E/DX2 analytically  !
 ! D171  D(32,45,67,70)       -178.8567         calculate D2E/DX2 analytically  !
 ! D172  D(36,46,71,72)        -60.794          calculate D2E/DX2 analytically  !
 ! D173  D(36,46,71,73)         61.5066         calculate D2E/DX2 analytically  !
 ! D174  D(36,46,71,74)       -179.9382         calculate D2E/DX2 analytically  !
 ! D175  D(35,47,50,75)        -72.36           calculate D2E/DX2 analytically  !
 ! D176  D(48,47,50,75)         51.0319         calculate D2E/DX2 analytically  !
 ! D177  D(49,47,50,75)        169.7245         calculate D2E/DX2 analytically  !
 ! D178  D(47,50,75,76)       -170.9865         calculate D2E/DX2 analytically  !
 ! D179  D(47,50,75,77)        -52.2932         calculate D2E/DX2 analytically  !
 ! D180  D(47,50,75,78)         70.0725         calculate D2E/DX2 analytically  !
 ! D181  D(43,51,53,34)        -39.7932         calculate D2E/DX2 analytically  !
 ! D182  D(52,51,53,34)       -171.2542         calculate D2E/DX2 analytically  !
 ! D183  D(54,51,53,34)         72.6913         calculate D2E/DX2 analytically  !
 ! D184  D(43,51,54,55)         -3.7851         calculate D2E/DX2 analytically  !
 ! D185  D(43,51,54,56)        173.8799         calculate D2E/DX2 analytically  !
 ! D186  D(52,51,54,55)        119.1347         calculate D2E/DX2 analytically  !
 ! D187  D(52,51,54,56)        -63.2003         calculate D2E/DX2 analytically  !
 ! D188  D(53,51,54,55)       -121.3898         calculate D2E/DX2 analytically  !
 ! D189  D(53,51,54,56)         56.2752         calculate D2E/DX2 analytically  !
 ! D190  D(51,54,55,57)        177.3698         calculate D2E/DX2 analytically  !
 ! D191  D(51,54,55,58)         -2.3991         calculate D2E/DX2 analytically  !
 ! D192  D(56,54,55,57)         -0.2429         calculate D2E/DX2 analytically  !
 ! D193  D(56,54,55,58)        179.9883         calculate D2E/DX2 analytically  !
 ! D194  D(51,54,56,59)       -178.3803         calculate D2E/DX2 analytically  !
 ! D195  D(51,54,56,60)          0.9506         calculate D2E/DX2 analytically  !
 ! D196  D(55,54,56,59)         -0.7359         calculate D2E/DX2 analytically  !
 ! D197  D(55,54,56,60)        178.5949         calculate D2E/DX2 analytically  !
 ! D198  D(54,55,57,61)          0.9784         calculate D2E/DX2 analytically  !
 ! D199  D(54,55,57,97)       -174.8229         calculate D2E/DX2 analytically  !
 ! D200  D(58,55,57,61)       -179.2541         calculate D2E/DX2 analytically  !
 ! D201  D(58,55,57,97)          4.9446         calculate D2E/DX2 analytically  !
 ! D202  D(54,56,59,61)          0.9995         calculate D2E/DX2 analytically  !
 ! D203  D(54,56,59,93)        176.6371         calculate D2E/DX2 analytically  !
 ! D204  D(60,56,59,61)       -178.3301         calculate D2E/DX2 analytically  !
 ! D205  D(60,56,59,93)         -2.6926         calculate D2E/DX2 analytically  !
 ! D206  D(55,57,61,59)         -0.7196         calculate D2E/DX2 analytically  !
 ! D207  D(55,57,61,62)        179.5397         calculate D2E/DX2 analytically  !
 ! D208  D(97,57,61,59)        175.0634         calculate D2E/DX2 analytically  !
 ! D209  D(97,57,61,62)         -4.6773         calculate D2E/DX2 analytically  !
 ! D210  D(55,57,97,98)         89.2695         calculate D2E/DX2 analytically  !
 ! D211  D(55,57,97,99)        -30.054          calculate D2E/DX2 analytically  !
 ! D212  D(55,57,97,100)      -151.2937         calculate D2E/DX2 analytically  !
 ! D213  D(61,57,97,98)        -86.5612         calculate D2E/DX2 analytically  !
 ! D214  D(61,57,97,99)        154.1153         calculate D2E/DX2 analytically  !
 ! D215  D(61,57,97,100)        32.8755         calculate D2E/DX2 analytically  !
 ! D216  D(56,59,61,57)         -0.281          calculate D2E/DX2 analytically  !
 ! D217  D(56,59,61,62)        179.4599         calculate D2E/DX2 analytically  !
 ! D218  D(93,59,61,57)       -175.9653         calculate D2E/DX2 analytically  !
 ! D219  D(93,59,61,62)          3.7757         calculate D2E/DX2 analytically  !
 ! D220  D(56,59,93,94)        -95.6274         calculate D2E/DX2 analytically  !
 ! D221  D(56,59,93,95)        145.398          calculate D2E/DX2 analytically  !
 ! D222  D(56,59,93,96)         24.1386         calculate D2E/DX2 analytically  !
 ! D223  D(61,59,93,94)         80.0866         calculate D2E/DX2 analytically  !
 ! D224  D(61,59,93,95)        -38.888          calculate D2E/DX2 analytically  !
 ! D225  D(61,59,93,96)       -160.1474         calculate D2E/DX2 analytically  !
 ! D226  D(19,83,84,85)       -114.0051         calculate D2E/DX2 analytically  !
 ! D227  D(19,83,84,89)         81.2878         calculate D2E/DX2 analytically  !
 ! D228  D(83,84,85,86)       -106.5242         calculate D2E/DX2 analytically  !
 ! D229  D(83,84,85,87)         12.8914         calculate D2E/DX2 analytically  !
 ! D230  D(83,84,85,88)        132.6284         calculate D2E/DX2 analytically  !
 ! D231  D(89,84,85,86)         60.3475         calculate D2E/DX2 analytically  !
 ! D232  D(89,84,85,87)        179.7632         calculate D2E/DX2 analytically  !
 ! D233  D(89,84,85,88)        -60.4998         calculate D2E/DX2 analytically  !
 ! D234  D(83,84,89,90)       -133.8821         calculate D2E/DX2 analytically  !
 ! D235  D(83,84,89,91)        -14.7506         calculate D2E/DX2 analytically  !
 ! D236  D(83,84,89,92)        104.8956         calculate D2E/DX2 analytically  !
 ! D237  D(85,84,89,90)         60.6961         calculate D2E/DX2 analytically  !
 ! D238  D(85,84,89,91)        179.8276         calculate D2E/DX2 analytically  !
 ! D239  D(85,84,89,92)        -60.5261         calculate D2E/DX2 analytically  !
 --------------------------------------------------------------------------------
 Trust Radius=5.00D-02 FncErr=1.00D-07 GrdErr=1.00D-06 EigMax=2.50D+02 EigMin=1.00D-04
 Number of steps in this run=    544 maximum allowed number of steps=    600.
 Search for a saddle point of order  1.
 Step   0 in ReCalcFC=30 IGetFC= 4 compute analytic Hessian.
 GradGradGradGradGradGradGradGradGradGradGradGradGradGradGradGradGradGrad

 Leave Link  103 at Tue May 28 23:59:07 2019, MaxMem=  6442450944 cpu:               4.3 elap:               0.2
 (Enter /home/ekwan/sw/g16/l202.exe)
 Stoichiometry    C30H47F6NaO15S
 Framework group  C1[X(C30H47F6NaO15S)]
 Deg. of freedom   294
 Full point group                 C1      NOp   1
 Largest Abelian subgroup         C1      NOp   1
 Largest concise Abelian subgroup C1      NOp   1
                         Standard orientation:                         
 ---------------------------------------------------------------------
 Center     Atomic      Atomic             Coordinates (Angstroms)
 Number     Number       Type             X           Y           Z
 ---------------------------------------------------------------------
      1          6           0       -1.665015    3.667425   -1.038022
      2          6           0       -2.477591    3.166015    0.159145
      3          6           0       -3.419830    2.017450   -0.233821
      4          6           0       -2.081907    1.399054   -2.125400
      5          6           0       -1.076904    2.515326   -1.851948
      6          1           0       -3.840418    1.536857    0.659839
      7          1           0       -1.777791    2.752655    0.901651
      8          1           0       -2.322919    4.259280   -1.688317
      9          1           0       -2.878037    1.773796   -2.780758
     10          1           0       -0.251363    2.074685   -1.288385
     11          8           0       -2.681218    0.987756   -0.869909
     12          8           0       -4.454054    2.527130   -1.024294
     13          8           0       -3.156746    4.268106    0.732491
     14          8           0       -0.563286    4.457696   -0.599288
     15          8           0       -0.597116    3.033998   -3.087868
     16          6           0       -1.431390    0.167710   -2.780455
     17          1           0       -1.299220    0.455437   -3.846855
     18          1           0       -2.232168   -0.610458   -2.785947
     19          8           0       -0.258530   -0.253933   -2.199885
     20          6           0       -3.761177    3.977331    1.984596
     21          1           0       -4.681557    3.389662    1.865810
     22          1           0       -3.073294    3.425603    2.641524
     23          1           0       -4.013439    4.934879    2.446158
     24          6           0       -0.815048    5.853790   -0.532124
     25          1           0       -1.134055    6.243528   -1.509859
     26          1           0       -1.580516    6.092975    0.213319
     27          1           0        0.129811    6.328524   -0.253599
     28          6           0        0.759556    2.689146   -3.347532
     29          1           0        1.435442    3.200686   -2.648094
     30          1           0        0.910701    1.607377   -3.260833
     31          1           0        0.982738    3.022637   -4.365322
     32          6           0       -1.298281   -0.372346    2.402336
     33          6           0       -0.430626    0.064417    1.224246
     34          6           0       -0.278562   -1.025853    0.214937
     35          6           0       -2.372050   -2.080517    0.804951
     36          6           0       -2.586843   -1.017989    1.890112
     37          1           0        0.518058   -0.975477   -0.500714
     38          1           0       -0.984951    0.839264    0.676941
     39          1           0       -0.743687   -1.098381    3.008283
     40          1           0       -2.149201   -3.032289    1.291058
     41          1           0       -3.218747   -0.222865    1.483105
     42          8           0       -1.223154   -1.847670   -0.073551
     43          8           0        1.482890   -3.262263   -0.846794
     44          8           0        0.812926    0.546615    1.672764
     45          8           0       -1.684071    0.750798    3.176552
     46          8           0       -3.253090   -1.676784    2.955073
     47          6           0       -3.549538   -2.172983   -0.180019
     48          1           0       -3.357149   -2.991885   -0.886637
     49          1           0       -3.581543   -1.231901   -0.734275
     50          8           0       -4.800921   -2.316974    0.452020
     51         16           0        1.973356   -2.977813    0.536566
     52          8           0        2.704163   -4.084017    1.177049
     53          8           0        0.883375   -2.412353    1.420117
     54          6           0        3.118475   -1.603012    0.346887
     55          6           0        3.418025   -1.113634   -0.918608
     56          6           0        3.655291   -1.012790    1.491163
     57          6           0        4.266097   -0.010562   -1.041128
     58          1           0        2.993455   -1.583071   -1.796062
     59          6           0        4.514885    0.072653    1.351602
     60          1           0        3.397213   -1.388130    2.473786
     61          6           0        4.823374    0.582170    0.087546
     62          1           0        5.486777    1.433159   -0.011683
     63          6           0        1.364913    1.596823    0.878241
     64          1           0        1.598599    1.255308   -0.137500
     65          1           0        0.684309    2.454828    0.819078
     66          1           0        2.285005    1.898077    1.377728
     67          6           0       -0.837035    1.020985    4.291450
     68          1           0       -0.821718    0.168987    4.984673
     69          1           0        0.184514    1.244843    3.970686
     70          1           0       -1.264410    1.888936    4.798488
     71          6           0       -4.395632   -0.979786    3.444789
     72          1           0       -4.118143    0.005225    3.834474
     73          1           0       -5.147871   -0.871064    2.654006
     74          1           0       -4.805780   -1.590661    4.252326
     75          6           0       -5.012740   -3.599686    1.029680
     76          1           0       -6.060457   -3.635949    1.336598
     77          1           0       -4.825119   -4.397221    0.295958
     78          1           0       -4.377726   -3.755409    1.909028
     79          6           0       -5.451528    1.556174   -1.328994
     80          1           0       -6.278754    2.091611   -1.798565
     81          1           0       -5.071771    0.792186   -2.017100
     82          1           0       -5.807054    1.060643   -0.414500
     83         11           0        0.092929   -2.430870   -2.529811
     84          8           0       -1.484435   -4.100510   -2.359934
     85          6           0       -1.339091   -5.064994   -1.320622
     86          1           0       -1.007311   -6.029079   -1.728699
     87          1           0       -0.586330   -4.677577   -0.634182
     88          1           0       -2.291384   -5.210217   -0.792385
     89          6           0       -2.442317   -4.486418   -3.337150
     90          1           0       -3.434789   -4.609068   -2.882457
     91          1           0       -2.483299   -3.688839   -4.082017
     92          1           0       -2.152608   -5.428304   -3.822191
     93          6           0        5.047234    0.774349    2.570387
     94          9           0        4.294648    1.862462    2.877088
     95          9           0        6.308144    1.217744    2.381136
     96          9           0        5.048785   -0.022179    3.656818
     97          6           0        4.499923    0.594452   -2.397198
     98          9           0        3.581289    1.555419   -2.665339
     99          9           0        4.405698   -0.323066   -3.383213
    100          9           0        5.713678    1.175378   -2.490418
 ---------------------------------------------------------------------
 Rotational constants (GHZ):           0.0590047           0.0424485           0.0375806
 Leave Link  202 at Tue May 28 23:59:07 2019, MaxMem=  6442450944 cpu:               4.0 elap:               0.2
 (Enter /home/ekwan/sw/g16/l301.exe)
 Standard basis: 6-31G(d) (6D, 7F)
 Ernie: Thresh=  0.10000D-02 Tol=  0.10000D-05 Strict=F.
 There are   897 symmetry adapted cartesian basis functions of A   symmetry.
 There are   897 symmetry adapted basis functions of A   symmetry.
   897 basis functions,  1720 primitive gaussians,   897 cartesian basis functions
   214 alpha electrons      214 beta electrons
       nuclear repulsion energy      9707.9773508909 Hartrees.
 IExCor=  402 DFT=T Ex+Corr=B3LYP ExCW=0 ScaHFX=  0.200000
 ScaDFX=  0.800000  0.720000  1.000000  0.810000 ScalE2=  1.000000  1.000000
 IRadAn=      5 IRanWt=     -1 IRanGd=            0 ICorTp=0 IEmpDi=141
 NAtoms=  100 NActive=  100 NUniq=  100 SFac= 1.00D+00 NAtFMM=   60 NAOKFM=T Big=T
 Integral buffers will be    131072 words long.
 Raffenetti 2 integral format.
 Two-electron integral symmetry is turned on.
 R6Disp:  Grimme-D3(BJ) Dispersion energy=       -0.2359283690 Hartrees.
 Nuclear repulsion after empirical dispersion term =     9707.7414225219 Hartrees.
 Force inversion solution in PCM.
 ------------------------------------------------------------------------------
 Polarizable Continuum Model (PCM)
 =================================
 Model                : PCM.
 Atomic radii         : UFF (Universal Force Field).
 Polarization charges : Total charges.
 Charge compensation  : None.
 Solution method      : Matrix inversion.
 Cavity type          : Scaled VdW (van der Waals Surface) (Alpha=1.100).
 Cavity algorithm     : GePol (No added spheres)
                        Default sphere list used, NSphG=  100.
                        Lebedev-Laikov grids with approx.  5.0 points / Ang**2.
                        Smoothing algorithm: York/Karplus (Gamma=1.0000).
                        Polarization charges: spherical gaussians, with
                                              point-specific exponents (IZeta= 3).
                        Self-potential: point-specific (ISelfS= 7).
                        Self-field    : sphere-specific E.n sum rule (ISelfD= 2).
 1st derivatives      : Analytical E(r).r(x)/FMM algorithm (CHGder, D1EAlg=3).
                        Cavity 1st derivative terms included.
 2nd derivatives      : Analytical E(r).r(xy)/FMM algorithm (CHGder, D2EAlg=3).
                        Cavity 2nd derivative terms included.
 Solvent              : TetraHydroFuran, Eps=   7.425700 Eps(inf)=   1.974025
 ------------------------------------------------------------------------------
 GePol: Number of generator spheres                  =     100
 GePol: Total number of spheres                      =     100
 GePol: Number of exposed spheres                    =      99 ( 99.00%)
 GePol: Number of points                             =    6012
 GePol: Average weight of points                     =       0.13
 GePol: Minimum weight of points                     =   0.32D-11
 GePol: Maximum weight of points                     =    0.21593
 GePol: Number of points with low weight             =     391
 GePol: Fraction of low-weight points (<1% of avg)   =       6.50%
 GePol: Cavity surface area                          =    757.668 Ang**2
 GePol: Cavity volume                                =    974.359 Ang**3
 Leave Link  301 at Tue May 28 23:59:08 2019, MaxMem=  6442450944 cpu:               6.8 elap:               0.3
 (Enter /home/ekwan/sw/g16/l302.exe)
 NPDir=0 NMtPBC=     1 NCelOv=     1 NCel=       1 NClECP=     1 NCelD=      1
         NCelK=      1 NCelE2=     1 NClLst=     1 CellRange=     0.0.
 One-electron integrals computed using PRISM.
 One-electron integral symmetry used in STVInt
 NBasis=   897 RedAO= T EigKep=  4.00D-04  NBF=   897
 NBsUse=   897 1.00D-06 EigRej= -1.00D+00 NBFU=   897
 Precomputing XC quadrature grid using
 IXCGrd= 4 IRadAn=           5 IRanWt=          -1 IRanGd=           0 AccXCQ= 0.00D+00.
 Generated NRdTot=       0 NPtTot=           0 NUsed=           0 NTot=          32
 NSgBfM=   837   829   837   837   837 MxSgAt=   100 MxSgA2=   100.
 Leave Link  302 at Tue May 28 23:59:24 2019, MaxMem=  6442450944 cpu:             471.6 elap:              16.4
 (Enter /home/ekwan/sw/g16/l303.exe)
 DipDrv:  MaxL=1.
 Leave Link  303 at Tue May 28 23:59:24 2019, MaxMem=  6442450944 cpu:              12.1 elap:               0.5
 (Enter /home/ekwan/sw/g16/l401.exe)
 ExpMin= 2.60D-02 ExpMax= 2.19D+04 ExpMxC= 3.30D+03 IAcc=3 IRadAn=         5 AccDes= 0.00D+00
 Harris functional with IExCor=  402 and IRadAn=       5 diagonalized for initial guess.
 HarFok:  IExCor=  402 AccDes= 0.00D+00 IRadAn=         5 IDoV= 1 UseB2=F ITyADJ=14
 ICtDFT=  3500011 ScaDFX=  1.000000  1.000000  1.000000  1.000000
 FoFCou: FMM=F IPFlag=           0 FMFlag=      100000 FMFlg1=        2001
         NFxFlg=           0 DoJE=T BraDBF=F KetDBF=T FulRan=T
         wScrn=  0.000000 ICntrl=       500 IOpCl=  0 I1Cent=   200000004 NGrid=           0
[...]
 .00111257,-0.00042163,-0.00300754,-0.00225674,0.00158680,0.00026898,0.
 00029781,0.00042053,-0.00092199,0.00356387,-0.00330404,0.00118259,0.00
 095181,0.00137324,-0.00007172,-0.00061133,0.00044102,0.00010668,0.0000
 6111,0.00007939,0.00006139,0.00099980,-0.00080612,0.00012979,0.0002154
 6,0.00047800,-0.00008486,-0.00004850,0.00020429,-0.00009333,-0.0000974
 6,0.00001951,0.00001062,-0.00000423,-0.00002294,0.00000938,0.00000343,
 0.00003129,-0.00001438,-0.00001002,0.00000510,0.00000328,0.00000591,-0
 .00000375,0.00000696,0.00000013,0.00000537,-0.00000045,0.,0.00000134,-
 0.00000389,-0.00000113,0.00000076,-0.00000027,0.00000148,0.00000215,0.
 00000115,-0.00000147,-0.00000021,0.00000127,0.00000039,-0.00000167,-0.
 00000064,-0.00001037,-0.00000264,-0.00000050,0.00000062,-0.00000016,0.
 00000061,0.00000284,0.00000262,0.00000018,-0.00000112,-0.00000052,-0.0
 0002180,-0.00002314,-0.00000664,0.00000378,0.00000024,0.00000128,-0.00
 000063,0.00000384,0.00000201,0.00000228,0.00000352,-0.00000208,0.00028
 943,0.00000741,-0.00015529,-0.00004445,-0.00000044,0.00002827,0.000008
 80,0.00000349,-0.00002561,0.00000529,0.00000729,0.00000252,0.00000947,
 -0.00000299,-0.00000607,-0.00001254,-0.00000216,0.00000610,0.00002696,
 0.00000137,0.00000272,-0.00001189,-0.00000174,0.00000582,0.00000356,-0
 .00000025,-0.00000360,0.00000226,0.00000731,-0.00000036,0.00011141,-0.
 00013073,0.00009855,-0.00001212,0.00004172,-0.00000483,0.00000703,0.00
 004838,-0.00004783,-0.00004603,0.00008321,-0.00014326,-0.00558636,-0.1
 3773935,-0.09128369,0.02738326,-0.05824145,-0.03405719,0.01480733,0.22
 285945,-0.00003576,-0.00000468,-0.00002565,-0.00005122,0.00004872,-0.0
 0002452,-0.00009156,0.00002382,-0.00002666,0.00000041,-0.00001460,-0.0
 0005912,-0.00007610,0.00003238,-0.00004538,-0.00000196,0.00000046,0.00
 000480,0.00000901,-0.00000631,0.00002806,0.00001146,-0.00001429,0.0000
 0835,0.00002098,-0.00000196,0.00001544,0.00000617,-0.00001614,-0.00000
 281,0.00006697,-0.00001465,0.00007030,0.00007710,0.00000250,0.00004369
 ,0.00005280,-0.00003132,-0.00001098,0.00004558,-0.00005280,0.00003444,
 0.00011583,-0.00000948,0.00013112,-0.00014022,0.00003649,-0.00004939,0
 .00007394,-0.00006038,0.00007547,0.00003842,0.00001202,0.00000469,0.00
 008753,0.00003617,0.00043967,-0.00002752,-0.00000011,0.00001005,0.0000
 0753,0.00000565,-0.00000028,0.00000439,-0.00000246,0.00000501,0.000000
 71,-0.00000315,-0.00000408,-0.00001982,0.00005504,-0.00001021,0.000008
 67,-0.00001157,0.00001408,0.00000491,-0.00000628,-0.00000336,0.0000024
 9,0.00000750,0.00000063,-0.00011327,-0.00006906,-0.00021546,0.00000476
 ,0.00019075,0.00009152,-0.00005667,-0.00009575,-0.00008343,0.00002042,
 -0.00005203,0.00006230,-0.00005194,0.00004799,0.00012059,-0.00031364,-
 0.00010201,-0.00008688,-0.00060117,0.00032619,-0.00051457,-0.00014456,
 -0.00004571,0.00008442,-0.00006911,-0.00002367,0.00000263,-0.00008834,
 -0.00003100,-0.00008502,0.00000711,0.00000196,0.00000267,-0.00000712,-
 0.00001059,0.00001790,0.00000916,-0.00000333,-0.00000904,0.00001183,0.
 00000002,-0.00000297,0.00036087,0.00008067,0.00012004,0.00076995,0.000
 75890,0.00069375,0.00051953,-0.00001862,-0.00008958,0.00006466,-0.0000
 5072,-0.00007272,0.00011882,0.00001662,-0.00007053,-0.00006805,-0.0000
 2132,-0.00005252,0.00001059,0.00001424,0.00000320,-0.00000075,-0.00000
 246,-0.00000423,0.00007072,0.00003760,0.00000847,-0.00211700,-0.002635
 54,0.00012036,0.00024019,0.00106598,-0.00028592,0.00126142,0.00021140,
 -0.00029774,-0.00036353,0.00053703,-0.00043672,-0.00140863,-0.00157937
 ,-0.00079018,-0.00000031,0.00000667,-0.00066775,-0.00445641,-0.0338926
 6,-0.04034302,0.00139224,0.00064091,-0.00154285,-0.00208714,-0.0004114
 9,-0.00219262,0.00011681,-0.00001500,0.00001216,0.00566074,0.00546762,
 -0.00443714,0.00032066,-0.00032555,0.00061137,-0.00012154,-0.00003654,
 0.00017558,-0.00018078,0.00002695,-0.00013946,0.00013559,-0.00002423,-
 0.00007616,-0.00004068,0.00015264,0.00011677,-0.00001971,-0.00000477,0
 .00004291,-0.00000383,0.00000884,-0.00000772,0.00000931,0.00002053,0.0
 0001378,0.00000916,-0.00000992,-0.00001117,-0.00006405,0.00003251,0.00
 001874,0.00000128,-0.00000423,0.00000123,0.00001098,-0.00000581,0.0000
 0404,0.00000923,-0.00000023,-0.00000898,-0.00001242,-0.00003915,-0.000
 00425,0.00000658,0.00000369,-0.00000234,-0.00000325,0.00000861,0.00000
 514,-0.00000121,-0.00000109,0.00000450,-0.00002739,-0.00002798,-0.0000
 1427,0.00000815,-0.00000095,0.00000171,-0.00000151,0.00000751,0.000000
 07,0.00000097,0.00000439,0.00000189,0.00007071,0.00004821,-0.00047101,
 0.00001155,0.00001492,0.00011024,-0.00001304,0.00000068,-0.00008423,0.
 00001035,0.00001212,0.00001438,-0.00001542,-0.00003300,0.00002129,0.00
 000299,-0.00000457,0.00001580,-0.00001667,-0.00000478,-0.00005786,-0.0
 0000279,0.00000119,0.00001093,0.00000785,-0.00000824,0.00000557,0.0000
 0949,0.00001657,0.00000663,0.00118204,0.00195316,0.00200947,0.00008488
 ,-0.00076175,-0.00059934,-0.00060804,-0.00041168,-0.00042666,-0.000315
 21,-0.00001770,-0.00138975,-0.00276946,-0.08240609,-0.20116283,0.01216
 529,-0.02189501,0.00873355,0.01360641,0.15429894,0.24038124,-0.0000237
 3,-0.00010158,-0.00001583,0.00006907,-0.00003719,-0.00003687,0.0001717
 7,-0.00010804,-0.00003612,0.00006389,0.00005183,-0.00001882,0.00017912
 ,0.00002814,-0.00024553,-0.00001425,0.00000400,0.00001254,-0.00001071,
 0.00000285,-0.00001668,-0.00000242,0.00001985,-0.00000101,-0.00003443,
 0.00001035,-0.00000516,0.00000526,-0.00001488,-0.00001930,-0.00017028,
 0.00003530,0.00008961,-0.00012211,0.00002219,-0.00002101,-0.00007955,0
 .00006847,0.00009302,-0.00000958,0.00016419,0.00004470,-0.00065849,0.0
 0024618,0.00005661,0.00034347,-0.00009910,0.00019893,-0.00000841,0.000
 03105,-0.00005065,-0.00012151,-0.00003595,-0.00002165,-0.00050853,0.00
 002929,-0.00009964,0.00002678,0.00001159,-0.00005200,-0.00000500,-0.00
 000795,0.00000645,-0.00000265,-0.00000549,0.00000091,-0.00000705,0.000
 00768,0.00001110,0.00000913,-0.00013184,-0.00000372,-0.00000860,0.0000
 1663,-0.00000910,-0.00001198,0.00002018,0.00000691,0.00000949,0.000013
 89,0.00000386,0.00040798,-0.00043496,0.00031091,0.00000044,-0.00039238
 ,-0.00013587,0.00033720,0.00043644,0.00014999,-0.00003867,0.00004342,-
 0.00010066,0.00007165,-0.00005341,-0.00014830,0.00013020,0.00004983,0.
 00001390,0.00047105,-0.00002661,0.00007259,0.00019207,0.00005176,-0.00
 012488,0.00006293,0.00001560,-0.00003648,0.00008254,0.00003828,-0.0000
 0010,0.00000830,-0.00000137,0.00000662,-0.00000023,0.00000464,-0.00000
 459,-0.00001771,-0.00000287,0.00001611,-0.00000515,0.00000018,0.000001
 34,-0.00042694,-0.00019143,0.00000153,-0.00045120,-0.00052582,-0.00016
 404,-0.00029400,0.00000120,0.00018101,-0.00003567,0.00008342,0.0001356
 4,-0.00011846,-0.00000890,0.00009985,0.00008526,0.00002217,0.00002352,
 -0.00000465,-0.00000080,-0.00000324,0.00001060,-0.00000066,0.00000043,
 -0.00009709,-0.00005172,0.00002656,0.00132583,0.00178755,-0.00023814,-
 0.00004305,-0.00090237,0.00031915,-0.00088021,-0.00015375,0.00036042,-
 0.00074694,-0.00141234,-0.00034695,0.00050518,0.00037623,0.00536193,0.
 00013014,0.00018679,0.00028633,-0.02100505,-0.01706225,0.00485632,0.00
 020028,0.00055065,-0.00023202,0.00059248,-0.00042907,0.00111844,0.0000
 1412,0.00013720,0.00004102,-0.00072565,-0.00181559,-0.00309134,0.00015
 746,0.00136978,0.00129944,0.00008960,-0.00005005,-0.00033886,0.0001388
 9,0.00004163,0.00001403,-0.00008133,0.00002657,0.00006554,0.00002421,-
 0.00007141,-0.00002738,-0.00002532,-0.00000848,-0.00007782,0.00000668,
 -0.00000928,0.00001294,0.00000045,-0.00001570,-0.00001306,-0.00000692,
 0.00001096,0.00001553,0.00006795,-0.00003869,-0.00002846,-0.00000341,0
 .00000860,-0.00000020,-0.00000803,0.00000542,-0.00000254,-0.00001180,-
 0.00000104,0.00001083,0.00001315,0.00005545,-0.00001370,-0.00001011,-0
 .00000619,0.00000340,0.00000497,-0.00000802,-0.00000350,0.00000430,-0.
 00000265,-0.00000100,0.00005271,0.00002681,-0.00000067,-0.00001068,0.0
 0000240,-0.00000379,0.00000162,-0.00000177,0.00000379,-0.00000361,-0.0
 0000780,0.00000595,0.00027613,0.00016664,0.00010264,-0.00005991,-0.000
 06950,-0.00001680,0.00001198,0.00004038,-0.00000418,-0.00000121,-0.000
 01315,-0.00001069,0.00001711,0.00002839,-0.00001899,-0.00001894,-0.000
 00157,0.00000116,0.00005264,0.00002234,0.00004520,-0.00001461,-0.00000
 327,0.00000252,0.00000012,0.00000303,-0.00000487,-0.00000053,-0.000010
 11,-0.00000868,-0.00094386,-0.00084370,-0.00093439,0.00004960,0.000389
 22,0.00032323,0.00051250,0.00028786,0.00016257,0.00016634,0.00006550,0
 .00042292,-0.21685805,-0.07818361,0.03636199,-0.07843320,0.01034503,-0
 .00511239,-0.01648763,-0.03487955,-0.02232941,0.33251452,-0.00002422,-
 0.00004266,-0.00001380,0.00002330,-0.00003518,0.00000493,0.00005869,-0
 .00005575,-0.00001291,-0.00002167,-0.00001325,0.00000583,-0.00001853,-
 0.00005480,0.00007475,0.00000259,0.00000434,0.00000161,-0.00000697,0.0
 0000016,-0.00001356,0.00000064,0.00001010,0.00000013,-0.00001280,0.000
 01343,-0.00000267,-0.00000805,-0.00001573,-0.00000220,-0.00004521,0.00
 006157,-0.00000260,-0.00003765,0.00002146,-0.00001166,-0.00001602,0.00
 003840,0.00001013,0.00003368,0.00007043,-0.00000247,0.00009203,0.00004
 484,-0.00003630,0.00019792,-0.00007413,0.00008331,-0.00002586,0.000018
 54,-0.00004875,-0.00004697,-0.00000271,-0.00000832,-0.00022935,0.00014
 905,-0.00015092,0.00000673,-0.00000242,-0.00000589,0.00000120,-0.00000
 106,0.00000083,-0.00000249,-0.00000248,-0.00000188,-0.00000219,0.00000
 302,0.00000217,-0.00001153,-0.00003710,0.00000021,-0.00000559,0.000007
 20,-0.00000343,0.00000139,0.00000382,-0.00000189,0.00000520,0.00001110
 ,0.00000776,-0.00007300,-0.00001546,-0.00004252,0.00001069,0.00004937,
 0.00003522,-0.00002919,-0.00005969,-0.00000347,-0.00000199,-0.00000088
 ,-0.00000803,0.00005378,-0.00004261,-0.00008565,0.00007565,0.00003435,
 0.00000861,0.00043657,-0.00020698,0.00021271,0.00012989,0.00002636,-0.
 00008046,0.00004355,0.00000106,-0.00002076,0.00007153,0.00001156,0.000
 01929,0.00000179,-0.00000078,0.00001465,0.00000221,0.00000527,-0.00001
 244,-0.00000991,0.00000103,0.00000817,-0.00000786,0.00000105,0.0000025
 7,-0.00029391,-0.00006689,-0.00003363,-0.00045561,-0.00041083,-0.00016
 693,-0.00019141,0.00012885,0.00002814,-0.00002952,0.00006776,0.0000777
 1,-0.00007810,0.00000324,0.00005905,0.00005548,0.00000720,0.00002078,-
 0.00000114,0.00000052,-0.00000195,0.00000136,-0.00000293,-0.00000013,-
 0.00006138,-0.00002276,0.00001137,0.00150329,0.00139030,-0.00027296,-0
 .00017100,-0.00078324,0.00027488,-0.00082611,-0.00001388,0.00029821,0.
 00013541,-0.00136259,0.00056937,-0.00015023,0.00135396,0.00355750,-0.0
 0024582,-0.00025400,0.00015456,-0.02701410,-0.00562071,0.00662803,0.00
 001316,0.00068782,-0.00032397,0.00059985,-0.00027568,0.00058906,-0.000
 01877,0.00012273,0.00002110,-0.00049641,-0.00159191,-0.00154602,0.0003
 0352,0.00084072,0.00095193,-0.00000342,-0.00005587,-0.00005203,0.00006
 479,-0.00006258,0.00009174,-0.00007257,0.00002016,0.00004025,0.0000280
 7,-0.00007626,-0.00002509,-0.00001411,-0.00000955,-0.00004193,0.000006
 61,-0.00000203,0.00000486,0.00000208,-0.00001398,-0.00000649,-0.000006
 74,0.00000790,0.00001128,0.00004633,-0.00002776,-0.00001721,-0.0000018
 9,0.00000604,0.00000116,-0.00000622,0.00000309,-0.00000263,-0.00000689
 ,0.00000001,0.00000609,0.00000901,0.00002715,-0.00000561,-0.00000659,-
 0.00000320,0.00000198,0.00000342,-0.00000395,-0.00000117,0.00000219,-0
 .00000144,-0.00000238,0.00001273,0.00000203,-0.00000051,-0.00000396,0.
 00000143,-0.00000110,0.00000064,-0.00000021,0.00000303,0.00000010,-0.0
 0000177,0.00000007,0.00024242,0.00003653,0.00010055,-0.00005800,-0.000
 03243,-0.00002446,0.00001570,0.00001777,0.00001021,-0.00000056,-0.0000
 0433,-0.00000752,0.00001814,0.00002046,-0.00001919,-0.00001707,-0.0000
 0089,-0.00000110,0.00004445,0.00001134,0.00003835,-0.00001286,-0.00000
 314,0.00000137,0.00000002,0.00000306,-0.00000661,-0.00000146,-0.000004
 42,-0.00000618,-0.00063370,-0.00086376,-0.00092398,-0.00002151,0.00041
 374,0.00030196,0.00036792,0.00025088,0.00017191,0.00012083,0.00009121,
 0.00038438,-0.07740030,-0.11152440,0.01995657,0.02525612,0.01699934,-0
 .00165855,-0.04193307,-0.03137688,-0.02094298,0.12076879,0.13203523,-0
 .00000673,0.00000973,-0.00000541,-0.00002828,0.00003859,-0.00001691,-0
 .00005865,0.00003370,-0.00000744,0.00001915,0.00000906,-0.00002902,0.0
 0000297,0.00005067,-0.00009293,-0.00000359,-0.00000199,0.00000216,0.00
 000703,-0.00000274,0.00001829,0.00000472,-0.00000984,0.00000367,0.0000
 1331,-0.00000835,0.00000749,0.00001016,0.00000062,-0.00000240,0.000039
 22,-0.00004202,0.00003914,0.00004482,-0.00000959,0.00002373,0.00002493
 ,-0.00002895,-0.00000176,0.00000111,-0.00004426,0.00002206,-0.00009342
 ,-0.00001241,0.00007882,-0.00015248,0.00005093,-0.00004791,0.00004604,
 -0.00003200,0.00005586,0.00003398,0.00000366,0.00000490,0.00013414,-0.
 00007925,0.00026410,-0.00001384,0.00000247,0.00000320,0.00000227,0.000
 00250,0.00000009,0.00000311,-0.00000036,0.00000342,0.00000073,-0.00000
 242,-0.00000196,-0.00000383,0.00003029,-0.00000602,0.00000627,-0.00000
 712,0.00000757,0.00000043,-0.00000253,0.00000021,-0.00000050,-0.000000
 48,-0.00000332,0.00006081,-0.00001156,-0.00000856,-0.00000351,-0.00003
 160,-0.00001853,0.00001761,0.00003635,-0.00001784,0.00000186,-0.000014
 26,0.00001663,-0.00005089,0.00004144,0.00008766,-0.00014570,-0.0000484
 3,-0.00002988,-0.00051174,0.00029790,-0.00037190,-0.00012996,-0.000029
 95,0.00007673,-0.00005038,-0.00000759,0.00001321,-0.00006136,-0.000014
 34,-0.00005024,-0.00000033,-0.00000204,-0.00001151,-0.00000441,-0.0000
 0681,0.00001666,0.00000755,-0.00000283,-0.00000763,0.00000949,-0.00000
 084,-0.00000302,0.00031018,0.00005356,0.00007839,0.00059819,0.00053150
 ,0.00046068,0.00027192,-0.00009254,-0.00003468,0.00004204,-0.00005615,
 -0.00006675,0.00008732,0.00000341,-0.00005796,-0.00005684,-0.00001228,
 -0.00003332,0.00000439,0.00000502,0.00000292,-0.00000012,0.00000113,-0
 .00000130,0.00006040,0.00002631,-0.00000161,-0.00192926,-0.00195892,-0
 .00002488,0.00022273,0.00101753,-0.00029328,0.00112317,0.00008171,-0.0
 0031944,0.00067455,0.00218139,-0.00054671,-0.00017982,-0.00131444,-0.0
 0564662,0.00045776,0.00059144,-0.00029443,0.03116955,0.01950260,0.0005
 2663,0.00030147,-0.00002561,0.00013739,0.00016058,0.00058270,0.0005848
 7,0.00007678,0.00002512,-0.00000056,0.00090398,-0.00005704,-0.00173644
 ,0.00128816,0.00110743,-0.00119549,-0.00004191,0.00000889,0.00004562,-
 0.00007013,0.00005461,-0.00009979,0.00008389,-0.00001912,-0.00004503,-
 0.00003038,0.00009040,0.00006093,-0.00000052,0.00000317,0.00003717,-0.
 00000493,0.00000451,-0.00000520,0.00000255,0.00001440,0.00000774,0.000
 00634,-0.00000794,-0.00000983,-0.00004974,0.00002716,0.00001597,0.0000
 0156,-0.00000475,-0.00000022,0.00000771,-0.00000388,0.00000310,0.00000
 715,-0.00000019,-0.00000666,-0.00000967,-0.00002940,0.00000082,0.00000
 599,0.00000306,-0.00000191,-0.00000310,0.00000544,0.00000260,-0.000001
 64,0.00000029,0.00000319,-0.00001490,-0.00001085,-0.00000572,0.0000049
 0,-0.00000109,0.00000109,-0.00000089,0.00000325,-0.00000141,0.00000005
 ,0.00000229,0.00000119,-0.00009467,0.00000926,-0.00024366,0.00003576,0
 .00002192,0.00006038,-0.00001442,-0.00000857,-0.00004269,0.00000451,0.
 00000724,0.00001020,-0.00001632,-0.00002501,0.00001882,0.00001039,-0.0
 0000130,0.00000734,-0.00003033,-0.00000824,-0.00004459,0.00000579,0.00
 000223,0.00000388,0.00000367,-0.00000561,0.00000551,0.00000530,0.00000
 927,0.00000571,0.00060797,0.00078726,0.00150103,0.00004452,-0.00047156
 ,-0.00040592,-0.00037299,-0.00025744,-0.00031183,-0.00013878,-0.000009
 57,-0.00055736,0.02809892,0.01626696,-0.08587006,-0.01107871,-0.002031
 03,0.01317170,-0.03319139,-0.02857786,0.00246674,-0.01853082,-0.008195
 42,0.07867232\\-0.00000081,-0.00000051,-0.00000080,-0.00000030,-0.0000
 0011,-0.00000048,-0.00000008,-0.00000048,0.00000006,-0.00000075,-0.000
 00082,0.00000004,-0.00000073,-0.00000054,-0.00000063,-0.00000002,-0.00
 000010,0.00000039,-0.00000004,0.00000016,-0.00000048,-0.00000084,-0.00
 000063,-0.00000078,-0.00000090,-0.00000100,0.00000006,-0.00000054,-0.0
 0000032,-0.00000070,-0.00000036,-0.00000038,0.00000029,-0.00000054,-0.
 00000066,0.00000030,-0.00000022,-0.00000003,-0.00000060,-0.00000064,-0
 .00000017,-0.00000130,-0.00000109,-0.00000089,-0.00000091,-0.00000072,
 -0.00000085,0.00000015,-0.00000106,-0.00000118,0.00000004,-0.00000065,
 -0.00000089,0.00000060,-0.00000057,-0.00000052,-0.00000006,0.00000011,
 0.00000025,-0.00000033,0.00000015,0.00000012,0.00000008,0.00000035,0.0
 0000051,-0.00000034,0.00000014,0.00000037,-0.00000054,-0.00000075,0.00
 000004,-0.00000166,-0.00000103,-0.00000051,-0.00000167,-0.00000056,-0.
 00000007,-0.00000153,-0.00000071,0.,-0.00000204,-0.00000122,-0.0000008
 2,-0.00000114,-0.00000101,-0.00000052,-0.00000148,-0.00000100,-0.00000
 074,-0.00000085,-0.00000146,-0.00000108,-0.00000131,0.00000068,0.00000
 059,0.00000024,0.00000033,0.00000039,-0.00000007,0.00000042,0.00000015
 ,0.00000027,0.00000035,0.00000005,0.00000113,0.00000065,0.00000036,0.0
 0000077,-0.00000005,-0.00000001,-0.00000004,0.00000009,0.00000018,-0.0
 0000018,0.00000091,0.00000089,0.00000033,0.00000066,0.00000022,0.00000
 124,0.00000043,0.00000016,0.00000074,0.00000007,-0.00000014,0.00000065
 ,0.00000014,-0.00000001,0.00000036,0.00000033,0.00000064,-0.00000056,0
 .00000077,0.00000083,0.00000005,0.00000098,0.00000059,0.00000115,0.000
 00015,-0.00000037,0.00000141,0.00000008,-0.00000053,0.00000158,-0.0000
 0005,-0.00000051,0.00000112,0.00000038,-0.00000030,0.00000177,0.000000
 22,0.00000066,0.00000027,0.00000080,0.00000063,0.00000032,0.00000076,0
 .00000053,0.00000017,0.00000032,0.00000050,-0.00000060,-0.00000009,0.0
 0000020,-0.00000069,0.00000048,0.00000083,-0.00000089,-0.00000022,0.00
 000026,-0.00000122,-0.00000030,-0.00000010,-0.00000051,0.00000041,0.00
 000100,-0.00000151,0.00000081,0.00000114,-0.00000065,-0.00000007,0.000
 00056,-0.00000168,-0.00000015,0.00000064,-0.00000203,0.00000011,0.0000
 0045,-0.00000103,-0.00000018,0.00000020,-0.00000094,-0.00000003,0.0000
 0040,-0.00000107,0.00000016,0.00000071,-0.00000132,0.00000106,0.000001
 23,-0.00000021,0.00000130,0.00000144,-0.00000002,0.00000092,0.00000125
 ,-0.00000060,0.00000107,0.00000134,-0.00000039,0.00000100,0.00000062,0
 .00000127,0.00000102,0.00000076,0.00000092,0.00000081,0.00000031,0.000
 00144,0.00000130,0.00000080,0.00000156,0.00000069,-0.00000009,0.000002
 15,0.00000074,-0.00000018,0.00000248,0.00000055,-0.00000035,0.00000237
 ,0.00000091,0.00000016,0.00000207,-0.00000052,-0.00000091,0.00000080,-
 0.00000069,-0.00000109,0.00000088,-0.00000061,-0.00000102,0.00000094,-
 0.00000021,-0.00000064,0.00000105,-0.00000041,-0.00000079,0.00000046,-
 0.00000015,-0.00000073,0.00000139,0.00000019,-0.00000042,0.00000169,0.
 00000019,-0.00000053,0.00000182,0.00000032,-0.00000018,0.00000132,0.00
 000036,-0.00000036,0.00000193,-0.00000042,-0.00000113,0.00000176,-0.00
 000026,-0.00000111,0.00000206,-0.00000068,-0.00000137,0.00000155,-0.00
 000042,-0.00000125,0.00000196,0.00000060,0.00000136,-0.00000162,0.0000
 0059,0.00000134,-0.00000187,0.00000050,0.00000143,-0.00000220,0.000000
 98,0.00000169,-0.00000154,-0.00000068,-0.00000013,-0.00000157,-0.00000
 084,-0.00000035,-0.00000156,-0.00000085,-0.00000040,-0.00000121,-0.000
 00083,-0.00000007,-0.00000202\\\@


 BUT 'GLORY' DOESN'T MEAN 'A NICE KNOCK DOWN ARGUMENT', ALICE OBJECTED.
 WHEN I USE A WORD, HUMPTY DUMPTY SAID, IN A RATHER SCORNFUL TONE,
 IT MEANS JUST WHAT I CHOOSE IT TO MEAN....
 NEITHER MORE NOR LESS....
 THE QUESTION IS, SAID ALICE,
 WHETHER YOU CAN MAKE WORDS MEAN SO MANY DIFFERENT THINGS...
 THE QUESTION IS, SAID HUMPTY DUMPTY,
 WHICH IS TO BE MASTER....
 THAT IS ALL.....

 ALICE THROUGH THE LOOKING GLASS
 Job cpu time:       5 days  5 hours 17 minutes 21.1 seconds.
 Elapsed time:       0 days  4 hours 10 minutes 49.9 seconds.
 File lengths (MBytes):  RWF=   9728 Int=      0 D2E=      0 Chk=    103 Scr=      1
 Normal termination of Gaussian 16 at Wed May 29 07:39:54 2019.
