 Entering Gaussian System, Link 0=g16
 Input=clay_new-glu_gluC6-CCUL-Na2_1Me2O-bisCF3-ts-b3lyp_d3bj-631gd-pcm_thf.gjf
 Output=clay_new-glu_gluC6-CCUL-Na2_1Me2O-bisCF3-ts-b3lyp_d3bj-631gd-pcm_thf.out
 Initial command:
 /home/ekwan/sw/g16/l1.exe "/scratch/users/ekwan/clay_new-glu_gluC6-CCUL-Na2_1Me2O-bisCF3-ts-b3lyp_d3bj-631gd-pcm_thf/Gau-4539.inp" -scrdir="/scratch/users/ekwan/clay_new-glu_gluC6-CCUL-Na2_1Me2O-bisCF3-ts-b3lyp_d3bj-631gd-pcm_thf/"
 Entering Link 1 = /home/ekwan/sw/g16/l1.exe PID=      4540.
  
 Copyright (c) 1988,1990,1992,1993,1995,1998,2003,2009,2016,
            Gaussian, Inc.  All Rights Reserved.
  
 This is part of the Gaussian(R) 16 program.  It is based on
 the Gaussian(R) 09 system (copyright 2009, Gaussian, Inc.),
 the Gaussian(R) 03 system (copyright 2003, Gaussian, Inc.),
 the Gaussian(R) 98 system (copyright 1998, Gaussian, Inc.),
 the Gaussian(R) 94 system (copyright 1995, Gaussian, Inc.),
 the Gaussian 92(TM) system (copyright 1992, Gaussian, Inc.),
 the Gaussian 90(TM) system (copyright 1990, Gaussian, Inc.),
 the Gaussian 88(TM) system (copyright 1988, Gaussian, Inc.),
 the Gaussian 86(TM) system (copyright 1986, Carnegie Mellon
 University), and the Gaussian 82(TM) system (copyright 1983,
 Carnegie Mellon University). Gaussian is a federally registered
 trademark of Gaussian, Inc.
  
 This software contains proprietary and confidential information,
 including trade secrets, belonging to Gaussian, Inc.
  
 This software is provided under written license and may be
 used, copied, transmitted, or stored only in accord with that
 written license.
  
 The following legend is applicable only to US Government
 contracts under FAR:
  
                    RESTRICTED RIGHTS LEGEND
  
 Use, reproduction and disclosure by the US Government is
 subject to restrictions as set forth in subparagraphs (a)
 and (c) of the Commercial Computer Software - Restricted
 Rights clause in FAR 52.227-19.
  
 Gaussian, Inc.
 340 Quinnipiac St., Bldg. 40, Wallingford CT 06492
  
  
 ---------------------------------------------------------------
 Warning -- This program may not be used in any manner that
 competes with the business of Gaussian, Inc. or will provide
 assistance to any competitor of Gaussian, Inc.  The licensee
 of this program is prohibited from giving any competitor of
 Gaussian, Inc. access to this program.  By using this program,
 the user acknowledges that Gaussian, Inc. is engaged in the
 business of creating and licensing software in the field of
 computational chemistry and represents and warrants to the
 licensee that it is not a competitor of Gaussian, Inc. and that
 it will not use this program in any manner prohibited above.
 ---------------------------------------------------------------
  

 Cite this work as:
 Gaussian 16, Revision A.03,
 M. J. Frisch, G. W. Trucks, H. B. Schlegel, G. E. Scuseria, 
 M. A. Robb, J. R. Cheeseman, G. Scalmani, V. Barone, 
 G. A. Petersson, H. Nakatsuji, X. Li, M. Caricato, A. V. Marenich, 
 J. Bloino, B. G. Janesko, R. Gomperts, B. Mennucci, H. P. Hratchian, 
 J. V. Ortiz, A. F. Izmaylov, J. L. Sonnenberg, D. Williams-Young, 
 F. Ding, F. Lipparini, F. Egidi, J. Goings, B. Peng, A. Petrone, 
 T. Henderson, D. Ranasinghe, V. G. Zakrzewski, J. Gao, N. Rega, 
 G. Zheng, W. Liang, M. Hada, M. Ehara, K. Toyota, R. Fukuda, 
 J. Hasegawa, M. Ishida, T. Nakajima, Y. Honda, O. Kitao, H. Nakai, 
 T. Vreven, K. Throssell, J. A. Montgomery, Jr., J. E. Peralta, 
 F. Ogliaro, M. J. Bearpark, J. J. Heyd, E. N. Brothers, K. N. Kudin, 
 V. N. Staroverov, T. A. Keith, R. Kobayashi, J. Normand, 
 K. Raghavachari, A. P. Rendell, J. C. Burant, S. S. Iyengar, 
 J. Tomasi, M. Cossi, J. M. Millam, M. Klene, C. Adamo, R. Cammi, 
 J. W. Ochterski, R. L. Martin, K. Morokuma, O. Farkas, 
 J. B. Foresman, and D. J. Fox, Gaussian, Inc., Wallingford CT, 2016.
 
 ******************************************
 Gaussian 16:  AS64L-G16RevA.03 25-Dec-2016
                22-May-2019 
 ******************************************
 %mem=48GB
 %nprocshared=32
 Will use up to   32 processors via shared memory.
 ----------------------------------------------------------------------
 #p opt=(ts,noeigentest,calcfc,maxstep=3,modredundant,recalc=30) freq=n
 oraman b3lyp 6-31g* pop=none scrf=(solvent=tetrahydrofuran,pcm) empiri
 caldispersion=gd3bj
 ----------------------------------------------------------------------
 1/5=1,8=3,10=4,11=1,18=120,26=3,38=1,71=30/1,3;
 2/9=110,12=2,17=6,18=5,40=1/2;
 3/5=1,6=6,7=1,11=2,25=1,30=1,70=2201,71=2,72=20,74=-5,124=41,140=1/1,2,3;
 4//1;
 5/5=2,38=5,53=20/2;
 8/6=4,10=90,11=11/1;
 11/6=1,8=1,9=11,15=111,16=1/1,2,10;
 10/6=1,13=1/2;
 7/10=1,18=20,25=1/1,2,3,16;
 1/5=1,8=3,10=4,11=1,18=20,26=3,71=30/3(2);
 2/9=110/2;
 99//99;
 2/9=110/2;
 3/5=1,6=6,7=1,11=2,25=1,30=1,70=2205,71=1,72=20,74=-5,124=41/1,2,3;
 4/5=5,16=3,69=1/1;
 5/5=2,38=5,53=20/2;
 7//1,2,3,16;
 1/5=1,8=3,11=1,18=20,26=3,71=30/3(-5);
 2/9=110/2;
 99/9=1/99;
 Leave Link    1 at Wed May 22 13:24:33 2019, MaxMem=  6442450944 cpu:               9.9 elap:               0.4
 (Enter /home/ekwan/sw/g16/l101.exe)
 -----
 title
 -----
 Symbolic Z-matrix:
 Charge =  0 Multiplicity = 1
 C                    -4.53647  -0.87481   0.73887 
 C                    -3.35967  -1.47116   1.51046 
 C                    -2.83661  -2.71204   0.78956 
 C                    -3.40654  -1.77403  -1.3816 
 C                    -4.14466  -0.6026   -0.71472 
 H                    -1.93861  -3.09713   1.28488 
 H                    -2.54202  -0.74206   1.52334 
 H                    -5.36848  -1.58882   0.74797 
 H                    -4.14729  -2.54571  -1.62763 
 H                    -3.49894   0.27793  -0.73614 
 O                    -2.40224  -2.34603  -0.51202 
 O                    -3.84784  -3.6799    0.75997 
 O                    -3.7263   -1.79929   2.84379 
 O                    -4.94596   0.35786   1.33629 
 O                    -5.29895  -0.35786  -1.51543 
 C                    -2.64329  -1.32667  -2.64878 
 H                    -3.3999   -0.81288  -3.27852 
 H                    -2.39682  -2.26855  -3.19763 
 O                    -1.52889  -0.56587  -2.37601 
 C                    -3.06436  -1.00298   3.82057 
 H                    -1.97352  -1.11889   3.76484 
 H                    -3.31545   0.05928   3.70305 
 H                    -3.41299  -1.34914   4.79702 
 C                    -6.0881    0.24008   2.17273 
 H                    -6.96813  -0.08471   1.59856 
 H                    -5.91674  -0.46734   2.99144 
 H                    -6.28101   1.23429   2.58485 
 C                    -5.62413   1.01762  -1.66002 
 H                    -5.99136   1.44732  -0.72083 
 H                    -4.75231   1.59854  -1.98878 
 H                    -6.40789   1.07881  -2.4206 
 C                     0.6502    2.6974   -0.71087 
 C                     0.13765   1.32964  -1.17368 
 C                    -0.98735   0.86092  -0.30583 
 C                    -1.63659   3.10733   0.29339 
 C                    -0.54668   3.64716  -0.64034 
 H                    -1.25572  -0.17689  -0.24587 
 H                    -0.3384    1.43157  -2.1592 
 H                     1.09567   2.59876   0.28412 
 H                    -1.29307   3.19484   1.3274 
 H                    -0.96386   3.77126  -1.64603 
 O                    -1.89402   1.67057   0.1165 
 O                     0.17852  -1.77234   1.04061 
 O                     1.13816   0.33415  -1.23534 
 O                     1.59319   3.22364  -1.6292 
 O                    -0.18109   4.90017  -0.09096 
 C                    -2.97486   3.79673   0.14325 
 H                    -2.86239   4.8338    0.49101 
 H                    -3.71368   3.2914    0.78234 
 O                    -3.36482   3.75194  -1.21381 
 S                     0.73981  -0.65928   1.85762 
 O                     0.76621  -0.91107   3.3108 
 O                     0.09734   0.6724    1.52512 
 C                     2.44343  -0.47316   1.31716 
 C                     3.0223   -1.45104   0.52169 
 C                     3.14133   0.68269   1.66314 
 C                     4.32454  -1.26297   0.05366 
 H                     2.45108  -2.31972   0.22197 
 C                     4.43555   0.85842   1.18271 
 H                     2.66901   1.44887   2.2655 
 C                     5.03666  -0.11177   0.37495 
 H                     6.03906   0.0382   -0.00837 
 C                     1.67237   0.14115  -2.55339 
 H                     0.87965  -0.21095  -3.22358 
 H                     2.10021   1.07022  -2.93952 
 H                     2.45571  -0.61155  -2.45328 
 C                     2.94135   3.1625   -1.17462 
 H                     3.05335   3.65482  -0.20055 
 H                     3.29208   2.12808  -1.09355 
 H                     3.54559   3.69101  -1.9151 
 C                    -0.00397   5.9299   -1.06077 
 H                     0.79582   5.67685  -1.76372 
 H                    -0.9344    6.10971  -1.61669 
 H                     0.26368   6.83248  -0.50677 
 C                    -4.58057   4.44519  -1.44475 
 H                    -4.80063   4.35768  -2.5105 
 H                    -5.40664   4.00662  -0.86714 
 H                    -4.4882    5.50792  -1.17738 
 C                    -3.4094   -4.92874   0.23797 
 H                    -4.2354   -5.63157   0.36272 
 H                    -3.15413  -4.85084  -0.8256 
 H                    -2.53176  -5.2963    0.78889 
 Na                   -0.19422  -2.00989  -1.25306 
 O                     1.34015  -3.72765  -1.28562 
 C                     1.95332  -4.21739  -2.47413 
 H                     1.37523  -5.05047  -2.89569 
 H                     1.97851  -3.39096  -3.18669 
 H                     2.97727  -4.54995  -2.27076 
 C                     1.26992  -4.71437  -0.25767 
 H                     2.27718  -5.05831   0.00991 
 H                     0.80397  -4.23616   0.60555 
 H                     0.66712  -5.57316  -0.58186 
 C                     5.20242   2.1154    1.4871 
 F                     4.43602   3.04822   2.09056 
 F                     5.6895    2.67202   0.35017 
 F                     6.26301   1.87988   2.2887 
 C                     4.90333  -2.28596  -0.88199 
 F                     6.24096  -2.18451  -0.995 
 F                     4.38888  -2.15602  -2.13485 
 F                     4.61878  -3.54751  -0.48373 
 
 Add virtual bond connecting atoms O53        and C34        Dist= 4.04D+00.
 Add virtual bond connecting atoms H37        and H7         Dist= 4.27D+00.
 Add virtual bond connecting atoms H37        and H10        Dist= 4.42D+00.
 Add virtual bond connecting atoms H37        and O19        Dist= 4.12D+00.
 Add virtual bond connecting atoms H38        and O19        Dist= 4.41D+00.
 Add virtual bond connecting atoms O42        and H10        Dist= 4.33D+00.
 The following ModRedundant input section has been read:
 
 ITRead=  0  0  0  0  0  0  0  0  0  0  0  0  0  0  0  0  0  0  0  0
 ITRead=  0  0  0  0  0  0  0  0  0  0  0  0  0  0  0  0  0  0  0  0
 ITRead=  0  0  0  0  0  0  0  0  0  0  0  0  0  0  0  0  0  0  0  0
 ITRead=  0  0  0  0  0  0  0  0  0  0  0  0  0  0  0  0  0  0  0  0
 ITRead=  0  0  0  0  0  0  0  0  0  0  0  0  0  0  0  0  0  0  0  0
 MicOpt= -1 -1 -1 -1 -1 -1 -1 -1 -1 -1 -1 -1 -1 -1 -1 -1 -1 -1 -1 -1
 MicOpt= -1 -1 -1 -1 -1 -1 -1 -1 -1 -1 -1 -1 -1 -1 -1 -1 -1 -1 -1 -1
 MicOpt= -1 -1 -1 -1 -1 -1 -1 -1 -1 -1 -1 -1 -1 -1 -1 -1 -1 -1 -1 -1
 MicOpt= -1 -1 -1 -1 -1 -1 -1 -1 -1 -1 -1 -1 -1 -1 -1 -1 -1 -1 -1 -1
 MicOpt= -1 -1 -1 -1 -1 -1 -1 -1 -1 -1 -1 -1 -1 -1 -1 -1 -1 -1 -1 -1
 NAtoms=    100 NQM=      100 NQMF=       0 NMMI=      0 NMMIF=      0
                NMic=       0 NMicF=      0.
                    Isotopes and Nuclear Properties:
 (Nuclear quadrupole moments (NQMom) in fm**2, nuclear magnetic moments (NMagM)
  in nuclear magnetons)

  Atom         1           2           3           4           5           6           7           8           9          10
 IAtWgt=          12          12          12          12          12           1           1           1           1           1
 AtmWgt=  12.0000000  12.0000000  12.0000000  12.0000000  12.0000000   1.0078250   1.0078250   1.0078250   1.0078250   1.0078250
 NucSpn=           0           0           0           0           0           1           1           1           1           1
 AtZEff=   0.0000000   0.0000000   0.0000000   0.0000000   0.0000000   0.0000000   0.0000000   0.0000000   0.0000000   0.0000000
 NQMom=    0.0000000   0.0000000   0.0000000   0.0000000   0.0000000   0.0000000   0.0000000   0.0000000   0.0000000   0.0000000
 NMagM=    0.0000000   0.0000000   0.0000000   0.0000000   0.0000000   2.7928460   2.7928460   2.7928460   2.7928460   2.7928460
 AtZNuc=   6.0000000   6.0000000   6.0000000   6.0000000   6.0000000   1.0000000   1.0000000   1.0000000   1.0000000   1.0000000

  Atom        11          12          13          14          15          16          17          18          19          20
 IAtWgt=          16          16          16          16          16          12           1           1          16          12
 AtmWgt=  15.9949146  15.9949146  15.9949146  15.9949146  15.9949146  12.0000000   1.0078250   1.0078250  15.9949146  12.0000000
 NucSpn=           0           0           0           0           0           0           1           1           0           0
 AtZEff=   0.0000000   0.0000000   0.0000000   0.0000000   0.0000000   0.0000000   0.0000000   0.0000000   0.0000000   0.0000000
 NQMom=    0.0000000   0.0000000   0.0000000   0.0000000   0.0000000   0.0000000   0.0000000   0.0000000   0.0000000   0.0000000
 NMagM=    0.0000000   0.0000000   0.0000000   0.0000000   0.0000000   0.0000000   2.7928460   2.7928460   0.0000000   0.0000000
 AtZNuc=   8.0000000   8.0000000   8.0000000   8.0000000   8.0000000   6.0000000   1.0000000   1.0000000   8.0000000   6.0000000

  Atom        21          22          23          24          25          26          27          28          29          30
 IAtWgt=           1           1           1          12           1           1           1          12           1           1
 AtmWgt=   1.0078250   1.0078250   1.0078250  12.0000000   1.0078250   1.0078250   1.0078250  12.0000000   1.0078250   1.0078250
 NucSpn=           1           1           1           0           1           1           1           0           1           1
 AtZEff=   0.0000000   0.0000000   0.0000000   0.0000000   0.0000000   0.0000000   0.0000000   0.0000000   0.0000000   0.0000000
 NQMom=    0.0000000   0.0000000   0.0000000   0.0000000   0.0000000   0.0000000   0.0000000   0.0000000   0.0000000   0.0000000
 NMagM=    2.7928460   2.7928460   2.7928460   0.0000000   2.7928460   2.7928460   2.7928460   0.0000000   2.7928460   2.7928460
 AtZNuc=   1.0000000   1.0000000   1.0000000   6.0000000   1.0000000   1.0000000   1.0000000   6.0000000   1.0000000   1.0000000

  Atom        31          32          33          34          35          36          37          38          39          40
 IAtWgt=           1          12          12          12          12          12           1           1           1           1
 AtmWgt=   1.0078250  12.0000000  12.0000000  12.0000000  12.0000000  12.0000000   1.0078250   1.0078250   1.0078250   1.0078250
 NucSpn=           1           0           0           0           0           0           1           1           1           1
 AtZEff=   0.0000000   0.0000000   0.0000000   0.0000000   0.0000000   0.0000000   0.0000000   0.0000000   0.0000000   0.0000000
 NQMom=    0.0000000   0.0000000   0.0000000   0.0000000   0.0000000   0.0000000   0.0000000   0.0000000   0.0000000   0.0000000
 NMagM=    2.7928460   0.0000000   0.0000000   0.0000000   0.0000000   0.0000000   2.7928460   2.7928460   2.7928460   2.7928460
 AtZNuc=   1.0000000   6.0000000   6.0000000   6.0000000   6.0000000   6.0000000   1.0000000   1.0000000   1.0000000   1.0000000

  Atom        41          42          43          44          45          46          47          48          49          50
 IAtWgt=           1          16          16          16          16          16          12           1           1          16
 AtmWgt=   1.0078250  15.9949146  15.9949146  15.9949146  15.9949146  15.9949146  12.0000000   1.0078250   1.0078250  15.9949146
 NucSpn=           1           0           0           0           0           0           0           1           1           0
 AtZEff=   0.0000000   0.0000000   0.0000000   0.0000000   0.0000000   0.0000000   0.0000000   0.0000000   0.0000000   0.0000000
 NQMom=    0.0000000   0.0000000   0.0000000   0.0000000   0.0000000   0.0000000   0.0000000   0.0000000   0.0000000   0.0000000
 NMagM=    2.7928460   0.0000000   0.0000000   0.0000000   0.0000000   0.0000000   0.0000000   2.7928460   2.7928460   0.0000000
 AtZNuc=   1.0000000   8.0000000   8.0000000   8.0000000   8.0000000   8.0000000   6.0000000   1.0000000   1.0000000   8.0000000

  Atom        51          52          53          54          55          56          57          58          59          60
 IAtWgt=          32          16          16          12          12          12          12           1          12           1
 AtmWgt=  31.9720718  15.9949146  15.9949146  12.0000000  12.0000000  12.0000000  12.0000000   1.0078250  12.0000000   1.0078250
 NucSpn=           0           0           0           0           0           0           0           1           0           1
 AtZEff=   0.0000000   0.0000000   0.0000000   0.0000000   0.0000000   0.0000000   0.0000000   0.0000000   0.0000000   0.0000000
 NQMom=    0.0000000   0.0000000   0.0000000   0.0000000   0.0000000   0.0000000   0.0000000   0.0000000   0.0000000   0.0000000
 NMagM=    0.0000000   0.0000000   0.0000000   0.0000000   0.0000000   0.0000000   0.0000000   2.7928460   0.0000000   2.7928460
 AtZNuc=  16.0000000   8.0000000   8.0000000   6.0000000   6.0000000   6.0000000   6.0000000   1.0000000   6.0000000   1.0000000

  Atom        61          62          63          64          65          66          67          68          69          70
 IAtWgt=          12           1          12           1           1           1          12           1           1           1
 AtmWgt=  12.0000000   1.0078250  12.0000000   1.0078250   1.0078250   1.0078250  12.0000000   1.0078250   1.0078250   1.0078250
 NucSpn=           0           1           0           1           1           1           0           1           1           1
 AtZEff=   0.0000000   0.0000000   0.0000000   0.0000000   0.0000000   0.0000000   0.0000000   0.0000000   0.0000000   0.0000000
 NQMom=    0.0000000   0.0000000   0.0000000   0.0000000   0.0000000   0.0000000   0.0000000   0.0000000   0.0000000   0.0000000
 NMagM=    0.0000000   2.7928460   0.0000000   2.7928460   2.7928460   2.7928460   0.0000000   2.7928460   2.7928460   2.7928460
 AtZNuc=   6.0000000   1.0000000   6.0000000   1.0000000   1.0000000   1.0000000   6.0000000   1.0000000   1.0000000   1.0000000

  Atom        71          72          73          74          75          76          77          78          79          80
 IAtWgt=          12           1           1           1          12           1           1           1          12           1
 AtmWgt=  12.0000000   1.0078250   1.0078250   1.0078250  12.0000000   1.0078250   1.0078250   1.0078250  12.0000000   1.0078250
 NucSpn=           0           1           1           1           0           1           1           1           0           1
 AtZEff=   0.0000000   0.0000000   0.0000000   0.0000000   0.0000000   0.0000000   0.0000000   0.0000000   0.0000000   0.0000000
 NQMom=    0.0000000   0.0000000   0.0000000   0.0000000   0.0000000   0.0000000   0.0000000   0.0000000   0.0000000   0.0000000
 NMagM=    0.0000000   2.7928460   2.7928460   2.7928460   0.0000000   2.7928460   2.7928460   2.7928460   0.0000000   2.7928460
 AtZNuc=   6.0000000   1.0000000   1.0000000   1.0000000   6.0000000   1.0000000   1.0000000   1.0000000   6.0000000   1.0000000

  Atom        81          82          83          84          85          86          87          88          89          90
 IAtWgt=           1           1          23          16          12           1           1           1          12           1
 AtmWgt=   1.0078250   1.0078250  22.9897697  15.9949146  12.0000000   1.0078250   1.0078250   1.0078250  12.0000000   1.0078250
 NucSpn=           1           1           3           0           0           1           1           1           0           1
 AtZEff=   0.0000000   0.0000000   0.0000000   0.0000000   0.0000000   0.0000000   0.0000000   0.0000000   0.0000000   0.0000000
 NQMom=    0.0000000   0.0000000  10.4000000   0.0000000   0.0000000   0.0000000   0.0000000   0.0000000   0.0000000   0.0000000
 NMagM=    2.7928460   2.7928460   2.2175200   0.0000000   0.0000000   2.7928460   2.7928460   2.7928460   0.0000000   2.7928460
 AtZNuc=   1.0000000   1.0000000  11.0000000   8.0000000   6.0000000   1.0000000   1.0000000   1.0000000   6.0000000   1.0000000

  Atom        91          92          93          94          95          96          97          98          99         100
 IAtWgt=           1           1          12          19          19          19          12          19          19          19
 AtmWgt=   1.0078250   1.0078250  12.0000000  18.9984033  18.9984033  18.9984033  12.0000000  18.9984033  18.9984033  18.9984033
 NucSpn=           1           1           0           1           1           1           0           1           1           1
 AtZEff=   0.0000000   0.0000000   0.0000000   0.0000000   0.0000000   0.0000000   0.0000000   0.0000000   0.0000000   0.0000000
 NQMom=    0.0000000   0.0000000   0.0000000   0.0000000   0.0000000   0.0000000   0.0000000   0.0000000   0.0000000   0.0000000
 NMagM=    2.7928460   2.7928460   0.0000000   2.6288670   2.6288670   2.6288670   0.0000000   2.6288670   2.6288670   2.6288670
 AtZNuc=   1.0000000   1.0000000   6.0000000   9.0000000   9.0000000   9.0000000   6.0000000   9.0000000   9.0000000   9.0000000
 Leave Link  101 at Wed May 22 13:24:34 2019, MaxMem=  6442450944 cpu:              17.8 elap:               0.7
 (Enter /home/ekwan/sw/g16/l103.exe)

 GradGradGradGradGradGradGradGradGradGradGradGradGradGradGradGradGradGrad
 Berny optimization.
 Initialization pass.
                           ----------------------------
                           !    Initial Parameters    !
                           ! (Angstroms and Degrees)  !
 --------------------------                            --------------------------
 ! Name  Definition              Value          Derivative Info.                !
 --------------------------------------------------------------------------------
 ! R1    R(1,2)                  1.5283         calculate D2E/DX2 analytically  !
 ! R2    R(1,5)                  1.5299         calculate D2E/DX2 analytically  !
 ! R3    R(1,8)                  1.0964         calculate D2E/DX2 analytically  !
 ! R4    R(1,14)                 1.4297         calculate D2E/DX2 analytically  !
 ! R5    R(2,3)                  1.5274         calculate D2E/DX2 analytically  !
 ! R6    R(2,7)                  1.0956         calculate D2E/DX2 analytically  !
 ! R7    R(2,13)                 1.4212         calculate D2E/DX2 analytically  !
 ! R8    R(3,6)                  1.0955         calculate D2E/DX2 analytically  !
 ! R9    R(3,11)                 1.4201         calculate D2E/DX2 analytically  !
 ! R10   R(3,12)                 1.4001         calculate D2E/DX2 analytically  !
 ! R11   R(4,5)                  1.5368         calculate D2E/DX2 analytically  !
 ! R12   R(4,9)                  1.0976         calculate D2E/DX2 analytically  !
 ! R13   R(4,11)                 1.4464         calculate D2E/DX2 analytically  !
 ! R14   R(4,16)                 1.5455         calculate D2E/DX2 analytically  !
 ! R15   R(5,10)                 1.0921         calculate D2E/DX2 analytically  !
 ! R16   R(5,15)                 1.426          calculate D2E/DX2 analytically  !
 ! R17   R(7,37)                 2.2592         calculate D2E/DX2 analytically  !
 ! R18   R(10,37)                2.3408         calculate D2E/DX2 analytically  !
 ! R19   R(10,42)                2.2896         calculate D2E/DX2 analytically  !
 ! R20   R(12,79)                1.4228         calculate D2E/DX2 analytically  !
 ! R21   R(13,20)                1.4235         calculate D2E/DX2 analytically  !
 ! R22   R(14,24)                1.4206         calculate D2E/DX2 analytically  !
 ! R23   R(15,28)                1.4208         calculate D2E/DX2 analytically  !
 ! R24   R(16,17)                1.1104         calculate D2E/DX2 analytically  !
 ! R25   R(16,18)                1.1176         calculate D2E/DX2 analytically  !
 ! R26   R(16,19)                1.3766         calculate D2E/DX2 analytically  !
 ! R27   R(19,37)                2.1825         calculate D2E/DX2 analytically  !
 ! R28   R(19,38)                2.3354         calculate D2E/DX2 analytically  !
 ! R29   R(19,83)                2.2644         calculate D2E/DX2 analytically  !
 ! R30   R(20,21)                1.0984         calculate D2E/DX2 analytically  !
 ! R31   R(20,22)                1.0978         calculate D2E/DX2 analytically  !
 ! R32   R(20,23)                1.0931         calculate D2E/DX2 analytically  !
 ! R33   R(24,25)                1.0998         calculate D2E/DX2 analytically  !
 ! R34   R(24,26)                1.0955         calculate D2E/DX2 analytically  !
 ! R35   R(24,27)                1.0934         calculate D2E/DX2 analytically  !
 ! R36   R(28,29)                1.0962         calculate D2E/DX2 analytically  !
 ! R37   R(28,30)                1.098          calculate D2E/DX2 analytically  !
 ! R38   R(28,31)                1.0939         calculate D2E/DX2 analytically  !
 ! R39   R(32,33)                1.5322         calculate D2E/DX2 analytically  !
 ! R40   R(32,36)                1.5296         calculate D2E/DX2 analytically  !
 ! R41   R(32,39)                1.0946         calculate D2E/DX2 analytically  !
 ! R42   R(32,45)                1.4176         calculate D2E/DX2 analytically  !
 ! R43   R(33,34)                1.4962         calculate D2E/DX2 analytically  !
 ! R44   R(33,38)                1.0992         calculate D2E/DX2 analytically  !
 ! R45   R(33,44)                1.4127         calculate D2E/DX2 analytically  !
 ! R46   R(34,37)                1.0736         calculate D2E/DX2 analytically  !
 ! R47   R(34,42)                1.2868         calculate D2E/DX2 analytically  !
 ! R48   R(34,53)                2.1365         calculate D2E/DX2 analytically  !
 ! R49   R(35,36)                1.5334         calculate D2E/DX2 analytically  !
 ! R50   R(35,40)                1.0931         calculate D2E/DX2 analytically  !
 ! R51   R(35,42)                1.4703         calculate D2E/DX2 analytically  !
 ! R52   R(35,47)                1.5129         calculate D2E/DX2 analytically  !
 ! R53   R(36,41)                1.0958         calculate D2E/DX2 analytically  !
 ! R54   R(36,46)                1.4162         calculate D2E/DX2 analytically  !
 ! R55   R(43,51)                1.4904         calculate D2E/DX2 analytically  !
 ! R56   R(44,63)                1.4352         calculate D2E/DX2 analytically  !
 ! R57   R(45,67)                1.4241         calculate D2E/DX2 analytically  !
 ! R58   R(46,71)                1.4256         calculate D2E/DX2 analytically  !
 ! R59   R(47,48)                1.0996         calculate D2E/DX2 analytically  !
 ! R60   R(47,49)                1.0998         calculate D2E/DX2 analytically  !
 ! R61   R(47,50)                1.4127         calculate D2E/DX2 analytically  !
 ! R62   R(50,75)                1.4184         calculate D2E/DX2 analytically  !
 ! R63   R(51,52)                1.4751         calculate D2E/DX2 analytically  !
 ! R64   R(51,53)                1.5155         calculate D2E/DX2 analytically  !
 ! R65   R(51,54)                1.797          calculate D2E/DX2 analytically  !
 ! R66   R(54,55)                1.3871         calculate D2E/DX2 analytically  !
 ! R67   R(54,56)                1.3938         calculate D2E/DX2 analytically  !
 ! R68   R(55,57)                1.3965         calculate D2E/DX2 analytically  !
 ! R69   R(55,58)                1.082          calculate D2E/DX2 analytically  !
 ! R70   R(56,59)                1.3917         calculate D2E/DX2 analytically  !
 ! R71   R(56,60)                1.083          calculate D2E/DX2 analytically  !
 ! R72   R(57,61)                1.3913         calculate D2E/DX2 analytically  !
 ! R73   R(57,97)                1.5023         calculate D2E/DX2 analytically  !
 ! R74   R(59,61)                1.3982         calculate D2E/DX2 analytically  !
 ! R75   R(59,93)                1.5036         calculate D2E/DX2 analytically  !
 ! R76   R(61,62)                1.0836         calculate D2E/DX2 analytically  !
 ! R77   R(63,64)                1.0961         calculate D2E/DX2 analytically  !
 ! R78   R(63,65)                1.0933         calculate D2E/DX2 analytically  !
 ! R79   R(63,66)                1.091          calculate D2E/DX2 analytically  !
 ! R80   R(67,68)                1.0971         calculate D2E/DX2 analytically  !
 ! R81   R(67,69)                1.0953         calculate D2E/DX2 analytically  !
 ! R82   R(67,70)                1.0921         calculate D2E/DX2 analytically  !
 ! R83   R(71,72)                1.0945         calculate D2E/DX2 analytically  !
 ! R84   R(71,73)                1.0987         calculate D2E/DX2 analytically  !
 ! R85   R(71,74)                1.0923         calculate D2E/DX2 analytically  !
 ! R86   R(75,76)                1.0917         calculate D2E/DX2 analytically  !
 ! R87   R(75,77)                1.0993         calculate D2E/DX2 analytically  !
 ! R88   R(75,78)                1.0997         calculate D2E/DX2 analytically  !
 ! R89   R(79,80)                1.0917         calculate D2E/DX2 analytically  !
 ! R90   R(79,81)                1.0965         calculate D2E/DX2 analytically  !
 ! R91   R(79,82)                1.0995         calculate D2E/DX2 analytically  !
 ! R92   R(83,84)                2.3035         calculate D2E/DX2 analytically  !
 ! R93   R(84,85)                1.4242         calculate D2E/DX2 analytically  !
 ! R94   R(84,89)                1.4266         calculate D2E/DX2 analytically  !
 ! R95   R(85,86)                1.0981         calculate D2E/DX2 analytically  !
 ! R96   R(85,87)                1.0915         calculate D2E/DX2 analytically  !
 ! R97   R(85,88)                1.0956         calculate D2E/DX2 analytically  !
 ! R98   R(89,90)                1.0975         calculate D2E/DX2 analytically  !
 ! R99   R(89,91)                1.0913         calculate D2E/DX2 analytically  !
 ! R100  R(89,92)                1.0982         calculate D2E/DX2 analytically  !
 ! R101  R(93,94)                1.3497         calculate D2E/DX2 analytically  !
 ! R102  R(93,95)                1.3563         calculate D2E/DX2 analytically  !
 ! R103  R(93,96)                1.3501         calculate D2E/DX2 analytically  !
 ! R104  R(97,98)                1.3462         calculate D2E/DX2 analytically  !
 ! R105  R(97,99)                1.3606         calculate D2E/DX2 analytically  !
 ! R106  R(97,100)               1.3532         calculate D2E/DX2 analytically  !
 ! A1    A(2,1,5)              110.6041         calculate D2E/DX2 analytically  !
 ! A2    A(2,1,8)              109.0263         calculate D2E/DX2 analytically  !
 ! A3    A(2,1,14)             110.2424         calculate D2E/DX2 analytically  !
 ! A4    A(5,1,8)              108.5482         calculate D2E/DX2 analytically  !
 ! A5    A(5,1,14)             108.4799         calculate D2E/DX2 analytically  !
 ! A6    A(8,1,14)             109.9169         calculate D2E/DX2 analytically  !
 ! A7    A(1,2,3)              110.0224         calculate D2E/DX2 analytically  !
 ! A8    A(1,2,7)              108.718          calculate D2E/DX2 analytically  !
 ! A9    A(1,2,13)             111.4132         calculate D2E/DX2 analytically  !
 ! A10   A(3,2,7)              106.8949         calculate D2E/DX2 analytically  !
 ! A11   A(3,2,13)             110.0938         calculate D2E/DX2 analytically  !
 ! A12   A(7,2,13)             109.5815         calculate D2E/DX2 analytically  !
 ! A13   A(2,3,6)              110.6643         calculate D2E/DX2 analytically  !
 ! A14   A(2,3,11)             109.1433         calculate D2E/DX2 analytically  !
 ! A15   A(2,3,12)             108.9194         calculate D2E/DX2 analytically  !
 ! A16   A(6,3,11)             104.7307         calculate D2E/DX2 analytically  !
 ! A17   A(6,3,12)             111.0156         calculate D2E/DX2 analytically  !
 ! A18   A(11,3,12)            112.3164         calculate D2E/DX2 analytically  !
 ! A19   A(5,4,9)              108.0012         calculate D2E/DX2 analytically  !
 ! A20   A(5,4,11)             111.9656         calculate D2E/DX2 analytically  !
 ! A21   A(5,4,16)             111.8609         calculate D2E/DX2 analytically  !
 ! A22   A(9,4,11)             108.9861         calculate D2E/DX2 analytically  !
 ! A23   A(9,4,16)             110.6723         calculate D2E/DX2 analytically  !
 ! A24   A(11,4,16)            105.3382         calculate D2E/DX2 analytically  !
 ! A25   A(1,5,4)              113.558          calculate D2E/DX2 analytically  !
 ! A26   A(1,5,10)             108.2709         calculate D2E/DX2 analytically  !
 ! A27   A(1,5,15)             110.9            calculate D2E/DX2 analytically  !
 ! A28   A(4,5,10)             108.789          calculate D2E/DX2 analytically  !
 ! A29   A(4,5,15)             106.0185         calculate D2E/DX2 analytically  !
 ! A30   A(10,5,15)            109.2205         calculate D2E/DX2 analytically  !
 ! A31   A(2,7,37)             125.6049         calculate D2E/DX2 analytically  !
 ! A32   A(5,10,37)            113.9438         calculate D2E/DX2 analytically  !
 ! A33   A(5,10,42)            153.837          calculate D2E/DX2 analytically  !
 ! A34   A(37,10,42)            50.8347         calculate D2E/DX2 analytically  !
 ! A35   A(3,11,4)             116.1405         calculate D2E/DX2 analytically  !
 ! A36   A(3,12,79)            113.0761         calculate D2E/DX2 analytically  !
 ! A37   A(2,13,20)            113.2433         calculate D2E/DX2 analytically  !
 ! A38   A(1,14,24)            113.8807         calculate D2E/DX2 analytically  !
 ! A39   A(5,15,28)            114.1154         calculate D2E/DX2 analytically  !
 ! A40   A(4,16,17)            105.2143         calculate D2E/DX2 analytically  !
 ! A41   A(4,16,18)            105.5228         calculate D2E/DX2 analytically  !
 ! A42   A(4,16,19)            113.4096         calculate D2E/DX2 analytically  !
 ! A43   A(17,16,18)           105.1709         calculate D2E/DX2 analytically  !
 ! A44   A(17,16,19)           114.0947         calculate D2E/DX2 analytically  !
 ! A45   A(18,16,19)           112.6143         calculate D2E/DX2 analytically  !
 ! A46   A(16,19,37)           113.1541         calculate D2E/DX2 analytically  !
 ! A47   A(16,19,38)           154.6532         calculate D2E/DX2 analytically  !
 ! A48   A(16,19,83)           102.8835         calculate D2E/DX2 analytically  !
 ! A49   A(37,19,38)            72.1307         calculate D2E/DX2 analytically  !
 ! A50   A(37,19,83)            63.6326         calculate D2E/DX2 analytically  !
 ! A51   A(38,19,83)           101.4742         calculate D2E/DX2 analytically  !
 ! A52   A(13,20,21)           111.5895         calculate D2E/DX2 analytically  !
 ! A53   A(13,20,22)           111.1903         calculate D2E/DX2 analytically  !
 ! A54   A(13,20,23)           106.7086         calculate D2E/DX2 analytically  !
 ! A55   A(21,20,22)           108.8935         calculate D2E/DX2 analytically  !
 ! A56   A(21,20,23)           109.1872         calculate D2E/DX2 analytically  !
 ! A57   A(22,20,23)           109.2143         calculate D2E/DX2 analytically  !
 ! A58   A(14,24,25)           111.1262         calculate D2E/DX2 analytically  !
 ! A59   A(14,24,26)           111.5817         calculate D2E/DX2 analytically  !
 ! A60   A(14,24,27)           106.7615         calculate D2E/DX2 analytically  !
 ! A61   A(25,24,26)           108.9426         calculate D2E/DX2 analytically  !
 ! A62   A(25,24,27)           108.9122         calculate D2E/DX2 analytically  !
 ! A63   A(26,24,27)           109.4566         calculate D2E/DX2 analytically  !
 ! A64   A(15,28,29)           111.6525         calculate D2E/DX2 analytically  !
 ! A65   A(15,28,30)           111.1586         calculate D2E/DX2 analytically  !
 ! A66   A(15,28,31)           106.793          calculate D2E/DX2 analytically  !
 ! A67   A(29,28,30)           108.3696         calculate D2E/DX2 analytically  !
 ! A68   A(29,28,31)           109.498          calculate D2E/DX2 analytically  !
 ! A69   A(30,28,31)           109.3377         calculate D2E/DX2 analytically  !
 ! A70   A(33,32,36)           107.8462         calculate D2E/DX2 analytically  !
 ! A71   A(33,32,39)           109.284          calculate D2E/DX2 analytically  !
 ! A72   A(33,32,45)           110.9917         calculate D2E/DX2 analytically  !
 ! A73   A(36,32,39)           109.4207         calculate D2E/DX2 analytically  !
 ! A74   A(36,32,45)           108.6565         calculate D2E/DX2 analytically  !
 ! A75   A(39,32,45)           110.585          calculate D2E/DX2 analytically  !
 ! A76   A(32,33,34)           110.8541         calculate D2E/DX2 analytically  !
 ! A77   A(32,33,38)           109.4455         calculate D2E/DX2 analytically  !
 ! A78   A(32,33,44)           113.9103         calculate D2E/DX2 analytically  !
 ! A79   A(34,33,38)           102.9121         calculate D2E/DX2 analytically  !
 ! A80   A(34,33,44)           109.6989         calculate D2E/DX2 analytically  !
 ! A81   A(38,33,44)           109.4461         calculate D2E/DX2 analytically  !
 ! A82   A(33,34,37)           121.5465         calculate D2E/DX2 analytically  !
 ! A83   A(33,34,42)           121.5364         calculate D2E/DX2 analytically  !
 ! A84   A(33,34,53)            98.2207         calculate D2E/DX2 analytically  !
 ! A85   A(37,34,42)           114.4402         calculate D2E/DX2 analytically  !
 ! A86   A(37,34,53)            89.6421         calculate D2E/DX2 analytically  !
 ! A87   A(42,34,53)            97.5835         calculate D2E/DX2 analytically  !
 ! A88   A(36,35,40)           108.9335         calculate D2E/DX2 analytically  !
 ! A89   A(36,35,42)           113.2791         calculate D2E/DX2 analytically  !
 ! A90   A(36,35,47)           114.0737         calculate D2E/DX2 analytically  !
 ! A91   A(40,35,42)           104.3032         calculate D2E/DX2 analytically  !
 ! A92   A(40,35,47)           109.5964         calculate D2E/DX2 analytically  !
 ! A93   A(42,35,47)           106.1689         calculate D2E/DX2 analytically  !
 ! A94   A(32,36,35)           111.4493         calculate D2E/DX2 analytically  !
 ! A95   A(32,36,41)           109.0202         calculate D2E/DX2 analytically  !
 ! A96   A(32,36,46)           111.4247         calculate D2E/DX2 analytically  !
 ! A97   A(35,36,41)           109.1547         calculate D2E/DX2 analytically  !
 ! A98   A(35,36,46)           104.9967         calculate D2E/DX2 analytically  !
 ! A99   A(41,36,46)           110.7387         calculate D2E/DX2 analytically  !
 ! A100  A(7,37,10)             70.5492         calculate D2E/DX2 analytically  !
 ! A101  A(7,37,19)            130.4258         calculate D2E/DX2 analytically  !
 ! A102  A(7,37,34)            115.3328         calculate D2E/DX2 analytically  !
 ! A103  A(10,37,19)            73.1579         calculate D2E/DX2 analytically  !
 ! A104  A(10,37,34)            92.2942         calculate D2E/DX2 analytically  !
 ! A105  A(19,37,34)            98.5722         calculate D2E/DX2 analytically  !
 ! A106  A(19,38,33)           102.985          calculate D2E/DX2 analytically  !
 ! A107  A(10,42,34)            89.3675         calculate D2E/DX2 analytically  !
 ! A108  A(10,42,35)           139.6319         calculate D2E/DX2 analytically  !
 ! A109  A(34,42,35)           122.0693         calculate D2E/DX2 analytically  !
 ! A110  A(33,44,63)           113.4813         calculate D2E/DX2 analytically  !
 ! A111  A(32,45,67)           114.0184         calculate D2E/DX2 analytically  !
 ! A112  A(36,46,71)           114.0339         calculate D2E/DX2 analytically  !
 ! A113  A(35,47,48)           107.9338         calculate D2E/DX2 analytically  !
 ! A114  A(35,47,49)           109.0985         calculate D2E/DX2 analytically  !
 ! A115  A(35,47,50)           108.9694         calculate D2E/DX2 analytically  !
 ! A116  A(48,47,49)           108.5582         calculate D2E/DX2 analytically  !
 ! A117  A(48,47,50)           111.2194         calculate D2E/DX2 analytically  !
 ! A118  A(49,47,50)           110.9897         calculate D2E/DX2 analytically  !
 ! A119  A(47,50,75)           112.1788         calculate D2E/DX2 analytically  !
 ! A120  A(43,51,52)           114.79           calculate D2E/DX2 analytically  !
 ! A121  A(43,51,53)           112.1045         calculate D2E/DX2 analytically  !
 ! A122  A(43,51,54)           105.6356         calculate D2E/DX2 analytically  !
 ! A123  A(52,51,53)           111.9456         calculate D2E/DX2 analytically  !
 ! A124  A(52,51,54)           107.2783         calculate D2E/DX2 analytically  !
 ! A125  A(53,51,54)           104.1766         calculate D2E/DX2 analytically  !
 ! A126  A(34,53,51)           118.7373         calculate D2E/DX2 analytically  !
 ! A127  A(51,54,55)           119.6763         calculate D2E/DX2 analytically  !
 ! A128  A(51,54,56)           119.0742         calculate D2E/DX2 analytically  !
 ! A129  A(55,54,56)           121.1978         calculate D2E/DX2 analytically  !
 ! A130  A(54,55,57)           119.1044         calculate D2E/DX2 analytically  !
 ! A131  A(54,55,58)           120.3            calculate D2E/DX2 analytically  !
 ! A132  A(57,55,58)           120.5016         calculate D2E/DX2 analytically  !
 ! A133  A(54,56,59)           118.9911         calculate D2E/DX2 analytically  !
 ! A134  A(54,56,60)           120.4205         calculate D2E/DX2 analytically  !
 ! A135  A(59,56,60)           120.5477         calculate D2E/DX2 analytically  !
 ! A136  A(55,57,61)           120.7529         calculate D2E/DX2 analytically  !
 ! A137  A(55,57,97)           118.443          calculate D2E/DX2 analytically  !
 ! A138  A(61,57,97)           120.6688         calculate D2E/DX2 analytically  !
 ! A139  A(56,59,61)           120.7723         calculate D2E/DX2 analytically  !
 ! A140  A(56,59,93)           120.6633         calculate D2E/DX2 analytically  !
 ! A141  A(61,59,93)           118.5389         calculate D2E/DX2 analytically  !
 ! A142  A(57,61,59)           119.1764         calculate D2E/DX2 analytically  !
 ! A143  A(57,61,62)           120.4182         calculate D2E/DX2 analytically  !
 ! A144  A(59,61,62)           120.3989         calculate D2E/DX2 analytically  !
 ! A145  A(44,63,64)           109.6032         calculate D2E/DX2 analytically  !
 ! A146  A(44,63,65)           110.8375         calculate D2E/DX2 analytically  !
 ! A147  A(44,63,66)           106.0078         calculate D2E/DX2 analytically  !
 ! A148  A(64,63,65)           109.8782         calculate D2E/DX2 analytically  !
 ! A149  A(64,63,66)           110.7175         calculate D2E/DX2 analytically  !
 ! A150  A(65,63,66)           109.7386         calculate D2E/DX2 analytically  !
 ! A151  A(45,67,68)           111.1486         calculate D2E/DX2 analytically  !
 ! A152  A(45,67,69)           111.5514         calculate D2E/DX2 analytically  !
 ! A153  A(45,67,70)           106.6531         calculate D2E/DX2 analytically  !
 ! A154  A(68,67,69)           108.9889         calculate D2E/DX2 analytically  !
 ! A155  A(68,67,70)           109.1675         calculate D2E/DX2 analytically  !
 ! A156  A(69,67,70)           109.2722         calculate D2E/DX2 analytically  !
 ! A157  A(46,71,72)           111.1443         calculate D2E/DX2 analytically  !
 ! A158  A(46,71,73)           110.9298         calculate D2E/DX2 analytically  !
 ! A159  A(46,71,74)           106.396          calculate D2E/DX2 analytically  !
 ! A160  A(72,71,73)           109.3722         calculate D2E/DX2 analytically  !
 ! A161  A(72,71,74)           109.7391         calculate D2E/DX2 analytically  !
 ! A162  A(73,71,74)           109.2021         calculate D2E/DX2 analytically  !
 ! A163  A(50,75,76)           107.0092         calculate D2E/DX2 analytically  !
 ! A164  A(50,75,77)           111.3187         calculate D2E/DX2 analytically  !
 ! A165  A(50,75,78)           111.1445         calculate D2E/DX2 analytically  !
 ! A166  A(76,75,77)           109.2379         calculate D2E/DX2 analytically  !
 ! A167  A(76,75,78)           109.3734         calculate D2E/DX2 analytically  !
 ! A168  A(77,75,78)           108.718          calculate D2E/DX2 analytically  !
 ! A169  A(12,79,80)           106.8582         calculate D2E/DX2 analytically  !
 ! A170  A(12,79,81)           111.422          calculate D2E/DX2 analytically  !
 ! A171  A(12,79,82)           110.8288         calculate D2E/DX2 analytically  !
 ! A172  A(80,79,81)           109.4327         calculate D2E/DX2 analytically  !
 ! A173  A(80,79,82)           109.3584         calculate D2E/DX2 analytically  !
 ! A174  A(81,79,82)           108.9008         calculate D2E/DX2 analytically  !
 ! A175  A(19,83,84)           149.4458         calculate D2E/DX2 analytically  !
 ! A176  A(83,84,85)           123.7114         calculate D2E/DX2 analytically  !
 ! A177  A(83,84,89)           118.2164         calculate D2E/DX2 analytically  !
 ! A178  A(85,84,89)           112.6226         calculate D2E/DX2 analytically  !
 ! A179  A(84,85,86)           110.7669         calculate D2E/DX2 analytically  !
 ! A180  A(84,85,87)           107.1194         calculate D2E/DX2 analytically  !
 ! A181  A(84,85,88)           110.5999         calculate D2E/DX2 analytically  !
 ! A182  A(86,85,87)           109.6296         calculate D2E/DX2 analytically  !
 ! A183  A(86,85,88)           109.4491         calculate D2E/DX2 analytically  !
 ! A184  A(87,85,88)           109.2341         calculate D2E/DX2 analytically  !
 ! A185  A(84,89,90)           110.3196         calculate D2E/DX2 analytically  !
 ! A186  A(84,89,91)           106.7313         calculate D2E/DX2 analytically  !
 ! A187  A(84,89,92)           110.8051         calculate D2E/DX2 analytically  !
 ! A188  A(90,89,91)           109.6542         calculate D2E/DX2 analytically  !
 ! A189  A(90,89,92)           109.3105         calculate D2E/DX2 analytically  !
 ! A190  A(91,89,92)           109.9881         calculate D2E/DX2 analytically  !
 ! A191  A(59,93,94)           112.2524         calculate D2E/DX2 analytically  !
 ! A192  A(59,93,95)           110.8879         calculate D2E/DX2 analytically  !
 ! A193  A(59,93,96)           112.0249         calculate D2E/DX2 analytically  !
 ! A194  A(94,93,95)           107.1611         calculate D2E/DX2 analytically  !
 ! A195  A(94,93,96)           107.5274         calculate D2E/DX2 analytically  !
 ! A196  A(95,93,96)           106.6882         calculate D2E/DX2 analytically  !
 ! A197  A(57,97,98)           112.5678         calculate D2E/DX2 analytically  !
 ! A198  A(57,97,99)           111.2716         calculate D2E/DX2 analytically  !
 ! A199  A(57,97,100)          111.7476         calculate D2E/DX2 analytically  !
 ! A200  A(98,97,99)           106.9294         calculate D2E/DX2 analytically  !
 ! A201  A(98,97,100)          107.6919         calculate D2E/DX2 analytically  !
 ! A202  A(99,97,100)          106.2928         calculate D2E/DX2 analytically  !
 ! D1    D(5,1,2,3)            -54.3902         calculate D2E/DX2 analytically  !
 ! D2    D(5,1,2,7)             62.3574         calculate D2E/DX2 analytically  !
 ! D3    D(5,1,2,13)          -176.7802         calculate D2E/DX2 analytically  !
 ! D4    D(8,1,2,3)             64.8928         calculate D2E/DX2 analytically  !
 ! D5    D(8,1,2,7)           -178.3596         calculate D2E/DX2 analytically  !
 ! D6    D(8,1,2,13)           -57.4972         calculate D2E/DX2 analytically  !
 ! D7    D(14,1,2,3)          -174.3614         calculate D2E/DX2 analytically  !
 ! D8    D(14,1,2,7)           -57.6138         calculate D2E/DX2 analytically  !
 ! D9    D(14,1,2,13)           63.2486         calculate D2E/DX2 analytically  !
 ! D10   D(2,1,5,4)             46.6665         calculate D2E/DX2 analytically  !
 ! D11   D(2,1,5,10)           -74.2626         calculate D2E/DX2 analytically  !
 ! D12   D(2,1,5,15)           165.9242         calculate D2E/DX2 analytically  !
 ! D13   D(8,1,5,4)            -72.9049         calculate D2E/DX2 analytically  !
 ! D14   D(8,1,5,10)           166.166          calculate D2E/DX2 analytically  !
 ! D15   D(8,1,5,15)            46.3528         calculate D2E/DX2 analytically  !
 ! D16   D(14,1,5,4)           167.6893         calculate D2E/DX2 analytically  !
 ! D17   D(14,1,5,10)           46.7602         calculate D2E/DX2 analytically  !
 ! D18   D(14,1,5,15)          -73.053          calculate D2E/DX2 analytically  !
 ! D19   D(2,1,14,24)         -100.0277         calculate D2E/DX2 analytically  !
 ! D20   D(5,1,14,24)          138.7265         calculate D2E/DX2 analytically  !
 ! D21   D(8,1,14,24)           20.183          calculate D2E/DX2 analytically  !
 ! D22   D(1,2,3,6)            175.0252         calculate D2E/DX2 analytically  !
 ! D23   D(1,2,3,11)            60.2796         calculate D2E/DX2 analytically  !
 ! D24   D(1,2,3,12)           -62.6688         calculate D2E/DX2 analytically  !
 ! D25   D(7,2,3,6)             57.1437         calculate D2E/DX2 analytically  !
 ! D26   D(7,2,3,11)           -57.6018         calculate D2E/DX2 analytically  !
 ! D27   D(7,2,3,12)           179.4498         calculate D2E/DX2 analytically  !
 ! D28   D(13,2,3,6)           -61.8083         calculate D2E/DX2 analytically  !
 ! D29   D(13,2,3,11)         -176.5538         calculate D2E/DX2 analytically  !
 ! D30   D(13,2,3,12)           60.4978         calculate D2E/DX2 analytically  !
 ! D31   D(1,2,7,37)           -71.73           calculate D2E/DX2 analytically  !
 ! D32   D(3,2,7,37)            47.0029         calculate D2E/DX2 analytically  !
 ! D33   D(13,2,7,37)          166.2867         calculate D2E/DX2 analytically  !
 ! D34   D(1,2,13,20)         -113.5741         calculate D2E/DX2 analytically  !
 ! D35   D(3,2,13,20)          124.077          calculate D2E/DX2 analytically  !
 ! D36   D(7,2,13,20)            6.7815         calculate D2E/DX2 analytically  !
 ! D37   D(2,3,11,4)           -60.3319         calculate D2E/DX2 analytically  !
 ! D38   D(6,3,11,4)          -178.8547         calculate D2E/DX2 analytically  !
 ! D39   D(12,3,11,4)           60.5646         calculate D2E/DX2 analytically  !
 ! D40   D(2,3,12,79)         -173.4888         calculate D2E/DX2 analytically  !
 ! D41   D(6,3,12,79)          -51.3951         calculate D2E/DX2 analytically  !
 ! D42   D(11,3,12,79)          65.486          calculate D2E/DX2 analytically  !
 ! D43   D(9,4,5,1)             76.1646         calculate D2E/DX2 analytically  !
 ! D44   D(9,4,5,10)          -163.1978         calculate D2E/DX2 analytically  !
 ! D45   D(9,4,5,15)           -45.8458         calculate D2E/DX2 analytically  !
 ! D46   D(11,4,5,1)           -43.83           calculate D2E/DX2 analytically  !
 ! D47   D(11,4,5,10)           76.8076         calculate D2E/DX2 analytically  !
 ! D48   D(11,4,5,15)         -165.8404         calculate D2E/DX2 analytically  !
 ! D49   D(16,4,5,1)          -161.8083         calculate D2E/DX2 analytically  !
 ! D50   D(16,4,5,10)          -41.1707         calculate D2E/DX2 analytically  !
 ! D51   D(16,4,5,15)           76.1814         calculate D2E/DX2 analytically  !
 ! D52   D(5,4,11,3)            51.9661         calculate D2E/DX2 analytically  !
 ! D53   D(9,4,11,3)           -67.4511         calculate D2E/DX2 analytically  !
 ! D54   D(16,4,11,3)          173.7661         calculate D2E/DX2 analytically  !
 ! D55   D(5,4,16,17)          -53.5894         calculate D2E/DX2 analytically  !
 ! D56   D(5,4,16,18)         -164.5061         calculate D2E/DX2 analytically  !
 ! D57   D(5,4,16,19)           71.7743         calculate D2E/DX2 analytically  !
 ! D58   D(9,4,16,17)           66.8932         calculate D2E/DX2 analytically  !
 ! D59   D(9,4,16,18)          -44.0235         calculate D2E/DX2 analytically  !
 ! D60   D(9,4,16,19)         -167.7431         calculate D2E/DX2 analytically  !
 ! D61   D(11,4,16,17)        -175.4573         calculate D2E/DX2 analytically  !
 ! D62   D(11,4,16,18)          73.626          calculate D2E/DX2 analytically  !
 ! D63   D(11,4,16,19)         -50.0936         calculate D2E/DX2 analytically  !
 ! D64   D(1,5,10,37)           82.3603         calculate D2E/DX2 analytically  !
 ! D65   D(1,5,10,42)           33.913          calculate D2E/DX2 analytically  !
 ! D66   D(4,5,10,37)          -41.4822         calculate D2E/DX2 analytically  !
 ! D67   D(4,5,10,42)          -89.9296         calculate D2E/DX2 analytically  !
 ! D68   D(15,5,10,37)        -156.7785         calculate D2E/DX2 analytically  !
 ! D69   D(15,5,10,42)         154.7741         calculate D2E/DX2 analytically  !
 ! D70   D(1,5,15,28)           94.3439         calculate D2E/DX2 analytically  !
 ! D71   D(4,5,15,28)         -141.9633         calculate D2E/DX2 analytically  !
 ! D72   D(10,5,15,28)         -24.9004         calculate D2E/DX2 analytically  !
 ! D73   D(2,7,37,10)           59.0312         calculate D2E/DX2 analytically  !
 ! D74   D(2,7,37,19)           13.8182         calculate D2E/DX2 analytically  !
 ! D75   D(2,7,37,34)          142.1269         calculate D2E/DX2 analytically  !
 ! D76   D(5,10,37,7)          -60.944          calculate D2E/DX2 analytically  !
 ! D77   D(5,10,37,19)          84.6889         calculate D2E/DX2 analytically  !
 ! D78   D(5,10,37,34)        -177.0471         calculate D2E/DX2 analytically  !
 ! D79   D(42,10,37,7)          93.8684         calculate D2E/DX2 analytically  !
 ! D80   D(42,10,37,19)       -120.4986         calculate D2E/DX2 analytically  !
 ! D81   D(42,10,37,34)        -22.2347         calculate D2E/DX2 analytically  !
 ! D82   D(5,10,42,34)          80.2907         calculate D2E/DX2 analytically  !
 ! D83   D(5,10,42,35)        -135.9242         calculate D2E/DX2 analytically  !
 ! D84   D(37,10,42,34)         18.3891         calculate D2E/DX2 analytically  !
 ! D85   D(37,10,42,35)        162.1742         calculate D2E/DX2 analytically  !
 ! D86   D(3,12,79,80)         173.89           calculate D2E/DX2 analytically  !
 ! D87   D(3,12,79,81)         -66.6163         calculate D2E/DX2 analytically  !
 ! D88   D(3,12,79,82)          54.8209         calculate D2E/DX2 analytically  !
 ! D89   D(2,13,20,21)         -60.197          calculate D2E/DX2 analytically  !
 ! D90   D(2,13,20,22)          61.5997         calculate D2E/DX2 analytically  !
 ! D91   D(2,13,20,23)        -179.3943         calculate D2E/DX2 analytically  !
 ! D92   D(1,14,24,25)         -62.8288         calculate D2E/DX2 analytically  !
 ! D93   D(1,14,24,26)          58.9802         calculate D2E/DX2 analytically  !
 ! D94   D(1,14,24,27)         178.5336         calculate D2E/DX2 analytically  !
 ! D95   D(5,15,28,29)         -69.7663         calculate D2E/DX2 analytically  !
 ! D96   D(5,15,28,30)          51.3805         calculate D2E/DX2 analytically  !
 ! D97   D(5,15,28,31)         170.5696         calculate D2E/DX2 analytically  !
 ! D98   D(4,16,19,37)          -2.3203         calculate D2E/DX2 analytically  !
 ! D99   D(4,16,19,38)         -99.3992         calculate D2E/DX2 analytically  !
 ! D100  D(4,16,19,83)          64.2457         calculate D2E/DX2 analytically  !
 ! D101  D(17,16,19,37)        118.1357         calculate D2E/DX2 analytically  !
 ! D102  D(17,16,19,38)         21.0568         calculate D2E/DX2 analytically  !
 ! D103  D(17,16,19,83)       -175.2983         calculate D2E/DX2 analytically  !
 ! D104  D(18,16,19,37)       -122.0731         calculate D2E/DX2 analytically  !
 ! D105  D(18,16,19,38)        140.848          calculate D2E/DX2 analytically  !
 ! D106  D(18,16,19,83)        -55.5071         calculate D2E/DX2 analytically  !
 ! D107  D(16,19,37,7)          -3.0086         calculate D2E/DX2 analytically  !
 ! D108  D(16,19,37,10)        -47.3727         calculate D2E/DX2 analytically  !
 ! D109  D(16,19,37,34)       -137.1816         calculate D2E/DX2 analytically  !
 ! D110  D(38,19,37,7)         150.4806         calculate D2E/DX2 analytically  !
 ! D111  D(38,19,37,10)        106.1165         calculate D2E/DX2 analytically  !
 ! D112  D(38,19,37,34)         16.3076         calculate D2E/DX2 analytically  !
 ! D113  D(83,19,37,7)         -96.3724         calculate D2E/DX2 analytically  !
 ! D114  D(83,19,37,10)       -140.7365         calculate D2E/DX2 analytically  !
 ! D115  D(83,19,37,34)        129.4545         calculate D2E/DX2 analytically  !
 ! D116  D(16,19,38,33)        131.0463         calculate D2E/DX2 analytically  !
 ! D117  D(37,19,38,33)         24.5202         calculate D2E/DX2 analytically  !
 ! D118  D(83,19,38,33)        -32.6876         calculate D2E/DX2 analytically  !
 ! D119  D(16,19,83,84)         82.1463         calculate D2E/DX2 analytically  !
 ! D120  D(37,19,83,84)       -168.1706         calculate D2E/DX2 analytically  !
 ! D121  D(38,19,83,84)       -104.9193         calculate D2E/DX2 analytically  !
 ! D122  D(36,32,33,34)        -53.453          calculate D2E/DX2 analytically  !
 ! D123  D(36,32,33,38)         59.3819         calculate D2E/DX2 analytically  !
 ! D124  D(36,32,33,44)       -177.7486         calculate D2E/DX2 analytically  !
 ! D125  D(39,32,33,34)         65.4101         calculate D2E/DX2 analytically  !
 ! D126  D(39,32,33,38)        178.245          calculate D2E/DX2 analytically  !
 ! D127  D(39,32,33,44)        -58.8855         calculate D2E/DX2 analytically  !
 ! D128  D(45,32,33,34)       -172.3664         calculate D2E/DX2 analytically  !
 ! D129  D(45,32,33,38)        -59.5315         calculate D2E/DX2 analytically  !
 ! D130  D(45,32,33,44)         63.338          calculate D2E/DX2 analytically  !
 ! D131  D(33,32,36,35)         57.1809         calculate D2E/DX2 analytically  !
 ! D132  D(33,32,36,41)        -63.372          calculate D2E/DX2 analytically  !
 ! D133  D(33,32,36,46)        174.1058         calculate D2E/DX2 analytically  !
 ! D134  D(39,32,36,35)        -61.5949         calculate D2E/DX2 analytically  !
 ! D135  D(39,32,36,41)        177.8522         calculate D2E/DX2 analytically  !
 ! D136  D(39,32,36,46)         55.33           calculate D2E/DX2 analytically  !
 ! D137  D(45,32,36,35)        177.5731         calculate D2E/DX2 analytically  !
 ! D138  D(45,32,36,41)         57.0203         calculate D2E/DX2 analytically  !
 ! D139  D(45,32,36,46)        -65.5019         calculate D2E/DX2 analytically  !
 ! D140  D(33,32,45,67)       -105.5747         calculate D2E/DX2 analytically  !
 ! D141  D(36,32,45,67)        136.0007         calculate D2E/DX2 analytically  !
 ! D142  D(39,32,45,67)         15.8891         calculate D2E/DX2 analytically  !
 ! D143  D(32,33,34,37)       -158.9801         calculate D2E/DX2 analytically  !
 ! D144  D(32,33,34,42)         39.8705         calculate D2E/DX2 analytically  !
 ! D145  D(32,33,34,53)        -64.3176         calculate D2E/DX2 analytically  !
 ! D146  D(38,33,34,37)         84.095          calculate D2E/DX2 analytically  !
 ! D147  D(38,33,34,42)        -77.0543         calculate D2E/DX2 analytically  !
 ! D148  D(38,33,34,53)        178.7576         calculate D2E/DX2 analytically  !
 ! D149  D(44,33,34,37)        -32.3198         calculate D2E/DX2 analytically  !
 ! D150  D(44,33,34,42)        166.5308         calculate D2E/DX2 analytically  !
 ! D151  D(44,33,34,53)         62.3428         calculate D2E/DX2 analytically  !
 ! D152  D(32,33,38,19)       -164.9326         calculate D2E/DX2 analytically  !
 ! D153  D(34,33,38,19)        -47.0116         calculate D2E/DX2 analytically  !
 ! D154  D(44,33,38,19)         69.5835         calculate D2E/DX2 analytically  !
 ! D155  D(32,33,44,63)        -97.6369         calculate D2E/DX2 analytically  !
 ! D156  D(34,33,44,63)        137.449          calculate D2E/DX2 analytically  !
 ! D157  D(38,33,44,63)         25.2323         calculate D2E/DX2 analytically  !
 ! D158  D(33,34,37,7)         163.0654         calculate D2E/DX2 analytically  !
 ! D159  D(33,34,37,10)       -127.407          calculate D2E/DX2 analytically  !
 ! D160  D(33,34,37,19)        -54.0976         calculate D2E/DX2 analytically  !
 ! D161  D(42,34,37,7)         -34.5416         calculate D2E/DX2 analytically  !
 ! D162  D(42,34,37,10)         34.9859         calculate D2E/DX2 analytically  !
 ! D163  D(42,34,37,19)        108.2953         calculate D2E/DX2 analytically  !
 ! D164  D(53,34,37,7)          63.6292         calculate D2E/DX2 analytically  !
 ! D165  D(53,34,37,10)        133.1567         calculate D2E/DX2 analytically  !
 ! D166  D(53,34,37,19)       -153.5339         calculate D2E/DX2 analytically  !
 ! D167  D(33,34,42,10)        126.538          calculate D2E/DX2 analytically  !
 ! D168  D(33,34,42,35)        -26.6171         calculate D2E/DX2 analytically  !
 ! D169  D(37,34,42,10)        -35.8569         calculate D2E/DX2 analytically  !
 ! D170  D(37,34,42,35)        170.988          calculate D2E/DX2 analytically  !
 ! D171  D(53,34,42,10)       -128.9284         calculate D2E/DX2 analytically  !
 ! D172  D(53,34,42,35)         77.9164         calculate D2E/DX2 analytically  !
 ! D173  D(33,34,53,51)        -90.993          calculate D2E/DX2 analytically  !
 ! D174  D(37,34,53,51)         30.8593         calculate D2E/DX2 analytically  !
 ! D175  D(42,34,53,51)        145.4775         calculate D2E/DX2 analytically  !
 ! D176  D(40,35,36,32)         72.0556         calculate D2E/DX2 analytically  !
 ! D177  D(40,35,36,41)       -167.4706         calculate D2E/DX2 analytically  !
 ! D178  D(40,35,36,46)        -48.7114         calculate D2E/DX2 analytically  !
 ! D179  D(42,35,36,32)        -43.5336         calculate D2E/DX2 analytically  !
 ! D180  D(42,35,36,41)         76.9402         calculate D2E/DX2 analytically  !
 ! D181  D(42,35,36,46)       -164.3006         calculate D2E/DX2 analytically  !
 ! D182  D(47,35,36,32)       -165.1511         calculate D2E/DX2 analytically  !
 ! D183  D(47,35,36,41)        -44.6773         calculate D2E/DX2 analytically  !
 ! D184  D(47,35,36,46)         74.0819         calculate D2E/DX2 analytically  !
 ! D185  D(36,35,42,10)       -108.0659         calculate D2E/DX2 analytically  !
 ! D186  D(36,35,42,34)         27.7345         calculate D2E/DX2 analytically  !
 ! D187  D(40,35,42,10)        133.6257         calculate D2E/DX2 analytically  !
 ! D188  D(40,35,42,34)        -90.574          calculate D2E/DX2 analytically  !
 ! D189  D(47,35,42,10)         17.8851         calculate D2E/DX2 analytically  !
 ! D190  D(47,35,42,34)        153.6854         calculate D2E/DX2 analytically  !
 ! D191  D(36,35,47,48)        -67.1184         calculate D2E/DX2 analytically  !
 ! D192  D(36,35,47,49)        175.1023         calculate D2E/DX2 analytically  !
 ! D193  D(36,35,47,50)         53.78           calculate D2E/DX2 analytically  !
 ! D194  D(40,35,47,48)         55.3129         calculate D2E/DX2 analytically  !
 ! D195  D(40,35,47,49)        -62.4665         calculate D2E/DX2 analytically  !
 ! D196  D(40,35,47,50)        176.2112         calculate D2E/DX2 analytically  !
 ! D197  D(42,35,47,48)        167.4154         calculate D2E/DX2 analytically  !
 ! D198  D(42,35,47,49)         49.636          calculate D2E/DX2 analytically  !
 ! D199  D(42,35,47,50)        -71.6863         calculate D2E/DX2 analytically  !
 ! D200  D(32,36,46,71)        101.6146         calculate D2E/DX2 analytically  !
 ! D201  D(35,36,46,71)       -137.6022         calculate D2E/DX2 analytically  !
 ! D202  D(41,36,46,71)        -19.9141         calculate D2E/DX2 analytically  !
 ! D203  D(33,44,63,64)        -62.9584         calculate D2E/DX2 analytically  !
 ! D204  D(33,44,63,65)         58.4919         calculate D2E/DX2 analytically  !
 ! D205  D(33,44,63,66)        177.5135         calculate D2E/DX2 analytically  !
 ! D206  D(32,45,67,68)        -55.091          calculate D2E/DX2 analytically  !
 ! D207  D(32,45,67,69)         66.772          calculate D2E/DX2 analytically  !
 ! D208  D(32,45,67,70)       -173.9834         calculate D2E/DX2 analytically  !
 ! D209  D(36,46,71,72)        -61.0742         calculate D2E/DX2 analytically  !
 ! D210  D(36,46,71,73)         60.8428         calculate D2E/DX2 analytically  !
 ! D211  D(36,46,71,74)        179.5019         calculate D2E/DX2 analytically  !
 ! D212  D(35,47,50,75)       -176.7872         calculate D2E/DX2 analytically  !
 ! D213  D(48,47,50,75)        -57.9227         calculate D2E/DX2 analytically  !
 ! D214  D(49,47,50,75)         63.0508         calculate D2E/DX2 analytically  !
 ! D215  D(47,50,75,76)        179.99           calculate D2E/DX2 analytically  !
 ! D216  D(47,50,75,77)        -60.7185         calculate D2E/DX2 analytically  !
 ! D217  D(47,50,75,78)         60.633          calculate D2E/DX2 analytically  !
 ! D218  D(43,51,53,34)        -17.2122         calculate D2E/DX2 analytically  !
 ! D219  D(52,51,53,34)       -147.8714         calculate D2E/DX2 analytically  !
 ! D220  D(54,51,53,34)         96.5307         calculate D2E/DX2 analytically  !
 ! D221  D(43,51,54,55)        -12.4229         calculate D2E/DX2 analytically  !
 ! D222  D(43,51,54,56)        164.993          calculate D2E/DX2 analytically  !
 ! D223  D(52,51,54,55)        110.4678         calculate D2E/DX2 analytically  !
 ! D224  D(52,51,54,56)        -72.1163         calculate D2E/DX2 analytically  !
 ! D225  D(53,51,54,55)       -130.6995         calculate D2E/DX2 analytically  !
 ! D226  D(53,51,54,56)         46.7164         calculate D2E/DX2 analytically  !
 ! D227  D(51,54,55,57)        176.8518         calculate D2E/DX2 analytically  !
 ! D228  D(51,54,55,58)          0.3575         calculate D2E/DX2 analytically  !
 ! D229  D(56,54,55,57)         -0.5078         calculate D2E/DX2 analytically  !
 ! D230  D(56,54,55,58)       -177.0021         calculate D2E/DX2 analytically  !
 ! D231  D(51,54,56,59)       -176.5216         calculate D2E/DX2 analytically  !
 ! D232  D(51,54,56,60)          1.1721         calculate D2E/DX2 analytically  !
 ! D233  D(55,54,56,59)          0.8536         calculate D2E/DX2 analytically  !
 ! D234  D(55,54,56,60)        178.5473         calculate D2E/DX2 analytically  !
 ! D235  D(54,55,57,61)         -0.1148         calculate D2E/DX2 analytically  !
 ! D236  D(54,55,57,97)       -175.9141         calculate D2E/DX2 analytically  !
 ! D237  D(58,55,57,61)        176.3722         calculate D2E/DX2 analytically  !
 ! D238  D(58,55,57,97)          0.573          calculate D2E/DX2 analytically  !
 ! D239  D(54,56,59,61)         -0.5845         calculate D2E/DX2 analytically  !
 ! D240  D(54,56,59,93)        177.5496         calculate D2E/DX2 analytically  !
 ! D241  D(60,56,59,61)       -178.2753         calculate D2E/DX2 analytically  !
 ! D242  D(60,56,59,93)         -0.1411         calculate D2E/DX2 analytically  !
 ! D243  D(55,57,61,59)          0.3734         calculate D2E/DX2 analytically  !
 ! D244  D(55,57,61,62)       -178.7005         calculate D2E/DX2 analytically  !
 ! D245  D(97,57,61,59)        176.0789         calculate D2E/DX2 analytically  !
 ! D246  D(97,57,61,62)         -2.995          calculate D2E/DX2 analytically  !
 ! D247  D(55,57,97,98)       -164.3965         calculate D2E/DX2 analytically  !
 ! D248  D(55,57,97,99)         75.5907         calculate D2E/DX2 analytically  !
 ! D249  D(55,57,97,100)       -43.0573         calculate D2E/DX2 analytically  !
 ! D250  D(61,57,97,98)         19.8006         calculate D2E/DX2 analytically  !
 ! D251  D(61,57,97,99)       -100.2122         calculate D2E/DX2 analytically  !
 ! D252  D(61,57,97,100)       141.1398         calculate D2E/DX2 analytically  !
 ! D253  D(56,59,61,57)         -0.0185         calculate D2E/DX2 analytically  !
 ! D254  D(56,59,61,62)        179.0556         calculate D2E/DX2 analytically  !
 ! D255  D(93,59,61,57)       -178.1915         calculate D2E/DX2 analytically  !
 ! D256  D(93,59,61,62)          0.8826         calculate D2E/DX2 analytically  !
 ! D257  D(56,59,93,94)         -8.0432         calculate D2E/DX2 analytically  !
 ! D258  D(56,59,93,95)       -127.8695         calculate D2E/DX2 analytically  !
 ! D259  D(56,59,93,96)        113.0566         calculate D2E/DX2 analytically  !
 ! D260  D(61,59,93,94)        170.1319         calculate D2E/DX2 analytically  !
 ! D261  D(61,59,93,95)         50.3056         calculate D2E/DX2 analytically  !
 ! D262  D(61,59,93,96)        -68.7683         calculate D2E/DX2 analytically  !
 ! D263  D(19,83,84,85)          8.0148         calculate D2E/DX2 analytically  !
 ! D264  D(19,83,84,89)       -143.9644         calculate D2E/DX2 analytically  !
 ! D265  D(83,84,85,86)        -91.7466         calculate D2E/DX2 analytically  !
 ! D266  D(83,84,85,87)         27.774          calculate D2E/DX2 analytically  !
 ! D267  D(83,84,85,88)        146.7222         calculate D2E/DX2 analytically  !
 ! D268  D(89,84,85,86)         61.6077         calculate D2E/DX2 analytically  !
 ! D269  D(89,84,85,87)       -178.8717         calculate D2E/DX2 analytically  !
 ! D270  D(89,84,85,88)        -59.9235         calculate D2E/DX2 analytically  !
 ! D271  D(83,84,89,90)       -145.0636         calculate D2E/DX2 analytically  !
 ! D272  D(83,84,89,91)        -25.9965         calculate D2E/DX2 analytically  !
 ! D273  D(83,84,89,92)         93.7428         calculate D2E/DX2 analytically  !
 ! D274  D(85,84,89,90)         59.9838         calculate D2E/DX2 analytically  !
 ! D275  D(85,84,89,91)        179.0509         calculate D2E/DX2 analytically  !
 ! D276  D(85,84,89,92)        -61.2098         calculate D2E/DX2 analytically  !
 --------------------------------------------------------------------------------
 Trust Radius=3.00D-02 FncErr=1.00D-07 GrdErr=1.00D-06 EigMax=2.50D+02 EigMin=1.00D-04
 Number of steps in this run=    594 maximum allowed number of steps=    600.
 Search for a saddle point of order  1.
 Step   0 in ReCalcFC=30 IGetFC= 4 compute analytic Hessian.
 GradGradGradGradGradGradGradGradGradGradGradGradGradGradGradGradGradGrad

 Leave Link  103 at Wed May 22 13:24:34 2019, MaxMem=  6442450944 cpu:               5.8 elap:               0.2
 (Enter /home/ekwan/sw/g16/l202.exe)
 Stoichiometry    C30H47F6NaO15S
 Framework group  C1[X(C30H47F6NaO15S)]
 Deg. of freedom   294
 Full point group                 C1      NOp   1
 Largest Abelian subgroup         C1      NOp   1
 Largest concise Abelian subgroup C1      NOp   1
                         Standard orientation:                         
 ---------------------------------------------------------------------
 Center     Atomic      Atomic             Coordinates (Angstroms)
 Number     Number       Type             X           Y           Z
 ---------------------------------------------------------------------
      1          6           0       -4.536467   -0.874812    0.738867
      2          6           0       -3.359668   -1.471164    1.510461
      3          6           0       -2.836610   -2.712041    0.789557
      4          6           0       -3.406542   -1.774034   -1.381599
      5          6           0       -4.144655   -0.602604   -0.714721
      6          1           0       -1.938608   -3.097128    1.284875
      7          1           0       -2.542016   -0.742061    1.523339
      8          1           0       -5.368475   -1.588820    0.747968
      9          1           0       -4.147287   -2.545709   -1.627630
     10          1           0       -3.498936    0.277929   -0.736140
     11          8           0       -2.402239   -2.346027   -0.512017
     12          8           0       -3.847842   -3.679902    0.759971
     13          8           0       -3.726297   -1.799294    2.843789
     14          8           0       -4.945959    0.357861    1.336292
     15          8           0       -5.298951   -0.357856   -1.515428
     16          6           0       -2.643289   -1.326672   -2.648783
     17          1           0       -3.399901   -0.812884   -3.278519
     18          1           0       -2.396817   -2.268550   -3.197634
     19          8           0       -1.528886   -0.565871   -2.376010
     20          6           0       -3.064364   -1.002979    3.820572
     21          1           0       -1.973523   -1.118888    3.764839
     22          1           0       -3.315451    0.059283    3.703048
     23          1           0       -3.412990   -1.349136    4.797016
     24          6           0       -6.088098    0.240075    2.172731
     25          1           0       -6.968126   -0.084710    1.598561
     26          1           0       -5.916744   -0.467341    2.991436
     27          1           0       -6.281008    1.234293    2.584850
     28          6           0       -5.624126    1.017623   -1.660024
     29          1           0       -5.991360    1.447318   -0.720825
     30          1           0       -4.752310    1.598544   -1.988780
     31          1           0       -6.407894    1.078814   -2.420599
     32          6           0        0.650198    2.697403   -0.710869
     33          6           0        0.137652    1.329642   -1.173676
     34          6           0       -0.987349    0.860915   -0.305834
     35          6           0       -1.636594    3.107332    0.293387
     36          6           0       -0.546680    3.647159   -0.640343
     37          1           0       -1.255718   -0.176889   -0.245871
     38          1           0       -0.338402    1.431569   -2.159200
     39          1           0        1.095672    2.598756    0.284119
     40          1           0       -1.293074    3.194836    1.327398
     41          1           0       -0.963863    3.771259   -1.646032
     42          8           0       -1.894024    1.670572    0.116496
     43          8           0        0.178518   -1.772335    1.040611
     44          8           0        1.138157    0.334151   -1.235340
     45          8           0        1.593185    3.223644   -1.629203
     46          8           0       -0.181085    4.900165   -0.090960
     47          6           0       -2.974859    3.796727    0.143254
     48          1           0       -2.862391    4.833802    0.491010
     49          1           0       -3.713677    3.291403    0.782344
     50          8           0       -3.364816    3.751939   -1.213811
     51         16           0        0.739813   -0.659284    1.857617
     52          8           0        0.766211   -0.911072    3.310799
     53          8           0        0.097344    0.672404    1.525116
     54          6           0        2.443426   -0.473160    1.317163
     55          6           0        3.022295   -1.451035    0.521693
     56          6           0        3.141334    0.682690    1.663142
     57          6           0        4.324536   -1.262969    0.053661
     58          1           0        2.451082   -2.319718    0.221966
     59          6           0        4.435554    0.858416    1.182705
     60          1           0        2.669013    1.448869    2.265503
     61          6           0        5.036660   -0.111766    0.374950
     62          1           0        6.039057    0.038195   -0.008374
     63          6           0        1.672371    0.141145   -2.553387
     64          1           0        0.879651   -0.210945   -3.223583
     65          1           0        2.100210    1.070224   -2.939518
     66          1           0        2.455708   -0.611553   -2.453275
     67          6           0        2.941347    3.162503   -1.174621
     68          1           0        3.053350    3.654815   -0.200553
     69          1           0        3.292077    2.128080   -1.093548
     70          1           0        3.545590    3.691008   -1.915101
     71          6           0       -0.003969    5.929903   -1.060766
     72          1           0        0.795816    5.676849   -1.763717
     73          1           0       -0.934398    6.109708   -1.616690
     74          1           0        0.263682    6.832482   -0.506772
     75          6           0       -4.580568    4.445191   -1.444749
     76          1           0       -4.800630    4.357682   -2.510497
     77          1           0       -5.406641    4.006625   -0.867135
     78          1           0       -4.488197    5.507916   -1.177380
     79          6           0       -3.409397   -4.928738    0.237970
     80          1           0       -4.235397   -5.631572    0.362717
     81          1           0       -3.154134   -4.850838   -0.825601
     82          1           0       -2.531756   -5.296296    0.788886
     83         11           0       -0.194216   -2.009894   -1.253058
     84          8           0        1.340149   -3.727649   -1.285624
     85          6           0        1.953324   -4.217387   -2.474131
     86          1           0        1.375230   -5.050471   -2.895686
     87          1           0        1.978513   -3.390956   -3.186692
     88          1           0        2.977269   -4.549945   -2.270761
     89          6           0        1.269922   -4.714372   -0.257672
     90          1           0        2.277184   -5.058312    0.009909
     91          1           0        0.803969   -4.236155    0.605545
     92          1           0        0.667124   -5.573157   -0.581861
     93          6           0        5.202422    2.115400    1.487097
     94          9           0        4.436021    3.048222    2.090557
     95          9           0        5.689496    2.672023    0.350173
     96          9           0        6.263013    1.879879    2.288697
     97          6           0        4.903326   -2.285960   -0.881989
     98          9           0        6.240961   -2.184514   -0.995001
     99          9           0        4.388883   -2.156016   -2.134846
    100          9           0        4.618779   -3.547512   -0.483725
 ---------------------------------------------------------------------
 Rotational constants (GHZ):           0.0675082           0.0423390           0.0329807
 Leave Link  202 at Wed May 22 13:24:34 2019, MaxMem=  6442450944 cpu:               4.9 elap:               0.2
 (Enter /home/ekwan/sw/g16/l301.exe)
 Standard basis: 6-31G(d) (6D, 7F)
 Ernie: Thresh=  0.10000D-02 Tol=  0.10000D-05 Strict=F.
 There are   897 symmetry adapted cartesian basis functions of A   symmetry.
 There are   897 symmetry adapted basis functions of A   symmetry.
   897 basis functions,  1720 primitive gaussians,   897 cartesian basis functions
   214 alpha electrons      214 beta electrons
       nuclear repulsion energy      9759.3260453834 Hartrees.
 IExCor=  402 DFT=T Ex+Corr=B3LYP ExCW=0 ScaHFX=  0.200000
 ScaDFX=  0.800000  0.720000  1.000000  0.810000 ScalE2=  1.000000  1.000000
 IRadAn=      5 IRanWt=     -1 IRanGd=            0 ICorTp=0 IEmpDi=141
[...]
 0.00005926,0.00044661,-0.00025452,-0.00002653,0.00010737,-0.00009900,0
 .00002797,0.00000900,-0.00012405,0.00000508,-0.00003058,0.00001488,-0.
 00002166,0.00000446,-0.00000504,0.00000623,0.00000971,-0.00000220,0.00
 000328,0.00005157,-0.00002009,0.00002171,-0.00142113,-0.00039106,0.000
 59696,0.00031881,0.00011303,-0.00040044,0.00065077,-0.00018249,0.00002
 820,0.00042842,-0.00080117,0.00053343,-0.00157859,-0.00075992,-0.00096
 234,0.00021011,-0.00034431,-0.00045220,-0.00383744,0.00585345,-0.02374
 987,0.00011280,0.00007046,-0.00057914,0.00089033,-0.00054512,0.0006660
 8,-0.00004297,0.00007190,-0.00006489,0.00092073,0.00130954,-0.00006290
 ,-0.00029532,0.00017995,-0.00037023,-0.00027088,0.00062726,0.00030446,
 0.00019115,-0.00020730,0.00003407,0.00007931,-0.00009687,0.00002162,0.
 00102293,-0.00129073,-0.00020385,-0.00009580,0.00013944,-0.00002729,0.
 00000585,0.00001563,0.00000066,0.00001748,-0.00003202,-0.00003314,0.00
 000437,-0.00003100,0.00002738,-0.00000251,0.00005228,-0.00004449,0.000
 00031,0.00000704,0.00000211,0.00000875,-0.00000552,0.00001028,-0.00000
 209,-0.00001115,0.00000051,-0.00003433,0.00001927,-0.00000546,0.000003
 34,-0.00000178,0.00000404,0.00000698,-0.00000123,-0.00000291,0.0000033
 7,-0.00000575,-0.00000148,0.00002209,-0.00004388,-0.00001413,-0.000000
 72,0.00000523,0.00000160,-0.00000037,0.00000041,0.00000587,-0.00000734
 ,0.00000309,-0.00000547,-0.00003919,-0.00030683,-0.00006967,-0.0004713
 0,0.00008248,0.00024935,0.00061625,-0.00143726,-0.00015436,-0.00055995
 ,0.00007630,0.00008317,-0.00008130,-0.00023644,0.00006502,-0.00097284,
 0.00041842,-0.00021792,0.00031335,0.00005676,-0.00012307,0.00002471,0.
 00016133,-0.00008767,-0.00005768,-0.00003527,0.00004673,-0.00008121,-0
 .00002174,0.00000377,0.00080973,0.00086176,0.00037572,-0.00009146,-0.0
 0034437,-0.00017968,-0.00020298,-0.00026652,0.00005450,-0.00033417,-0.
 00015554,-0.00020761,0.00093617,-0.07024708,-0.00305722,0.00142772,0.0
 1210567,0.00089882,-0.01057825,0.07739572,-0.00002114,0.00002449,-0.00
 002140,-0.00005165,-0.00002989,-0.00001430,-0.00009471,-0.00002586,-0.
 00010714,-0.00005475,0.00001538,-0.00006708,-0.00001601,-0.00000194,-0
 .00002803,0.00000838,-0.00005138,0.00002127,-0.00001117,0.00002539,-0.
 00000101,0.00001250,-0.00000203,0.00000424,0.00001443,0.00000014,0.000
 01211,-0.00000113,-0.00000023,-0.00000608,0.00006562,0.00000551,0.0001
 3676,0.00005380,0.00006422,0.00006298,0.00006225,0.00002500,0.00005234
 ,0.00003226,-0.00000786,0.00001727,0.00002684,-0.00001744,0.00004472,-
 0.00001666,-0.00000645,-0.00001737,0.00000480,0.00000117,0.00001340,0.
 00002665,0.00005113,0.00002959,-0.00013249,0.00007481,0.00023164,-0.00
 008001,-0.00001448,-0.00002972,0.00000936,-0.00001216,0.00000895,0.000
 00450,-0.00000125,-0.00000029,0.00001180,0.00000361,-0.00000223,-0.000
 02026,-0.00000033,0.00000050,0.00000758,0.00000293,0.00000373,-0.00000
 314,-0.00000100,0.00000238,-0.00000120,0.00000010,-0.00000142,0.000002
 12,0.00001714,-0.00001088,-0.00000585,-0.00000087,0.00000314,-0.000002
 85,-0.00000613,-0.00000445,0.00000679,-0.00000224,0.00000342,-0.000106
 53,0.00001321,-0.00025913,0.00017874,-0.00033230,0.00023470,-0.0005541
 0,0.00029543,-0.00099622,-0.00001081,0.00007188,-0.00006108,0.00002941
 ,0.00005802,0.00001675,-0.00000357,-0.00003618,0.00004005,0.00002732,-
 0.00004164,-0.00000121,-0.00001987,0.00010486,0.00004476,-0.00001610,0
 .00000605,0.00001844,0.00002035,-0.00002762,0.00001265,0.00011511,-0.0
 0017111,0.00019304,0.00113557,0.00047775,0.00027079,-0.00065706,0.0005
 9403,0.00090380,0.00014321,0.00003320,0.00028222,-0.00000994,-0.000041
 97,0.00005801,-0.00003720,0.00001252,-0.00004330,0.00000513,-0.0000001
 6,0.00000689,-0.00000140,-0.00000289,0.00000614,0.00004062,-0.00001476
 ,0.00005504,-0.00359877,0.00003544,0.00073043,0.00087364,0.00008549,-0
 .00075494,0.00163305,-0.00088940,0.00049844,0.00082891,-0.00111607,0.0
 0078816,-0.00221134,-0.00152944,0.00022166,-0.00023040,-0.00078697,-0.
 00076188,-0.01360545,-0.00804785,-0.04233217,-0.00027585,0.00052913,-0
 .00104411,0.00131186,-0.00260803,0.00036981,-0.00006783,0.00009700,-0.
 00014911,0.00376596,0.00231680,-0.00248717,-0.00057499,0.00067448,-0.0
 0069710,0.00133884,-0.00128707,-0.00055561,-0.00018302,0.00022903,0.00
 005711,-0.00022127,0.00018662,0.00003038,0.00073726,-0.00031045,-0.000
 31272,-0.00017984,0.00005344,-0.00010398,-0.00002714,0.00014097,0.0000
 5367,-0.00002642,-0.00004945,-0.00022538,0.00001917,-0.00009169,0.0000
 4971,0.00000328,0.00004281,-0.00005051,-0.00000877,-0.00000220,0.00000
 256,0.00001068,-0.00000482,0.00000656,-0.00000172,0.00000048,0.0000033
 7,-0.00002086,0.00001248,-0.00001229,0.00000731,-0.00000210,0.00000759
 ,0.00000178,-0.00000340,0.00000069,0.00000364,-0.00000194,-0.00000132,
 0.00000190,-0.00003319,-0.00005221,0.00000150,0.00000646,0.00000274,0.
 00000396,0.00000267,0.00001702,0.00000285,0.00000029,0.00000291,0.0001
 9188,-0.00005914,-0.00060871,-0.00021385,-0.00017801,0.00106279,0.0004
 0877,0.00007617,-0.00138067,-0.00047805,-0.00018287,0.00048468,0.00081
 013,-0.00035409,0.00077347,-0.00030978,0.00074049,-0.00055585,-0.00029
 950,0.00047090,-0.00046730,0.00003704,-0.00030704,0.00005406,-0.000068
 73,-0.00010808,0.00012018,0.00008833,-0.00007268,0.00009938,0.00213227
 ,0.00222966,0.00040692,-0.00016529,-0.00106846,-0.00043956,-0.00055362
 ,-0.00076034,0.00040911,-0.00072784,-0.00040980,-0.00038881,-0.0464341
 7,-0.00211286,-0.22325224,-0.03827955,0.00044325,-0.00687794,0.1021339
 9,-0.03063358,0.31590095,0.00001629,-0.00001610,-0.00000495,0.00001377
 ,0.00000418,-0.00002120,0.00005454,0.00001366,-0.00001977,0.00002920,-
 0.00001530,0.00003331,0.00001741,-0.00001085,0.00000763,0.00000061,0.0
 0001541,-0.00001178,0.00000146,-0.00000730,-0.00000089,-0.00000460,0.0
 0000086,0.00000021,-0.00000771,-0.00000268,-0.00000226,0.00000246,-0.0
 0000221,-0.00000097,-0.00005818,0.00001778,-0.00000033,-0.00003917,-0.
 00001094,0.00000332,-0.00001554,0.00000445,0.00002265,-0.00002666,0.00
 001798,0.00001518,-0.00002719,0.00002222,-0.00001007,0.00004563,0.0000
 0585,0.00000497,-0.00001691,0.00000246,-0.00000875,-0.00000354,-0.0000
 0080,0.00000096,-0.00006829,0.00001887,-0.00004081,0.00000972,-0.00000
 951,-0.00000876,-0.00000125,0.00000253,-0.00000268,-0.00000095,0.00000
 389,0.00000073,-0.00000283,-0.00000076,0.00000389,0.00001715,0.0000004
 9,-0.00000946,-0.00000322,-0.00000139,-0.00000009,-0.00000034,-0.00000
 161,0.00000075,-0.00000208,0.00000223,0.00000202,0.00000589,-0.0000193
 6,0.00000193,-0.00000069,0.00000333,0.00000186,0.00000025,0.00000122,0
 .00000097,-0.00000286,0.00000232,-0.00000214,-0.00002481,-0.00002431,0
 .00002297,0.00004280,-0.00004864,-0.00001398,0.00012777,-0.00007673,0.
 00009921,0.00000466,-0.00005733,-0.00000200,0.00000832,-0.00002417,-0.
 00000148,0.00001009,-0.00000018,-0.00000663,-0.00000336,0.00000763,-0.
 00000313,0.00000127,-0.00001049,-0.00000259,0.00000349,0.00000425,-0.0
 0000218,-0.00000104,0.00000275,-0.00000020,-0.00007533,0.00009332,0.00
 000795,-0.00020482,0.00013370,0.00015216,-0.00002766,0.00005677,-0.000
 05823,0.00001922,0.00003312,-0.00002345,0.00000582,0.00004663,-0.00000
 547,0.00001094,-0.00000411,0.00000597,-0.00000305,0.00000362,-0.000002
 09,-0.00000073,0.00000030,-0.00000161,-0.00001534,0.00001120,-0.000007
 74,0.00045193,-0.00038591,-0.00044071,-0.00008808,0.00003954,0.0001986
 7,-0.00020371,0.00023251,-0.00003283,0.00071947,0.00007642,-0.00068731
 ,-0.00208786,0.00059001,-0.00003852,0.00013239,0.00025401,0.00012834,0
 .01103625,0.00690140,0.00056030,0.00091422,0.00103040,0.00041351,0.000
 48461,0.00083502,0.00021275,0.00008160,0.00004301,0.00005431,-0.001595
 68,0.00065889,0.00068686,0.00021909,0.00042903,0.00026316,0.00000369,-
 0.00002305,0.00005317,0.00000155,-0.00000456,-0.00000478,-0.00000872,0
 .00002544,-0.00000800,0.00001699,-0.00003049,0.00003531,-0.00001250,-0
 .00002376,-0.00000069,0.00000410,-0.00001132,0.00000050,-0.00000346,0.
 00000593,0.00002011,0.00000068,0.00001605,-0.00000945,-0.00000335,-0.0
 0001926,0.00001875,0.00000068,-0.00000120,-0.00000300,-0.00000131,0.00
 000183,-0.00000337,0.00000041,0.00000441,-0.00000037,0.00001109,-0.000
 00868,0.00000214,-0.00000150,0.00000007,-0.00000124,-0.00000156,0.0000
 0052,0.00000016,-0.00000106,0.00000309,0.00000096,0.00001350,-0.000003
 03,-0.00000027,-0.00000762,-0.00000252,0.00000208,0.00000853,0.0000008
 1,0.00000501,-0.00000074,0.00000147,-0.00001009,0.00029968,-0.00018844
 ,0.00007578,-0.00049741,-0.00039823,-0.00008120,0.00074655,-0.00086623
 ,0.00025776,-0.00044499,0.00009087,-0.00015043,-0.00006794,0.00012317,
 -0.00002356,-0.00113413,0.00042108,-0.00030275,0.00066519,0.00002076,-
 0.00031286,-0.00074190,0.00012865,-0.00001923,-0.00004135,0.00003241,0
 .00000229,-0.00022277,-0.00002543,-0.00004083,-0.00045937,-0.00034488,
 0.00005329,0.00003729,0.00018051,0.00005243,0.00012069,0.00011659,-0.0
 0007936,0.00020370,0.00006897,0.00008569,-0.07729894,-0.02512230,0.007
 74482,-0.03427397,-0.05523897,0.01735319,0.01277429,0.01129026,-0.0076
 9949,0.09044108,-0.00001111,0.00000897,0.00000978,-0.00005737,-0.00005
 463,0.00001696,-0.00006230,-0.00012578,0.00004283,0.00001782,-0.000021
 03,0.00000403,-0.00004046,-0.00001441,-0.00000984,-0.00000510,-0.00002
 493,-0.00000358,-0.00000425,0.00002403,0.00000743,0.00001628,-0.000001
 11,-0.00000069,0.00002157,0.00001679,-0.00000782,-0.00001290,0.0000112
 2,-0.00000165,0.00003632,0.00011308,-0.00001430,0.00002800,0.00014831,
 0.00001830,0.00004125,0.00004964,-0.00001402,0.00003605,0.00001034,-0.
 00001684,0.00003706,0.00001179,0.00000623,-0.00019407,-0.00017026,-0.0
 0006000,0.00004373,0.00001629,0.00002223,0.00003425,0.00008934,0.00004
 469,0.00024877,0.00026221,0.00014045,-0.00004024,-0.00001534,-0.000008
 19,-0.00000376,-0.00002118,0.00001177,-0.00000633,0.00000709,-0.000001
 87,0.00001598,0.00000116,-0.00000977,-0.00002787,-0.00000673,0.0000149
 3,0.00000696,0.00000230,0.00000206,-0.00000004,0.00000185,-0.00000409,
 0.00000030,0.00000049,-0.00000093,-0.00001663,-0.00000165,0.00000293,0
 .00000012,-0.00000183,-0.00000126,0.00000427,0.00000083,-0.00000676,0.
 00000474,-0.00000104,0.00000351,-0.00005840,-0.00000050,-0.00007868,-0
 .00024450,0.00023382,0.00001156,-0.00057168,0.00006119,-0.00044498,-0.
 00003714,0.00010806,0.00001461,-0.00006055,0.00011496,0.00003674,-0.00
 000030,-0.00005781,0.00001849,0.00002492,-0.00005054,0.00001134,-0.000
 03384,0.00008371,0.00002303,-0.00001363,-0.00000630,0.00001019,0.00000
 841,-0.00002146,0.00000153,0.00028134,-0.00019327,-0.00001169,0.000963
 99,0.00081943,0.00016207,0.00043290,-0.00016637,0.00019301,0.00027697,
 -0.00012494,0.00008999,0.00001772,-0.00017341,0.00001033,-0.00005022,0
 .00002435,-0.00003344,0.00000615,-0.00000651,0.00001000,0.00001687,-0.
 00000382,0.00000465,0.00008447,-0.00002951,0.00003448,-0.00303436,-0.0
 0081080,0.00107187,0.00073294,0.00028990,-0.00086402,0.00124670,-0.000
 39141,0.00011564,0.00015070,0.00017118,-0.00104454,-0.00294558,-0.0005
 9066,0.00013216,0.00014247,-0.00073348,-0.00024899,-0.01003248,-0.0474
 3872,0.00793921,0.00143758,-0.00095111,0.00001345,-0.00145849,-0.00144
 095,-0.00189020,0.00011883,-0.00001193,0.00012339,0.00729463,-0.001884
 78,-0.00238233,0.00018612,0.00035283,0.00083675,-0.00020778,0.00024257
 ,-0.00010980,0.00010184,-0.00008887,0.00006460,0.00001484,-0.00002507,
 0.00001868,-0.00024488,0.00001267,-0.00012141,-0.00024839,0.00023906,-
 0.00007244,0.00000518,0.00005298,0.00000764,0.00001525,-0.00008065,-0.
 00010577,0.00001589,-0.00006074,0.00004906,-0.00000928,0.00007865,-0.0
 0006313,0.00000118,0.00001113,0.00000077,0.00001556,-0.00000809,0.0000
 1591,-0.00000385,-0.00001550,0.00000030,-0.00005525,0.00002894,-0.0000
 0738,0.00000502,-0.00000323,0.00000637,0.00001170,-0.00000167,-0.00000
 541,0.00000528,-0.00000840,-0.00000210,0.00005665,-0.00009150,-0.00001
 743,-0.00000535,0.00000931,0.00000364,0.00000364,0.00000148,0.00001116
 ,-0.00001800,0.00000707,-0.00001801,-0.00003617,-0.00055221,-0.0001272
 8,-0.00057033,0.00059920,0.00010479,0.00185517,-0.00125333,0.00006850,
 -0.00056379,0.00015911,-0.00024682,-0.00040492,0.00018535,-0.00027725,
 -0.00070737,0.00080867,0.00082977,0.00146175,-0.00098799,0.00046517,-0
 .00026567,0.00116276,-0.00047908,-0.00021135,0.00000363,0.00001136,-0.
 00046558,0.00006491,-0.00012589,0.00204754,0.00217318,0.00021677,-0.00
 006390,-0.00118683,-0.00042502,-0.00044503,-0.00064059,0.00018296,-0.0
 0086943,-0.00035747,-0.00047113,-0.02007870,-0.24496452,0.02856202,-0.
 04074488,-0.01814908,0.01174268,0.00672290,-0.02211326,0.04350915,0.05
 888692,0.33726135,-0.00000957,0.00001017,-0.00000781,-0.00001617,-0.00
 000647,-0.00000627,-0.00003981,-0.00000091,-0.00004536,-0.00002311,0.0
 0000902,-0.00002689,-0.00000634,0.00000135,-0.00001118,0.00000430,-0.0
 0001959,0.00000723,-0.00000369,0.00000854,-0.00000002,0.00000416,-0.00
 000067,0.00000140,0.00000559,0.,0.00000408,-0.00000030,-0.00000013,-0.
 00000139,0.00002658,-0.00000562,0.00005541,0.00002287,0.00001555,0.000
 02425,0.00002232,0.00000390,0.00002040,0.00001331,-0.00000603,0.000005
 93,0.00001177,-0.00000977,0.00001762,-0.00000640,-0.00000574,-0.000010
 80,0.00000323,-0.00000029,0.00000599,0.00000763,0.00001795,0.00000939,
 -0.00003598,0.00002372,0.00007733,-0.00002913,-0.00000312,-0.00001002,
 0.00000440,-0.00000147,0.00000255,0.00000275,-0.00000187,0.00000020,0.
 00000263,0.00000153,-0.00000006,-0.00000811,0.00000045,0.00000005,0.00
 000285,0.00000114,0.00000135,-0.00000111,-0.00000034,0.00000116,-0.000
 00020,-0.00000033,-0.00000075,0.00000052,0.00000885,-0.00000446,-0.000
 00200,-0.00000059,0.00000092,-0.00000132,-0.00000238,-0.00000145,0.000
 00270,-0.00000109,0.00000139,-0.00002051,0.00000977,-0.00008260,0.0000
 5043,-0.00009054,0.00006357,-0.00017147,0.00009019,-0.00030476,-0.0000
 0322,0.00002764,-0.00001951,0.00000772,0.00001864,0.00000441,-0.000002
 71,-0.00000873,0.00001085,0.00000777,-0.00001238,-0.00000113,-0.000007
 11,0.00003250,0.00001329,-0.00000477,0.00000131,0.00000591,0.00000648,
 -0.00000854,0.00000407,0.00003835,-0.00005769,0.00005590,0.00034646,0.
 00005393,0.00004788,-0.00017251,0.00014316,0.00028308,0.00002442,0.000
 00403,0.00008795,-0.00000493,-0.00001821,0.00002005,-0.00001194,0.0000
 0400,-0.00001517,0.00000196,-0.00000027,0.00000224,-0.00000121,-0.0000
 0100,0.00000219,0.00001258,-0.00000554,0.00001916,-0.00103910,0.000246
 81,0.00024476,0.00024711,-0.00002019,-0.00017351,0.00042526,-0.0002973
 5,0.00016102,-0.00050915,0.00034792,0.00024536,0.00117877,-0.00098549,
 -0.00048592,-0.00038194,-0.00071054,-0.00015979,-0.00101684,-0.0166199
 3,0.01009614,-0.00029378,-0.00061217,-0.00027059,0.00005086,-0.0004210
 1,-0.00140522,-0.00002649,-0.00004132,0.00003474,0.00178927,0.00002193
 ,0.00030190,-0.00001975,-0.00023131,0.00030959,0.00036891,-0.00037027,
 -0.00022912,-0.00005030,0.00006811,0.00001883,-0.00005706,0.00003913,0
 .00001186,0.00026468,-0.00007785,-0.00003963,-0.00003960,0.00001386,-0
 .00002810,-0.00000938,0.00004351,0.00001633,-0.00000564,-0.00001081,-0
 .00007247,0.00000553,-0.00003229,0.00001648,0.00000279,0.00001539,-0.0
 0001905,-0.00000323,-0.00000080,0.00000168,0.00000309,-0.00000175,0.00
 000226,-0.00000036,-0.00000019,0.00000119,-0.00000649,0.00000457,-0.00
 000454,0.00000255,-0.00000057,0.00000262,0.00000029,-0.00000130,0.0000
 0049,0.00000124,-0.00000083,-0.00000057,-0.00000607,-0.00000629,-0.000
 02194,0.00000167,0.00000204,0.00000072,0.00000115,0.00000036,0.0000063
 7,0.00000325,-0.00000051,0.00000305,0.00006138,-0.00000238,-0.00020908
 ,-0.00005295,-0.00000802,0.00060242,0.00063614,-0.00085100,-0.00067042
 ,-0.00037644,0.00010599,0.00005949,0.00016162,0.00004135,0.00019092,-0
 .00111735,0.00032171,-0.00087735,-0.00028915,0.00048563,-0.00036504,0.
 00010984,-0.00035636,0.00009835,-0.00002781,-0.00005544,0.00005533,0.0
 0012724,-0.00005717,0.00007148,0.00064842,0.00080682,-0.00016696,-0.00
 004343,-0.00028868,-0.00004538,-0.00018322,-0.00023720,0.00015477,-0.0
 0026872,-0.00014451,-0.00007952,0.00763889,0.03492170,-0.07899104,0.01
 507901,0.01420627,0.00668734,-0.00459090,0.05778045,-0.03976218,-0.018
 44396,-0.08724807,0.10437438\\-0.00000055,0.00000011,-0.00000103,0.000
 00029,0.00000045,-0.00000053,-0.00000041,0.00000031,-0.00000179,0.0000
 0071,0.00000258,0.00000021,0.00000214,0.00000310,0.00000044,0.00000042
 ,-0.00000050,-0.00000076,-0.00000040,-0.00000051,-0.00000035,-0.000000
 90,0.00000078,0.00000065,-0.00000121,0.00000113,-0.00000084,-0.0000002
 0,0.00000076,0.00000103,-0.00000156,0.00000047,-0.00000085,-0.00000041
 ,0.00000054,-0.00000079,0.00000075,-0.00000172,-0.00000061,0.00000166,
 0.00000076,-0.00000077,-0.00000231,-0.00000027,-0.00000012,-0.00000080
 ,0.00000103,0.00000057,-0.00000089,0.00000215,-0.00000034,-0.00000093,
 0.00000189,-0.00000098,-0.00000079,0.00000202,0.00000078,0.00000075,-0
 .00000241,0.00000024,-0.00000016,-0.00000058,-0.00000075,0.00000084,-0
 .00000118,0.00000071,0.00000044,-0.00000180,-0.00000013,-0.00000370,-0
 .00000029,0.00000227,0.00000066,0.00000064,0.00000167,-0.00000003,0.00
 000096,-0.00000087,0.00000072,0.00000063,0.00000100,0.00000329,0.00000
 091,0.00000097,-0.00000034,0.00000046,0.00000230,0.00000078,0.00000228
 ,0.00000121,-0.00000039,0.00000264,0.00000175,0.00000106,0.00000041,0.
 00000168,-0.00000027,0.00000100,-0.00000099,0.00000010,-0.00000007,0.0
 0000038,0.00000073,0.00000106,0.00000246,0.,0.00000064,0.00000170,-0.0
 0000004,-0.00000052,0.00000037,0.00000051,0.00000065,0.00000040,0.0000
 0055,-0.00000100,0.00000065,0.00000134,-0.00000131,0.00000158,0.000000
 57,-0.00000012,0.00000148,-0.00000043,0.00000078,-0.00000020,-0.000001
 67,-0.00000033,-0.00000082,-0.00000030,0.00000003,0.00000040,0.0000002
 8,0.00000019,0.00000158,0.00000122,-0.00000044,0.00000167,0.00000117,0
 .00000106,0.00000156,0.00000115,0.00000020,0.00000279,0.00000023,-0.00
 000037,0.00000191,0.00000046,0.00000077,0.00000221,0.00000008,-0.00000
 320,0.00000038,0.00000159,-0.00000244,-0.00000244,-0.00000008,-0.00000
 022,0.00000106,0.00000064,-0.00000163,-0.00000061,-0.00000104,-0.00000
 117,-0.00000058,0.00000050,-0.00000235,-0.00000081,0.00000019,-0.00000
 154,-0.00000136,0.00000014,-0.00000033,-0.00000119,-0.00000100,-0.0000
 0102,-0.00000024,0.00000037,-0.00000157,0.00000016,0.00000011,-0.00000
 105,-0.00000150,0.,-0.00000103,-0.00000107,0.00000025,0.00000032,-0.00
 000056,-0.00000073,0.00000098,-0.00000066,-0.00000021,0.00000073,0.000
 00004,-0.00000098,0.00000065,-0.00000091,0.00000065,-0.00000027,0.0000
 0024,0.00000139,-0.00000058,0.00000174,0.00000023,-0.00000038,0.000000
 20,0.00000047,-0.00000022,0.00000136,0.00000161,0.00000028,0.00000275,
 0.00000070,0.00000043,0.00000250,0.00000069,0.00000085,0.00000258,0.00
 000133,-0.00000005,0.00000291,0.00000167,0.00000071,0.00000225,0.00000
 067,0.00000199,0.00000283,0.00000067,0.00000110,0.00000263,0.00000068,
 0.00000113,0.00000311,-0.00000094,-0.00000058,-0.00000163,-0.00000093,
 0.00000068,-0.00000212,-0.00000094,0.00000100,-0.00000217,-0.00000119,
 0.00000004,-0.00000241,-0.00000238,0.00000047,-0.00000227,0.00000038,0
 .00000137,-0.00000224,-0.00000183,-0.00000064,-0.00000126,-0.00000156,
 0.00000101,-0.00000279,-0.00000120,0.00000119,-0.00000181,-0.00000112,
 0.,-0.00000267,-0.00000050,-0.00000048,-0.00000314,-0.00000104,-0.0000
 0080,-0.00000283,-0.00000058,-0.00000069,-0.00000218,-0.00000130,-0.00
 000012,-0.00000268,0.00000092,-0.00000196,0.00000157,0.00000054,-0.000
 00253,-0.00000005,0.00000124,-0.00000235,-0.00000028,0.00000059,-0.000
 00269,-0.00000068,-0.00000010,-0.00000123,-0.00000159,-0.00000105,-0.0
 0000112,-0.00000194,-0.00000070,-0.00000012,-0.00000217,-0.00000101,-0
 .00000057,-0.00000261\\\@


 A SLIP OF THE FOOT YOU MAY SOON RECOVER, BUT A SLIP OF THE TONGUE
 YOU MAY NEVER GET OVER. -- BEN FRANKLIN
 Job cpu time:       4 days 19 hours 20 minutes 12.7 seconds.
 Elapsed time:       0 days  3 hours 49 minutes 51.3 seconds.
 File lengths (MBytes):  RWF=   9741 Int=      0 D2E=      0 Chk=     86 Scr=      1
 Normal termination of Gaussian 16 at Wed May 22 21:02:33 2019.
